 Entering Gaussian System, Link 0=g09
 Input=input_batch_00800.com
 Output=input_batch_00800.log
 Initial command:
 /share/programs/GAUSSIAN/64/g09/l1.exe "/scratch/yannick.45709/Gau-1385890.inp" -scrdir="/scratch/yannick.45709/"
 Entering Link 1 = /share/programs/GAUSSIAN/64/g09/l1.exe PID=   1385900.
  
 Copyright (c) 1988,1990,1992,1993,1995,1998,2003,2009,2013,
            Gaussian, Inc.  All Rights Reserved.
  
 This is part of the Gaussian(R) 09 program.  It is based on
 the Gaussian(R) 03 system (copyright 2003, Gaussian, Inc.),
 the Gaussian(R) 98 system (copyright 1998, Gaussian, Inc.),
 the Gaussian(R) 94 system (copyright 1995, Gaussian, Inc.),
 the Gaussian 92(TM) system (copyright 1992, Gaussian, Inc.),
 the Gaussian 90(TM) system (copyright 1990, Gaussian, Inc.),
 the Gaussian 88(TM) system (copyright 1988, Gaussian, Inc.),
 the Gaussian 86(TM) system (copyright 1986, Carnegie Mellon
 University), and the Gaussian 82(TM) system (copyright 1983,
 Carnegie Mellon University). Gaussian is a federally registered
 trademark of Gaussian, Inc.
  
 This software contains proprietary and confidential information,
 including trade secrets, belonging to Gaussian, Inc.
  
 This software is provided under written license and may be
 used, copied, transmitted, or stored only in accord with that
 written license.
  
 The following legend is applicable only to US Government
 contracts under FAR:
  
                    RESTRICTED RIGHTS LEGEND
  
 Use, reproduction and disclosure by the US Government is
 subject to restrictions as set forth in subparagraphs (a)
 and (c) of the Commercial Computer Software - Restricted
 Rights clause in FAR 52.227-19.
  
 Gaussian, Inc.
 340 Quinnipiac St., Bldg. 40, Wallingford CT 06492
  
  
 ---------------------------------------------------------------
 Warning -- This program may not be used in any manner that
 competes with the business of Gaussian, Inc. or will provide
 assistance to any competitor of Gaussian, Inc.  The licensee
 of this program is prohibited from giving any competitor of
 Gaussian, Inc. access to this program.  By using this program,
 the user acknowledges that Gaussian, Inc. is engaged in the
 business of creating and licensing software in the field of
 computational chemistry and represents and warrants to the
 licensee that it is not a competitor of Gaussian, Inc. and that
 it will not use this program in any manner prohibited above.
 ---------------------------------------------------------------
  

 Cite this work as:
 Gaussian 09, Revision D.01,
 M. J. Frisch, G. W. Trucks, H. B. Schlegel, G. E. Scuseria, 
 M. A. Robb, J. R. Cheeseman, G. Scalmani, V. Barone, B. Mennucci, 
 G. A. Petersson, H. Nakatsuji, M. Caricato, X. Li, H. P. Hratchian, 
 A. F. Izmaylov, J. Bloino, G. Zheng, J. L. Sonnenberg, M. Hada, 
 M. Ehara, K. Toyota, R. Fukuda, J. Hasegawa, M. Ishida, T. Nakajima, 
 Y. Honda, O. Kitao, H. Nakai, T. Vreven, J. A. Montgomery, Jr., 
 J. E. Peralta, F. Ogliaro, M. Bearpark, J. J. Heyd, E. Brothers, 
 K. N. Kudin, V. N. Staroverov, T. Keith, R. Kobayashi, J. Normand, 
 K. Raghavachari, A. Rendell, J. C. Burant, S. S. Iyengar, J. Tomasi, 
 M. Cossi, N. Rega, J. M. Millam, M. Klene, J. E. Knox, J. B. Cross, 
 V. Bakken, C. Adamo, J. Jaramillo, R. Gomperts, R. E. Stratmann, 
 O. Yazyev, A. J. Austin, R. Cammi, C. Pomelli, J. W. Ochterski, 
 R. L. Martin, K. Morokuma, V. G. Zakrzewski, G. A. Voth, 
 P. Salvador, J. J. Dannenberg, S. Dapprich, A. D. Daniels, 
 O. Farkas, J. B. Foresman, J. V. Ortiz, J. Cioslowski, 
 and D. J. Fox, Gaussian, Inc., Wallingford CT, 2013.
 
 ******************************************
 Gaussian 09:  ES64L-G09RevD.01 24-Apr-2013
                25-Sep-2020 
 ******************************************
 %nproc=8
 Will use up to    8 processors via shared memory.
 %mem=1000MB
 ----------------------------------------
 # rb3lyp/6-311+g** NMR geom=connectivity
 ----------------------------------------
 1/38=1,57=2/1;
 2/12=2,17=6,18=5,40=1/2;
 3/5=4,6=6,7=111,11=2,16=1,25=1,30=1,74=-5,116=1/1,2,8,3;
 4//1;
 5/5=2,38=5/2;
 8/6=1,10=90,11=11/1;
 10/13=100,45=16/2;
 6/7=2,8=2,9=2,10=2,28=1/1;
 99/9=1/99;
 -----
 Title
 -----
 Symbolic Z-matrix:
 Charge =  0 Multiplicity = 1
 C                     2.45076  -0.71174   0. 
 C                     2.45076   0.71174   0. 
 C                     1.25139   1.41137   0. 
 C                     0.        0.72289   0. 
 C                    -1.25139   1.41137   0. 
 C                    -2.45076   0.71174   0. 
 C                    -2.45076  -0.71174   0. 
 C                    -1.25139  -1.41137   0. 
 C                     0.       -0.72289   0. 
 C                     1.25139  -1.41137   0. 
 H                     3.40873  -1.25791   0. 
 H                     3.40873   1.25791   0. 
 H                     1.24972   2.51472   0. 
 H                    -1.24972   2.51472   0. 
 H                    -3.40873   1.25791   0. 
 H                    -3.40873  -1.25791   0. 
 H                    -1.24972  -2.51472   0. 
 H                     1.24972  -2.51472   0. 
 Bq                   -0.70711  -0.72289   0.70711 
 Bq                   -0.69352  -0.91798  -0.69352 
 Bq                   -0.69352  -0.91798   0.69352 
 Bq                   -0.69352  -0.5278   -0.69352 
 Bq                   -0.69352  -0.5278    0.69352 
 Bq                   -0.55557  -0.72289  -0.83147 
 Bq                   -0.55557  -0.72289   0.83147 
 Bq                   -0.53806  -0.92165  -0.81914 
 Bq                   -0.53806  -0.92165   0.81914 
 Bq                   -0.53806  -0.52413  -0.81914 
 Bq                   -0.53806  -0.52413   0.81914 
 Bq                   -0.48187  -1.12751  -0.77723 
 Bq                   -0.48187  -1.12751   0.77723 
 Bq                   -0.48187  -0.31827  -0.77723 
 Bq                   -0.48187  -0.31827   0.77723 
 Bq                   -0.40825  -1.30024  -0.70711 
 Bq                   -0.40825  -1.30024   0.70711 
 Bq                   -0.40825  -0.14554  -0.70711 
 Bq                   -0.40825  -0.14554   0.70711 
 Bq                   -0.38268  -0.72289  -0.92388 
 Bq                   -0.38268  -0.72289   0.92388 
 Bq                   -0.34345  -0.93174  -0.91566 
 Bq                   -0.34345  -0.93174   0.91566 
 Bq                   -0.34345  -0.51404  -0.91566 
 Bq                   -0.34345  -0.51404   0.91566 
 Bq                   -0.28868  -1.13114  -0.86603 
 Bq                   -0.28868  -1.13114   0.86603 
 Bq                   -0.28868  -0.31464  -0.86603 
 Bq                   -0.28868  -0.31464   0.86603 
 Bq                   -0.28108  -1.68257   0. 
 Bq                   -0.2706   -1.64677  -0.2706 
 Bq                   -0.2706   -1.64677   0.2706 
 Bq                   -0.25882  -1.51157  -0.55768 
 Bq                   -0.25882  -1.51157   0.55768 
 Bq                   -0.19509  -0.72289  -0.98079 
 Bq                   -0.19509  -0.72289   0.98079 
 Bq                   -0.15076  -1.36249  -0.75378 
 Bq                   -0.15076  -1.36249   0.75378 
 Bq                   -0.15076  -0.08329  -0.75378 
 Bq                   -0.15076  -0.08329   0.75378 
 Bq                   -0.14943  -0.93421  -0.96593 
 Bq                   -0.14943  -0.93421   0.96593 
 Bq                   -0.14943  -0.51157  -0.96593 
 Bq                   -0.14943  -0.51157   0.96593 
 Bq                   -0.13843  -1.61321  -0.43378 
 Bq                   -0.13843  -1.61321   0.43378 
 Bq                   -0.13795  -1.70368  -0.13795 
 Bq                   -0.13795  -1.70368   0.13795 
 Bq                    0.       -1.72289   0. 
 Bq                    0.       -1.68257  -0.28108 
 Bq                    0.       -1.68257   0.28108 
 Bq                    0.       -1.53939  -0.57735 
 Bq                    0.       -1.53939   0.57735 
 Bq                    0.       -1.14929  -0.90453 
 Bq                    0.       -1.14929   0.90453 
 Bq                    0.       -0.72289  -1. 
 Bq                    0.       -0.72289   1. 
 Bq                    0.       -0.29649  -0.90453 
 Bq                    0.       -0.29649   0.90453 
 Bq                    0.13795  -1.70368  -0.13795 
 Bq                    0.13795  -1.70368   0.13795 
 Bq                    0.13843  -1.61321  -0.43378 
 Bq                    0.13843  -1.61321   0.43378 
 Bq                    0.14943  -0.93421  -0.96593 
 Bq                    0.14943  -0.93421   0.96593 
 Bq                    0.14943  -0.51157  -0.96593 
 Bq                    0.14943  -0.51157   0.96593 
 Bq                    0.15076  -1.36249  -0.75378 
 Bq                    0.15076  -1.36249   0.75378 
 Bq                    0.15076  -0.08329  -0.75378 
 Bq                    0.15076  -0.08329   0.75378 
 Bq                    0.19509  -0.72289  -0.98079 
 Bq                    0.19509  -0.72289   0.98079 
 Bq                    0.25882  -1.51157  -0.55768 
 Bq                    0.25882  -1.51157   0.55768 
 Bq                    0.2706   -1.64677  -0.2706 
 Bq                    0.2706   -1.64677   0.2706 
 Bq                    0.28108  -1.68257   0. 
 Bq                    0.28868  -1.13114  -0.86603 
 Bq                    0.28868  -1.13114   0.86603 
 Bq                    0.28868  -0.31464  -0.86603 
 Bq                    0.28868  -0.31464   0.86603 
 Bq                    0.34345  -0.93174  -0.91566 
 Bq                    0.34345  -0.93174   0.91566 
 Bq                    0.34345  -0.51404  -0.91566 
 Bq                    0.34345  -0.51404   0.91566 
 Bq                    0.38268  -0.72289  -0.92388 
 Bq                    0.38268  -0.72289   0.92388 
 Bq                    0.40825  -1.30024  -0.70711 
 Bq                    0.40825  -1.30024   0.70711 
 Bq                    0.40825  -0.14554  -0.70711 
 Bq                    0.40825  -0.14554   0.70711 
 Bq                    0.48187  -1.12751  -0.77723 
 Bq                    0.48187  -1.12751   0.77723 
 Bq                    0.48187  -0.31827  -0.77723 
 Bq                    0.48187  -0.31827   0.77723 
 Bq                    0.53806  -0.92165  -0.81914 
 Bq                    0.53806  -0.92165   0.81914 
 Bq                    0.53806  -0.52413  -0.81914 
 Bq                    0.53806  -0.52413   0.81914 
 Bq                    0.55557  -0.72289  -0.83147 
 Bq                    0.55557  -0.72289   0.83147 
 Bq                    0.69352  -0.91798  -0.69352 
 Bq                    0.69352  -0.91798   0.69352 
 Bq                    0.69352  -0.5278   -0.69352 
 Bq                    0.69352  -0.5278    0.69352 
 Bq                    0.70711  -0.72289  -0.70711 
 Bq                    0.70711  -0.72289   0.70711 
 Bq                    0.33573  -1.62022  -0.34345 
 Bq                    0.33573  -1.62022   0.34345 
 Bq                    0.34686  -1.83777   0. 
 Bq                    0.38536  -1.81962  -0.28868 
 Bq                    0.38536  -1.81962   0.28868 
 Bq                    0.43225  -1.61013  -0.53806 
 Bq                    0.43225  -1.61013   0.53806 
 Bq                    0.47416  -1.81599  -0.48187 
 Bq                    0.47416  -1.81599   0.48187 
 Bq                    0.54428  -1.41137  -0.70711 
 Bq                    0.54428  -1.41137   0.70711 
 Bq                    0.55787  -1.60646  -0.69352 
 Bq                    0.55787  -1.60646   0.69352 
 Bq                    0.55787  -1.21628  -0.69352 
 Bq                    0.55787  -1.21628   0.69352 
 Bq                    0.59811  -1.79405  -0.65328 
 Bq                    0.59811  -1.79405   0.65328 
 Bq                    0.69582  -1.41137  -0.83147 
 Bq                    0.69582  -1.41137   0.83147 
 Bq                    0.71333  -1.61013  -0.81914 
 Bq                    0.71333  -1.61013   0.81914 
 Bq                    0.71333  -1.21261  -0.81914 
 Bq                    0.71333  -1.21261   0.81914 
 Bq                    0.76952  -1.81599  -0.77723 
 Bq                    0.76952  -1.81599   0.77723 
 Bq                    0.76952  -1.00675  -0.77723 
 Bq                    0.76952  -1.00675   0.77723 
 Bq                    0.84314  -0.83402  -0.70711 
 Bq                    0.84314  -0.83402   0.70711 
 Bq                    0.86871  -1.41137  -0.92388 
 Bq                    0.86871  -1.41137   0.92388 
 Bq                    0.90794  -1.62022  -0.91566 
 Bq                    0.90794  -1.62022   0.91566 
 Bq                    0.90794  -1.20252  -0.91566 
 Bq                    0.90794  -1.20252   0.91566 
 Bq                    0.96271  -1.81962  -0.86603 
 Bq                    0.96271  -1.81962   0.86603 
 Bq                    0.96271  -1.00312  -0.86603 
 Bq                    0.96271  -1.00312   0.86603 
 Bq                    1.0563   -1.41137  -0.98079 
 Bq                    1.0563   -1.41137   0.98079 
 Bq                    1.10063  -0.77177  -0.75378 
 Bq                    1.10063  -0.77177   0.75378 
 Bq                    1.10196  -1.62269  -0.96593 
 Bq                    1.10196  -1.62269   0.96593 
 Bq                    1.10196  -1.20005  -0.96593 
 Bq                    1.10196  -1.20005   0.96593 
 Bq                    1.25139  -1.83777  -0.90453 
 Bq                    1.25139  -1.83777   0.90453 
 Bq                    1.25139  -1.41137  -1. 
 Bq                    1.25139  -1.41137   1. 
 Bq                    1.25139  -0.98497  -0.90453 
 Bq                    1.25139  -0.98497   0.90453 
 Bq                    1.40082  -1.62269  -0.96593 
 Bq                    1.40082  -1.62269   0.96593 
 Bq                    1.40082  -1.20005  -0.96593 
 Bq                    1.40082  -1.20005   0.96593 
 Bq                    1.40215  -0.77177  -0.75378 
 Bq                    1.40215  -0.77177   0.75378 
 Bq                    1.44648  -1.41137  -0.98079 
 Bq                    1.44648  -1.41137   0.98079 
 Bq                    1.54007  -1.81962  -0.86603 
 Bq                    1.54007  -1.81962   0.86603 
 Bq                    1.54007  -1.00312  -0.86603 
 Bq                    1.54007  -1.00312   0.86603 
 Bq                    1.59484  -1.62022  -0.91566 
 Bq                    1.59484  -1.62022   0.91566 
 Bq                    1.59484  -1.20252  -0.91566 
 Bq                    1.59484  -1.20252   0.91566 
 Bq                    1.63407  -1.41137  -0.92388 
 Bq                    1.63407  -1.41137   0.92388 
 Bq                    1.65964  -0.83402  -0.70711 
 Bq                    1.65964  -0.83402   0.70711 
 Bq                    1.73326  -1.81599  -0.77723 
 Bq                    1.73326  -1.81599   0.77723 
 Bq                    1.73326  -1.00675  -0.77723 
 Bq                    1.73326  -1.00675   0.77723 
 Bq                    1.78945  -1.61013  -0.81914 
 Bq                    1.78945  -1.61013   0.81914 
 Bq                    1.78945  -1.21261  -0.81914 
 Bq                    1.78945  -1.21261   0.81914 
 Bq                    1.80696  -1.41137  -0.83147 
 Bq                    1.80696  -1.41137   0.83147 
 Bq                    1.90467  -1.79405  -0.65328 
 Bq                    1.90467  -1.79405   0.65328 
 Bq                    1.94491  -1.60646  -0.69352 
 Bq                    1.94491  -1.60646   0.69352 
 Bq                    1.9585   -1.41137  -0.70711 
 Bq                    1.9585   -1.41137   0.70711 
 Bq                    2.02862  -1.81599  -0.48187 
 Bq                    2.02862  -1.81599   0.48187 
 Bq                    2.07053  -1.61013  -0.53806 
 
 Symmetry turned off:
 Cannot cope with ghost atoms or with translation vectors.
 Stoichiometry    C10H8
 Framework group  C1[X(C10H8)]
 NUMDOF-- NAT=    18 NAtoms=   218
 Deg. of freedom     0
 Full point group                 C1      NOp   1
                          Input orientation:                          
 ---------------------------------------------------------------------
 Center     Atomic      Atomic             Coordinates (Angstroms)
 Number     Number       Type             X           Y           Z
 ---------------------------------------------------------------------
      1          6           0        2.450760   -0.711740    0.000000
      2          6           0        2.450760    0.711740    0.000000
      3          6           0        1.251390    1.411370    0.000000
      4          6           0        0.000000    0.722890    0.000000
      5          6           0       -1.251390    1.411370    0.000000
      6          6           0       -2.450760    0.711740    0.000000
      7          6           0       -2.450760   -0.711740    0.000000
      8          6           0       -1.251390   -1.411370    0.000000
      9          6           0        0.000000   -0.722890    0.000000
     10          6           0        1.251390   -1.411370    0.000000
     11          1           0        3.408730   -1.257910    0.000000
     12          1           0        3.408730    1.257910    0.000000
     13          1           0        1.249720    2.514720    0.000000
     14          1           0       -1.249720    2.514720    0.000000
     15          1           0       -3.408730    1.257910    0.000000
     16          1           0       -3.408730   -1.257910    0.000000
     17          1           0       -1.249720   -2.514720    0.000000
     18          1           0        1.249720   -2.514720    0.000000
     19          0           0       -0.707107   -0.722890    0.707107
     20          0           0       -0.693520   -0.917980   -0.693520
     21          0           0       -0.693520   -0.917980    0.693520
     22          0           0       -0.693520   -0.527800   -0.693520
     23          0           0       -0.693520   -0.527800    0.693520
     24          0           0       -0.555570   -0.722890   -0.831470
     25          0           0       -0.555570   -0.722890    0.831470
     26          0           0       -0.538056   -0.921647   -0.819141
     27          0           0       -0.538056   -0.921647    0.819141
     28          0           0       -0.538056   -0.524133   -0.819141
     29          0           0       -0.538056   -0.524133    0.819141
     30          0           0       -0.481874   -1.127505   -0.777228
     31          0           0       -0.481874   -1.127505    0.777228
     32          0           0       -0.481874   -0.318275   -0.777228
     33          0           0       -0.481874   -0.318275    0.777228
     34          0           0       -0.408248   -1.300240   -0.707107
     35          0           0       -0.408248   -1.300240    0.707107
     36          0           0       -0.408248   -0.145540   -0.707107
     37          0           0       -0.408248   -0.145540    0.707107
     38          0           0       -0.382683   -0.722890   -0.923880
     39          0           0       -0.382683   -0.722890    0.923880
     40          0           0       -0.343445   -0.931737   -0.915657
     41          0           0       -0.343445   -0.931737    0.915657
     42          0           0       -0.343445   -0.514043   -0.915657
     43          0           0       -0.343445   -0.514043    0.915657
     44          0           0       -0.288675   -1.131138   -0.866025
     45          0           0       -0.288675   -1.131138    0.866025
     46          0           0       -0.288675   -0.314642   -0.866025
     47          0           0       -0.288675   -0.314642    0.866025
     48          0           0       -0.281085   -1.682573    0.000000
     49          0           0       -0.270598   -1.646770   -0.270598
     50          0           0       -0.270598   -1.646770    0.270598
     51          0           0       -0.258819   -1.511565   -0.557678
     52          0           0       -0.258819   -1.511565    0.557678
     53          0           0       -0.195090   -0.722890   -0.980785
     54          0           0       -0.195090   -0.722890    0.980785
     55          0           0       -0.150756   -1.362492   -0.753778
     56          0           0       -0.150756   -1.362492    0.753778
     57          0           0       -0.150756   -0.083288   -0.753778
     58          0           0       -0.150756   -0.083288    0.753778
     59          0           0       -0.149429   -0.934215   -0.965926
     60          0           0       -0.149429   -0.934215    0.965926
     61          0           0       -0.149429   -0.511565   -0.965926
     62          0           0       -0.149429   -0.511565    0.965926
     63          0           0       -0.138429   -1.613210   -0.433783
     64          0           0       -0.138429   -1.613210    0.433783
     65          0           0       -0.137950   -1.703675   -0.137950
     66          0           0       -0.137950   -1.703675    0.137950
     67          0           0        0.000000   -1.722890    0.000000
     68          0           0        0.000000   -1.682573   -0.281085
     69          0           0        0.000000   -1.682573    0.281085
     70          0           0        0.000000   -1.539387   -0.577350
     71          0           0        0.000000   -1.539387    0.577350
     72          0           0        0.000000   -1.149291   -0.904534
     73          0           0        0.000000   -1.149291    0.904534
     74          0           0        0.000000   -0.722890   -1.000000
     75          0           0        0.000000   -0.722890    1.000000
     76          0           0        0.000000   -0.296489   -0.904534
     77          0           0        0.000000   -0.296489    0.904534
     78          0           0        0.137950   -1.703675   -0.137950
     79          0           0        0.137950   -1.703675    0.137950
     80          0           0        0.138429   -1.613210   -0.433783
     81          0           0        0.138429   -1.613210    0.433783
     82          0           0        0.149429   -0.934215   -0.965926
     83          0           0        0.149429   -0.934215    0.965926
     84          0           0        0.149429   -0.511565   -0.965926
     85          0           0        0.149429   -0.511565    0.965926
     86          0           0        0.150756   -1.362492   -0.753778
     87          0           0        0.150756   -1.362492    0.753778
     88          0           0        0.150756   -0.083288   -0.753778
     89          0           0        0.150756   -0.083288    0.753778
     90          0           0        0.195090   -0.722890   -0.980785
     91          0           0        0.195090   -0.722890    0.980785
     92          0           0        0.258819   -1.511565   -0.557678
     93          0           0        0.258819   -1.511565    0.557678
     94          0           0        0.270598   -1.646770   -0.270598
     95          0           0        0.270598   -1.646770    0.270598
     96          0           0        0.281085   -1.682573    0.000000
     97          0           0        0.288675   -1.131138   -0.866025
     98          0           0        0.288675   -1.131138    0.866025
     99          0           0        0.288675   -0.314642   -0.866025
    100          0           0        0.288675   -0.314642    0.866025
    101          0           0        0.343445   -0.931737   -0.915657
    102          0           0        0.343445   -0.931737    0.915657
    103          0           0        0.343445   -0.514043   -0.915657
    104          0           0        0.343445   -0.514043    0.915657
    105          0           0        0.382683   -0.722890   -0.923880
    106          0           0        0.382683   -0.722890    0.923880
    107          0           0        0.408248   -1.300240   -0.707107
    108          0           0        0.408248   -1.300240    0.707107
    109          0           0        0.408248   -0.145540   -0.707107
    110          0           0        0.408248   -0.145540    0.707107
    111          0           0        0.481874   -1.127505   -0.777228
    112          0           0        0.481874   -1.127505    0.777228
    113          0           0        0.481874   -0.318275   -0.777228
    114          0           0        0.481874   -0.318275    0.777228
    115          0           0        0.538056   -0.921647   -0.819141
    116          0           0        0.538056   -0.921647    0.819141
    117          0           0        0.538056   -0.524133   -0.819141
    118          0           0        0.538056   -0.524133    0.819141
    119          0           0        0.555570   -0.722890   -0.831470
    120          0           0        0.555570   -0.722890    0.831470
    121          0           0        0.693520   -0.917980   -0.693520
    122          0           0        0.693520   -0.917980    0.693520
    123          0           0        0.693520   -0.527800   -0.693520
    124          0           0        0.693520   -0.527800    0.693520
    125          0           0        0.707107   -0.722890   -0.707107
    126          0           0        0.707107   -0.722890    0.707107
    127          0           0        0.335733   -1.620217   -0.343445
    128          0           0        0.335733   -1.620217    0.343445
    129          0           0        0.346856   -1.837771    0.000000
    130          0           0        0.385365   -1.819618   -0.288675
    131          0           0        0.385365   -1.819618    0.288675
    132          0           0        0.432249   -1.610127   -0.538056
    133          0           0        0.432249   -1.610127    0.538056
    134          0           0        0.474162   -1.815985   -0.481874
    135          0           0        0.474162   -1.815985    0.481874
    136          0           0        0.544283   -1.411370   -0.707107
    137          0           0        0.544283   -1.411370    0.707107
    138          0           0        0.557870   -1.606460   -0.693520
    139          0           0        0.557870   -1.606460    0.693520
    140          0           0        0.557870   -1.216280   -0.693520
    141          0           0        0.557870   -1.216280    0.693520
    142          0           0        0.598109   -1.794053   -0.653281
    143          0           0        0.598109   -1.794053    0.653281
    144          0           0        0.695820   -1.411370   -0.831470
    145          0           0        0.695820   -1.411370    0.831470
    146          0           0        0.713334   -1.610127   -0.819141
    147          0           0        0.713334   -1.610127    0.819141
    148          0           0        0.713334   -1.212613   -0.819141
    149          0           0        0.713334   -1.212613    0.819141
    150          0           0        0.769516   -1.815985   -0.777228
    151          0           0        0.769516   -1.815985    0.777228
    152          0           0        0.769516   -1.006755   -0.777228
    153          0           0        0.769516   -1.006755    0.777228
    154          0           0        0.843142   -0.834020   -0.707107
    155          0           0        0.843142   -0.834020    0.707107
    156          0           0        0.868707   -1.411370   -0.923880
    157          0           0        0.868707   -1.411370    0.923880
    158          0           0        0.907945   -1.620217   -0.915657
    159          0           0        0.907945   -1.620217    0.915657
    160          0           0        0.907945   -1.202523   -0.915657
    161          0           0        0.907945   -1.202523    0.915657
    162          0           0        0.962715   -1.819618   -0.866025
    163          0           0        0.962715   -1.819618    0.866025
    164          0           0        0.962715   -1.003122   -0.866025
    165          0           0        0.962715   -1.003122    0.866025
    166          0           0        1.056300   -1.411370   -0.980785
    167          0           0        1.056300   -1.411370    0.980785
    168          0           0        1.100634   -0.771768   -0.753778
    169          0           0        1.100634   -0.771768    0.753778
    170          0           0        1.101961   -1.622695   -0.965926
    171          0           0        1.101961   -1.622695    0.965926
    172          0           0        1.101961   -1.200045   -0.965926
    173          0           0        1.101961   -1.200045    0.965926
    174          0           0        1.251390   -1.837771   -0.904534
    175          0           0        1.251390   -1.837771    0.904534
    176          0           0        1.251390   -1.411370   -1.000000
    177          0           0        1.251390   -1.411370    1.000000
    178          0           0        1.251390   -0.984969   -0.904534
    179          0           0        1.251390   -0.984969    0.904534
    180          0           0        1.400819   -1.622695   -0.965926
    181          0           0        1.400819   -1.622695    0.965926
    182          0           0        1.400819   -1.200045   -0.965926
    183          0           0        1.400819   -1.200045    0.965926
    184          0           0        1.402146   -0.771768   -0.753778
    185          0           0        1.402146   -0.771768    0.753778
    186          0           0        1.446480   -1.411370   -0.980785
    187          0           0        1.446480   -1.411370    0.980785
    188          0           0        1.540065   -1.819618   -0.866025
    189          0           0        1.540065   -1.819618    0.866025
    190          0           0        1.540065   -1.003122   -0.866025
    191          0           0        1.540065   -1.003122    0.866025
    192          0           0        1.594835   -1.620217   -0.915657
    193          0           0        1.594835   -1.620217    0.915657
    194          0           0        1.594835   -1.202523   -0.915657
    195          0           0        1.594835   -1.202523    0.915657
    196          0           0        1.634073   -1.411370   -0.923880
    197          0           0        1.634073   -1.411370    0.923880
    198          0           0        1.659638   -0.834020   -0.707107
    199          0           0        1.659638   -0.834020    0.707107
    200          0           0        1.733264   -1.815985   -0.777228
    201          0           0        1.733264   -1.815985    0.777228
    202          0           0        1.733264   -1.006755   -0.777228
    203          0           0        1.733264   -1.006755    0.777228
    204          0           0        1.789446   -1.610127   -0.819141
    205          0           0        1.789446   -1.610127    0.819141
    206          0           0        1.789446   -1.212613   -0.819141
    207          0           0        1.789446   -1.212613    0.819141
    208          0           0        1.806960   -1.411370   -0.831470
    209          0           0        1.806960   -1.411370    0.831470
    210          0           0        1.904671   -1.794053   -0.653281
    211          0           0        1.904671   -1.794053    0.653281
    212          0           0        1.944910   -1.606460   -0.693520
    213          0           0        1.944910   -1.606460    0.693520
    214          0           0        1.958497   -1.411370   -0.707107
    215          0           0        1.958497   -1.411370    0.707107
    216          0           0        2.028618   -1.815985   -0.481874
    217          0           0        2.028618   -1.815985    0.481874
    218          0           0        2.070531   -1.610127   -0.538056
 ---------------------------------------------------------------------
 Rotational constants (GHZ):      3.0751358      1.2130944      0.8699230
 Standard basis: 6-311+G(d,p) (5D, 7F)
 Warning:  center  19 has no basis functions!
 Warning:  center  20 has no basis functions!
 Warning:  center  21 has no basis functions!
 Warning:  center  22 has no basis functions!
 Warning:  center  23 has no basis functions!
 Warning:  center  24 has no basis functions!
 Warning:  center  25 has no basis functions!
 Warning:  center  26 has no basis functions!
 Warning:  center  27 has no basis functions!
 Warning:  center  28 has no basis functions!
 Warning:  center  29 has no basis functions!
 Warning:  center  30 has no basis functions!
 Warning:  center  31 has no basis functions!
 Warning:  center  32 has no basis functions!
 Warning:  center  33 has no basis functions!
 Warning:  center  34 has no basis functions!
 Warning:  center  35 has no basis functions!
 Warning:  center  36 has no basis functions!
 Warning:  center  37 has no basis functions!
 Warning:  center  38 has no basis functions!
 Warning:  center  39 has no basis functions!
 Warning:  center  40 has no basis functions!
 Warning:  center  41 has no basis functions!
 Warning:  center  42 has no basis functions!
 Warning:  center  43 has no basis functions!
 Warning:  center  44 has no basis functions!
 Warning:  center  45 has no basis functions!
 Warning:  center  46 has no basis functions!
 Warning:  center  47 has no basis functions!
 Warning:  center  48 has no basis functions!
 Warning:  center  49 has no basis functions!
 Warning:  center  50 has no basis functions!
 Warning:  center  51 has no basis functions!
 Warning:  center  52 has no basis functions!
 Warning:  center  53 has no basis functions!
 Warning:  center  54 has no basis functions!
 Warning:  center  55 has no basis functions!
 Warning:  center  56 has no basis functions!
 Warning:  center  57 has no basis functions!
 Warning:  center  58 has no basis functions!
 Warning:  center  59 has no basis functions!
 Warning:  center  60 has no basis functions!
 Warning:  center  61 has no basis functions!
 Warning:  center  62 has no basis functions!
 Warning:  center  63 has no basis functions!
 Warning:  center  64 has no basis functions!
 Warning:  center  65 has no basis functions!
 Warning:  center  66 has no basis functions!
 Warning:  center  67 has no basis functions!
 Warning:  center  68 has no basis functions!
 Warning:  center  69 has no basis functions!
 Warning:  center  70 has no basis functions!
 Warning:  center  71 has no basis functions!
 Warning:  center  72 has no basis functions!
 Warning:  center  73 has no basis functions!
 Warning:  center  74 has no basis functions!
 Warning:  center  75 has no basis functions!
 Warning:  center  76 has no basis functions!
 Warning:  center  77 has no basis functions!
 Warning:  center  78 has no basis functions!
 Warning:  center  79 has no basis functions!
 Warning:  center  80 has no basis functions!
 Warning:  center  81 has no basis functions!
 Warning:  center  82 has no basis functions!
 Warning:  center  83 has no basis functions!
 Warning:  center  84 has no basis functions!
 Warning:  center  85 has no basis functions!
 Warning:  center  86 has no basis functions!
 Warning:  center  87 has no basis functions!
 Warning:  center  88 has no basis functions!
 Warning:  center  89 has no basis functions!
 Warning:  center  90 has no basis functions!
 Warning:  center  91 has no basis functions!
 Warning:  center  92 has no basis functions!
 Warning:  center  93 has no basis functions!
 Warning:  center  94 has no basis functions!
 Warning:  center  95 has no basis functions!
 Warning:  center  96 has no basis functions!
 Warning:  center  97 has no basis functions!
 Warning:  center  98 has no basis functions!
 Warning:  center  99 has no basis functions!
 Warning:  center 100 has no basis functions!
 Warning:  center 101 has no basis functions!
 Warning:  center 102 has no basis functions!
 Warning:  center 103 has no basis functions!
 Warning:  center 104 has no basis functions!
 Warning:  center 105 has no basis functions!
 Warning:  center 106 has no basis functions!
 Warning:  center 107 has no basis functions!
 Warning:  center 108 has no basis functions!
 Warning:  center 109 has no basis functions!
 Warning:  center 110 has no basis functions!
 Warning:  center 111 has no basis functions!
 Warning:  center 112 has no basis functions!
 Warning:  center 113 has no basis functions!
 Warning:  center 114 has no basis functions!
 Warning:  center 115 has no basis functions!
 Warning:  center 116 has no basis functions!
 Warning:  center 117 has no basis functions!
 Warning:  center 118 has no basis functions!
 Warning:  center 119 has no basis functions!
 Warning:  center 120 has no basis functions!
 Warning:  center 121 has no basis functions!
 Warning:  center 122 has no basis functions!
 Warning:  center 123 has no basis functions!
 Warning:  center 124 has no basis functions!
 Warning:  center 125 has no basis functions!
 Warning:  center 126 has no basis functions!
 Warning:  center 127 has no basis functions!
 Warning:  center 128 has no basis functions!
 Warning:  center 129 has no basis functions!
 Warning:  center 130 has no basis functions!
 Warning:  center 131 has no basis functions!
 Warning:  center 132 has no basis functions!
 Warning:  center 133 has no basis functions!
 Warning:  center 134 has no basis functions!
 Warning:  center 135 has no basis functions!
 Warning:  center 136 has no basis functions!
 Warning:  center 137 has no basis functions!
 Warning:  center 138 has no basis functions!
 Warning:  center 139 has no basis functions!
 Warning:  center 140 has no basis functions!
 Warning:  center 141 has no basis functions!
 Warning:  center 142 has no basis functions!
 Warning:  center 143 has no basis functions!
 Warning:  center 144 has no basis functions!
 Warning:  center 145 has no basis functions!
 Warning:  center 146 has no basis functions!
 Warning:  center 147 has no basis functions!
 Warning:  center 148 has no basis functions!
 Warning:  center 149 has no basis functions!
 Warning:  center 150 has no basis functions!
 Warning:  center 151 has no basis functions!
 Warning:  center 152 has no basis functions!
 Warning:  center 153 has no basis functions!
 Warning:  center 154 has no basis functions!
 Warning:  center 155 has no basis functions!
 Warning:  center 156 has no basis functions!
 Warning:  center 157 has no basis functions!
 Warning:  center 158 has no basis functions!
 Warning:  center 159 has no basis functions!
 Warning:  center 160 has no basis functions!
 Warning:  center 161 has no basis functions!
 Warning:  center 162 has no basis functions!
 Warning:  center 163 has no basis functions!
 Warning:  center 164 has no basis functions!
 Warning:  center 165 has no basis functions!
 Warning:  center 166 has no basis functions!
 Warning:  center 167 has no basis functions!
 Warning:  center 168 has no basis functions!
 Warning:  center 169 has no basis functions!
 Warning:  center 170 has no basis functions!
 Warning:  center 171 has no basis functions!
 Warning:  center 172 has no basis functions!
 Warning:  center 173 has no basis functions!
 Warning:  center 174 has no basis functions!
 Warning:  center 175 has no basis functions!
 Warning:  center 176 has no basis functions!
 Warning:  center 177 has no basis functions!
 Warning:  center 178 has no basis functions!
 Warning:  center 179 has no basis functions!
 Warning:  center 180 has no basis functions!
 Warning:  center 181 has no basis functions!
 Warning:  center 182 has no basis functions!
 Warning:  center 183 has no basis functions!
 Warning:  center 184 has no basis functions!
 Warning:  center 185 has no basis functions!
 Warning:  center 186 has no basis functions!
 Warning:  center 187 has no basis functions!
 Warning:  center 188 has no basis functions!
 Warning:  center 189 has no basis functions!
 Warning:  center 190 has no basis functions!
 Warning:  center 191 has no basis functions!
 Warning:  center 192 has no basis functions!
 Warning:  center 193 has no basis functions!
 Warning:  center 194 has no basis functions!
 Warning:  center 195 has no basis functions!
 Warning:  center 196 has no basis functions!
 Warning:  center 197 has no basis functions!
 Warning:  center 198 has no basis functions!
 Warning:  center 199 has no basis functions!
 Warning:  center 200 has no basis functions!
 Warning:  center 201 has no basis functions!
 Warning:  center 202 has no basis functions!
 Warning:  center 203 has no basis functions!
 Warning:  center 204 has no basis functions!
 Warning:  center 205 has no basis functions!
 Warning:  center 206 has no basis functions!
 Warning:  center 207 has no basis functions!
 Warning:  center 208 has no basis functions!
 Warning:  center 209 has no basis functions!
 Warning:  center 210 has no basis functions!
 Warning:  center 211 has no basis functions!
 Warning:  center 212 has no basis functions!
 Warning:  center 213 has no basis functions!
 Warning:  center 214 has no basis functions!
 Warning:  center 215 has no basis functions!
 Warning:  center 216 has no basis functions!
 Warning:  center 217 has no basis functions!
 Warning:  center 218 has no basis functions!
   268 basis functions,   424 primitive gaussians,   278 cartesian basis functions
    34 alpha electrons       34 beta electrons
       nuclear repulsion energy       453.8675371600 Hartrees.
 NAtoms=  218 NActive=  218 NUniq=  218 SFac= 1.00D+00 NAtFMM=   60 NAOKFM=T Big=T
 Integral buffers will be    131072 words long.
 Raffenetti 2 integral format.
 Two-electron integral symmetry is turned off.
 One-electron integrals computed using PRISM.
 NBasis=   268 RedAO= T EigKep=  1.12D-06  NBF=   268
 NBsUse=   267 1.00D-06 EigRej=  6.14D-07 NBFU=   267
 ExpMin= 4.38D-02 ExpMax= 4.56D+03 ExpMxC= 6.82D+02 IAcc=2 IRadAn=         4 AccDes= 0.00D+00
 Harris functional with IExCor=  402 and IRadAn=       4 diagonalized for initial guess.
 HarFok:  IExCor=  402 AccDes= 0.00D+00 IRadAn=         4 IDoV= 1 UseB2=F ITyADJ=14
 ICtDFT=  3500011 ScaDFX=  1.000000  1.000000  1.000000  1.000000
 FoFCou: FMM=F IPFlag=           0 FMFlag=      100000 FMFlg1=        2001
         NFxFlg=           0 DoJE=T BraDBF=F KetDBF=T FulRan=T
         wScrn=  0.000000 ICntrl=     500 IOpCl=  0 I1Cent=   200000004 NGrid=           0
         NMat0=    1 NMatS0=      1 NMatT0=    0 NMatD0=    1 NMtDS0=    0 NMtDT0=    0
 Symmetry not used in FoFCou.
 Requested convergence on RMS density matrix=1.00D-08 within 128 cycles.
 Requested convergence on MAX density matrix=1.00D-06.
 Requested convergence on             energy=1.00D-06.
 No special actions if energy rises.
 SCF Done:  E(RB3LYP) =  -385.985931946     A.U. after   11 cycles
            NFock= 11  Conv=0.79D-08     -V/T= 2.0059
 DoSCS=F DFT=T ScalE2(SS,OS)=  1.000000  1.000000
 Range of M.O.s used for correlation:     1   267
 NBasis=   268 NAE=    34 NBE=    34 NFC=     0 NFV=     0
 NROrb=    267 NOA=    34 NOB=    34 NVA=   233 NVB=   233

 **** Warning!!: The largest alpha MO coefficient is  0.20992189D+03

          Differentiating once with respect to magnetic field using GIAOs.
          Electric field/nuclear overlap derivatives assumed to be zero.
 FoFCou: FMM=F IPFlag=           0 FMFlag=      100000 FMFlg1=        2001
         NFxFlg=           0 DoJE=F BraDBF=F KetDBF=T FulRan=T
         wScrn=  0.000000 ICntrl=    6100 IOpCl=  0 I1Cent=           7 NGrid=         218
         NMat0=    1 NMatS0=      1 NMatT0=    0 NMatD0=    1 NMtDS0=    0 NMtDT0=    0
 Symmetry not used in FoFCou.
 FoFJK:  IHMeth= 1 ICntrl=    6127 DoSepK=F KAlg= 0 I1Cent=   0 FoldK=F
 IRaf=         1 NMat=   1 IRICut=       1 DoRegI=T DoRafI=F ISym2E= 0.
          There are     3 degrees of freedom in the 1st order CPHF.  IDoFFX=0 NUNeed=     3.
      3 vectors produced by pass  0 Test12= 2.64D-13 3.33D-08 XBig12= 1.44D+02 6.48D+00.
 AX will form     3 AO Fock derivatives at one time.
      3 vectors produced by pass  1 Test12= 2.64D-13 3.33D-08 XBig12= 2.28D-01 1.79D-01.
      3 vectors produced by pass  2 Test12= 2.64D-13 3.33D-08 XBig12= 7.58D-04 1.41D-02.
      3 vectors produced by pass  3 Test12= 2.64D-13 3.33D-08 XBig12= 2.19D-06 6.12D-04.
      3 vectors produced by pass  4 Test12= 2.64D-13 3.33D-08 XBig12= 2.99D-09 2.39D-05.
      3 vectors produced by pass  5 Test12= 2.64D-13 3.33D-08 XBig12= 6.15D-12 9.51D-07.
      1 vectors produced by pass  6 Test12= 2.64D-13 3.33D-08 XBig12= 9.29D-15 3.79D-08.
 InvSVY:  IOpt=1 It=  1 EMax= 1.78D-15
 Solved reduced A of dimension    19 with     3 vectors.
 Calculating GIAO nuclear magnetic shielding tensors.
 SCF GIAO Magnetic shielding tensor (ppm):
      1  C    Isotropic =    48.8814   Anisotropy =   178.3631
   XX=   -26.3877   YX=    47.3635   ZX=     0.0000
   XY=    49.5434   YY=     5.2417   ZY=     0.0000
   XZ=     0.0000   YZ=     0.0000   ZZ=   167.7901
   Eigenvalues:   -61.5420    40.3960   167.7901
      2  C    Isotropic =    48.8814   Anisotropy =   178.3631
   XX=   -26.3877   YX=   -47.3635   ZX=     0.0000
   XY=   -49.5434   YY=     5.2417   ZY=     0.0000
   XZ=     0.0000   YZ=     0.0000   ZZ=   167.7901
   Eigenvalues:   -61.5420    40.3960   167.7901
      3  C    Isotropic =    47.0315   Anisotropy =   159.6105
   XX=    39.7012   YX=   -14.9645   ZX=     0.0000
   XY=   -12.8373   YY=   -52.0452   ZY=     0.0000
   XZ=     0.0000   YZ=     0.0000   ZZ=   153.4385
   Eigenvalues:   -54.1051    41.7611   153.4385
      4  C    Isotropic =    40.3220   Anisotropy =   214.7654
   XX=   -33.3511   YX=     0.0000   ZX=     0.0000
   XY=     0.0000   YY=   -29.1819   ZY=     0.0000
   XZ=     0.0000   YZ=     0.0000   ZZ=   183.4989
   Eigenvalues:   -33.3511   -29.1819   183.4989
      5  C    Isotropic =    47.0315   Anisotropy =   159.6105
   XX=    39.7012   YX=    14.9645   ZX=     0.0000
   XY=    12.8373   YY=   -52.0452   ZY=     0.0000
   XZ=     0.0000   YZ=     0.0000   ZZ=   153.4385
   Eigenvalues:   -54.1051    41.7611   153.4385
      6  C    Isotropic =    48.8814   Anisotropy =   178.3631
   XX=   -26.3877   YX=    47.3635   ZX=     0.0000
   XY=    49.5434   YY=     5.2417   ZY=     0.0000
   XZ=     0.0000   YZ=     0.0000   ZZ=   167.7901
   Eigenvalues:   -61.5420    40.3960   167.7901
      7  C    Isotropic =    48.8814   Anisotropy =   178.3631
   XX=   -26.3877   YX=   -47.3635   ZX=     0.0000
   XY=   -49.5434   YY=     5.2417   ZY=     0.0000
   XZ=     0.0000   YZ=     0.0000   ZZ=   167.7901
   Eigenvalues:   -61.5420    40.3960   167.7901
      8  C    Isotropic =    47.0315   Anisotropy =   159.6105
   XX=    39.7012   YX=   -14.9645   ZX=     0.0000
   XY=   -12.8373   YY=   -52.0452   ZY=     0.0000
   XZ=     0.0000   YZ=     0.0000   ZZ=   153.4385
   Eigenvalues:   -54.1051    41.7611   153.4385
      9  C    Isotropic =    40.3220   Anisotropy =   214.7654
   XX=   -33.3511   YX=     0.0000   ZX=     0.0000
   XY=     0.0000   YY=   -29.1819   ZY=     0.0000
   XZ=     0.0000   YZ=     0.0000   ZZ=   183.4989
   Eigenvalues:   -33.3511   -29.1819   183.4989
     10  C    Isotropic =    47.0315   Anisotropy =   159.6105
   XX=    39.7012   YX=    14.9645   ZX=     0.0000
   XY=    12.8373   YY=   -52.0452   ZY=     0.0000
   XZ=     0.0000   YZ=     0.0000   ZZ=   153.4385
   Eigenvalues:   -54.1051    41.7611   153.4385
     11  H    Isotropic =    23.8865   Anisotropy =     5.6622
   XX=    25.3494   YX=     1.7328   ZX=     0.0000
   XY=     1.7216   YY=    26.3711   ZY=     0.0000
   XZ=     0.0000   YZ=     0.0000   ZZ=    19.9391
   Eigenvalues:    19.9391    24.0591    27.6614
     12  H    Isotropic =    23.8865   Anisotropy =     5.6622
   XX=    25.3494   YX=    -1.7328   ZX=     0.0000
   XY=    -1.7216   YY=    26.3711   ZY=     0.0000
   XZ=     0.0000   YZ=     0.0000   ZZ=    19.9391
   Eigenvalues:    19.9391    24.0591    27.6614
     13  H    Isotropic =    23.5289   Anisotropy =     7.4859
   XX=    28.4698   YX=    -0.2957   ZX=     0.0000
   XY=    -0.7473   YY=    23.0511   ZY=     0.0000
   XZ=     0.0000   YZ=     0.0000   ZZ=    19.0659
   Eigenvalues:    19.0659    23.0014    28.5196
     14  H    Isotropic =    23.5289   Anisotropy =     7.4859
   XX=    28.4698   YX=     0.2957   ZX=     0.0000
   XY=     0.7473   YY=    23.0511   ZY=     0.0000
   XZ=     0.0000   YZ=     0.0000   ZZ=    19.0659
   Eigenvalues:    19.0659    23.0014    28.5196
     15  H    Isotropic =    23.8865   Anisotropy =     5.6622
   XX=    25.3494   YX=     1.7328   ZX=     0.0000
   XY=     1.7216   YY=    26.3711   ZY=     0.0000
   XZ=     0.0000   YZ=     0.0000   ZZ=    19.9391
   Eigenvalues:    19.9391    24.0591    27.6614
     16  H    Isotropic =    23.8865   Anisotropy =     5.6622
   XX=    25.3494   YX=    -1.7328   ZX=     0.0000
   XY=    -1.7216   YY=    26.3711   ZY=     0.0000
   XZ=     0.0000   YZ=     0.0000   ZZ=    19.9391
   Eigenvalues:    19.9391    24.0591    27.6614
     17  H    Isotropic =    23.5289   Anisotropy =     7.4859
   XX=    28.4698   YX=    -0.2957   ZX=     0.0000
   XY=    -0.7473   YY=    23.0511   ZY=     0.0000
   XZ=     0.0000   YZ=     0.0000   ZZ=    19.0659
   Eigenvalues:    19.0659    23.0014    28.5196
     18  H    Isotropic =    23.5289   Anisotropy =     7.4859
   XX=    28.4698   YX=     0.2957   ZX=     0.0000
   XY=     0.7473   YY=    23.0511   ZY=     0.0000
   XZ=     0.0000   YZ=     0.0000   ZZ=    19.0659
   Eigenvalues:    19.0659    23.0014    28.5196
     19  Bq   Isotropic =    20.8850   Anisotropy =    28.6760
   XX=    11.0103   YX=    -0.0951   ZX=     2.2987
   XY=    -0.7414   YY=    11.7695   ZY=    -0.4090
   XZ=    -5.0749   YZ=    -2.2504   ZZ=    39.8751
   Eigenvalues:    10.7117    11.9409    40.0023
     20  Bq   Isotropic =    22.9875   Anisotropy =    27.1072
   XX=    14.6335   YX=    -1.9730   ZX=    -1.9258
   XY=    -3.2076   YY=    13.8239   ZY=     1.5291
   XZ=     3.3005   YZ=     6.2118   ZZ=    40.5050
   Eigenvalues:    11.2057    16.6978    41.0589
     21  Bq   Isotropic =    22.9875   Anisotropy =    27.1072
   XX=    14.6335   YX=    -1.9730   ZX=     1.9258
   XY=    -3.2076   YY=    13.8239   ZY=    -1.5291
   XZ=    -3.3005   YZ=    -6.2118   ZZ=    40.5050
   Eigenvalues:    11.2057    16.6978    41.0589
     22  Bq   Isotropic =    18.6087   Anisotropy =    28.1574
   XX=     8.2372   YX=     1.6686   ZX=    -2.1130
   XY=     1.4158   YY=    10.3832   ZY=     0.1881
   XZ=     6.6155   YZ=    -0.1553   ZZ=    37.2057
   Eigenvalues:     7.2980    11.1478    37.3803
     23  Bq   Isotropic =    18.6087   Anisotropy =    28.1574
   XX=     8.2372   YX=     1.6686   ZX=     2.1130
   XY=     1.4158   YY=    10.3832   ZY=    -0.1881
   XZ=    -6.6155   YZ=     0.1553   ZZ=    37.2057
   Eigenvalues:     7.2980    11.1478    37.3803
     24  Bq   Isotropic =    18.9324   Anisotropy =    28.5151
   XX=     9.6358   YX=     0.7211   ZX=    -2.6363
   XY=     0.2377   YY=     9.6952   ZY=    -0.1613
   XZ=     3.1073   YZ=     7.4736   ZZ=    37.4661
   Eigenvalues:     8.9370     9.9176    37.9425
     25  Bq   Isotropic =    18.9324   Anisotropy =    28.5151
   XX=     9.6358   YX=     0.7211   ZX=     2.6363
   XY=     0.2377   YY=     9.6952   ZY=     0.1613
   XZ=    -3.1073   YZ=    -7.4736   ZZ=    37.4661
   Eigenvalues:     8.9370     9.9176    37.9425
     26  Bq   Isotropic =    19.0993   Anisotropy =    25.3463
   XX=    12.2368   YX=    -0.6245   ZX=    -2.9052
   XY=    -1.4155   YY=    10.5023   ZY=     0.0422
   XZ=     0.8643   YZ=    11.7841   ZZ=    34.5587
   Eigenvalues:     8.9477    12.3534    35.9968
     27  Bq   Isotropic =    19.0993   Anisotropy =    25.3463
   XX=    12.2368   YX=    -0.6245   ZX=     2.9052
   XY=    -1.4155   YY=    10.5023   ZY=    -0.0422
   XZ=    -0.8643   YZ=   -11.7841   ZZ=    34.5587
   Eigenvalues:     8.9477    12.3534    35.9968
     28  Bq   Isotropic =    18.3878   Anisotropy =    30.0621
   XX=     7.9706   YX=     1.9277   ZX=    -2.0051
   XY=     1.6694   YY=     9.0393   ZY=     0.3711
   XZ=     5.1115   YZ=     4.2420   ZZ=    38.1536
   Eigenvalues:     6.6281    10.1062    38.4292
     29  Bq   Isotropic =    18.3878   Anisotropy =    30.0621
   XX=     7.9706   YX=     1.9277   ZX=     2.0051
   XY=     1.6694   YY=     9.0393   ZY=    -0.3711
   XZ=    -5.1115   YZ=    -4.2420   ZZ=    38.1536
   Eigenvalues:     6.6281    10.1062    38.4292
     30  Bq   Isotropic =    17.5644   Anisotropy =    19.6682
   XX=    14.8035   YX=    -1.7844   ZX=    -2.7899
   XY=    -2.6725   YY=    11.3195   ZY=     0.4409
   XZ=    -1.4480   YZ=    16.0303   ZZ=    26.5702
   Eigenvalues:     7.5157    14.5011    30.6765
     31  Bq   Isotropic =    17.5644   Anisotropy =    19.6682
   XX=    14.8035   YX=    -1.7844   ZX=     2.7899
   XY=    -2.6725   YY=    11.3195   ZY=    -0.4409
   XZ=     1.4480   YZ=   -16.0303   ZZ=    26.5702
   Eigenvalues:     7.5157    14.5011    30.6765
     32  Bq   Isotropic =    18.7516   Anisotropy =    31.4696
   XX=     8.3946   YX=     2.5188   ZX=    -1.1383
   XY=     2.3115   YY=     8.5225   ZY=     1.4142
   XZ=     6.8681   YZ=     2.1877   ZZ=    39.3377
   Eigenvalues:     6.0222    10.5012    39.7313
     33  Bq   Isotropic =    18.7516   Anisotropy =    31.4696
   XX=     8.3946   YX=     2.5188   ZX=     1.1383
   XY=     2.3115   YY=     8.5225   ZY=    -1.4142
   XZ=    -6.8681   YZ=    -2.1877   ZZ=    39.3377
   Eigenvalues:     6.0222    10.5012    39.7313
     34  Bq   Isotropic =    14.4372   Anisotropy =    14.7996
   XX=    16.3909   YX=    -2.3295   ZX=    -2.3656
   XY=    -2.9350   YY=    11.5283   ZY=     0.3380
   XZ=    -2.8073   YZ=    17.5349   ZZ=    15.3925
   Eigenvalues:     4.3016    14.7065    24.3036
     35  Bq   Isotropic =    14.4372   Anisotropy =    14.7996
   XX=    16.3909   YX=    -2.3295   ZX=     2.3656
   XY=    -2.9350   YY=    11.5283   ZY=    -0.3380
   XZ=     2.8073   YZ=   -17.5349   ZZ=    15.3925
   Eigenvalues:     4.3016    14.7065    24.3036
     36  Bq   Isotropic =    20.8407   Anisotropy =    33.2346
   XX=    11.4361   YX=     1.9179   ZX=    -0.7229
   XY=     1.7293   YY=     8.5691   ZY=     1.6539
   XZ=     7.9354   YZ=     0.9844   ZZ=    42.5171
   Eigenvalues:     7.6782    11.8469    42.9971
     37  Bq   Isotropic =    20.8407   Anisotropy =    33.2346
   XX=    11.4361   YX=     1.9179   ZX=     0.7229
   XY=     1.7293   YY=     8.5691   ZY=    -1.6539
   XZ=    -7.9354   YZ=    -0.9844   ZZ=    42.5171
   Eigenvalues:     7.6782    11.8469    42.9971
     38  Bq   Isotropic =    17.5167   Anisotropy =    28.0895
   XX=     9.2916   YX=     0.9246   ZX=    -2.2510
   XY=     0.5405   YY=     8.1804   ZY=    -0.0136
   XZ=     1.6350   YZ=    11.4445   ZZ=    35.0780
   Eigenvalues:     6.7749     9.5321    36.2430
     39  Bq   Isotropic =    17.5167   Anisotropy =    28.0895
   XX=     9.2916   YX=     0.9246   ZX=     2.2510
   XY=     0.5405   YY=     8.1804   ZY=     0.0136
   XZ=    -1.6350   YZ=   -11.4445   ZZ=    35.0780
   Eigenvalues:     6.7749     9.5321    36.2430
     40  Bq   Isotropic =    16.1692   Anisotropy =    23.5184
   XX=    11.3829   YX=     0.0057   ZX=    -2.5811
   XY=    -0.5201   YY=     7.9897   ZY=    -0.3550
   XZ=    -0.3666   YZ=    16.0901   ZZ=    29.1350
   Eigenvalues:     5.3755    11.2840    31.8481
     41  Bq   Isotropic =    16.1692   Anisotropy =    23.5184
   XX=    11.3829   YX=     0.0057   ZX=     2.5811
   XY=    -0.5201   YY=     7.9897   ZY=     0.3550
   XZ=     0.3666   YZ=   -16.0901   ZZ=    29.1350
   Eigenvalues:     5.3755    11.2840    31.8481
     42  Bq   Isotropic =    18.2729   Anisotropy =    31.4000
   XX=     8.2264   YX=     1.6024   ZX=    -1.4093
   XY=     1.3637   YY=     8.0546   ZY=     0.9964
   XZ=     3.2691   YZ=     7.8389   ZZ=    38.5377
   Eigenvalues:     6.4169     9.1956    39.2062
     43  Bq   Isotropic =    18.2729   Anisotropy =    31.4000
   XX=     8.2264   YX=     1.6024   ZX=     1.4093
   XY=     1.3637   YY=     8.0546   ZY=    -0.9964
   XZ=    -3.2691   YZ=    -7.8389   ZZ=    38.5377
   Eigenvalues:     6.4169     9.1956    39.2062
     44  Bq   Isotropic =    13.8935   Anisotropy =    17.8871
   XX=    13.6305   YX=    -0.7676   ZX=    -2.4838
   XY=    -1.2976   YY=     7.8428   ZY=    -0.3501
   XZ=    -1.7385   YZ=    19.3653   ZZ=    20.2072
   Eigenvalues:     2.6832    13.1790    25.8182
     45  Bq   Isotropic =    13.8935   Anisotropy =    17.8871
   XX=    13.6305   YX=    -0.7676   ZX=     2.4838
   XY=    -1.2976   YY=     7.8428   ZY=     0.3501
   XZ=     1.7385   YZ=   -19.3653   ZZ=    20.2072
   Eigenvalues:     2.6832    13.1790    25.8182
     46  Bq   Isotropic =    19.7889   Anisotropy =    34.3324
   XX=     9.0951   YX=     1.7013   ZX=    -0.6210
   XY=     1.5191   YY=     8.0486   ZY=     2.0431
   XZ=     4.4327   YZ=     4.6891   ZZ=    42.2230
   Eigenvalues:     6.7981     9.8915    42.6772
     47  Bq   Isotropic =    19.7889   Anisotropy =    34.3324
   XX=     9.0951   YX=     1.7013   ZX=     0.6210
   XY=     1.5191   YY=     8.0486   ZY=    -2.0431
   XZ=    -4.4327   YZ=    -4.6891   ZZ=    42.2230
   Eigenvalues:     6.7981     9.8915    42.6772
     48  Bq   Isotropic =     5.1471   Anisotropy =    20.2710
   XX=    18.6324   YX=    -0.9752   ZX=     0.0000
   XY=     0.0238   YY=    10.7697   ZY=     0.0000
   XZ=     0.0000   YZ=     0.0000   ZZ=   -13.9608
   Eigenvalues:   -13.9608    10.7411    18.6611
     49  Bq   Isotropic =     5.7442   Anisotropy =    19.5728
   XX=    18.5745   YX=    -1.4540   ZX=    -0.4269
   XY=    -0.7493   YY=    10.4990   ZY=    -0.7944
   XZ=    -1.7325   YZ=     6.5117   ZZ=   -11.8411
   Eigenvalues:   -12.2294    10.6692    18.7927
     50  Bq   Isotropic =     5.7442   Anisotropy =    19.5728
   XX=    18.5745   YX=    -1.4540   ZX=     0.4269
   XY=    -0.7493   YY=    10.4990   ZY=     0.7944
   XZ=     1.7325   YZ=    -6.5117   ZZ=   -11.8411
   Eigenvalues:   -12.2294    10.6692    18.7927
     51  Bq   Isotropic =     8.1596   Anisotropy =    16.0514
   XX=    17.6947   YX=    -1.9300   ZX=    -1.4132
   XY=    -1.8859   YY=     9.5547   ZY=    -0.5053
   XZ=    -2.6655   YZ=    14.9684   ZZ=    -2.7705
   Eigenvalues:    -6.1562    11.7745    18.8606
     52  Bq   Isotropic =     8.1596   Anisotropy =    16.0514
   XX=    17.6947   YX=    -1.9300   ZX=     1.4132
   XY=    -1.8859   YY=     9.5547   ZY=     0.5053
   XZ=     2.6655   YZ=   -14.9684   ZZ=    -2.7705
   Eigenvalues:    -6.1562    11.7745    18.8606
     53  Bq   Isotropic =    16.7331   Anisotropy =    27.7619
   XX=     9.3801   YX=     0.6125   ZX=    -1.2826
   XY=     0.3808   YY=     7.3725   ZY=     0.2828
   XZ=     0.6761   YZ=    13.8555   ZZ=    33.4466
   Eigenvalues:     5.4996     9.4587    35.2410
     54  Bq   Isotropic =    16.7331   Anisotropy =    27.7619
   XX=     9.3801   YX=     0.6125   ZX=     1.2826
   XY=     0.3808   YY=     7.3725   ZY=    -0.2828
   XZ=    -0.6761   YZ=   -13.8555   ZZ=    33.4466
   Eigenvalues:     5.4996     9.4587    35.2410
     55  Bq   Isotropic =     9.3239   Anisotropy =    12.4606
   XX=    15.9413   YX=    -0.9094   ZX=    -1.3718
   XY=    -1.1126   YY=     7.0220   ZY=    -0.5343
   XZ=    -1.6602   YZ=    19.9493   ZZ=     5.0084
   Eigenvalues:    -3.7547    14.0955    17.6310
     56  Bq   Isotropic =     9.3239   Anisotropy =    12.4606
   XX=    15.9413   YX=    -0.9094   ZX=     1.3718
   XY=    -1.1126   YY=     7.0220   ZY=     0.5343
   XZ=     1.6602   YZ=   -19.9493   ZZ=     5.0084
   Eigenvalues:    -3.7547    14.0955    17.6310
     57  Bq   Isotropic =    24.3723   Anisotropy =    38.4746
   XX=    14.5013   YX=     0.5543   ZX=    -0.2461
   XY=     0.4863   YY=     8.7279   ZY=     1.5459
   XZ=     3.6410   YZ=     1.3706   ZZ=    49.8876
   Eigenvalues:     8.6398    14.4550    50.0220
     58  Bq   Isotropic =    24.3723   Anisotropy =    38.4746
   XX=    14.5013   YX=     0.5543   ZX=     0.2461
   XY=     0.4863   YY=     8.7279   ZY=    -1.5459
   XZ=    -3.6410   YZ=    -1.3706   ZZ=    49.8876
   Eigenvalues:     8.6398    14.4550    50.0220
     59  Bq   Isotropic =    14.8029   Anisotropy =    22.4418
   XX=    11.2606   YX=     0.0994   ZX=    -1.2855
   XY=    -0.1506   YY=     6.8588   ZY=    -0.3758
   XZ=    -0.3507   YZ=    18.1233   ZZ=    26.2893
   Eigenvalues:     3.4067    11.2379    29.7641
     60  Bq   Isotropic =    14.8029   Anisotropy =    22.4418
   XX=    11.2606   YX=     0.0994   ZX=     1.2855
   XY=    -0.1506   YY=     6.8588   ZY=     0.3758
   XZ=     0.3507   YZ=   -18.1233   ZZ=    26.2893
   Eigenvalues:     3.4067    11.2379    29.7641
     61  Bq   Isotropic =    18.2686   Anisotropy =    32.0677
   XX=     8.5227   YX=     0.7829   ZX=    -0.6375
   XY=     0.6516   YY=     7.6279   ZY=     1.4431
   XZ=     1.4162   YZ=     9.7795   ZZ=    38.6552
   Eigenvalues:     6.4467     8.7120    39.6471
     62  Bq   Isotropic =    18.2686   Anisotropy =    32.0677
   XX=     8.5227   YX=     0.7829   ZX=     0.6375
   XY=     0.6516   YY=     7.6279   ZY=    -1.4431
   XZ=    -1.4162   YZ=    -9.7795   ZZ=    38.6552
   Eigenvalues:     6.4467     8.7120    39.6471
     63  Bq   Isotropic =     4.6302   Anisotropy =    20.8946
   XX=    18.3950   YX=    -1.0681   ZX=    -0.6534
   XY=    -0.8803   YY=     7.4970   ZY=    -0.8397
   XZ=    -1.3940   YZ=    11.4080   ZZ=   -12.0015
   Eigenvalues:   -13.3593     8.6900    18.5599
     64  Bq   Isotropic =     4.6302   Anisotropy =    20.8946
   XX=    18.3950   YX=    -1.0681   ZX=     0.6534
   XY=    -0.8803   YY=     7.4970   ZY=     0.8397
   XZ=     1.3940   YZ=   -11.4080   ZZ=   -12.0015
   Eigenvalues:   -13.3593     8.6900    18.5599
     65  Bq   Isotropic =     2.7577   Anisotropy =    24.6771
   XX=    19.1781   YX=    -0.7731   ZX=    -0.1695
   XY=    -0.3519   YY=     7.2766   ZY=    -0.4605
   XZ=    -0.5214   YZ=     3.2893   ZZ=   -18.1815
   Eigenvalues:   -18.2625     7.3265    19.2091
     66  Bq   Isotropic =     2.7577   Anisotropy =    24.6771
   XX=    19.1781   YX=    -0.7731   ZX=     0.1695
   XY=    -0.3519   YY=     7.2766   ZY=     0.4605
   XZ=     0.5214   YZ=    -3.2893   ZZ=   -18.1815
   Eigenvalues:   -18.2625     7.3265    19.2091
     67  Bq   Isotropic =     1.7347   Anisotropy =    26.5084
   XX=    19.4070   YX=     0.0000   ZX=     0.0000
   XY=     0.0000   YY=     6.0730   ZY=     0.0000
   XZ=     0.0000   YZ=     0.0000   ZZ=   -20.2758
   Eigenvalues:   -20.2758     6.0730    19.4070
     68  Bq   Isotropic =     2.5763   Anisotropy =    24.6529
   XX=    19.0115   YX=     0.0000   ZX=     0.0000
   XY=     0.0000   YY=     6.3142   ZY=    -0.7749
   XZ=     0.0000   YZ=     7.0533   ZZ=   -17.5969
   Eigenvalues:   -18.0022     6.7195    19.0115
     69  Bq   Isotropic =     2.5763   Anisotropy =    24.6529
   XX=    19.0115   YX=     0.0000   ZX=     0.0000
   XY=     0.0000   YY=     6.3142   ZY=     0.7749
   XZ=     0.0000   YZ=    -7.0533   ZZ=   -17.5969
   Eigenvalues:   -18.0022     6.7195    19.0115
     70  Bq   Isotropic =     5.4763   Anisotropy =    18.2237
   XX=    17.6254   YX=     0.0000   ZX=     0.0000
   XY=     0.0000   YY=     6.5126   ZY=    -0.8038
   XZ=     0.0000   YZ=    15.7361   ZZ=    -7.7092
   Eigenvalues:   -10.9089     9.7123    17.6254
     71  Bq   Isotropic =     5.4763   Anisotropy =    18.2237
   XX=    17.6254   YX=     0.0000   ZX=     0.0000
   XY=     0.0000   YY=     6.5126   ZY=     0.8038
   XZ=     0.0000   YZ=   -15.7361   ZZ=    -7.7092
   Eigenvalues:   -10.9089     9.7123    17.6254
     72  Bq   Isotropic =    11.9594   Anisotropy =    15.7932
   XX=    13.5133   YX=     0.0000   ZX=     0.0000
   XY=     0.0000   YY=     6.2716   ZY=    -0.6534
   XZ=     0.0000   YZ=    21.0206   ZZ=    16.0932
   Eigenvalues:    -0.1234    13.5133    22.4882
     73  Bq   Isotropic =    11.9594   Anisotropy =    15.7932
   XX=    13.5133   YX=     0.0000   ZX=     0.0000
   XY=     0.0000   YY=     6.2716   ZY=     0.6534
   XZ=     0.0000   YZ=   -21.0206   ZZ=    16.0932
   Eigenvalues:    -0.1234    13.5133    22.4882
     74  Bq   Isotropic =    16.4896   Anisotropy =    27.6489
   XX=     9.4604   YX=     0.0000   ZX=     0.0000
   XY=     0.0000   YY=     7.1291   ZY=     0.4118
   XZ=     0.0000   YZ=    14.6584   ZZ=    32.8793
   Eigenvalues:     5.0863     9.4604    34.9222
     75  Bq   Isotropic =    16.4896   Anisotropy =    27.6489
   XX=     9.4604   YX=     0.0000   ZX=     0.0000
   XY=     0.0000   YY=     7.1291   ZY=    -0.4118
   XZ=     0.0000   YZ=   -14.6584   ZZ=    32.8793
   Eigenvalues:     5.0863     9.4604    34.9222
     76  Bq   Isotropic =    20.5776   Anisotropy =    36.0694
   XX=     9.6898   YX=     0.0000   ZX=     0.0000
   XY=     0.0000   YY=     7.8769   ZY=     2.4746
   XZ=     0.0000   YZ=     5.7288   ZZ=    44.1660
   Eigenvalues:     7.4191     9.6898    44.6239
     77  Bq   Isotropic =    20.5776   Anisotropy =    36.0694
   XX=     9.6898   YX=     0.0000   ZX=     0.0000
   XY=     0.0000   YY=     7.8769   ZY=    -2.4746
   XZ=     0.0000   YZ=    -5.7288   ZZ=    44.1660
   Eigenvalues:     7.4191     9.6898    44.6239
     78  Bq   Isotropic =     2.7577   Anisotropy =    24.6771
   XX=    19.1781   YX=     0.7731   ZX=     0.1695
   XY=     0.3519   YY=     7.2766   ZY=    -0.4605
   XZ=     0.5214   YZ=     3.2893   ZZ=   -18.1815
   Eigenvalues:   -18.2625     7.3265    19.2091
     79  Bq   Isotropic =     2.7577   Anisotropy =    24.6771
   XX=    19.1781   YX=     0.7731   ZX=    -0.1695
   XY=     0.3519   YY=     7.2766   ZY=     0.4605
   XZ=    -0.5214   YZ=    -3.2893   ZZ=   -18.1815
   Eigenvalues:   -18.2625     7.3265    19.2091
     80  Bq   Isotropic =     4.6302   Anisotropy =    20.8946
   XX=    18.3950   YX=     1.0681   ZX=     0.6534
   XY=     0.8803   YY=     7.4970   ZY=    -0.8397
   XZ=     1.3940   YZ=    11.4080   ZZ=   -12.0015
   Eigenvalues:   -13.3593     8.6900    18.5599
     81  Bq   Isotropic =     4.6302   Anisotropy =    20.8946
   XX=    18.3950   YX=     1.0681   ZX=    -0.6534
   XY=     0.8803   YY=     7.4970   ZY=     0.8397
   XZ=    -1.3940   YZ=   -11.4080   ZZ=   -12.0015
   Eigenvalues:   -13.3593     8.6900    18.5599
     82  Bq   Isotropic =    14.8029   Anisotropy =    22.4418
   XX=    11.2606   YX=    -0.0994   ZX=     1.2855
   XY=     0.1506   YY=     6.8588   ZY=    -0.3758
   XZ=     0.3507   YZ=    18.1233   ZZ=    26.2893
   Eigenvalues:     3.4067    11.2379    29.7641
     83  Bq   Isotropic =    14.8029   Anisotropy =    22.4418
   XX=    11.2606   YX=    -0.0994   ZX=    -1.2855
   XY=     0.1506   YY=     6.8588   ZY=     0.3758
   XZ=    -0.3507   YZ=   -18.1233   ZZ=    26.2893
   Eigenvalues:     3.4067    11.2379    29.7641
     84  Bq   Isotropic =    18.2686   Anisotropy =    32.0677
   XX=     8.5227   YX=    -0.7829   ZX=     0.6375
   XY=    -0.6516   YY=     7.6279   ZY=     1.4431
   XZ=    -1.4162   YZ=     9.7795   ZZ=    38.6552
   Eigenvalues:     6.4467     8.7120    39.6471
     85  Bq   Isotropic =    18.2686   Anisotropy =    32.0677
   XX=     8.5227   YX=    -0.7829   ZX=    -0.6375
   XY=    -0.6516   YY=     7.6279   ZY=    -1.4431
   XZ=     1.4162   YZ=    -9.7795   ZZ=    38.6552
   Eigenvalues:     6.4467     8.7120    39.6471
     86  Bq   Isotropic =     9.3239   Anisotropy =    12.4606
   XX=    15.9413   YX=     0.9094   ZX=     1.3718
   XY=     1.1126   YY=     7.0220   ZY=    -0.5343
   XZ=     1.6602   YZ=    19.9493   ZZ=     5.0084
   Eigenvalues:    -3.7547    14.0955    17.6310
     87  Bq   Isotropic =     9.3239   Anisotropy =    12.4606
   XX=    15.9413   YX=     0.9094   ZX=    -1.3718
   XY=     1.1126   YY=     7.0220   ZY=     0.5343
   XZ=    -1.6602   YZ=   -19.9493   ZZ=     5.0084
   Eigenvalues:    -3.7547    14.0955    17.6310
     88  Bq   Isotropic =    24.3723   Anisotropy =    38.4746
   XX=    14.5013   YX=    -0.5543   ZX=     0.2461
   XY=    -0.4863   YY=     8.7279   ZY=     1.5459
   XZ=    -3.6410   YZ=     1.3706   ZZ=    49.8876
   Eigenvalues:     8.6398    14.4550    50.0220
     89  Bq   Isotropic =    24.3723   Anisotropy =    38.4746
   XX=    14.5013   YX=    -0.5543   ZX=    -0.2461
   XY=    -0.4863   YY=     8.7279   ZY=    -1.5459
   XZ=     3.6410   YZ=    -1.3706   ZZ=    49.8876
   Eigenvalues:     8.6398    14.4550    50.0220
     90  Bq   Isotropic =    16.7331   Anisotropy =    27.7619
   XX=     9.3801   YX=    -0.6125   ZX=     1.2826
   XY=    -0.3808   YY=     7.3725   ZY=     0.2828
   XZ=    -0.6761   YZ=    13.8555   ZZ=    33.4466
   Eigenvalues:     5.4996     9.4587    35.2410
     91  Bq   Isotropic =    16.7331   Anisotropy =    27.7619
   XX=     9.3801   YX=    -0.6125   ZX=    -1.2826
   XY=    -0.3808   YY=     7.3725   ZY=    -0.2828
   XZ=     0.6761   YZ=   -13.8555   ZZ=    33.4466
   Eigenvalues:     5.4996     9.4587    35.2410
     92  Bq   Isotropic =     8.1596   Anisotropy =    16.0514
   XX=    17.6947   YX=     1.9300   ZX=     1.4132
   XY=     1.8859   YY=     9.5547   ZY=    -0.5053
   XZ=     2.6655   YZ=    14.9684   ZZ=    -2.7705
   Eigenvalues:    -6.1562    11.7745    18.8606
     93  Bq   Isotropic =     8.1596   Anisotropy =    16.0514
   XX=    17.6947   YX=     1.9300   ZX=    -1.4132
   XY=     1.8859   YY=     9.5547   ZY=     0.5053
   XZ=    -2.6655   YZ=   -14.9684   ZZ=    -2.7705
   Eigenvalues:    -6.1562    11.7745    18.8606
     94  Bq   Isotropic =     5.7442   Anisotropy =    19.5728
   XX=    18.5745   YX=     1.4540   ZX=     0.4269
   XY=     0.7493   YY=    10.4990   ZY=    -0.7944
   XZ=     1.7325   YZ=     6.5117   ZZ=   -11.8411
   Eigenvalues:   -12.2294    10.6692    18.7927
     95  Bq   Isotropic =     5.7442   Anisotropy =    19.5728
   XX=    18.5745   YX=     1.4540   ZX=    -0.4269
   XY=     0.7493   YY=    10.4990   ZY=     0.7944
   XZ=    -1.7325   YZ=    -6.5117   ZZ=   -11.8411
   Eigenvalues:   -12.2294    10.6692    18.7927
     96  Bq   Isotropic =     5.1471   Anisotropy =    20.2710
   XX=    18.6324   YX=     0.9752   ZX=     0.0000
   XY=    -0.0238   YY=    10.7697   ZY=     0.0000
   XZ=     0.0000   YZ=     0.0000   ZZ=   -13.9608
   Eigenvalues:   -13.9608    10.7411    18.6611
     97  Bq   Isotropic =    13.8935   Anisotropy =    17.8871
   XX=    13.6305   YX=     0.7676   ZX=     2.4838
   XY=     1.2976   YY=     7.8428   ZY=    -0.3501
   XZ=     1.7385   YZ=    19.3653   ZZ=    20.2072
   Eigenvalues:     2.6832    13.1790    25.8182
     98  Bq   Isotropic =    13.8935   Anisotropy =    17.8871
   XX=    13.6305   YX=     0.7676   ZX=    -2.4838
   XY=     1.2976   YY=     7.8428   ZY=     0.3501
   XZ=    -1.7385   YZ=   -19.3653   ZZ=    20.2072
   Eigenvalues:     2.6832    13.1790    25.8182
     99  Bq   Isotropic =    19.7889   Anisotropy =    34.3324
   XX=     9.0951   YX=    -1.7013   ZX=     0.6210
   XY=    -1.5191   YY=     8.0486   ZY=     2.0431
   XZ=    -4.4327   YZ=     4.6891   ZZ=    42.2230
   Eigenvalues:     6.7981     9.8915    42.6772
    100  Bq   Isotropic =    19.7889   Anisotropy =    34.3324
   XX=     9.0951   YX=    -1.7013   ZX=    -0.6210
   XY=    -1.5191   YY=     8.0486   ZY=    -2.0431
   XZ=     4.4327   YZ=    -4.6891   ZZ=    42.2230
   Eigenvalues:     6.7981     9.8915    42.6772
    101  Bq   Isotropic =    16.1692   Anisotropy =    23.5184
   XX=    11.3829   YX=    -0.0057   ZX=     2.5811
   XY=     0.5201   YY=     7.9897   ZY=    -0.3550
   XZ=     0.3666   YZ=    16.0901   ZZ=    29.1350
   Eigenvalues:     5.3755    11.2840    31.8481
    102  Bq   Isotropic =    16.1692   Anisotropy =    23.5184
   XX=    11.3829   YX=    -0.0057   ZX=    -2.5811
   XY=     0.5201   YY=     7.9897   ZY=     0.3550
   XZ=    -0.3666   YZ=   -16.0901   ZZ=    29.1350
   Eigenvalues:     5.3755    11.2840    31.8481
    103  Bq   Isotropic =    18.2729   Anisotropy =    31.4000
   XX=     8.2264   YX=    -1.6024   ZX=     1.4093
   XY=    -1.3637   YY=     8.0546   ZY=     0.9964
   XZ=    -3.2691   YZ=     7.8389   ZZ=    38.5377
   Eigenvalues:     6.4169     9.1956    39.2062
    104  Bq   Isotropic =    18.2729   Anisotropy =    31.4000
   XX=     8.2264   YX=    -1.6024   ZX=    -1.4093
   XY=    -1.3637   YY=     8.0546   ZY=    -0.9964
   XZ=     3.2691   YZ=    -7.8389   ZZ=    38.5377
   Eigenvalues:     6.4169     9.1956    39.2062
    105  Bq   Isotropic =    17.5167   Anisotropy =    28.0895
   XX=     9.2916   YX=    -0.9246   ZX=     2.2510
   XY=    -0.5405   YY=     8.1804   ZY=    -0.0136
   XZ=    -1.6350   YZ=    11.4445   ZZ=    35.0780
   Eigenvalues:     6.7749     9.5321    36.2430
    106  Bq   Isotropic =    17.5167   Anisotropy =    28.0895
   XX=     9.2916   YX=    -0.9246   ZX=    -2.2510
   XY=    -0.5405   YY=     8.1804   ZY=     0.0136
   XZ=     1.6350   YZ=   -11.4445   ZZ=    35.0780
   Eigenvalues:     6.7749     9.5321    36.2430
    107  Bq   Isotropic =    14.4372   Anisotropy =    14.7996
   XX=    16.3909   YX=     2.3295   ZX=     2.3656
   XY=     2.9350   YY=    11.5283   ZY=     0.3380
   XZ=     2.8073   YZ=    17.5349   ZZ=    15.3925
   Eigenvalues:     4.3016    14.7065    24.3036
    108  Bq   Isotropic =    14.4372   Anisotropy =    14.7996
   XX=    16.3909   YX=     2.3295   ZX=    -2.3656
   XY=     2.9350   YY=    11.5283   ZY=    -0.3380
   XZ=    -2.8073   YZ=   -17.5349   ZZ=    15.3925
   Eigenvalues:     4.3016    14.7065    24.3036
    109  Bq   Isotropic =    20.8407   Anisotropy =    33.2346
   XX=    11.4361   YX=    -1.9179   ZX=     0.7229
   XY=    -1.7293   YY=     8.5691   ZY=     1.6539
   XZ=    -7.9354   YZ=     0.9844   ZZ=    42.5171
   Eigenvalues:     7.6782    11.8469    42.9971
    110  Bq   Isotropic =    20.8407   Anisotropy =    33.2346
   XX=    11.4361   YX=    -1.9179   ZX=    -0.7229
   XY=    -1.7293   YY=     8.5691   ZY=    -1.6539
   XZ=     7.9354   YZ=    -0.9844   ZZ=    42.5171
   Eigenvalues:     7.6782    11.8469    42.9971
    111  Bq   Isotropic =    17.5644   Anisotropy =    19.6682
   XX=    14.8035   YX=     1.7844   ZX=     2.7899
   XY=     2.6725   YY=    11.3195   ZY=     0.4409
   XZ=     1.4480   YZ=    16.0303   ZZ=    26.5702
   Eigenvalues:     7.5157    14.5011    30.6765
    112  Bq   Isotropic =    17.5644   Anisotropy =    19.6682
   XX=    14.8035   YX=     1.7844   ZX=    -2.7899
   XY=     2.6725   YY=    11.3195   ZY=    -0.4409
   XZ=    -1.4480   YZ=   -16.0303   ZZ=    26.5702
   Eigenvalues:     7.5157    14.5011    30.6765
    113  Bq   Isotropic =    18.7516   Anisotropy =    31.4696
   XX=     8.3946   YX=    -2.5188   ZX=     1.1383
   XY=    -2.3115   YY=     8.5225   ZY=     1.4142
   XZ=    -6.8681   YZ=     2.1877   ZZ=    39.3377
   Eigenvalues:     6.0222    10.5012    39.7313
    114  Bq   Isotropic =    18.7516   Anisotropy =    31.4696
   XX=     8.3946   YX=    -2.5188   ZX=    -1.1383
   XY=    -2.3115   YY=     8.5225   ZY=    -1.4142
   XZ=     6.8681   YZ=    -2.1877   ZZ=    39.3377
   Eigenvalues:     6.0222    10.5012    39.7313
    115  Bq   Isotropic =    19.0993   Anisotropy =    25.3463
   XX=    12.2368   YX=     0.6245   ZX=     2.9052
   XY=     1.4155   YY=    10.5023   ZY=     0.0422
   XZ=    -0.8643   YZ=    11.7841   ZZ=    34.5587
   Eigenvalues:     8.9477    12.3534    35.9968
    116  Bq   Isotropic =    19.0993   Anisotropy =    25.3463
   XX=    12.2368   YX=     0.6245   ZX=    -2.9052
   XY=     1.4155   YY=    10.5023   ZY=    -0.0422
   XZ=     0.8643   YZ=   -11.7841   ZZ=    34.5587
   Eigenvalues:     8.9477    12.3534    35.9968
    117  Bq   Isotropic =    18.3878   Anisotropy =    30.0621
   XX=     7.9706   YX=    -1.9277   ZX=     2.0051
   XY=    -1.6694   YY=     9.0393   ZY=     0.3711
   XZ=    -5.1115   YZ=     4.2420   ZZ=    38.1536
   Eigenvalues:     6.6281    10.1062    38.4292
    118  Bq   Isotropic =    18.3878   Anisotropy =    30.0621
   XX=     7.9706   YX=    -1.9277   ZX=    -2.0051
   XY=    -1.6694   YY=     9.0393   ZY=    -0.3711
   XZ=     5.1115   YZ=    -4.2420   ZZ=    38.1536
   Eigenvalues:     6.6281    10.1062    38.4292
    119  Bq   Isotropic =    18.9324   Anisotropy =    28.5151
   XX=     9.6358   YX=    -0.7211   ZX=     2.6363
   XY=    -0.2377   YY=     9.6952   ZY=    -0.1613
   XZ=    -3.1073   YZ=     7.4736   ZZ=    37.4661
   Eigenvalues:     8.9370     9.9176    37.9425
    120  Bq   Isotropic =    18.9324   Anisotropy =    28.5151
   XX=     9.6358   YX=    -0.7211   ZX=    -2.6363
   XY=    -0.2377   YY=     9.6952   ZY=     0.1613
   XZ=     3.1073   YZ=    -7.4736   ZZ=    37.4661
   Eigenvalues:     8.9370     9.9176    37.9425
    121  Bq   Isotropic =    22.9875   Anisotropy =    27.1072
   XX=    14.6335   YX=     1.9730   ZX=     1.9258
   XY=     3.2076   YY=    13.8239   ZY=     1.5291
   XZ=    -3.3005   YZ=     6.2118   ZZ=    40.5050
   Eigenvalues:    11.2057    16.6978    41.0589
    122  Bq   Isotropic =    22.9875   Anisotropy =    27.1072
   XX=    14.6335   YX=     1.9730   ZX=    -1.9258
   XY=     3.2076   YY=    13.8239   ZY=    -1.5291
   XZ=     3.3005   YZ=    -6.2118   ZZ=    40.5050
   Eigenvalues:    11.2057    16.6978    41.0589
    123  Bq   Isotropic =    18.6087   Anisotropy =    28.1574
   XX=     8.2372   YX=    -1.6686   ZX=     2.1130
   XY=    -1.4158   YY=    10.3832   ZY=     0.1881
   XZ=    -6.6155   YZ=    -0.1553   ZZ=    37.2057
   Eigenvalues:     7.2980    11.1478    37.3803
    124  Bq   Isotropic =    18.6087   Anisotropy =    28.1574
   XX=     8.2372   YX=    -1.6686   ZX=    -2.1130
   XY=    -1.4158   YY=    10.3832   ZY=    -0.1881
   XZ=     6.6155   YZ=     0.1553   ZZ=    37.2057
   Eigenvalues:     7.2980    11.1478    37.3803
    125  Bq   Isotropic =    20.8850   Anisotropy =    28.6760
   XX=    11.0103   YX=     0.0951   ZX=     2.2987
   XY=     0.7414   YY=    11.7695   ZY=     0.4090
   XZ=    -5.0749   YZ=     2.2504   ZZ=    39.8751
   Eigenvalues:    10.7117    11.9409    40.0023
    126  Bq   Isotropic =    20.8850   Anisotropy =    28.6760
   XX=    11.0103   YX=     0.0951   ZX=    -2.2987
   XY=     0.7414   YY=    11.7695   ZY=    -0.4090
   XZ=     5.0749   YZ=    -2.2504   ZZ=    39.8751
   Eigenvalues:    10.7117    11.9409    40.0023
    127  Bq   Isotropic =     7.4531   Anisotropy =    16.0728
   XX=    17.7495   YX=     1.5309   ZX=     0.4268
   XY=     0.7164   YY=    12.3621   ZY=    -0.6990
   XZ=     2.4426   YZ=     8.3162   ZZ=    -7.7523
   Eigenvalues:    -8.5051    12.6961    18.1683
    128  Bq   Isotropic =     7.4531   Anisotropy =    16.0728
   XX=    17.7495   YX=     1.5309   ZX=    -0.4268
   XY=     0.7164   YY=    12.3621   ZY=     0.6990
   XZ=    -2.4426   YZ=    -8.3162   ZZ=    -7.7523
   Eigenvalues:    -8.5051    12.6961    18.1683
    129  Bq   Isotropic =     2.9281   Anisotropy =    20.0379
   XX=    15.3306   YX=    -1.3800   ZX=     0.0000
   XY=    -3.4701   YY=    10.1358   ZY=     0.0000
   XZ=     0.0000   YZ=     0.0000   ZZ=   -16.6820
   Eigenvalues:   -16.6820     9.1797    16.2867
    130  Bq   Isotropic =     3.7368   Anisotropy =    17.4620
   XX=    14.3770   YX=    -1.2006   ZX=     0.3502
   XY=    -3.2248   YY=    10.4691   ZY=    -0.4483
   XZ=     2.8693   YZ=     6.1560   ZZ=   -13.6357
   Eigenvalues:   -14.0906     9.9229    15.3781
    131  Bq   Isotropic =     3.7368   Anisotropy =    17.4620
   XX=    14.3770   YX=    -1.2006   ZX=    -0.3502
   XY=    -3.2248   YY=    10.4691   ZY=     0.4483
   XZ=    -2.8693   YZ=    -6.1560   ZZ=   -13.6357
   Eigenvalues:   -14.0906     9.9229    15.3781
    132  Bq   Isotropic =     8.4019   Anisotropy =    11.7544
   XX=    14.7503   YX=     0.7966   ZX=     0.5170
   XY=    -0.0830   YY=    12.4746   ZY=     0.4375
   XZ=     3.9053   YZ=    13.3434   ZZ=    -2.0190
   Eigenvalues:    -4.9598    13.9274    16.2382
    133  Bq   Isotropic =     8.4019   Anisotropy =    11.7544
   XX=    14.7503   YX=     0.7966   ZX=    -0.5170
   XY=    -0.0830   YY=    12.4746   ZY=    -0.4375
   XZ=    -3.9053   YZ=   -13.3434   ZZ=    -2.0190
[...]
          Condensed to atoms (all electrons):
 Mulliken charges:
               1
     1  C   -0.271259
     2  C   -0.271259
     3  C   -0.081784
     4  C    0.204484
     5  C   -0.081784
     6  C   -0.271259
     7  C   -0.271259
     8  C   -0.081784
     9  C    0.204484
    10  C   -0.081784
    11  H    0.128962
    12  H    0.128962
    13  H    0.121839
    14  H    0.121839
    15  H    0.128962
    16  H    0.128962
    17  H    0.121839
    18  H    0.121839
    19  Bq   0.000000
    20  Bq   0.000000
    21  Bq   0.000000
    22  Bq   0.000000
    23  Bq   0.000000
    24  Bq   0.000000
    25  Bq   0.000000
    26  Bq   0.000000
    27  Bq   0.000000
    28  Bq   0.000000
    29  Bq   0.000000
    30  Bq   0.000000
    31  Bq   0.000000
    32  Bq   0.000000
    33  Bq   0.000000
    34  Bq   0.000000
    35  Bq   0.000000
    36  Bq   0.000000
    37  Bq   0.000000
    38  Bq   0.000000
    39  Bq   0.000000
    40  Bq   0.000000
    41  Bq   0.000000
    42  Bq   0.000000
    43  Bq   0.000000
    44  Bq   0.000000
    45  Bq   0.000000
    46  Bq   0.000000
    47  Bq   0.000000
    48  Bq   0.000000
    49  Bq   0.000000
    50  Bq   0.000000
    51  Bq   0.000000
    52  Bq   0.000000
    53  Bq   0.000000
    54  Bq   0.000000
    55  Bq   0.000000
    56  Bq   0.000000
    57  Bq   0.000000
    58  Bq   0.000000
    59  Bq   0.000000
    60  Bq   0.000000
    61  Bq   0.000000
    62  Bq   0.000000
    63  Bq   0.000000
    64  Bq   0.000000
    65  Bq   0.000000
    66  Bq   0.000000
    67  Bq   0.000000
    68  Bq   0.000000
    69  Bq   0.000000
    70  Bq   0.000000
    71  Bq   0.000000
    72  Bq   0.000000
    73  Bq   0.000000
    74  Bq   0.000000
    75  Bq   0.000000
    76  Bq   0.000000
    77  Bq   0.000000
    78  Bq   0.000000
    79  Bq   0.000000
    80  Bq   0.000000
    81  Bq   0.000000
    82  Bq   0.000000
    83  Bq   0.000000
    84  Bq   0.000000
    85  Bq   0.000000
    86  Bq   0.000000
    87  Bq   0.000000
    88  Bq   0.000000
    89  Bq   0.000000
    90  Bq   0.000000
    91  Bq   0.000000
    92  Bq   0.000000
    93  Bq   0.000000
    94  Bq   0.000000
    95  Bq   0.000000
    96  Bq   0.000000
    97  Bq   0.000000
    98  Bq   0.000000
    99  Bq   0.000000
   100  Bq   0.000000
   101  Bq   0.000000
   102  Bq   0.000000
   103  Bq   0.000000
   104  Bq   0.000000
   105  Bq   0.000000
   106  Bq   0.000000
   107  Bq   0.000000
   108  Bq   0.000000
   109  Bq   0.000000
   110  Bq   0.000000
   111  Bq   0.000000
   112  Bq   0.000000
   113  Bq   0.000000
   114  Bq   0.000000
   115  Bq   0.000000
   116  Bq   0.000000
   117  Bq   0.000000
   118  Bq   0.000000
   119  Bq   0.000000
   120  Bq   0.000000
   121  Bq   0.000000
   122  Bq   0.000000
   123  Bq   0.000000
   124  Bq   0.000000
   125  Bq   0.000000
   126  Bq   0.000000
   127  Bq   0.000000
   128  Bq   0.000000
   129  Bq   0.000000
   130  Bq   0.000000
   131  Bq   0.000000
   132  Bq   0.000000
   133  Bq   0.000000
   134  Bq   0.000000
   135  Bq   0.000000
   136  Bq   0.000000
   137  Bq   0.000000
   138  Bq   0.000000
   139  Bq   0.000000
   140  Bq   0.000000
   141  Bq   0.000000
   142  Bq   0.000000
   143  Bq   0.000000
   144  Bq   0.000000
   145  Bq   0.000000
   146  Bq   0.000000
   147  Bq   0.000000
   148  Bq   0.000000
   149  Bq   0.000000
   150  Bq   0.000000
   151  Bq   0.000000
   152  Bq   0.000000
   153  Bq   0.000000
   154  Bq   0.000000
   155  Bq   0.000000
   156  Bq   0.000000
   157  Bq   0.000000
   158  Bq   0.000000
   159  Bq   0.000000
   160  Bq   0.000000
   161  Bq   0.000000
   162  Bq   0.000000
   163  Bq   0.000000
   164  Bq   0.000000
   165  Bq   0.000000
   166  Bq   0.000000
   167  Bq   0.000000
   168  Bq   0.000000
   169  Bq   0.000000
   170  Bq   0.000000
   171  Bq   0.000000
   172  Bq   0.000000
   173  Bq   0.000000
   174  Bq   0.000000
   175  Bq   0.000000
   176  Bq   0.000000
   177  Bq   0.000000
   178  Bq   0.000000
   179  Bq   0.000000
   180  Bq   0.000000
   181  Bq   0.000000
   182  Bq   0.000000
   183  Bq   0.000000
   184  Bq   0.000000
   185  Bq   0.000000
   186  Bq   0.000000
   187  Bq   0.000000
   188  Bq   0.000000
   189  Bq   0.000000
   190  Bq   0.000000
   191  Bq   0.000000
   192  Bq   0.000000
   193  Bq   0.000000
   194  Bq   0.000000
   195  Bq   0.000000
   196  Bq   0.000000
   197  Bq   0.000000
   198  Bq   0.000000
   199  Bq   0.000000
   200  Bq   0.000000
   201  Bq   0.000000
   202  Bq   0.000000
   203  Bq   0.000000
   204  Bq   0.000000
   205  Bq   0.000000
   206  Bq   0.000000
   207  Bq   0.000000
   208  Bq   0.000000
   209  Bq   0.000000
   210  Bq   0.000000
   211  Bq   0.000000
   212  Bq   0.000000
   213  Bq   0.000000
   214  Bq   0.000000
   215  Bq   0.000000
   216  Bq   0.000000
   217  Bq   0.000000
   218  Bq   0.000000
 Sum of Mulliken charges =   0.00000
 Mulliken charges with hydrogens summed into heavy atoms:
               1
     1  C   -0.142297
     2  C   -0.142297
     3  C    0.040055
     4  C    0.204484
     5  C    0.040055
     6  C   -0.142297
     7  C   -0.142297
     8  C    0.040055
     9  C    0.204484
    10  C    0.040055
    19  Bq   0.000000
    20  Bq   0.000000
    21  Bq   0.000000
    22  Bq   0.000000
    23  Bq   0.000000
    24  Bq   0.000000
    25  Bq   0.000000
    26  Bq   0.000000
    27  Bq   0.000000
    28  Bq   0.000000
    29  Bq   0.000000
    30  Bq   0.000000
    31  Bq   0.000000
    32  Bq   0.000000
    33  Bq   0.000000
    34  Bq   0.000000
    35  Bq   0.000000
    36  Bq   0.000000
    37  Bq   0.000000
    38  Bq   0.000000
    39  Bq   0.000000
    40  Bq   0.000000
    41  Bq   0.000000
    42  Bq   0.000000
    43  Bq   0.000000
    44  Bq   0.000000
    45  Bq   0.000000
    46  Bq   0.000000
    47  Bq   0.000000
    48  Bq   0.000000
    49  Bq   0.000000
    50  Bq   0.000000
    51  Bq   0.000000
    52  Bq   0.000000
    53  Bq   0.000000
    54  Bq   0.000000
    55  Bq   0.000000
    56  Bq   0.000000
    57  Bq   0.000000
    58  Bq   0.000000
    59  Bq   0.000000
    60  Bq   0.000000
    61  Bq   0.000000
    62  Bq   0.000000
    63  Bq   0.000000
    64  Bq   0.000000
    65  Bq   0.000000
    66  Bq   0.000000
    67  Bq   0.000000
    68  Bq   0.000000
    69  Bq   0.000000
    70  Bq   0.000000
    71  Bq   0.000000
    72  Bq   0.000000
    73  Bq   0.000000
    74  Bq   0.000000
    75  Bq   0.000000
    76  Bq   0.000000
    77  Bq   0.000000
    78  Bq   0.000000
    79  Bq   0.000000
    80  Bq   0.000000
    81  Bq   0.000000
    82  Bq   0.000000
    83  Bq   0.000000
    84  Bq   0.000000
    85  Bq   0.000000
    86  Bq   0.000000
    87  Bq   0.000000
    88  Bq   0.000000
    89  Bq   0.000000
    90  Bq   0.000000
    91  Bq   0.000000
    92  Bq   0.000000
    93  Bq   0.000000
    94  Bq   0.000000
    95  Bq   0.000000
    96  Bq   0.000000
    97  Bq   0.000000
    98  Bq   0.000000
    99  Bq   0.000000
   100  Bq   0.000000
   101  Bq   0.000000
   102  Bq   0.000000
   103  Bq   0.000000
   104  Bq   0.000000
   105  Bq   0.000000
   106  Bq   0.000000
   107  Bq   0.000000
   108  Bq   0.000000
   109  Bq   0.000000
   110  Bq   0.000000
   111  Bq   0.000000
   112  Bq   0.000000
   113  Bq   0.000000
   114  Bq   0.000000
   115  Bq   0.000000
   116  Bq   0.000000
   117  Bq   0.000000
   118  Bq   0.000000
   119  Bq   0.000000
   120  Bq   0.000000
   121  Bq   0.000000
   122  Bq   0.000000
   123  Bq   0.000000
   124  Bq   0.000000
   125  Bq   0.000000
   126  Bq   0.000000
   127  Bq   0.000000
   128  Bq   0.000000
   129  Bq   0.000000
   130  Bq   0.000000
   131  Bq   0.000000
   132  Bq   0.000000
   133  Bq   0.000000
   134  Bq   0.000000
   135  Bq   0.000000
   136  Bq   0.000000
   137  Bq   0.000000
   138  Bq   0.000000
   139  Bq   0.000000
   140  Bq   0.000000
   141  Bq   0.000000
   142  Bq   0.000000
   143  Bq   0.000000
   144  Bq   0.000000
   145  Bq   0.000000
   146  Bq   0.000000
   147  Bq   0.000000
   148  Bq   0.000000
   149  Bq   0.000000
   150  Bq   0.000000
   151  Bq   0.000000
   152  Bq   0.000000
   153  Bq   0.000000
   154  Bq   0.000000
   155  Bq   0.000000
   156  Bq   0.000000
   157  Bq   0.000000
   158  Bq   0.000000
   159  Bq   0.000000
   160  Bq   0.000000
   161  Bq   0.000000
   162  Bq   0.000000
   163  Bq   0.000000
   164  Bq   0.000000
   165  Bq   0.000000
   166  Bq   0.000000
   167  Bq   0.000000
   168  Bq   0.000000
   169  Bq   0.000000
   170  Bq   0.000000
   171  Bq   0.000000
   172  Bq   0.000000
   173  Bq   0.000000
   174  Bq   0.000000
   175  Bq   0.000000
   176  Bq   0.000000
   177  Bq   0.000000
   178  Bq   0.000000
   179  Bq   0.000000
   180  Bq   0.000000
   181  Bq   0.000000
   182  Bq   0.000000
   183  Bq   0.000000
   184  Bq   0.000000
   185  Bq   0.000000
   186  Bq   0.000000
   187  Bq   0.000000
   188  Bq   0.000000
   189  Bq   0.000000
   190  Bq   0.000000
   191  Bq   0.000000
   192  Bq   0.000000
   193  Bq   0.000000
   194  Bq   0.000000
   195  Bq   0.000000
   196  Bq   0.000000
   197  Bq   0.000000
   198  Bq   0.000000
   199  Bq   0.000000
   200  Bq   0.000000
   201  Bq   0.000000
   202  Bq   0.000000
   203  Bq   0.000000
   204  Bq   0.000000
   205  Bq   0.000000
   206  Bq   0.000000
   207  Bq   0.000000
   208  Bq   0.000000
   209  Bq   0.000000
   210  Bq   0.000000
   211  Bq   0.000000
   212  Bq   0.000000
   213  Bq   0.000000
   214  Bq   0.000000
   215  Bq   0.000000
   216  Bq   0.000000
   217  Bq   0.000000
   218  Bq   0.000000
 Electronic spatial extent (au):  <R**2>=           1312.5323
 Charge=              0.0000 electrons
 Dipole moment (field-independent basis, Debye):
    X=              0.0000    Y=              0.0000    Z=              0.0000  Tot=              0.0000
 Quadrupole moment (field-independent basis, Debye-Ang):
   XX=            -51.9618   YY=            -52.1216   ZZ=            -65.1252
   XY=              0.0000   XZ=              0.0000   YZ=              0.0000
 Traceless Quadrupole moment (field-independent basis, Debye-Ang):
   XX=              4.4411   YY=              4.2812   ZZ=             -8.7224
   XY=              0.0000   XZ=              0.0000   YZ=              0.0000
 Octapole moment (field-independent basis, Debye-Ang**2):
  XXX=              0.0000  YYY=              0.0000  ZZZ=              0.0000  XYY=              0.0000
  XXY=              0.0000  XXZ=              0.0000  XZZ=              0.0000  YZZ=              0.0000
  YYZ=              0.0000  XYZ=              0.0000
 Hexadecapole moment (field-independent basis, Debye-Ang**3):
 XXXX=          -1119.8966 YYYY=           -498.1664 ZZZZ=            -79.6336 XXXY=              0.0000
 XXXZ=              0.0000 YYYX=              0.0000 YYYZ=              0.0000 ZZZX=              0.0000
 ZZZY=              0.0000 XXYY=           -275.3262 XXZZ=           -249.8350 YYZZ=           -117.4791
 XXYZ=              0.0000 YYXZ=              0.0000 ZZXY=              0.0000
 N-N= 4.538675371600D+02 E-N=-1.802310911208D+03  KE= 3.837199947839D+02
 1\1\GINC-PLANA\SP\RB3LYP\6-311+G(d,p)\C10H8\YANNICK\25-Sep-2020\0\\# r
 b3lyp/6-311+g** NMR geom=connectivity\\Title\\0,1\C,0,2.45076,-0.71174
 ,0.\C,0,2.45076,0.71174,0.\C,0,1.25139,1.41137,0.\C,0,0.,0.72289,0.\C,
 0,-1.25139,1.41137,0.\C,0,-2.45076,0.71174,0.\C,0,-2.45076,-0.71174,0.
 \C,0,-1.25139,-1.41137,0.\C,0,0.,-0.72289,0.\C,0,1.25139,-1.41137,0.\H
 ,0,3.40873,-1.25791,0.\H,0,3.40873,1.25791,0.\H,0,1.24972,2.51472,0.\H
 ,0,-1.24972,2.51472,0.\H,0,-3.40873,1.25791,0.\H,0,-3.40873,-1.25791,0
 .\H,0,-1.24972,-2.51472,0.\H,0,1.24972,-2.51472,0.\Bq,0,-0.70710678,-0
 .72289,0.70710678\Bq,0,-0.69351992,-0.91798032,-0.69351992\Bq,0,-0.693
 51992,-0.91798032,0.69351992\Bq,0,-0.69351992,-0.52779968,-0.69351992\
 Bq,0,-0.69351992,-0.52779968,0.69351992\Bq,0,-0.55557023,-0.72289,-0.8
 3146961\Bq,0,-0.55557023,-0.72289,0.83146961\Bq,0,-0.53805603,-0.92164
 685,-0.81914066\Bq,0,-0.53805603,-0.92164685,0.81914066\Bq,0,-0.538056
 03,-0.52413315,-0.81914066\Bq,0,-0.53805603,-0.52413315,0.81914066\Bq,
 0,-0.48187449,-1.12750504,-0.77722818\Bq,0,-0.48187449,-1.12750504,0.7
 7722818\Bq,0,-0.48187449,-0.31827496,-0.77722818\Bq,0,-0.48187449,-0.3
 1827496,0.77722818\Bq,0,-0.40824829,-1.30024027,-0.70710678\Bq,0,-0.40
 824829,-1.30024027,0.70710678\Bq,0,-0.40824829,-0.14553973,-0.70710678
 \Bq,0,-0.40824829,-0.14553973,0.70710678\Bq,0,-0.38268343,-0.72289,-0.
 92387953\Bq,0,-0.38268343,-0.72289,0.92387953\Bq,0,-0.34344529,-0.9317
 366,-0.91565738\Bq,0,-0.34344529,-0.9317366,0.91565738\Bq,0,-0.3434452
 9,-0.5140434,-0.91565738\Bq,0,-0.34344529,-0.5140434,0.91565738\Bq,0,-
 0.28867513,-1.13113829,-0.8660254\Bq,0,-0.28867513,-1.13113829,0.86602
 54\Bq,0,-0.28867513,-0.31464171,-0.8660254\Bq,0,-0.28867513,-0.3146417
 1,0.8660254\Bq,0,-0.28108464,-1.68257298,0.\Bq,0,-0.27059805,-1.646769
 53,-0.27059805\Bq,0,-0.27059805,-1.64676953,0.27059805\Bq,0,-0.2588190
 5,-1.51156513,-0.55767754\Bq,0,-0.25881905,-1.51156513,0.55767754\Bq,0
 ,-0.19509032,-0.72289,-0.98078528\Bq,0,-0.19509032,-0.72289,0.98078528
 \Bq,0,-0.15075567,-1.36249215,-0.75377836\Bq,0,-0.15075567,-1.36249215
 ,0.75377836\Bq,0,-0.15075567,-0.08328785,-0.75377836\Bq,0,-0.15075567,
 -0.08328785,0.75377836\Bq,0,-0.14942925,-0.93421487,-0.96592583\Bq,0,-
 0.14942925,-0.93421487,0.96592583\Bq,0,-0.14942925,-0.51156513,-0.9659
 2583\Bq,0,-0.14942925,-0.51156513,0.96592583\Bq,0,-0.1384292,-1.613210
 03,-0.43378289\Bq,0,-0.1384292,-1.61321003,0.43378289\Bq,0,-0.13794969
 ,-1.70367528,-0.13794969\Bq,0,-0.13794969,-1.70367528,0.13794969\Bq,0,
 0.,-1.72289,0.\Bq,0,0.,-1.68257298,-0.28108464\Bq,0,0.,-1.68257298,0.2
 8108464\Bq,0,0.,-1.53938658,-0.57735027\Bq,0,0.,-1.53938658,0.57735027
 \Bq,0,0.,-1.14929143,-0.90453403\Bq,0,0.,-1.14929143,0.90453403\Bq,0,0
 .,-0.72289,-1.\Bq,0,0.,-0.72289,1.\Bq,0,0.,-0.29648857,-0.90453403\Bq,
 0,0.,-0.29648857,0.90453403\Bq,0,0.13794969,-1.70367528,-0.13794969\Bq
 ,0,0.13794969,-1.70367528,0.13794969\Bq,0,0.1384292,-1.61321003,-0.433
 78289\Bq,0,0.1384292,-1.61321003,0.43378289\Bq,0,0.14942925,-0.9342148
 7,-0.96592583\Bq,0,0.14942925,-0.93421487,0.96592583\Bq,0,0.14942925,-
 0.51156513,-0.96592583\Bq,0,0.14942925,-0.51156513,0.96592583\Bq,0,0.1
 5075567,-1.36249215,-0.75377836\Bq,0,0.15075567,-1.36249215,0.75377836
 \Bq,0,0.15075567,-0.08328785,-0.75377836\Bq,0,0.15075567,-0.08328785,0
 .75377836\Bq,0,0.19509032,-0.72289,-0.98078528\Bq,0,0.19509032,-0.7228
 9,0.98078528\Bq,0,0.25881905,-1.51156513,-0.55767754\Bq,0,0.25881905,-
 1.51156513,0.55767754\Bq,0,0.27059805,-1.64676953,-0.27059805\Bq,0,0.2
 7059805,-1.64676953,0.27059805\Bq,0,0.28108464,-1.68257298,0.\Bq,0,0.2
 8867513,-1.13113829,-0.8660254\Bq,0,0.28867513,-1.13113829,0.8660254\B
 q,0,0.28867513,-0.31464171,-0.8660254\Bq,0,0.28867513,-0.31464171,0.86
 60254\Bq,0,0.34344529,-0.9317366,-0.91565738\Bq,0,0.34344529,-0.931736
 6,0.91565738\Bq,0,0.34344529,-0.5140434,-0.91565738\Bq,0,0.34344529,-0
 .5140434,0.91565738\Bq,0,0.38268343,-0.72289,-0.92387953\Bq,0,0.382683
 43,-0.72289,0.92387953\Bq,0,0.40824829,-1.30024027,-0.70710678\Bq,0,0.
 40824829,-1.30024027,0.70710678\Bq,0,0.40824829,-0.14553973,-0.7071067
 8\Bq,0,0.40824829,-0.14553973,0.70710678\Bq,0,0.48187449,-1.12750504,-
 0.77722818\Bq,0,0.48187449,-1.12750504,0.77722818\Bq,0,0.48187449,-0.3
 1827496,-0.77722818\Bq,0,0.48187449,-0.31827496,0.77722818\Bq,0,0.5380
 5603,-0.92164685,-0.81914066\Bq,0,0.53805603,-0.92164685,0.81914066\Bq
 ,0,0.53805603,-0.52413315,-0.81914066\Bq,0,0.53805603,-0.52413315,0.81
 914066\Bq,0,0.55557023,-0.72289,-0.83146961\Bq,0,0.55557023,-0.72289,0
 .83146961\Bq,0,0.69351992,-0.91798032,-0.69351992\Bq,0,0.69351992,-0.9
 1798032,0.69351992\Bq,0,0.69351992,-0.52779968,-0.69351992\Bq,0,0.6935
 1992,-0.52779968,0.69351992\Bq,0,0.70710678,-0.72289,-0.70710678\Bq,0,
 0.70710678,-0.72289,0.70710678\Bq,0,0.33573262,-1.6202166,-0.34344529\
 Bq,0,0.33573262,-1.6202166,0.34344529\Bq,0,0.34685597,-1.83777143,0.\B
 q,0,0.3853646,-1.81961829,-0.28867513\Bq,0,0.3853646,-1.81961829,0.288
 67513\Bq,0,0.43224934,-1.61012685,-0.53805603\Bq,0,0.43224934,-1.61012
 685,0.53805603\Bq,0,0.47416182,-1.81598504,-0.48187449\Bq,0,0.47416182
 ,-1.81598504,0.48187449\Bq,0,0.54428322,-1.41137,-0.70710678\Bq,0,0.54
 428322,-1.41137,0.70710678\Bq,0,0.55787008,-1.60646032,-0.69351992\Bq,
 0,0.55787008,-1.60646032,0.69351992\Bq,0,0.55787008,-1.21627968,-0.693
 51992\Bq,0,0.55787008,-1.21627968,0.69351992\Bq,0,0.59810852,-1.794053
 43,-0.65328148\Bq,0,0.59810852,-1.79405343,0.65328148\Bq,0,0.69581977,
 -1.41137,-0.83146961\Bq,0,0.69581977,-1.41137,0.83146961\Bq,0,0.713333
 97,-1.61012685,-0.81914066\Bq,0,0.71333397,-1.61012685,0.81914066\Bq,0
 ,0.71333397,-1.21261315,-0.81914066\Bq,0,0.71333397,-1.21261315,0.8191
 4066\Bq,0,0.76951551,-1.81598504,-0.77722818\Bq,0,0.76951551,-1.815985
 04,0.77722818\Bq,0,0.76951551,-1.00675496,-0.77722818\Bq,0,0.76951551,
 -1.00675496,0.77722818\Bq,0,0.84314171,-0.83401973,-0.70710678\Bq,0,0.
 84314171,-0.83401973,0.70710678\Bq,0,0.86870657,-1.41137,-0.92387953\B
 q,0,0.86870657,-1.41137,0.92387953\Bq,0,0.90794471,-1.6202166,-0.91565
 738\Bq,0,0.90794471,-1.6202166,0.91565738\Bq,0,0.90794471,-1.2025234,-
 0.91565738\Bq,0,0.90794471,-1.2025234,0.91565738\Bq,0,0.96271487,-1.81
 961829,-0.8660254\Bq,0,0.96271487,-1.81961829,0.8660254\Bq,0,0.9627148
 7,-1.00312171,-0.8660254\Bq,0,0.96271487,-1.00312171,0.8660254\Bq,0,1.
 05629968,-1.41137,-0.98078528\Bq,0,1.05629968,-1.41137,0.98078528\Bq,0
 ,1.10063433,-0.77176785,-0.75377836\Bq,0,1.10063433,-0.77176785,0.7537
 7836\Bq,0,1.10196075,-1.62269487,-0.96592583\Bq,0,1.10196075,-1.622694
 87,0.96592583\Bq,0,1.10196075,-1.20004513,-0.96592583\Bq,0,1.10196075,
 -1.20004513,0.96592583\Bq,0,1.25139,-1.83777143,-0.90453403\Bq,0,1.251
 39,-1.83777143,0.90453403\Bq,0,1.25139,-1.41137,-1.\Bq,0,1.25139,-1.41
 137,1.\Bq,0,1.25139,-0.98496857,-0.90453403\Bq,0,1.25139,-0.98496857,0
 .90453403\Bq,0,1.40081925,-1.62269487,-0.96592583\Bq,0,1.40081925,-1.6
 2269487,0.96592583\Bq,0,1.40081925,-1.20004513,-0.96592583\Bq,0,1.4008
 1925,-1.20004513,0.96592583\Bq,0,1.40214567,-0.77176785,-0.75377836\Bq
 ,0,1.40214567,-0.77176785,0.75377836\Bq,0,1.44648032,-1.41137,-0.98078
 528\Bq,0,1.44648032,-1.41137,0.98078528\Bq,0,1.54006513,-1.81961829,-0
 .8660254\Bq,0,1.54006513,-1.81961829,0.8660254\Bq,0,1.54006513,-1.0031
 2171,-0.8660254\Bq,0,1.54006513,-1.00312171,0.8660254\Bq,0,1.59483529,
 -1.6202166,-0.91565738\Bq,0,1.59483529,-1.6202166,0.91565738\Bq,0,1.59
 483529,-1.2025234,-0.91565738\Bq,0,1.59483529,-1.2025234,0.91565738\Bq
 ,0,1.63407343,-1.41137,-0.92387953\Bq,0,1.63407343,-1.41137,0.92387953
 \Bq,0,1.65963829,-0.83401973,-0.70710678\Bq,0,1.65963829,-0.83401973,0
 .70710678\Bq,0,1.73326449,-1.81598504,-0.77722818\Bq,0,1.73326449,-1.8
 1598504,0.77722818\Bq,0,1.73326449,-1.00675496,-0.77722818\Bq,0,1.7332
 6449,-1.00675496,0.77722818\Bq,0,1.78944603,-1.61012685,-0.81914066\Bq
 ,0,1.78944603,-1.61012685,0.81914066\Bq,0,1.78944603,-1.21261315,-0.81
 914066\Bq,0,1.78944603,-1.21261315,0.81914066\Bq,0,1.80696023,-1.41137
 ,-0.83146961\Bq,0,1.80696023,-1.41137,0.83146961\Bq,0,1.90467148,-1.79
 405343,-0.65328148\Bq,0,1.90467148,-1.79405343,0.65328148\Bq,0,1.94490
 992,-1.60646032,-0.69351992\Bq,0,1.94490992,-1.60646032,0.69351992\Bq,
 0,1.95849678,-1.41137,-0.70710678\Bq,0,1.95849678,-1.41137,0.70710678\
 Bq,0,2.02861818,-1.81598504,-0.48187449\Bq,0,2.02861818,-1.81598504,0.
 48187449\Bq,0,2.07053066,-1.61012685,-0.53805603\\Version=ES64L-G09Rev
 D.01\HF=-385.9859319\RMSD=7.878e-09\Dipole=0.,0.,0.\Quadrupole=3.30185
 88,3.182998,-6.4848568,0.,0.,0.\PG=C01 [X(C10H8)]\\@


 WOE UNTO THEM THAT CALL EVIL GOOD, AND GOOD EVIL      
 Job cpu time:       0 days  0 hours 10 minutes  1.9 seconds.
 File lengths (MBytes):  RWF=     43 Int=      0 D2E=      0 Chk=      5 Scr=      1
 Normal termination of Gaussian 09 at Fri Sep 25 17:02:44 2020.
