 Entering Gaussian System, Link 0=g09
 Input=input_batch_01800.com
 Output=input_batch_01800.log
 Initial command:
 /share/programs/GAUSSIAN/64/g09/l1.exe "/scratch/yannick.45714/Gau-1385887.inp" -scrdir="/scratch/yannick.45714/"
 Entering Link 1 = /share/programs/GAUSSIAN/64/g09/l1.exe PID=   1385901.
  
 Copyright (c) 1988,1990,1992,1993,1995,1998,2003,2009,2013,
            Gaussian, Inc.  All Rights Reserved.
  
 This is part of the Gaussian(R) 09 program.  It is based on
 the Gaussian(R) 03 system (copyright 2003, Gaussian, Inc.),
 the Gaussian(R) 98 system (copyright 1998, Gaussian, Inc.),
 the Gaussian(R) 94 system (copyright 1995, Gaussian, Inc.),
 the Gaussian 92(TM) system (copyright 1992, Gaussian, Inc.),
 the Gaussian 90(TM) system (copyright 1990, Gaussian, Inc.),
 the Gaussian 88(TM) system (copyright 1988, Gaussian, Inc.),
 the Gaussian 86(TM) system (copyright 1986, Carnegie Mellon
 University), and the Gaussian 82(TM) system (copyright 1983,
 Carnegie Mellon University). Gaussian is a federally registered
 trademark of Gaussian, Inc.
  
 This software contains proprietary and confidential information,
 including trade secrets, belonging to Gaussian, Inc.
  
 This software is provided under written license and may be
 used, copied, transmitted, or stored only in accord with that
 written license.
  
 The following legend is applicable only to US Government
 contracts under FAR:
  
                    RESTRICTED RIGHTS LEGEND
  
 Use, reproduction and disclosure by the US Government is
 subject to restrictions as set forth in subparagraphs (a)
 and (c) of the Commercial Computer Software - Restricted
 Rights clause in FAR 52.227-19.
  
 Gaussian, Inc.
 340 Quinnipiac St., Bldg. 40, Wallingford CT 06492
  
  
 ---------------------------------------------------------------
 Warning -- This program may not be used in any manner that
 competes with the business of Gaussian, Inc. or will provide
 assistance to any competitor of Gaussian, Inc.  The licensee
 of this program is prohibited from giving any competitor of
 Gaussian, Inc. access to this program.  By using this program,
 the user acknowledges that Gaussian, Inc. is engaged in the
 business of creating and licensing software in the field of
 computational chemistry and represents and warrants to the
 licensee that it is not a competitor of Gaussian, Inc. and that
 it will not use this program in any manner prohibited above.
 ---------------------------------------------------------------
  

 Cite this work as:
 Gaussian 09, Revision D.01,
 M. J. Frisch, G. W. Trucks, H. B. Schlegel, G. E. Scuseria, 
 M. A. Robb, J. R. Cheeseman, G. Scalmani, V. Barone, B. Mennucci, 
 G. A. Petersson, H. Nakatsuji, M. Caricato, X. Li, H. P. Hratchian, 
 A. F. Izmaylov, J. Bloino, G. Zheng, J. L. Sonnenberg, M. Hada, 
 M. Ehara, K. Toyota, R. Fukuda, J. Hasegawa, M. Ishida, T. Nakajima, 
 Y. Honda, O. Kitao, H. Nakai, T. Vreven, J. A. Montgomery, Jr., 
 J. E. Peralta, F. Ogliaro, M. Bearpark, J. J. Heyd, E. Brothers, 
 K. N. Kudin, V. N. Staroverov, T. Keith, R. Kobayashi, J. Normand, 
 K. Raghavachari, A. Rendell, J. C. Burant, S. S. Iyengar, J. Tomasi, 
 M. Cossi, N. Rega, J. M. Millam, M. Klene, J. E. Knox, J. B. Cross, 
 V. Bakken, C. Adamo, J. Jaramillo, R. Gomperts, R. E. Stratmann, 
 O. Yazyev, A. J. Austin, R. Cammi, C. Pomelli, J. W. Ochterski, 
 R. L. Martin, K. Morokuma, V. G. Zakrzewski, G. A. Voth, 
 P. Salvador, J. J. Dannenberg, S. Dapprich, A. D. Daniels, 
 O. Farkas, J. B. Foresman, J. V. Ortiz, J. Cioslowski, 
 and D. J. Fox, Gaussian, Inc., Wallingford CT, 2013.
 
 ******************************************
 Gaussian 09:  ES64L-G09RevD.01 24-Apr-2013
                25-Sep-2020 
 ******************************************
 %nproc=8
 Will use up to    8 processors via shared memory.
 %mem=1000MB
 ----------------------------------------
 # rb3lyp/6-311+g** NMR geom=connectivity
 ----------------------------------------
 1/38=1,57=2/1;
 2/12=2,17=6,18=5,40=1/2;
 3/5=4,6=6,7=111,11=2,16=1,25=1,30=1,74=-5,116=1/1,2,8,3;
 4//1;
 5/5=2,38=5/2;
 8/6=1,10=90,11=11/1;
 10/13=100,45=16/2;
 6/7=2,8=2,9=2,10=2,28=1/1;
 99/9=1/99;
 -----
 Title
 -----
 Symbolic Z-matrix:
 Charge =  0 Multiplicity = 1
 C                     2.45076  -0.71174   0. 
 C                     2.45076   0.71174   0. 
 C                     1.25139   1.41137   0. 
 C                     0.        0.72289   0. 
 C                    -1.25139   1.41137   0. 
 C                    -2.45076   0.71174   0. 
 C                    -2.45076  -0.71174   0. 
 C                    -1.25139  -1.41137   0. 
 C                     0.       -0.72289   0. 
 C                     1.25139  -1.41137   0. 
 H                     3.40873  -1.25791   0. 
 H                     3.40873   1.25791   0. 
 H                     1.24972   2.51472   0. 
 H                    -1.24972   2.51472   0. 
 H                    -3.40873   1.25791   0. 
 H                    -3.40873  -1.25791   0. 
 H                    -1.24972  -2.51472   0. 
 H                     1.24972  -2.51472   0. 
 Bq                   -4.37466   1.46923   0.14943 
 Bq                   -4.33261   1.25791  -0.38268 
 Bq                   -4.33261   1.25791   0.38268 
 Bq                   -4.32439   1.04906  -0.34345 
 Bq                   -4.32439   1.04906   0.34345 
 Bq                   -4.32439   1.46676  -0.34345 
 Bq                   -4.32439   1.46676   0.34345 
 Bq                   -4.31326   0.83151   0. 
 Bq                   -4.31326   1.68431   0. 
 Bq                   -4.27476   0.84966  -0.28868 
 Bq                   -4.27476   0.84966   0.28868 
 Bq                   -4.27476   1.66616  -0.28868 
 Bq                   -4.27476   1.66616   0.28868 
 Bq                   -4.2402    1.25791  -0.55557 
 Bq                   -4.2402    1.25791   0.55557 
 Bq                   -4.22787   1.05915  -0.53806 
 Bq                   -4.22787   1.05915   0.53806 
 Bq                   -4.22787   1.45667  -0.53806 
 Bq                   -4.22787   1.45667   0.53806 
 Bq                   -4.18596   0.85329  -0.48187 
 Bq                   -4.18596   0.85329   0.48187 
 Bq                   -4.18596   1.66253  -0.48187 
 Bq                   -4.18596   1.66253   0.48187 
 Bq                   -4.16251   0.61831  -0.15076 
 Bq                   -4.16251   0.61831   0.15076 
 Bq                   -4.16251   1.89751  -0.15076 
 Bq                   -4.16251   1.89751   0.15076 
 Bq                   -4.11584   0.68056  -0.40825 
 Bq                   -4.11584   0.68056   0.40825 
 Bq                   -4.11584   1.25791  -0.70711 
 Bq                   -4.11584   1.25791   0.70711 
 Bq                   -4.11584   1.83526  -0.40825 
 Bq                   -4.11584   1.83526   0.40825 
 Bq                   -4.10225   1.06282  -0.69352 
 Bq                   -4.10225   1.06282   0.69352 
 Bq                   -4.10225   1.453    -0.69352 
 Bq                   -4.10225   1.453     0.69352 
 Bq                   -4.06201   0.87523  -0.65328 
 Bq                   -4.06201   0.87523   0.65328 
 Bq                   -4.06201   1.64059  -0.65328 
 Bq                   -4.06201   1.64059   0.65328 
 Bq                   -3.99667   0.70234  -0.58794 
 Bq                   -3.99667   0.70234   0.58794 
 Bq                   -3.99667   1.81348  -0.58794 
 Bq                   -3.99667   1.81348   0.58794 
 Bq                   -3.98608   0.44141   0. 
 Bq                   -3.98608   2.07441   0. 
 Bq                   -3.96641   0.46923  -0.25882 
 Bq                   -3.96641   0.46923   0.25882 
 Bq                   -3.96641   2.04659  -0.25882 
 Bq                   -3.96641   2.04659   0.25882 
 Bq                   -3.9643    1.25791  -0.83147 
 Bq                   -3.9643    1.25791   0.83147 
 Bq                   -3.94679   1.05915  -0.81914 
 Bq                   -3.94679   1.05915   0.81914 
 Bq                   -3.94679   1.45667  -0.81914 
 Bq                   -3.94679   1.45667   0.81914 
 Bq                   -3.90873   0.5508   -0.5 
 Bq                   -3.90873   0.5508    0.5 
 Bq                   -3.90873   1.96502  -0.5 
 Bq                   -3.90873   1.96502   0.5 
 Bq                   -3.8906    0.85329  -0.77723 
 Bq                   -3.8906    0.85329   0.77723 
 Bq                   -3.8906    1.66253  -0.77723 
 Bq                   -3.8906    1.66253   0.77723 
 Bq                   -3.84251   0.36759  -0.13843 
 Bq                   -3.84251   0.36759   0.13843 
 Bq                   -3.84251   2.14823  -0.13843 
 Bq                   -3.84251   2.14823   0.13843 
 Bq                   -3.81698   0.68056  -0.70711 
 Bq                   -3.81698   0.68056   0.70711 
 Bq                   -3.81698   1.83526  -0.70711 
 Bq                   -3.81698   1.83526   0.70711 
 Bq                   -3.80158   0.42644  -0.39285 
 Bq                   -3.80158   0.42644   0.39285 
 Bq                   -3.80158   2.08938  -0.39285 
 Bq                   -3.80158   2.08938   0.39285 
 Bq                   -3.79141   1.25791  -0.92388 
 Bq                   -3.79141   1.25791   0.92388 
 Bq                   -3.75218   1.04906  -0.91566 
 Bq                   -3.75218   1.04906   0.91566 
 Bq                   -3.75218   1.46676  -0.91566 
 Bq                   -3.75218   1.46676   0.91566 
 Bq                   -3.69741   0.84966  -0.86603 
 Bq                   -3.69741   0.84966   0.86603 
 Bq                   -3.69741   1.66616  -0.86603 
 Bq                   -3.69741   1.66616   0.86603 
 Bq                   -3.68981   0.29823   0. 
 Bq                   -3.68981   2.21759   0. 
 Bq                   -3.67933   0.33403  -0.2706 
 Bq                   -3.67933   0.33403   0.2706 
 Bq                   -3.67933   2.18179  -0.2706 
 Bq                   -3.67933   2.18179   0.2706 
 Bq                   -3.66755   0.46923  -0.55768 
 Bq                   -3.66755   0.46923   0.55768 
 Bq                   -3.66755   2.04659  -0.55768 
 Bq                   -3.66755   2.04659   0.55768 
 Bq                   -3.60382   1.25791  -0.98079 
 Bq                   -3.60382   1.25791   0.98079 
 Bq                   -3.55949   0.61831  -0.75378 
 Bq                   -3.55949   0.61831   0.75378 
 Bq                   -3.55949   1.89751  -0.75378 
 Bq                   -3.55949   1.89751   0.75378 
 Bq                   -3.55816   1.04659  -0.96593 
 Bq                   -3.55816   1.04659   0.96593 
 Bq                   -3.55816   1.46923  -0.96593 
 Bq                   -3.55816   1.46923   0.96593 
 Bq                   -3.54716   0.36759  -0.43378 
 Bq                   -3.54716   0.36759   0.43378 
 Bq                   -3.54716   2.14823  -0.43378 
 Bq                   -3.54716   2.14823   0.43378 
 Bq                   -3.54668   0.27712  -0.13795 
 Bq                   -3.54668   0.27712   0.13795 
 Bq                   -3.54668   2.2387   -0.13795 
 Bq                   -3.54668   2.2387    0.13795 
 Bq                   -3.40873   0.25791   0. 
 Bq                   -3.40873   0.29823  -0.28108 
 Bq                   -3.40873   0.29823   0.28108 
 Bq                   -3.40873   0.44141  -0.57735 
 Bq                   -3.40873   0.44141   0.57735 
 Bq                   -3.40873   0.83151  -0.90453 
 Bq                   -3.40873   0.83151   0.90453 
 Bq                   -3.40873   1.25791  -1. 
 Bq                   -3.40873   1.25791   1. 
 Bq                   -3.40873   1.68431  -0.90453 
 Bq                   -3.40873   1.68431   0.90453 
 Bq                   -3.40873   2.07441  -0.57735 
 Bq                   -3.40873   2.07441   0.57735 
 Bq                   -3.40873   2.21759  -0.28108 
 Bq                   -3.40873   2.21759   0.28108 
 Bq                   -3.40873   2.25791   0. 
 Bq                   -3.27078   2.2387   -0.13795 
 Bq                   -3.27078   2.2387    0.13795 
 Bq                   -3.2703    2.14823  -0.43378 
 Bq                   -3.2703    2.14823   0.43378 
 Bq                   -3.2593    1.04659  -0.96593 
 Bq                   -3.2593    1.04659   0.96593 
 Bq                   -3.2593    1.46923  -0.96593 
 Bq                   -3.2593    1.46923   0.96593 
 Bq                   -3.25797   0.61831  -0.75378 
 Bq                   -3.25797   0.61831   0.75378 
 Bq                   -3.25797   1.89751  -0.75378 
 Bq                   -3.25797   1.89751   0.75378 
 Bq                   -3.21364   1.25791  -0.98079 
 Bq                   -3.21364   1.25791   0.98079 
 Bq                   -3.14991   2.04659  -0.55768 
 Bq                   -3.14991   2.04659   0.55768 
 Bq                   -3.13813   2.18179  -0.2706 
 Bq                   -3.13813   2.18179   0.2706 
 Bq                   -3.12765   2.21759   0. 
 Bq                   -3.12005   0.84966  -0.86603 
 Bq                   -3.12005   0.84966   0.86603 
 Bq                   -3.12005   1.66616  -0.86603 
 Bq                   -3.12005   1.66616   0.86603 
 Bq                   -3.06528   1.04906  -0.91566 
 Bq                   -3.06528   1.04906   0.91566 
 Bq                   -3.06528   1.46676  -0.91566 
 Bq                   -3.06528   1.46676   0.91566 
 Bq                   -3.02605   1.25791  -0.92388 
 Bq                   -3.02605   1.25791   0.92388 
 Bq                   -3.01588   2.08938  -0.39285 
 Bq                   -3.01588   2.08938   0.39285 
 Bq                   -3.00048   1.83526  -0.70711 
 Bq                   -3.00048   1.83526   0.70711 
 Bq                   -2.97495   2.14823  -0.13843 
 Bq                   -2.97495   2.14823   0.13843 
 Bq                   -2.92686   1.66253  -0.77723 
 Bq                   -2.92686   1.66253   0.77723 
 Bq                   -2.90873   1.96502  -0.5 
 Bq                   -2.90873   1.96502   0.5 
 Bq                   -2.87067   1.45667  -0.81914 
 Bq                   -2.87067   1.45667   0.81914 
 Bq                   -2.85316   1.25791  -0.83147 
 Bq                   -2.85316   1.25791   0.83147 
 Bq                   -2.85105   2.04659  -0.25882 
 Bq                   -2.85105   2.04659   0.25882 
 Bq                   -2.83138   2.07441   0. 
 Bq                   -2.82079   1.81348  -0.58794 
 Bq                   -2.82079   1.81348   0.58794 
 Bq                   -2.75545   1.64059  -0.65328 
 Bq                   -2.75545   1.64059   0.65328 
 Bq                   -2.71521   1.453    -0.69352 
 Bq                   -2.71521   1.453     0.69352 
 Bq                   -2.70162   1.83526  -0.40825 
 Bq                   -2.70162   1.83526   0.40825 
 Bq                   -2.65495   1.89751  -0.15076 
 Bq                   -2.65495   1.89751   0.15076 
 Bq                   -2.6315    1.66253  -0.48187 
 Bq                   -2.6315    1.66253   0.48187 
 Bq                   -2.5427    1.66616  -0.28868 
 Bq                   -2.5427    1.66616   0.28868 
 Bq                   -4.40873  -1.25791   0. 
 Bq                   -4.38952  -1.25791  -0.19509 
 Bq                   -4.38952  -1.25791   0.19509 
 Bq                   -4.37466  -1.46923  -0.14943 
 Bq                   -4.37466  -1.46923   0.14943 
 Bq                   -4.37466  -1.04659  -0.14943 
 Bq                   -4.37466  -1.04659   0.14943 
 Bq                   -4.33261  -1.25791  -0.38268 
 Bq                   -4.33261  -1.25791   0.38268 
 
 Symmetry turned off:
 Cannot cope with ghost atoms or with translation vectors.
 Stoichiometry    C10H8
 Framework group  C1[X(C10H8)]
 NUMDOF-- NAT=    18 NAtoms=   218
 Deg. of freedom     0
 Full point group                 C1      NOp   1
                          Input orientation:                          
 ---------------------------------------------------------------------
 Center     Atomic      Atomic             Coordinates (Angstroms)
 Number     Number       Type             X           Y           Z
 ---------------------------------------------------------------------
      1          6           0        2.450760   -0.711740    0.000000
      2          6           0        2.450760    0.711740    0.000000
      3          6           0        1.251390    1.411370    0.000000
      4          6           0        0.000000    0.722890    0.000000
      5          6           0       -1.251390    1.411370    0.000000
      6          6           0       -2.450760    0.711740    0.000000
      7          6           0       -2.450760   -0.711740    0.000000
      8          6           0       -1.251390   -1.411370    0.000000
      9          6           0        0.000000   -0.722890    0.000000
     10          6           0        1.251390   -1.411370    0.000000
     11          1           0        3.408730   -1.257910    0.000000
     12          1           0        3.408730    1.257910    0.000000
     13          1           0        1.249720    2.514720    0.000000
     14          1           0       -1.249720    2.514720    0.000000
     15          1           0       -3.408730    1.257910    0.000000
     16          1           0       -3.408730   -1.257910    0.000000
     17          1           0       -1.249720   -2.514720    0.000000
     18          1           0        1.249720   -2.514720    0.000000
     19          0           0       -4.374656    1.469235    0.149429
     20          0           0       -4.332610    1.257910   -0.382683
     21          0           0       -4.332610    1.257910    0.382683
     22          0           0       -4.324387    1.049063   -0.343445
     23          0           0       -4.324387    1.049063    0.343445
     24          0           0       -4.324387    1.466757   -0.343445
     25          0           0       -4.324387    1.466757    0.343445
     26          0           0       -4.313264    0.831509    0.000000
     27          0           0       -4.313264    1.684311    0.000000
     28          0           0       -4.274755    0.849662   -0.288675
     29          0           0       -4.274755    0.849662    0.288675
     30          0           0       -4.274755    1.666158   -0.288675
     31          0           0       -4.274755    1.666158    0.288675
     32          0           0       -4.240200    1.257910   -0.555570
     33          0           0       -4.240200    1.257910    0.555570
     34          0           0       -4.227871    1.059153   -0.538056
     35          0           0       -4.227871    1.059153    0.538056
     36          0           0       -4.227871    1.456667   -0.538056
     37          0           0       -4.227871    1.456667    0.538056
     38          0           0       -4.185958    0.853295   -0.481874
     39          0           0       -4.185958    0.853295    0.481874
     40          0           0       -4.185958    1.662525   -0.481874
     41          0           0       -4.185958    1.662525    0.481874
     42          0           0       -4.162508    0.618308   -0.150756
     43          0           0       -4.162508    0.618308    0.150756
     44          0           0       -4.162508    1.897512   -0.150756
     45          0           0       -4.162508    1.897512    0.150756
     46          0           0       -4.115837    0.680560   -0.408248
     47          0           0       -4.115837    0.680560    0.408248
     48          0           0       -4.115837    1.257910   -0.707107
     49          0           0       -4.115837    1.257910    0.707107
     50          0           0       -4.115837    1.835260   -0.408248
     51          0           0       -4.115837    1.835260    0.408248
     52          0           0       -4.102250    1.062820   -0.693520
     53          0           0       -4.102250    1.062820    0.693520
     54          0           0       -4.102250    1.453000   -0.693520
     55          0           0       -4.102250    1.453000    0.693520
     56          0           0       -4.062011    0.875227   -0.653281
     57          0           0       -4.062011    0.875227    0.653281
     58          0           0       -4.062011    1.640593   -0.653281
     59          0           0       -4.062011    1.640593    0.653281
     60          0           0       -3.996668    0.702340   -0.587938
     61          0           0       -3.996668    0.702340    0.587938
     62          0           0       -3.996668    1.813480   -0.587938
     63          0           0       -3.996668    1.813480    0.587938
     64          0           0       -3.986080    0.441413    0.000000
     65          0           0       -3.986080    2.074407    0.000000
     66          0           0       -3.966408    0.469235   -0.258819
     67          0           0       -3.966408    0.469235    0.258819
     68          0           0       -3.966408    2.046585   -0.258819
     69          0           0       -3.966408    2.046585    0.258819
     70          0           0       -3.964300    1.257910   -0.831470
     71          0           0       -3.964300    1.257910    0.831470
     72          0           0       -3.946786    1.059153   -0.819141
     73          0           0       -3.946786    1.059153    0.819141
     74          0           0       -3.946786    1.456667   -0.819141
     75          0           0       -3.946786    1.456667    0.819141
     76          0           0       -3.908730    0.550803   -0.500000
     77          0           0       -3.908730    0.550803    0.500000
     78          0           0       -3.908730    1.965017   -0.500000
     79          0           0       -3.908730    1.965017    0.500000
     80          0           0       -3.890604    0.853295   -0.777228
     81          0           0       -3.890604    0.853295    0.777228
     82          0           0       -3.890604    1.662525   -0.777228
     83          0           0       -3.890604    1.662525    0.777228
     84          0           0       -3.842513    0.367590   -0.138429
     85          0           0       -3.842513    0.367590    0.138429
     86          0           0       -3.842513    2.148230   -0.138429
     87          0           0       -3.842513    2.148230    0.138429
     88          0           0       -3.816978    0.680560   -0.707107
     89          0           0       -3.816978    0.680560    0.707107
     90          0           0       -3.816978    1.835260   -0.707107
     91          0           0       -3.816978    1.835260    0.707107
     92          0           0       -3.801577    0.426440   -0.392847
     93          0           0       -3.801577    0.426440    0.392847
     94          0           0       -3.801577    2.089380   -0.392847
     95          0           0       -3.801577    2.089380    0.392847
     96          0           0       -3.791413    1.257910   -0.923880
     97          0           0       -3.791413    1.257910    0.923880
     98          0           0       -3.752175    1.049063   -0.915657
     99          0           0       -3.752175    1.049063    0.915657
    100          0           0       -3.752175    1.466757   -0.915657
    101          0           0       -3.752175    1.466757    0.915657
    102          0           0       -3.697405    0.849662   -0.866025
    103          0           0       -3.697405    0.849662    0.866025
    104          0           0       -3.697405    1.666158   -0.866025
    105          0           0       -3.697405    1.666158    0.866025
    106          0           0       -3.689815    0.298227    0.000000
    107          0           0       -3.689815    2.217593    0.000000
    108          0           0       -3.679328    0.334030   -0.270598
    109          0           0       -3.679328    0.334030    0.270598
    110          0           0       -3.679328    2.181790   -0.270598
    111          0           0       -3.679328    2.181790    0.270598
    112          0           0       -3.667549    0.469235   -0.557678
    113          0           0       -3.667549    0.469235    0.557678
    114          0           0       -3.667549    2.046585   -0.557678
    115          0           0       -3.667549    2.046585    0.557678
    116          0           0       -3.603820    1.257910   -0.980785
    117          0           0       -3.603820    1.257910    0.980785
    118          0           0       -3.559486    0.618308   -0.753778
    119          0           0       -3.559486    0.618308    0.753778
    120          0           0       -3.559486    1.897512   -0.753778
    121          0           0       -3.559486    1.897512    0.753778
    122          0           0       -3.558159    1.046585   -0.965926
    123          0           0       -3.558159    1.046585    0.965926
    124          0           0       -3.558159    1.469235   -0.965926
    125          0           0       -3.558159    1.469235    0.965926
    126          0           0       -3.547159    0.367590   -0.433783
    127          0           0       -3.547159    0.367590    0.433783
    128          0           0       -3.547159    2.148230   -0.433783
    129          0           0       -3.547159    2.148230    0.433783
    130          0           0       -3.546680    0.277125   -0.137950
    131          0           0       -3.546680    0.277125    0.137950
    132          0           0       -3.546680    2.238695   -0.137950
    133          0           0       -3.546680    2.238695    0.137950
    134          0           0       -3.408730    0.257910    0.000000
    135          0           0       -3.408730    0.298227   -0.281085
    136          0           0       -3.408730    0.298227    0.281085
    137          0           0       -3.408730    0.441413   -0.577350
    138          0           0       -3.408730    0.441413    0.577350
    139          0           0       -3.408730    0.831509   -0.904534
    140          0           0       -3.408730    0.831509    0.904534
    141          0           0       -3.408730    1.257910   -1.000000
    142          0           0       -3.408730    1.257910    1.000000
    143          0           0       -3.408730    1.684311   -0.904534
    144          0           0       -3.408730    1.684311    0.904534
    145          0           0       -3.408730    2.074407   -0.577350
    146          0           0       -3.408730    2.074407    0.577350
    147          0           0       -3.408730    2.217593   -0.281085
    148          0           0       -3.408730    2.217593    0.281085
    149          0           0       -3.408730    2.257910    0.000000
    150          0           0       -3.270780    2.238695   -0.137950
    151          0           0       -3.270780    2.238695    0.137950
    152          0           0       -3.270301    2.148230   -0.433783
    153          0           0       -3.270301    2.148230    0.433783
    154          0           0       -3.259301    1.046585   -0.965926
    155          0           0       -3.259301    1.046585    0.965926
    156          0           0       -3.259301    1.469235   -0.965926
    157          0           0       -3.259301    1.469235    0.965926
    158          0           0       -3.257974    0.618308   -0.753778
    159          0           0       -3.257974    0.618308    0.753778
    160          0           0       -3.257974    1.897512   -0.753778
    161          0           0       -3.257974    1.897512    0.753778
    162          0           0       -3.213640    1.257910   -0.980785
    163          0           0       -3.213640    1.257910    0.980785
    164          0           0       -3.149911    2.046585   -0.557678
    165          0           0       -3.149911    2.046585    0.557678
    166          0           0       -3.138132    2.181790   -0.270598
    167          0           0       -3.138132    2.181790    0.270598
    168          0           0       -3.127645    2.217593    0.000000
    169          0           0       -3.120055    0.849662   -0.866025
    170          0           0       -3.120055    0.849662    0.866025
    171          0           0       -3.120055    1.666158   -0.866025
    172          0           0       -3.120055    1.666158    0.866025
    173          0           0       -3.065285    1.049063   -0.915657
    174          0           0       -3.065285    1.049063    0.915657
    175          0           0       -3.065285    1.466757   -0.915657
    176          0           0       -3.065285    1.466757    0.915657
    177          0           0       -3.026047    1.257910   -0.923880
    178          0           0       -3.026047    1.257910    0.923880
    179          0           0       -3.015883    2.089380   -0.392847
    180          0           0       -3.015883    2.089380    0.392847
    181          0           0       -3.000482    1.835260   -0.707107
    182          0           0       -3.000482    1.835260    0.707107
    183          0           0       -2.974947    2.148230   -0.138429
    184          0           0       -2.974947    2.148230    0.138429
    185          0           0       -2.926856    1.662525   -0.777228
    186          0           0       -2.926856    1.662525    0.777228
    187          0           0       -2.908730    1.965017   -0.500000
    188          0           0       -2.908730    1.965017    0.500000
    189          0           0       -2.870674    1.456667   -0.819141
    190          0           0       -2.870674    1.456667    0.819141
    191          0           0       -2.853160    1.257910   -0.831470
    192          0           0       -2.853160    1.257910    0.831470
    193          0           0       -2.851052    2.046585   -0.258819
    194          0           0       -2.851052    2.046585    0.258819
    195          0           0       -2.831380    2.074407    0.000000
    196          0           0       -2.820792    1.813480   -0.587938
    197          0           0       -2.820792    1.813480    0.587938
    198          0           0       -2.755449    1.640593   -0.653281
    199          0           0       -2.755449    1.640593    0.653281
    200          0           0       -2.715210    1.453000   -0.693520
    201          0           0       -2.715210    1.453000    0.693520
    202          0           0       -2.701623    1.835260   -0.408248
    203          0           0       -2.701623    1.835260    0.408248
    204          0           0       -2.654952    1.897512   -0.150756
    205          0           0       -2.654952    1.897512    0.150756
    206          0           0       -2.631502    1.662525   -0.481874
    207          0           0       -2.631502    1.662525    0.481874
    208          0           0       -2.542705    1.666158   -0.288675
    209          0           0       -2.542705    1.666158    0.288675
    210          0           0       -4.408730   -1.257910    0.000000
    211          0           0       -4.389515   -1.257910   -0.195090
    212          0           0       -4.389515   -1.257910    0.195090
    213          0           0       -4.374656   -1.469235   -0.149429
    214          0           0       -4.374656   -1.469235    0.149429
    215          0           0       -4.374656   -1.046585   -0.149429
    216          0           0       -4.374656   -1.046585    0.149429
    217          0           0       -4.332610   -1.257910   -0.382683
    218          0           0       -4.332610   -1.257910    0.382683
 ---------------------------------------------------------------------
 Rotational constants (GHZ):      3.0751358      1.2130944      0.8699230
 Standard basis: 6-311+G(d,p) (5D, 7F)
 Warning:  center  19 has no basis functions!
 Warning:  center  20 has no basis functions!
 Warning:  center  21 has no basis functions!
 Warning:  center  22 has no basis functions!
 Warning:  center  23 has no basis functions!
 Warning:  center  24 has no basis functions!
 Warning:  center  25 has no basis functions!
 Warning:  center  26 has no basis functions!
 Warning:  center  27 has no basis functions!
 Warning:  center  28 has no basis functions!
 Warning:  center  29 has no basis functions!
 Warning:  center  30 has no basis functions!
 Warning:  center  31 has no basis functions!
 Warning:  center  32 has no basis functions!
 Warning:  center  33 has no basis functions!
 Warning:  center  34 has no basis functions!
 Warning:  center  35 has no basis functions!
 Warning:  center  36 has no basis functions!
 Warning:  center  37 has no basis functions!
 Warning:  center  38 has no basis functions!
 Warning:  center  39 has no basis functions!
 Warning:  center  40 has no basis functions!
 Warning:  center  41 has no basis functions!
 Warning:  center  42 has no basis functions!
 Warning:  center  43 has no basis functions!
 Warning:  center  44 has no basis functions!
 Warning:  center  45 has no basis functions!
 Warning:  center  46 has no basis functions!
 Warning:  center  47 has no basis functions!
 Warning:  center  48 has no basis functions!
 Warning:  center  49 has no basis functions!
 Warning:  center  50 has no basis functions!
 Warning:  center  51 has no basis functions!
 Warning:  center  52 has no basis functions!
 Warning:  center  53 has no basis functions!
 Warning:  center  54 has no basis functions!
 Warning:  center  55 has no basis functions!
 Warning:  center  56 has no basis functions!
 Warning:  center  57 has no basis functions!
 Warning:  center  58 has no basis functions!
 Warning:  center  59 has no basis functions!
 Warning:  center  60 has no basis functions!
 Warning:  center  61 has no basis functions!
 Warning:  center  62 has no basis functions!
 Warning:  center  63 has no basis functions!
 Warning:  center  64 has no basis functions!
 Warning:  center  65 has no basis functions!
 Warning:  center  66 has no basis functions!
 Warning:  center  67 has no basis functions!
 Warning:  center  68 has no basis functions!
 Warning:  center  69 has no basis functions!
 Warning:  center  70 has no basis functions!
 Warning:  center  71 has no basis functions!
 Warning:  center  72 has no basis functions!
 Warning:  center  73 has no basis functions!
 Warning:  center  74 has no basis functions!
 Warning:  center  75 has no basis functions!
 Warning:  center  76 has no basis functions!
 Warning:  center  77 has no basis functions!
 Warning:  center  78 has no basis functions!
 Warning:  center  79 has no basis functions!
 Warning:  center  80 has no basis functions!
 Warning:  center  81 has no basis functions!
 Warning:  center  82 has no basis functions!
 Warning:  center  83 has no basis functions!
 Warning:  center  84 has no basis functions!
 Warning:  center  85 has no basis functions!
 Warning:  center  86 has no basis functions!
 Warning:  center  87 has no basis functions!
 Warning:  center  88 has no basis functions!
 Warning:  center  89 has no basis functions!
 Warning:  center  90 has no basis functions!
 Warning:  center  91 has no basis functions!
 Warning:  center  92 has no basis functions!
 Warning:  center  93 has no basis functions!
 Warning:  center  94 has no basis functions!
 Warning:  center  95 has no basis functions!
 Warning:  center  96 has no basis functions!
 Warning:  center  97 has no basis functions!
 Warning:  center  98 has no basis functions!
 Warning:  center  99 has no basis functions!
 Warning:  center 100 has no basis functions!
 Warning:  center 101 has no basis functions!
 Warning:  center 102 has no basis functions!
 Warning:  center 103 has no basis functions!
 Warning:  center 104 has no basis functions!
 Warning:  center 105 has no basis functions!
 Warning:  center 106 has no basis functions!
 Warning:  center 107 has no basis functions!
 Warning:  center 108 has no basis functions!
 Warning:  center 109 has no basis functions!
 Warning:  center 110 has no basis functions!
 Warning:  center 111 has no basis functions!
 Warning:  center 112 has no basis functions!
 Warning:  center 113 has no basis functions!
 Warning:  center 114 has no basis functions!
 Warning:  center 115 has no basis functions!
 Warning:  center 116 has no basis functions!
 Warning:  center 117 has no basis functions!
 Warning:  center 118 has no basis functions!
 Warning:  center 119 has no basis functions!
 Warning:  center 120 has no basis functions!
 Warning:  center 121 has no basis functions!
 Warning:  center 122 has no basis functions!
 Warning:  center 123 has no basis functions!
 Warning:  center 124 has no basis functions!
 Warning:  center 125 has no basis functions!
 Warning:  center 126 has no basis functions!
 Warning:  center 127 has no basis functions!
 Warning:  center 128 has no basis functions!
 Warning:  center 129 has no basis functions!
 Warning:  center 130 has no basis functions!
 Warning:  center 131 has no basis functions!
 Warning:  center 132 has no basis functions!
 Warning:  center 133 has no basis functions!
 Warning:  center 134 has no basis functions!
 Warning:  center 135 has no basis functions!
 Warning:  center 136 has no basis functions!
 Warning:  center 137 has no basis functions!
 Warning:  center 138 has no basis functions!
 Warning:  center 139 has no basis functions!
 Warning:  center 140 has no basis functions!
 Warning:  center 141 has no basis functions!
 Warning:  center 142 has no basis functions!
 Warning:  center 143 has no basis functions!
 Warning:  center 144 has no basis functions!
 Warning:  center 145 has no basis functions!
 Warning:  center 146 has no basis functions!
 Warning:  center 147 has no basis functions!
 Warning:  center 148 has no basis functions!
 Warning:  center 149 has no basis functions!
 Warning:  center 150 has no basis functions!
 Warning:  center 151 has no basis functions!
 Warning:  center 152 has no basis functions!
 Warning:  center 153 has no basis functions!
 Warning:  center 154 has no basis functions!
 Warning:  center 155 has no basis functions!
 Warning:  center 156 has no basis functions!
 Warning:  center 157 has no basis functions!
 Warning:  center 158 has no basis functions!
 Warning:  center 159 has no basis functions!
 Warning:  center 160 has no basis functions!
 Warning:  center 161 has no basis functions!
 Warning:  center 162 has no basis functions!
 Warning:  center 163 has no basis functions!
 Warning:  center 164 has no basis functions!
 Warning:  center 165 has no basis functions!
 Warning:  center 166 has no basis functions!
 Warning:  center 167 has no basis functions!
 Warning:  center 168 has no basis functions!
 Warning:  center 169 has no basis functions!
 Warning:  center 170 has no basis functions!
 Warning:  center 171 has no basis functions!
 Warning:  center 172 has no basis functions!
 Warning:  center 173 has no basis functions!
 Warning:  center 174 has no basis functions!
 Warning:  center 175 has no basis functions!
 Warning:  center 176 has no basis functions!
 Warning:  center 177 has no basis functions!
 Warning:  center 178 has no basis functions!
 Warning:  center 179 has no basis functions!
 Warning:  center 180 has no basis functions!
 Warning:  center 181 has no basis functions!
 Warning:  center 182 has no basis functions!
 Warning:  center 183 has no basis functions!
 Warning:  center 184 has no basis functions!
 Warning:  center 185 has no basis functions!
 Warning:  center 186 has no basis functions!
 Warning:  center 187 has no basis functions!
 Warning:  center 188 has no basis functions!
 Warning:  center 189 has no basis functions!
 Warning:  center 190 has no basis functions!
 Warning:  center 191 has no basis functions!
 Warning:  center 192 has no basis functions!
 Warning:  center 193 has no basis functions!
 Warning:  center 194 has no basis functions!
 Warning:  center 195 has no basis functions!
 Warning:  center 196 has no basis functions!
 Warning:  center 197 has no basis functions!
 Warning:  center 198 has no basis functions!
 Warning:  center 199 has no basis functions!
 Warning:  center 200 has no basis functions!
 Warning:  center 201 has no basis functions!
 Warning:  center 202 has no basis functions!
 Warning:  center 203 has no basis functions!
 Warning:  center 204 has no basis functions!
 Warning:  center 205 has no basis functions!
 Warning:  center 206 has no basis functions!
 Warning:  center 207 has no basis functions!
 Warning:  center 208 has no basis functions!
 Warning:  center 209 has no basis functions!
 Warning:  center 210 has no basis functions!
 Warning:  center 211 has no basis functions!
 Warning:  center 212 has no basis functions!
 Warning:  center 213 has no basis functions!
 Warning:  center 214 has no basis functions!
 Warning:  center 215 has no basis functions!
 Warning:  center 216 has no basis functions!
 Warning:  center 217 has no basis functions!
 Warning:  center 218 has no basis functions!
   268 basis functions,   424 primitive gaussians,   278 cartesian basis functions
    34 alpha electrons       34 beta electrons
       nuclear repulsion energy       453.8675371600 Hartrees.
 NAtoms=  218 NActive=  218 NUniq=  218 SFac= 1.00D+00 NAtFMM=   60 NAOKFM=T Big=T
 Integral buffers will be    131072 words long.
 Raffenetti 2 integral format.
 Two-electron integral symmetry is turned off.
 One-electron integrals computed using PRISM.
 NBasis=   268 RedAO= T EigKep=  1.12D-06  NBF=   268
 NBsUse=   267 1.00D-06 EigRej=  6.14D-07 NBFU=   267
 ExpMin= 4.38D-02 ExpMax= 4.56D+03 ExpMxC= 6.82D+02 IAcc=2 IRadAn=         4 AccDes= 0.00D+00
 Harris functional with IExCor=  402 and IRadAn=       4 diagonalized for initial guess.
 HarFok:  IExCor=  402 AccDes= 0.00D+00 IRadAn=         4 IDoV= 1 UseB2=F ITyADJ=14
 ICtDFT=  3500011 ScaDFX=  1.000000  1.000000  1.000000  1.000000
 FoFCou: FMM=F IPFlag=           0 FMFlag=      100000 FMFlg1=        2001
         NFxFlg=           0 DoJE=T BraDBF=F KetDBF=T FulRan=T
         wScrn=  0.000000 ICntrl=     500 IOpCl=  0 I1Cent=   200000004 NGrid=           0
         NMat0=    1 NMatS0=      1 NMatT0=    0 NMatD0=    1 NMtDS0=    0 NMtDT0=    0
 Symmetry not used in FoFCou.
 Requested convergence on RMS density matrix=1.00D-08 within 128 cycles.
 Requested convergence on MAX density matrix=1.00D-06.
 Requested convergence on             energy=1.00D-06.
 No special actions if energy rises.
 SCF Done:  E(RB3LYP) =  -385.985931946     A.U. after   11 cycles
            NFock= 11  Conv=0.79D-08     -V/T= 2.0059
 DoSCS=F DFT=T ScalE2(SS,OS)=  1.000000  1.000000
 Range of M.O.s used for correlation:     1   267
 NBasis=   268 NAE=    34 NBE=    34 NFC=     0 NFV=     0
 NROrb=    267 NOA=    34 NOB=    34 NVA=   233 NVB=   233

 **** Warning!!: The largest alpha MO coefficient is  0.20992189D+03

          Differentiating once with respect to magnetic field using GIAOs.
          Electric field/nuclear overlap derivatives assumed to be zero.
 FoFCou: FMM=F IPFlag=           0 FMFlag=      100000 FMFlg1=        2001
         NFxFlg=           0 DoJE=F BraDBF=F KetDBF=T FulRan=T
         wScrn=  0.000000 ICntrl=    6100 IOpCl=  0 I1Cent=           7 NGrid=         218
         NMat0=    1 NMatS0=      1 NMatT0=    0 NMatD0=    1 NMtDS0=    0 NMtDT0=    0
 Symmetry not used in FoFCou.
 FoFJK:  IHMeth= 1 ICntrl=    6127 DoSepK=F KAlg= 0 I1Cent=   0 FoldK=F
 IRaf=         1 NMat=   1 IRICut=       1 DoRegI=T DoRafI=F ISym2E= 0.
          There are     3 degrees of freedom in the 1st order CPHF.  IDoFFX=0 NUNeed=     3.
      3 vectors produced by pass  0 Test12= 2.64D-13 3.33D-08 XBig12= 1.44D+02 6.48D+00.
 AX will form     3 AO Fock derivatives at one time.
      3 vectors produced by pass  1 Test12= 2.64D-13 3.33D-08 XBig12= 2.28D-01 1.79D-01.
      3 vectors produced by pass  2 Test12= 2.64D-13 3.33D-08 XBig12= 7.58D-04 1.41D-02.
      3 vectors produced by pass  3 Test12= 2.64D-13 3.33D-08 XBig12= 2.19D-06 6.12D-04.
      3 vectors produced by pass  4 Test12= 2.64D-13 3.33D-08 XBig12= 2.99D-09 2.39D-05.
      3 vectors produced by pass  5 Test12= 2.64D-13 3.33D-08 XBig12= 6.15D-12 9.51D-07.
      1 vectors produced by pass  6 Test12= 2.64D-13 3.33D-08 XBig12= 9.29D-15 3.79D-08.
 InvSVY:  IOpt=1 It=  1 EMax= 8.88D-16
 Solved reduced A of dimension    19 with     3 vectors.
 Calculating GIAO nuclear magnetic shielding tensors.
 SCF GIAO Magnetic shielding tensor (ppm):
      1  C    Isotropic =    48.8814   Anisotropy =   178.3631
   XX=   -26.3877   YX=    47.3635   ZX=     0.0000
   XY=    49.5434   YY=     5.2417   ZY=     0.0000
   XZ=     0.0000   YZ=     0.0000   ZZ=   167.7901
   Eigenvalues:   -61.5420    40.3960   167.7901
      2  C    Isotropic =    48.8814   Anisotropy =   178.3631
   XX=   -26.3877   YX=   -47.3635   ZX=     0.0000
   XY=   -49.5434   YY=     5.2417   ZY=     0.0000
   XZ=     0.0000   YZ=     0.0000   ZZ=   167.7901
   Eigenvalues:   -61.5420    40.3960   167.7901
      3  C    Isotropic =    47.0315   Anisotropy =   159.6105
   XX=    39.7012   YX=   -14.9645   ZX=     0.0000
   XY=   -12.8373   YY=   -52.0452   ZY=     0.0000
   XZ=     0.0000   YZ=     0.0000   ZZ=   153.4385
   Eigenvalues:   -54.1051    41.7611   153.4385
      4  C    Isotropic =    40.3220   Anisotropy =   214.7654
   XX=   -33.3511   YX=     0.0000   ZX=     0.0000
   XY=     0.0000   YY=   -29.1819   ZY=     0.0000
   XZ=     0.0000   YZ=     0.0000   ZZ=   183.4989
   Eigenvalues:   -33.3511   -29.1819   183.4989
      5  C    Isotropic =    47.0315   Anisotropy =   159.6105
   XX=    39.7012   YX=    14.9645   ZX=     0.0000
   XY=    12.8373   YY=   -52.0452   ZY=     0.0000
   XZ=     0.0000   YZ=     0.0000   ZZ=   153.4385
   Eigenvalues:   -54.1051    41.7611   153.4385
      6  C    Isotropic =    48.8814   Anisotropy =   178.3631
   XX=   -26.3877   YX=    47.3635   ZX=     0.0000
   XY=    49.5434   YY=     5.2417   ZY=     0.0000
   XZ=     0.0000   YZ=     0.0000   ZZ=   167.7901
   Eigenvalues:   -61.5420    40.3960   167.7901
      7  C    Isotropic =    48.8814   Anisotropy =   178.3631
   XX=   -26.3877   YX=   -47.3635   ZX=     0.0000
   XY=   -49.5434   YY=     5.2417   ZY=     0.0000
   XZ=     0.0000   YZ=     0.0000   ZZ=   167.7901
   Eigenvalues:   -61.5420    40.3960   167.7901
      8  C    Isotropic =    47.0315   Anisotropy =   159.6105
   XX=    39.7012   YX=   -14.9645   ZX=     0.0000
   XY=   -12.8373   YY=   -52.0452   ZY=     0.0000
   XZ=     0.0000   YZ=     0.0000   ZZ=   153.4385
   Eigenvalues:   -54.1051    41.7611   153.4385
      9  C    Isotropic =    40.3220   Anisotropy =   214.7654
   XX=   -33.3511   YX=     0.0000   ZX=     0.0000
   XY=     0.0000   YY=   -29.1819   ZY=     0.0000
   XZ=     0.0000   YZ=     0.0000   ZZ=   183.4989
   Eigenvalues:   -33.3511   -29.1819   183.4989
     10  C    Isotropic =    47.0315   Anisotropy =   159.6105
   XX=    39.7012   YX=    14.9645   ZX=     0.0000
   XY=    12.8373   YY=   -52.0452   ZY=     0.0000
   XZ=     0.0000   YZ=     0.0000   ZZ=   153.4385
   Eigenvalues:   -54.1051    41.7611   153.4385
     11  H    Isotropic =    23.8865   Anisotropy =     5.6622
   XX=    25.3494   YX=     1.7328   ZX=     0.0000
   XY=     1.7216   YY=    26.3711   ZY=     0.0000
   XZ=     0.0000   YZ=     0.0000   ZZ=    19.9391
   Eigenvalues:    19.9391    24.0591    27.6614
     12  H    Isotropic =    23.8865   Anisotropy =     5.6622
   XX=    25.3494   YX=    -1.7328   ZX=     0.0000
   XY=    -1.7216   YY=    26.3711   ZY=     0.0000
   XZ=     0.0000   YZ=     0.0000   ZZ=    19.9391
   Eigenvalues:    19.9391    24.0591    27.6614
     13  H    Isotropic =    23.5289   Anisotropy =     7.4859
   XX=    28.4698   YX=    -0.2957   ZX=     0.0000
   XY=    -0.7473   YY=    23.0511   ZY=     0.0000
   XZ=     0.0000   YZ=     0.0000   ZZ=    19.0659
   Eigenvalues:    19.0659    23.0014    28.5196
     14  H    Isotropic =    23.5289   Anisotropy =     7.4859
   XX=    28.4698   YX=     0.2957   ZX=     0.0000
   XY=     0.7473   YY=    23.0511   ZY=     0.0000
   XZ=     0.0000   YZ=     0.0000   ZZ=    19.0659
   Eigenvalues:    19.0659    23.0014    28.5196
     15  H    Isotropic =    23.8865   Anisotropy =     5.6622
   XX=    25.3494   YX=     1.7328   ZX=     0.0000
   XY=     1.7216   YY=    26.3711   ZY=     0.0000
   XZ=     0.0000   YZ=     0.0000   ZZ=    19.9391
   Eigenvalues:    19.9391    24.0591    27.6614
     16  H    Isotropic =    23.8865   Anisotropy =     5.6622
   XX=    25.3494   YX=    -1.7328   ZX=     0.0000
   XY=    -1.7216   YY=    26.3711   ZY=     0.0000
   XZ=     0.0000   YZ=     0.0000   ZZ=    19.9391
   Eigenvalues:    19.9391    24.0591    27.6614
     17  H    Isotropic =    23.5289   Anisotropy =     7.4859
   XX=    28.4698   YX=    -0.2957   ZX=     0.0000
   XY=    -0.7473   YY=    23.0511   ZY=     0.0000
   XZ=     0.0000   YZ=     0.0000   ZZ=    19.0659
   Eigenvalues:    19.0659    23.0014    28.5196
     18  H    Isotropic =    23.5289   Anisotropy =     7.4859
   XX=    28.4698   YX=     0.2957   ZX=     0.0000
   XY=     0.7473   YY=    23.0511   ZY=     0.0000
   XZ=     0.0000   YZ=     0.0000   ZZ=    19.0659
   Eigenvalues:    19.0659    23.0014    28.5196
     19  Bq   Isotropic =    -0.2400   Anisotropy =     9.1396
   XX=     5.1199   YX=    -2.1467   ZX=    -0.6441
   XY=    -1.8921   YY=    -0.5146   ZY=     0.1513
   XZ=    -1.2085   YZ=     0.4246   ZZ=    -5.3253
   Eigenvalues:    -5.4095    -1.1636     5.8531
     20  Bq   Isotropic =    -0.1598   Anisotropy =     9.4662
   XX=     5.3102   YX=    -1.4801   ZX=     1.7367
   XY=    -1.0143   YY=    -0.7375   ZY=    -0.1076
   XZ=     3.3488   YZ=    -0.7625   ZZ=    -5.0522
   Eigenvalues:    -5.6468    -0.9837     6.1509
     21  Bq   Isotropic =    -0.1598   Anisotropy =     9.4662
   XX=     5.3102   YX=    -1.4801   ZX=    -1.7367
   XY=    -1.0143   YY=    -0.7375   ZY=     0.1076
   XZ=    -3.3488   YZ=     0.7625   ZZ=    -5.0522
   Eigenvalues:    -5.6468    -0.9837     6.1509
     22  Bq   Isotropic =    -0.1633   Anisotropy =     9.6207
   XX=     5.7154   YX=    -0.7620   ZX=     1.6622
   XY=    -0.0625   YY=    -0.6049   ZY=     0.1787
   XZ=     3.2468   YZ=    -0.3299   ZZ=    -5.6004
   Eigenvalues:    -6.1099    -0.6305     6.2505
     23  Bq   Isotropic =    -0.1633   Anisotropy =     9.6207
   XX=     5.7154   YX=    -0.7620   ZX=    -1.6622
   XY=    -0.0625   YY=    -0.6049   ZY=    -0.1787
   XZ=    -3.2468   YZ=     0.3299   ZZ=    -5.6004
   Eigenvalues:    -6.1099    -0.6305     6.2505
     24  Bq   Isotropic =    -0.1869   Anisotropy =     9.2843
   XX=     4.8734   YX=    -2.1352   ZX=     1.4562
   XY=    -1.9048   YY=    -0.4951   ZY=    -0.3605
   XZ=     2.7862   YZ=    -1.0093   ZZ=    -4.9391
   Eigenvalues:    -5.3933    -1.1701     6.0026
     25  Bq   Isotropic =    -0.1869   Anisotropy =     9.2843
   XX=     4.8734   YX=    -2.1352   ZX=    -1.4562
   XY=    -1.9048   YY=    -0.4951   ZY=     0.3605
   XZ=    -2.7862   YZ=     1.0093   ZZ=    -4.9391
   Eigenvalues:    -5.3933    -1.1701     6.0026
     26  Bq   Isotropic =    -0.2430   Anisotropy =     9.6979
   XX=     6.1803   YX=     0.0409   ZX=     0.0000
   XY=     0.9812   YY=    -0.0028   ZY=     0.0000
   XZ=     0.0000   YZ=     0.0000   ZZ=    -6.9065
   Eigenvalues:    -6.9065    -0.0448     6.2222
     27  Bq   Isotropic =    -0.2483   Anisotropy =     9.0381
   XX=     4.4559   YX=    -2.7354   ZX=     0.0000
   XY=    -2.7419   YY=     0.1001   ZY=     0.0000
   XZ=     0.0000   YZ=     0.0000   ZZ=    -5.3010
   Eigenvalues:    -5.3010    -1.2210     5.7770
     28  Bq   Isotropic =    -0.1755   Anisotropy =     9.8102
   XX=     5.9519   YX=    -0.0754   ZX=     1.4753
   XY=     0.8358   YY=    -0.0415   ZY=     0.3819
   XZ=     2.9691   YZ=     0.0297   ZZ=    -6.4368
   Eigenvalues:    -6.8261    -0.0649     6.3647
     29  Bq   Isotropic =    -0.1755   Anisotropy =     9.8102
   XX=     5.9519   YX=    -0.0754   ZX=    -1.4753
   XY=     0.8358   YY=    -0.0415   ZY=    -0.3819
   XZ=    -2.9691   YZ=    -0.0297   ZZ=    -6.4368
   Eigenvalues:    -6.8261    -0.0649     6.3647
     30  Bq   Isotropic =    -0.2050   Anisotropy =     9.1666
   XX=     4.3024   YX=    -2.6669   ZX=     1.1284
   XY=    -2.6782   YY=     0.0671   ZY=    -0.5175
   XZ=     2.1760   YZ=    -1.1105   ZZ=    -4.9844
   Eigenvalues:    -5.2959    -1.2250     5.9061
     31  Bq   Isotropic =    -0.2050   Anisotropy =     9.1666
   XX=     4.3024   YX=    -2.6669   ZX=    -1.1284
   XY=    -2.6782   YY=     0.0671   ZY=     0.5175
   XZ=    -2.1760   YZ=     1.1105   ZZ=    -4.9844
   Eigenvalues:    -5.2959    -1.2250     5.9061
     32  Bq   Isotropic =    -0.0408   Anisotropy =     9.7469
   XX=     4.8639   YX=    -1.5089   ZX=     2.4483
   XY=    -1.0894   YY=    -0.6958   ZY=    -0.1900
   XZ=     4.9124   YZ=    -1.2067   ZZ=    -4.2905
   Eigenvalues:    -5.5976    -0.9819     6.4571
     33  Bq   Isotropic =    -0.0408   Anisotropy =     9.7469
   XX=     4.8639   YX=    -1.5089   ZX=    -2.4483
   XY=    -1.0894   YY=    -0.6958   ZY=     0.1900
   XZ=    -4.9124   YZ=     1.2067   ZZ=    -4.2905
   Eigenvalues:    -5.5976    -0.9819     6.4571
     34  Bq   Isotropic =    -0.0228   Anisotropy =     9.9150
   XX=     5.2305   YX=    -0.8701   ZX=     2.5277
   XY=    -0.2210   YY=    -0.5686   ZY=     0.2421
   XZ=     5.1575   YZ=    -0.6227   ZZ=    -4.7302
   Eigenvalues:    -6.0403    -0.6152     6.5872
     35  Bq   Isotropic =    -0.0228   Anisotropy =     9.9150
   XX=     5.2305   YX=    -0.8701   ZX=    -2.5277
   XY=    -0.2210   YY=    -0.5686   ZY=    -0.2421
   XZ=    -5.1575   YZ=     0.6227   ZZ=    -4.7302
   Eigenvalues:    -6.0403    -0.6152     6.5872
     36  Bq   Isotropic =    -0.0738   Anisotropy =     9.5762
   XX=     4.4333   YX=    -2.0931   ZX=     2.2093
   XY=    -1.9075   YY=    -0.4619   ZY=    -0.5954
   XZ=     4.4029   YZ=    -1.6788   ZZ=    -4.1927
   Eigenvalues:    -5.3567    -1.1750     6.3104
     37  Bq   Isotropic =    -0.0738   Anisotropy =     9.5762
   XX=     4.4333   YX=    -2.0931   ZX=    -2.2093
   XY=    -1.9075   YY=    -0.4619   ZY=     0.5954
   XZ=    -4.4029   YZ=     1.6788   ZZ=    -4.1927
   Eigenvalues:    -5.3567    -1.1750     6.3104
     38  Bq   Isotropic =    -0.0288   Anisotropy =    10.0794
   XX=     5.5403   YX=    -0.1953   ZX=     2.4092
   XY=     0.6872   YY=     0.0266   ZY=     0.6344
   XZ=     5.0699   YZ=     0.0011   ZZ=    -5.6532
   Eigenvalues:    -6.7955     0.0184     6.6908
     39  Bq   Isotropic =    -0.0288   Anisotropy =    10.0794
   XX=     5.5403   YX=    -0.1953   ZX=    -2.4092
   XY=     0.6872   YY=     0.0266   ZY=    -0.6344
   XZ=    -5.0699   YZ=    -0.0011   ZZ=    -5.6532
   Eigenvalues:    -6.7955     0.0184     6.6908
     40  Bq   Isotropic =    -0.1139   Anisotropy =     9.4144
   XX=     3.9091   YX=    -2.6030   ZX=     1.8156
   XY=    -2.6685   YY=     0.1259   ZY=    -0.9120
   XZ=     3.6347   YZ=    -1.9628   ZZ=    -4.3766
   Eigenvalues:    -5.2774    -1.2265     6.1624
     41  Bq   Isotropic =    -0.1139   Anisotropy =     9.4144
   XX=     3.9091   YX=    -2.6030   ZX=    -1.8156
   XY=    -2.6685   YY=     0.1259   ZY=     0.9120
   XZ=    -3.6347   YZ=     1.9628   ZZ=    -4.3766
   Eigenvalues:    -5.2774    -1.2265     6.1624
     42  Bq   Isotropic =    -0.2233   Anisotropy =    10.0679
   XX=     6.0850   YX=     0.6179   ZX=     0.8185
   XY=     1.7633   YY=     1.3848   ZY=     0.3511
   XZ=     1.7592   YZ=     0.2298   ZZ=    -8.1396
   Eigenvalues:    -8.2589     1.1005     6.4887
     43  Bq   Isotropic =    -0.2233   Anisotropy =    10.0679
   XX=     6.0850   YX=     0.6179   ZX=    -0.8185
   XY=     1.7633   YY=     1.3848   ZY=    -0.3511
   XZ=    -1.7592   YZ=    -0.2298   ZZ=    -8.1396
   Eigenvalues:    -8.2589     1.1005     6.4887
     44  Bq   Isotropic =    -0.2183   Anisotropy =     9.0996
   XX=     3.4797   YX=    -3.0889   ZX=     0.5190
   XY=    -3.4115   YY=     1.1391   ZY=    -0.4088
   XZ=     1.0325   YZ=    -0.7491   ZZ=    -5.2736
   Eigenvalues:    -5.3580    -1.1449     5.8481
     45  Bq   Isotropic =    -0.2183   Anisotropy =     9.0996
   XX=     3.4797   YX=    -3.0889   ZX=    -0.5190
   XY=    -3.4115   YY=     1.1391   ZY=     0.4088
   XZ=    -1.0325   YZ=     0.7491   ZZ=    -5.2736
   Eigenvalues:    -5.3580    -1.1449     5.8481
     46  Bq   Isotropic =    -0.0493   Anisotropy =    10.2253
   XX=     5.7227   YX=     0.3170   ZX=     2.1439
   XY=     1.3899   YY=     1.0315   ZY=     0.8545
   XZ=     4.7276   YZ=     0.4486   ZZ=    -6.9020
   Eigenvalues:    -7.7967     0.8813     6.7676
     47  Bq   Isotropic =    -0.0493   Anisotropy =    10.2253
   XX=     5.7227   YX=     0.3170   ZX=    -2.1439
   XY=     1.3899   YY=     1.0315   ZY=    -0.8545
   XZ=    -4.7276   YZ=    -0.4486   ZZ=    -6.9020
   Eigenvalues:    -7.7967     0.8813     6.7676
     48  Bq   Isotropic =     0.1451   Anisotropy =    10.1428
   XX=     4.3130   YX=    -1.5369   ZX=     2.9817
   XY=    -1.1888   YY=    -0.6240   ZY=    -0.3070
   XZ=     6.3494   YZ=    -1.7349   ZZ=    -3.2537
   Eigenvalues:    -5.5013    -0.9704     6.9070
     49  Bq   Isotropic =     0.1451   Anisotropy =    10.1428
   XX=     4.3130   YX=    -1.5369   ZX=    -2.9817
   XY=    -1.1888   YY=    -0.6240   ZY=     0.3070
   XZ=    -6.3494   YZ=     1.7349   ZZ=    -3.2537
   Eigenvalues:    -5.5013    -0.9704     6.9070
     50  Bq   Isotropic =    -0.1408   Anisotropy =     9.3229
   XX=     3.3736   YX=    -2.9123   ZX=     1.4015
   XY=    -3.2065   YY=     0.8982   ZY=    -1.0544
   XZ=     2.8600   YZ=    -2.0044   ZZ=    -4.6943
   Eigenvalues:    -5.3339    -1.1630     6.0744
     51  Bq   Isotropic =    -0.1408   Anisotropy =     9.3229
   XX=     3.3736   YX=    -2.9123   ZX=    -1.4015
   XY=    -3.2065   YY=     0.8982   ZY=     1.0544
   XZ=    -2.8600   YZ=     2.0044   ZZ=    -4.6943
   Eigenvalues:    -5.3339    -1.1630     6.0744
     52  Bq   Isotropic =     0.1922   Anisotropy =    10.3246
   XX=     4.6721   YX=    -0.9677   ZX=     3.1303
   XY=    -0.3830   YY=    -0.4867   ZY=     0.2685
   XZ=     6.8055   YZ=    -0.9723   ZZ=    -3.6087
   Eigenvalues:    -5.9356    -0.5631     7.0753
     53  Bq   Isotropic =     0.1922   Anisotropy =    10.3246
   XX=     4.6721   YX=    -0.9677   ZX=    -3.1303
   XY=    -0.3830   YY=    -0.4867   ZY=    -0.2685
   XZ=    -6.8055   YZ=     0.9723   ZZ=    -3.6087
   Eigenvalues:    -5.9356    -0.5631     7.0753
     54  Bq   Isotropic =     0.0920   Anisotropy =     9.9600
   XX=     3.8966   YX=    -2.0537   ZX=     2.7088
   XY=    -1.9458   YY=    -0.3854   ZY=    -0.8508
   XZ=     5.7253   YZ=    -2.3855   ZZ=    -3.2351
   Eigenvalues:    -5.2822    -1.1738     6.7320
     55  Bq   Isotropic =     0.0920   Anisotropy =     9.9600
   XX=     3.8966   YX=    -2.0537   ZX=    -2.7088
   XY=    -1.9458   YY=    -0.3854   ZY=     0.8508
   XZ=    -5.7253   YZ=     2.3855   ZZ=    -3.2351
   Eigenvalues:    -5.2822    -1.1738     6.7320
     56  Bq   Isotropic =     0.2283   Anisotropy =    10.4813
   XX=     4.9722   YX=    -0.4131   ZX=     3.1331
   XY=     0.3988   YY=     0.0803   ZY=     0.8003
   XZ=     7.0575   YZ=    -0.1851   ZZ=    -4.3675
   Eigenvalues:    -6.6213     0.0904     7.2158
     57  Bq   Isotropic =     0.2283   Anisotropy =    10.4813
   XX=     4.9722   YX=    -0.4131   ZX=    -3.1331
   XY=     0.3988   YY=     0.0803   ZY=    -0.8003
   XZ=    -7.0575   YZ=     0.1851   ZZ=    -4.3675
   Eigenvalues:    -6.6213     0.0904     7.2158
     58  Bq   Isotropic =     0.0391   Anisotropy =     9.7968
   XX=     3.4383   YX=    -2.4640   ZX=     2.3383
   XY=    -2.5949   YY=     0.1645   ZY=    -1.2970
   XZ=     4.9713   YZ=    -2.8528   ZZ=    -3.4854
   Eigenvalues:    -5.2426    -1.2104     6.5703
     59  Bq   Isotropic =     0.0391   Anisotropy =     9.7968
   XX=     3.4383   YX=    -2.4640   ZX=    -2.3383
   XY=    -2.5949   YY=     0.1645   ZY=     1.2970
   XZ=    -4.9713   YZ=     2.8528   ZZ=    -3.4854
   Eigenvalues:    -5.2426    -1.2104     6.5703
     60  Bq   Isotropic =     0.2536   Anisotropy =    10.5875
   XX=     5.2279   YX=     0.0488   ZX=     2.9727
   XY=     1.0737   YY=     1.1232   ZY=     1.2081
   XZ=     7.0652   YZ=     0.5256   ZZ=    -5.5903
   Eigenvalues:    -7.6018     1.0507     7.3119
     61  Bq   Isotropic =     0.2536   Anisotropy =    10.5875
   XX=     5.2279   YX=     0.0488   ZX=    -2.9727
   XY=     1.0737   YY=     1.1232   ZY=    -1.2081
   XZ=    -7.0652   YZ=    -0.5256   ZZ=    -5.5903
   Eigenvalues:    -7.6018     1.0507     7.3119
     62  Bq   Isotropic =    -0.0086   Anisotropy =     9.6709
   XX=     2.9650   YX=    -2.7287   ZX=     1.9032
   XY=    -3.0930   YY=     0.9499   ZY=    -1.5914
   XZ=     4.1289   YZ=    -3.0836   ZZ=    -3.9408
   Eigenvalues:    -5.3463    -1.1182     6.4387
     63  Bq   Isotropic =    -0.0086   Anisotropy =     9.6709
   XX=     2.9650   YX=    -2.7287   ZX=    -1.9032
   XY=    -3.0930   YY=     0.9499   ZY=     1.5914
   XZ=    -4.1289   YZ=     3.0836   ZZ=    -3.9408
   Eigenvalues:    -5.3463    -1.1182     6.4387
     64  Bq   Isotropic =    -0.2077   Anisotropy =    10.4336
   XX=     6.0341   YX=     0.8290   ZX=     0.0000
   XY=     2.1544   YY=     3.6311   ZY=     0.0000
   XZ=     0.0000   YZ=     0.0000   ZZ=   -10.2884
   Eigenvalues:   -10.2884     2.9172     6.7480
     65  Bq   Isotropic =    -0.1969   Anisotropy =     9.2041
   XX=     2.6279   YX=    -3.1105   ZX=     0.0000
   XY=    -3.7401   YY=     2.3959   ZY=     0.0000
   XZ=     0.0000   YZ=     0.0000   ZZ=    -5.6147
   Eigenvalues:    -5.6147    -0.9153     5.9391
     66  Bq   Isotropic =    -0.0796   Anisotropy =    10.4531
   XX=     5.8935   YX=     0.7008   ZX=     1.4304
   XY=     2.0071   YY=     3.3711   ZY=     0.8046
   XZ=     3.5407   YZ=     0.7006   ZZ=    -9.5036
   Eigenvalues:    -9.9164     2.7884     6.8891
     67  Bq   Isotropic =    -0.0796   Anisotropy =    10.4531
   XX=     5.8935   YX=     0.7008   ZX=    -1.4304
   XY=     2.0071   YY=     3.3711   ZY=    -0.8046
   XZ=    -3.5407   YZ=    -0.7006   ZZ=    -9.5036
   Eigenvalues:    -9.9164     2.7884     6.8891
     68  Bq   Isotropic =    -0.1618   Anisotropy =     9.3018
   XX=     2.5955   YX=    -3.0367   ZX=     0.7515
   XY=    -3.6559   YY=     2.2623   ZY=    -0.9154
   XZ=     1.6260   YZ=    -1.5776   ZZ=    -5.3432
   Eigenvalues:    -5.6047    -0.9201     6.0394
     69  Bq   Isotropic =    -0.1618   Anisotropy =     9.3018
   XX=     2.5955   YX=    -3.0367   ZX=    -0.7515
   XY=    -3.6559   YY=     2.2623   ZY=     0.9154
   XZ=    -1.6260   YZ=     1.5776   ZZ=    -5.3432
   Eigenvalues:    -5.6047    -0.9201     6.0394
     70  Bq   Isotropic =     0.4201   Anisotropy =    10.6530
   XX=     3.7329   YX=    -1.5515   ZX=     3.2928
   XY=    -1.3046   YY=    -0.5041   ZY=    -0.4696
   XZ=     7.6267   YZ=    -2.3888   ZZ=    -1.9686
   Eigenvalues:    -5.3286    -0.9333     7.5221
     71  Bq   Isotropic =     0.4201   Anisotropy =    10.6530
   XX=     3.7329   YX=    -1.5515   ZX=    -3.2928
   XY=    -1.3046   YY=    -0.5041   ZY=     0.4696
   XZ=    -7.6267   YZ=     2.3888   ZZ=    -1.9686
   Eigenvalues:    -5.3286    -0.9333     7.5221
     72  Bq   Isotropic =     0.5258   Anisotropy =    10.8698
   XX=     4.0962   YX=    -1.0494   ZX=     3.4985
   XY=    -0.5478   YY=    -0.3271   ZY=     0.2730
   XZ=     8.3388   YZ=    -1.4152   ZZ=    -2.1915
   Eigenvalues:    -5.7506    -0.4443     7.7724
     73  Bq   Isotropic =     0.5258   Anisotropy =    10.8698
   XX=     4.0962   YX=    -1.0494   ZX=    -3.4985
   XY=    -0.5478   YY=    -0.3271   ZY=    -0.2730
   XZ=    -8.3388   YZ=     1.4152   ZZ=    -2.1915
   Eigenvalues:    -5.7506    -0.4443     7.7724
     74  Bq   Isotropic =     0.3310   Anisotropy =    10.4433
   XX=     3.3166   YX=    -1.9996   ZX=     2.9659
   XY=    -2.0120   YY=    -0.2420   ZY=    -1.1733
   XZ=     6.8216   YZ=    -3.2431   ZZ=    -2.0815
   Eigenvalues:    -5.1563    -1.1439     7.2932
     75  Bq   Isotropic =     0.3310   Anisotropy =    10.4433
   XX=     3.3166   YX=    -1.9996   ZX=    -2.9659
   XY=    -2.0120   YY=    -0.2420   ZY=     1.1733
   XZ=    -6.8216   YZ=     3.2431   ZZ=    -2.0815
   Eigenvalues:    -5.1563    -1.1439     7.2932
     76  Bq   Isotropic =     0.2824   Anisotropy =    10.6275
   XX=     5.4707   YX=     0.3313   ZX=     2.6314
   XY=     1.5535   YY=     2.6853   ZY=     1.4151
   XZ=     6.7710   YZ=     1.0523   ZZ=    -7.3087
   Eigenvalues:    -8.9188     2.3987     7.3674
     77  Bq   Isotropic =     0.2824   Anisotropy =    10.6275
   XX=     5.4707   YX=     0.3313   ZX=    -2.6314
   XY=     1.5535   YY=     2.6853   ZY=    -1.4151
   XZ=    -6.7710   YZ=    -1.0523   ZZ=    -7.3087
   Eigenvalues:    -8.9188     2.3987     7.3674
     78  Bq   Isotropic =    -0.0481   Anisotropy =     9.5963
   XX=     2.5124   YX=    -2.8246   ZX=     1.4398
   XY=    -3.4137   YY=     1.8861   ZY=    -1.6942
   XZ=     3.2420   YZ=    -3.0425   ZZ=    -4.5428
   Eigenvalues:    -5.5646    -0.9292     6.3494
     79  Bq   Isotropic =    -0.0481   Anisotropy =     9.5963
   XX=     2.5124   YX=    -2.8246   ZX=    -1.4398
   XY=    -3.4137   YY=     1.8861   ZY=     1.6942
   XZ=    -3.2420   YZ=     3.0425   ZZ=    -4.5428
   Eigenvalues:    -5.5646    -0.9292     6.3494
     80  Bq   Isotropic =     0.6668   Anisotropy =    11.0590
   XX=     4.4471   YX=    -0.5429   ZX=     3.5547
   XY=     0.2290   YY=     0.4558   ZY=     1.0394
   XZ=     8.9838   YZ=    -0.3040   ZZ=    -2.9025
   Eigenvalues:    -6.5172     0.4782     8.0395
     81  Bq   Isotropic =     0.6668   Anisotropy =    11.0590
   XX=     4.4471   YX=    -0.5429   ZX=    -3.5547
   XY=     0.2290   YY=     0.4558   ZY=    -1.0394
   XZ=    -8.9838   YZ=     0.3040   ZZ=    -2.9025
   Eigenvalues:    -6.5172     0.4782     8.0395
     82  Bq   Isotropic =     0.2480   Anisotropy =    10.2487
   XX=     2.8323   YX=    -2.3454   ZX=     2.5031
   XY=    -2.6397   YY=     0.4452   ZY=    -1.8178
   XZ=     5.8506   YZ=    -3.9554   ZZ=    -2.5334
   Eigenvalues:    -5.2192    -1.1172     7.0804
     83  Bq   Isotropic =     0.2480   Anisotropy =    10.2487
   XX=     2.8323   YX=    -2.3454   ZX=    -2.5031
   XY=    -2.6397   YY=     0.4452   ZY=     1.8178
   XZ=    -5.8506   YZ=     3.9554   ZZ=    -2.5334
   Eigenvalues:    -5.2192    -1.1172     7.0804
     84  Bq   Isotropic =    -0.0093   Anisotropy =    10.8168
   XX=     6.0118   YX=     0.5972   ZX=     0.7644
   XY=     2.0404   YY=     5.4747   ZY=     0.4997
   XZ=     2.1524   YZ=     0.5114   ZZ=   -11.5142
   Eigenvalues:   -11.6440     4.4142     7.2019
     85  Bq   Isotropic =    -0.0093   Anisotropy =    10.8168
   XX=     6.0118   YX=     0.5972   ZX=    -0.7644
   XY=     2.0404   YY=     5.4747   ZY=    -0.4997
   XZ=    -2.1524   YZ=    -0.5114   ZZ=   -11.5142
   Eigenvalues:   -11.6440     4.4142     7.2019
     86  Bq   Isotropic =    -0.1611   Anisotropy =     9.3755
   XX=     2.1593   YX=    -2.8927   ZX=     0.3509
   XY=    -3.7136   YY=     3.1811   ZY=    -0.5700
   XZ=     0.8104   YZ=    -0.9507   ZZ=    -5.8236
   Eigenvalues:    -5.9008    -0.6716     6.0892
     87  Bq   Isotropic =    -0.1611   Anisotropy =     9.3755
   XX=     2.1593   YX=    -2.8927   ZX=    -0.3509
   XY=    -3.7136   YY=     3.1811   ZY=     0.5700
   XZ=    -0.8104   YZ=     0.9507   ZZ=    -5.8236
   Eigenvalues:    -5.9008    -0.6716     6.0892
     88  Bq   Isotropic =     0.8097   Anisotropy =    11.0843
   XX=     4.8030   YX=    -0.2030   ZX=     3.4032
   XY=     0.8202   YY=     1.7984   ZY=     1.5999
   XZ=     9.3163   YZ=     0.6767   ZZ=    -4.1724
   Eigenvalues:    -7.5494     1.7793     8.1992
     89  Bq   Isotropic =     0.8097   Anisotropy =    11.0843
   XX=     4.8030   YX=    -0.2030   ZX=    -3.4032
   XY=     0.8202   YY=     1.7984   ZY=    -1.5999
   XZ=    -9.3163   YZ=    -0.6767   ZZ=    -4.1724
   Eigenvalues:    -7.5494     1.7793     8.1992
     90  Bq   Isotropic =     0.1710   Anisotropy =    10.0912
   XX=     2.4217   YX=    -2.5002   ZX=     2.0093
   XY=    -3.0427   YY=     1.3434   ZY=    -2.2100
   XZ=     4.8540   YZ=    -4.2877   ZZ=    -3.2520
   Eigenvalues:    -5.4614    -0.9241     6.8985
     91  Bq   Isotropic =     0.1710   Anisotropy =    10.0912
   XX=     2.4217   YX=    -2.5002   ZX=    -2.0093
   XY=    -3.0427   YY=     1.3434   ZY=     2.2100
   XZ=    -4.8540   YZ=     4.2877   ZZ=    -3.2520
   Eigenvalues:    -5.4614    -0.9241     6.8985
     92  Bq   Isotropic =     0.3635   Anisotropy =    10.6575
   XX=     5.7499   YX=     0.3422   ZX=     2.0931
   XY=     1.7534   YY=     4.8051   ZY=     1.3670
   XZ=     6.0778   YZ=     1.2977   ZZ=    -9.4646
   Eigenvalues:   -10.5627     4.1846     7.4685
     93  Bq   Isotropic =     0.3635   Anisotropy =    10.6575
   XX=     5.7499   YX=     0.3422   ZX=    -2.0931
   XY=     1.7534   YY=     4.8051   ZY=    -1.3670
   XZ=    -6.0778   YZ=    -1.2977   ZZ=    -9.4646
   Eigenvalues:   -10.5627     4.1846     7.4685
     94  Bq   Isotropic =    -0.0783   Anisotropy =     9.5830
   XX=     2.1226   YX=    -2.7452   ZX=     0.9858
   XY=    -3.5483   YY=     2.8830   ZY=    -1.5819
   XZ=     2.3535   YZ=    -2.7114   ZZ=    -5.2404
   Eigenvalues:    -5.8836    -0.6616     6.3104
     95  Bq   Isotropic =    -0.0783   Anisotropy =     9.5830
   XX=     2.1226   YX=    -2.7452   ZX=    -0.9858
   XY=    -3.5483   YY=     2.8830   ZY=     1.5819
   XZ=    -2.3535   YZ=     2.7114   ZZ=    -5.2404
   Eigenvalues:    -5.8836    -0.6616     6.3104
     96  Bq   Isotropic =     0.8181   Anisotropy =    11.2669
   XX=     3.2248   YX=    -1.5351   ZX=     3.3468
   XY=    -1.4235   YY=    -0.3044   ZY=    -0.6849
   XZ=     8.7156   YZ=    -3.2219   ZZ=    -0.4660
   Eigenvalues:    -5.0387    -0.8363     8.3294
     97  Bq   Isotropic =     0.8181   Anisotropy =    11.2669
   XX=     3.2248   YX=    -1.5351   ZX=    -3.3468
   XY=    -1.4235   YY=    -0.3044   ZY=     0.6849
   XZ=    -8.7156   YZ=     3.2219   ZZ=    -0.4660
   Eigenvalues:    -5.0387    -0.8363     8.3294
     98  Bq   Isotropic =     1.0942   Anisotropy =    11.6012
   XX=     3.5839   YX=    -1.1151   ZX=     3.5822
   XY=    -0.7293   YY=    -0.0049   ZY=     0.2565
   XZ=     9.8692   YZ=    -2.0529   ZZ=    -0.2966
   Eigenvalues:    -5.3614    -0.1845     8.8283
     99  Bq   Isotropic =     1.0942   Anisotropy =    11.6012
   XX=     3.5839   YX=    -1.1151   ZX=    -3.5822
   XY=    -0.7293   YY=    -0.0049   ZY=    -0.2565
   XZ=    -9.8692   YZ=     2.0529   ZZ=    -0.2966
   Eigenvalues:    -5.3614    -0.1845     8.8283
    100  Bq   Isotropic =     0.6961   Anisotropy =    11.0555
   XX=     2.7765   YX=    -1.8874   ZX=     2.9333
   XY=    -2.0821   YY=     0.0237   ZY=    -1.6135
   XZ=     7.6987   YZ=    -4.4129   ZZ=    -0.7118
   Eigenvalues:    -4.9685    -1.0096     8.0664
    101  Bq   Isotropic =     0.6961   Anisotropy =    11.0555
   XX=     2.7765   YX=    -1.8874   ZX=    -2.9333
   XY=    -2.0821   YY=     0.0237   ZY=     1.6135
   XZ=    -7.6987   YZ=     4.4129   ZZ=    -0.7118
   Eigenvalues:    -4.9685    -1.0096     8.0664
    102  Bq   Isotropic =     1.3924   Anisotropy =    11.7411
   XX=     4.0280   YX=    -0.7524   ZX=     3.6244
   XY=    -0.0651   YY=     0.9796   ZY=     1.1863
   XZ=    10.8139   YZ=    -0.6765   ZZ=    -0.8304
   Eigenvalues:    -6.0463     1.0038     9.2198
    103  Bq   Isotropic =     1.3924   Anisotropy =    11.7411
   XX=     4.0280   YX=    -0.7524   ZX=    -3.6244
   XY=    -0.0651   YY=     0.9796   ZY=    -1.1863
   XZ=   -10.8139   YZ=     0.6765   ZZ=    -0.8304
   Eigenvalues:    -6.0463     1.0038     9.2198
    104  Bq   Isotropic =     0.5477   Anisotropy =    10.7886
   XX=     2.3958   YX=    -2.1040   ZX=     2.4170
   XY=    -2.5846   YY=     0.7713   ZY=    -2.3551
   XZ=     6.4984   YZ=    -5.2135   ZZ=    -1.5240
   Eigenvalues:    -5.2323    -0.8647     7.7401
    105  Bq   Isotropic =     0.5477   Anisotropy =    10.7886
   XX=     2.3958   YX=    -2.1040   ZX=    -2.4170
   XY=    -2.5846   YY=     0.7713   ZY=     2.3551
   XZ=    -6.4984   YZ=     5.2135   ZZ=    -1.5240
   Eigenvalues:    -5.2323    -0.8647     7.7401
    106  Bq   Isotropic =     0.3809   Anisotropy =    12.2040
   XX=     6.2612   YX=     0.0641   ZX=     0.0000
   XY=     1.7009   YY=     8.1717   ZY=     0.0000
   XZ=     0.0000   YZ=     0.0000   ZZ=   -13.2900
   Eigenvalues:   -13.2900     5.9159     8.5169
    107  Bq   Isotropic =    -0.1445   Anisotropy =     9.5413
   XX=     1.8269   YX=    -2.5470   ZX=     0.0000
   XY=    -3.5729   YY=     4.0832   ZY=     0.0000
   XZ=     0.0000   YZ=     0.0000   ZZ=    -6.3436
   Eigenvalues:    -6.3436    -0.3062     6.2163
    108  Bq   Isotropic =     0.6211   Anisotropy =    11.3136
   XX=     6.1338   YX=    -0.0153   ZX=     1.3664
   XY=     1.6070   YY=     7.4891   ZY=     1.0613
   XZ=     4.8257   YZ=     1.2044   ZZ=   -11.7596
   Eigenvalues:   -12.3293     6.0291     8.1635
    109  Bq   Isotropic =     0.6211   Anisotropy =    11.3136
   XX=     6.1338   YX=    -0.0153   ZX=    -1.3664
   XY=     1.6070   YY=     7.4891   ZY=    -1.0613
   XZ=    -4.8257   YZ=    -1.2044   ZZ=   -11.7596
   Eigenvalues:   -12.3293     6.0291     8.1635
    110  Bq   Isotropic =    -0.0993   Anisotropy =     9.6364
   XX=     1.8417   YX=    -2.5005   ZX=     0.5766
   XY=    -3.5043   YY=     3.8513   ZY=    -1.2492
   XZ=     1.5018   YZ=    -2.0875   ZZ=    -5.9910
   Eigenvalues:    -6.3061    -0.3168     6.3249
    111  Bq   Isotropic =    -0.0993   Anisotropy =     9.6364
   XX=     1.8417   YX=    -2.5005   ZX=    -0.5766
   XY=    -3.5043   YY=     3.8513   ZY=     1.2492
   XZ=    -1.5018   YZ=     2.0875   ZZ=    -5.9910
   Eigenvalues:    -6.3061    -0.3168     6.3249
    112  Bq   Isotropic =     1.1789   Anisotropy =    10.7104
   XX=     5.5118   YX=    -0.1946   ZX=     2.7202
   XY=     1.2307   YY=     5.1171   ZY=     1.9382
   XZ=     9.1926   YZ=     1.7347   ZZ=    -7.0920
   Eigenvalues:    -9.6181     4.8357     8.3192
    113  Bq   Isotropic =     1.1789   Anisotropy =    10.7104
   XX=     5.5118   YX=    -0.1946   ZX=    -2.7202
   XY=     1.2307   YY=     5.1171   ZY=    -1.9382
   XZ=    -9.1926   YZ=    -1.7347   ZZ=    -7.0920
   Eigenvalues:    -9.6181     4.8357     8.3192
    114  Bq   Isotropic =     0.0722   Anisotropy =     9.9585
   XX=     1.9419   YX=    -2.3942   ZX=     1.2541
   XY=    -3.2863   YY=     2.9389   ZY=    -2.3484
   XZ=     3.3405   YZ=    -4.1604   ZZ=    -4.6641
   Eigenvalues:    -6.0672    -0.4273     6.7112
    115  Bq   Isotropic =     0.0722   Anisotropy =     9.9585
   XX=     1.9419   YX=    -2.3942   ZX=    -1.2541
   XY=    -3.2863   YY=     2.9389   ZY=     2.3484
   XZ=    -3.3405   YZ=     4.1604   ZZ=    -4.6641
   Eigenvalues:    -6.0672    -0.4273     6.7112
    116  Bq   Isotropic =     1.3909   Anisotropy =    11.9515
   XX=     2.9245   YX=    -1.4633   ZX=     3.1159
   XY=    -1.5243   YY=     0.0293   ZY=    -0.9486
   XZ=     9.5870   YZ=    -4.2987   ZZ=     1.2190
   Eigenvalues:    -4.5830    -0.6029     9.3586
    117  Bq   Isotropic =     1.3909   Anisotropy =    11.9515
   XX=     2.9245   YX=    -1.4633   ZX=    -3.1159
   XY=    -1.5243   YY=     0.0293   ZY=     0.9486
   XZ=    -9.5870   YZ=     4.2987   ZZ=     1.2190
   Eigenvalues:    -4.5830    -0.6029     9.3586
    118  Bq   Isotropic =     2.1573   Anisotropy =    11.4186
   XX=     4.8509   YX=    -0.6767   ZX=     3.1826
   XY=     0.4677   YY=     3.8400   ZY=     2.1172
   XZ=    11.9544   YZ=     1.0572   ZZ=    -2.2189
   Eigenvalues:    -7.2139     3.9161     9.7698
    119  Bq   Isotropic =     2.1573   Anisotropy =    11.4186
   XX=     4.8509   YX=    -0.6767   ZX=    -3.1826
   XY=     0.4677   YY=     3.8400   ZY=    -2.1172
   XZ=   -11.9544   YZ=    -1.0572   ZZ=    -2.2189
   Eigenvalues:    -7.2139     3.9161     9.7698
    120  Bq   Isotropic =     0.4008   Anisotropy =    10.5456
   XX=     2.0068   YX=    -2.0427   ZX=     1.6208
   XY=    -2.9095   YY=     2.2862   ZY=    -2.9869
   XZ=     4.8661   YZ=    -5.7917   ZZ=    -3.0907
   Eigenvalues:    -5.9445    -0.2843     7.4312
    121  Bq   Isotropic =     0.4008   Anisotropy =    10.5456
   XX=     2.0068   YX=    -2.0427   ZX=    -1.6208
   XY=    -2.9095   YY=     2.2862   ZY=     2.9869
   XZ=    -4.8661   YZ=     5.7917   ZZ=    -3.0907
   Eigenvalues:    -5.9445    -0.2843     7.4312
    122  Bq   Isotropic =     1.9012   Anisotropy =    12.3466
   XX=     3.3652   YX=    -1.1547   ZX=     3.3023
   XY=    -0.9173   YY=     0.4983   ZY=     0.1748
   XZ=    11.0789   YZ=    -2.9423   ZZ=     1.8401
   Eigenvalues:    -4.6510     0.2224    10.1323
    123  Bq   Isotropic =     1.9012   Anisotropy =    12.3466
   XX=     3.3652   YX=    -1.1547   ZX=    -3.3023
   XY=    -0.9173   YY=     0.4983   ZY=    -0.1748
   XZ=   -11.0789   YZ=     2.9423   ZZ=     1.8401
   Eigenvalues:    -4.6510     0.2224    10.1323
    124  Bq   Isotropic =     1.1746   Anisotropy =    11.6689
   XX=     2.5420   YX=    -1.6856   ZX=     2.6266
   XY=    -2.0843   YY=     0.3934   ZY=    -2.0461
   XZ=     8.2495   YZ=    -5.7200   ZZ=     0.5885
   Eigenvalues:    -4.7713    -0.6587     8.9539
    125  Bq   Isotropic =     1.1746   Anisotropy =    11.6689
   XX=     2.5420   YX=    -1.6856   ZX=    -2.6266
   XY=    -2.0843   YY=     0.3934   ZY=     2.0461
   XZ=    -8.2495   YZ=     5.7200   ZZ=     0.5885
   Eigenvalues:    -4.7713    -0.6587     8.9539
    126  Bq   Isotropic =     1.7382   Anisotropy =    10.7013
   XX=     6.2383   YX=    -0.7604   ZX=     1.8799
   XY=     1.0098   YY=     8.3266   ZY=     1.7279
   XZ=     8.3906   YZ=     1.9969   ZZ=    -9.3504
   Eigenvalues:   -11.0480     7.3900     8.8724
    127  Bq   Isotropic =     1.7382   Anisotropy =    10.7013
   XX=     6.2383   YX=    -0.7604   ZX=    -1.8799
   XY=     1.0098   YY=     8.3266   ZY=    -1.7279
   XZ=    -8.3906   YZ=    -1.9969   ZZ=    -9.3504
   Eigenvalues:   -11.0480     7.3900     8.8724
    128  Bq   Isotropic =     0.0164   Anisotropy =     9.9539
   XX=     1.7821   YX=    -2.1036   ZX=     0.7986
   XY=    -3.2131   YY=     4.0235   ZY=    -2.1121
   XZ=     2.3795   YZ=    -3.6375   ZZ=    -5.7564
   Eigenvalues:    -6.6302     0.0271     6.6523
    129  Bq   Isotropic =     0.0164   Anisotropy =     9.9539
   XX=     1.7821   YX=    -2.1036   ZX=    -0.7986
   XY=    -3.2131   YY=     4.0235   ZY=     2.1121
   XZ=    -2.3795   YZ=     3.6375   ZZ=    -5.7564
   Eigenvalues:    -6.6302     0.0271     6.6523
    130  Bq   Isotropic =     1.3064   Anisotropy =    14.0262
   XX=     6.7040   YX=    -0.8612   ZX=     0.5596
   XY=     1.0659   YY=    10.6329   ZY=     0.5644
   XZ=     2.8201   YZ=     0.7715   ZZ=   -13.4177
   Eigenvalues:   -13.5765     6.8384    10.6572
    131  Bq   Isotropic =     1.3064   Anisotropy =    14.0262
   XX=     6.7040   YX=    -0.8612   ZX=    -0.5596
   XY=     1.0659   YY=    10.6329   ZY=    -0.5644
   XZ=    -2.8201   YZ=    -0.7715   ZZ=   -13.4177
   Eigenvalues:   -13.5765     6.8384    10.6572
    132  Bq   Isotropic =    -0.1104   Anisotropy =     9.7564
   XX=     1.7179   YX=    -2.1152   ZX=     0.2415
   XY=    -3.3042   YY=     4.7097   ZY=    -0.7105
   XZ=     0.7140   YZ=    -1.1792   ZZ=    -6.7588
   Eigenvalues:    -6.8444     0.1193     6.3939
    133  Bq   Isotropic =    -0.1104   Anisotropy =     9.7564
   XX=     1.7179   YX=    -2.1152   ZX=    -0.2415
   XY=    -3.3042   YY=     4.7097   ZY=     0.7105
   XZ=    -0.7140   YZ=     1.1792   ZZ=    -6.7588
   Eigenvalues:    -6.8444     0.1193     6.3939
[...]
               1
     1  C   -0.271259
     2  C   -0.271259
     3  C   -0.081784
     4  C    0.204484
     5  C   -0.081784
     6  C   -0.271259
     7  C   -0.271259
     8  C   -0.081784
     9  C    0.204484
    10  C   -0.081784
    11  H    0.128962
    12  H    0.128962
    13  H    0.121839
    14  H    0.121839
    15  H    0.128962
    16  H    0.128962
    17  H    0.121839
    18  H    0.121839
    19  Bq   0.000000
    20  Bq   0.000000
    21  Bq   0.000000
    22  Bq   0.000000
    23  Bq   0.000000
    24  Bq   0.000000
    25  Bq   0.000000
    26  Bq   0.000000
    27  Bq   0.000000
    28  Bq   0.000000
    29  Bq   0.000000
    30  Bq   0.000000
    31  Bq   0.000000
    32  Bq   0.000000
    33  Bq   0.000000
    34  Bq   0.000000
    35  Bq   0.000000
    36  Bq   0.000000
    37  Bq   0.000000
    38  Bq   0.000000
    39  Bq   0.000000
    40  Bq   0.000000
    41  Bq   0.000000
    42  Bq   0.000000
    43  Bq   0.000000
    44  Bq   0.000000
    45  Bq   0.000000
    46  Bq   0.000000
    47  Bq   0.000000
    48  Bq   0.000000
    49  Bq   0.000000
    50  Bq   0.000000
    51  Bq   0.000000
    52  Bq   0.000000
    53  Bq   0.000000
    54  Bq   0.000000
    55  Bq   0.000000
    56  Bq   0.000000
    57  Bq   0.000000
    58  Bq   0.000000
    59  Bq   0.000000
    60  Bq   0.000000
    61  Bq   0.000000
    62  Bq   0.000000
    63  Bq   0.000000
    64  Bq   0.000000
    65  Bq   0.000000
    66  Bq   0.000000
    67  Bq   0.000000
    68  Bq   0.000000
    69  Bq   0.000000
    70  Bq   0.000000
    71  Bq   0.000000
    72  Bq   0.000000
    73  Bq   0.000000
    74  Bq   0.000000
    75  Bq   0.000000
    76  Bq   0.000000
    77  Bq   0.000000
    78  Bq   0.000000
    79  Bq   0.000000
    80  Bq   0.000000
    81  Bq   0.000000
    82  Bq   0.000000
    83  Bq   0.000000
    84  Bq   0.000000
    85  Bq   0.000000
    86  Bq   0.000000
    87  Bq   0.000000
    88  Bq   0.000000
    89  Bq   0.000000
    90  Bq   0.000000
    91  Bq   0.000000
    92  Bq   0.000000
    93  Bq   0.000000
    94  Bq   0.000000
    95  Bq   0.000000
    96  Bq   0.000000
    97  Bq   0.000000
    98  Bq   0.000000
    99  Bq   0.000000
   100  Bq   0.000000
   101  Bq   0.000000
   102  Bq   0.000000
   103  Bq   0.000000
   104  Bq   0.000000
   105  Bq   0.000000
   106  Bq   0.000000
   107  Bq   0.000000
   108  Bq   0.000000
   109  Bq   0.000000
   110  Bq   0.000000
   111  Bq   0.000000
   112  Bq   0.000000
   113  Bq   0.000000
   114  Bq   0.000000
   115  Bq   0.000000
   116  Bq   0.000000
   117  Bq   0.000000
   118  Bq   0.000000
   119  Bq   0.000000
   120  Bq   0.000000
   121  Bq   0.000000
   122  Bq   0.000000
   123  Bq   0.000000
   124  Bq   0.000000
   125  Bq   0.000000
   126  Bq   0.000000
   127  Bq   0.000000
   128  Bq   0.000000
   129  Bq   0.000000
   130  Bq   0.000000
   131  Bq   0.000000
   132  Bq   0.000000
   133  Bq   0.000000
   134  Bq   0.000000
   135  Bq   0.000000
   136  Bq   0.000000
   137  Bq   0.000000
   138  Bq   0.000000
   139  Bq   0.000000
   140  Bq   0.000000
   141  Bq   0.000000
   142  Bq   0.000000
   143  Bq   0.000000
   144  Bq   0.000000
   145  Bq   0.000000
   146  Bq   0.000000
   147  Bq   0.000000
   148  Bq   0.000000
   149  Bq   0.000000
   150  Bq   0.000000
   151  Bq   0.000000
   152  Bq   0.000000
   153  Bq   0.000000
   154  Bq   0.000000
   155  Bq   0.000000
   156  Bq   0.000000
   157  Bq   0.000000
   158  Bq   0.000000
   159  Bq   0.000000
   160  Bq   0.000000
   161  Bq   0.000000
   162  Bq   0.000000
   163  Bq   0.000000
   164  Bq   0.000000
   165  Bq   0.000000
   166  Bq   0.000000
   167  Bq   0.000000
   168  Bq   0.000000
   169  Bq   0.000000
   170  Bq   0.000000
   171  Bq   0.000000
   172  Bq   0.000000
   173  Bq   0.000000
   174  Bq   0.000000
   175  Bq   0.000000
   176  Bq   0.000000
   177  Bq   0.000000
   178  Bq   0.000000
   179  Bq   0.000000
   180  Bq   0.000000
   181  Bq   0.000000
   182  Bq   0.000000
   183  Bq   0.000000
   184  Bq   0.000000
   185  Bq   0.000000
   186  Bq   0.000000
   187  Bq   0.000000
   188  Bq   0.000000
   189  Bq   0.000000
   190  Bq   0.000000
   191  Bq   0.000000
   192  Bq   0.000000
   193  Bq   0.000000
   194  Bq   0.000000
   195  Bq   0.000000
   196  Bq   0.000000
   197  Bq   0.000000
   198  Bq   0.000000
   199  Bq   0.000000
   200  Bq   0.000000
   201  Bq   0.000000
   202  Bq   0.000000
   203  Bq   0.000000
   204  Bq   0.000000
   205  Bq   0.000000
   206  Bq   0.000000
   207  Bq   0.000000
   208  Bq   0.000000
   209  Bq   0.000000
   210  Bq   0.000000
   211  Bq   0.000000
   212  Bq   0.000000
   213  Bq   0.000000
   214  Bq   0.000000
   215  Bq   0.000000
   216  Bq   0.000000
   217  Bq   0.000000
   218  Bq   0.000000
 Sum of Mulliken charges =   0.00000
 Mulliken charges with hydrogens summed into heavy atoms:
               1
     1  C   -0.142297
     2  C   -0.142297
     3  C    0.040055
     4  C    0.204484
     5  C    0.040055
     6  C   -0.271259
     7  C   -0.271259
     8  C    0.040055
     9  C    0.204484
    10  C    0.040055
    19  Bq   0.000000
    20  Bq   0.000000
    21  Bq   0.000000
    22  Bq   0.000000
    23  Bq   0.000000
    24  Bq   0.000000
    25  Bq   0.000000
    26  Bq   0.000000
    27  Bq   0.000000
    28  Bq   0.128962
    29  Bq   0.000000
    30  Bq   0.000000
    31  Bq   0.000000
    32  Bq   0.000000
    33  Bq   0.000000
    34  Bq   0.000000
    35  Bq   0.000000
    36  Bq   0.000000
    37  Bq   0.000000
    38  Bq   0.000000
    39  Bq   0.000000
    40  Bq   0.000000
    41  Bq   0.000000
    42  Bq   0.000000
    43  Bq   0.000000
    44  Bq   0.000000
    45  Bq   0.000000
    46  Bq   0.000000
    47  Bq   0.000000
    48  Bq   0.000000
    49  Bq   0.000000
    50  Bq   0.000000
    51  Bq   0.000000
    52  Bq   0.000000
    53  Bq   0.000000
    54  Bq   0.000000
    55  Bq   0.000000
    56  Bq   0.000000
    57  Bq   0.000000
    58  Bq   0.000000
    59  Bq   0.000000
    60  Bq   0.000000
    61  Bq   0.000000
    62  Bq   0.000000
    63  Bq   0.000000
    64  Bq   0.000000
    65  Bq   0.000000
    66  Bq   0.000000
    67  Bq   0.000000
    68  Bq   0.000000
    69  Bq   0.000000
    70  Bq   0.000000
    71  Bq   0.000000
    72  Bq   0.000000
    73  Bq   0.000000
    74  Bq   0.000000
    75  Bq   0.000000
    76  Bq   0.000000
    77  Bq   0.000000
    78  Bq   0.000000
    79  Bq   0.000000
    80  Bq   0.000000
    81  Bq   0.000000
    82  Bq   0.000000
    83  Bq   0.000000
    84  Bq   0.000000
    85  Bq   0.000000
    86  Bq   0.000000
    87  Bq   0.000000
    88  Bq   0.000000
    89  Bq   0.000000
    90  Bq   0.000000
    91  Bq   0.000000
    92  Bq   0.000000
    93  Bq   0.000000
    94  Bq   0.000000
    95  Bq   0.000000
    96  Bq   0.000000
    97  Bq   0.000000
    98  Bq   0.000000
    99  Bq   0.000000
   100  Bq   0.000000
   101  Bq   0.000000
   102  Bq   0.000000
   103  Bq   0.000000
   104  Bq   0.000000
   105  Bq   0.000000
   106  Bq   0.000000
   107  Bq   0.000000
   108  Bq   0.000000
   109  Bq   0.000000
   110  Bq   0.000000
   111  Bq   0.000000
   112  Bq   0.000000
   113  Bq   0.000000
   114  Bq   0.000000
   115  Bq   0.000000
   116  Bq   0.000000
   117  Bq   0.000000
   118  Bq   0.000000
   119  Bq   0.000000
   120  Bq   0.000000
   121  Bq   0.000000
   122  Bq   0.000000
   123  Bq   0.000000
   124  Bq   0.000000
   125  Bq   0.000000
   126  Bq   0.000000
   127  Bq   0.000000
   128  Bq   0.000000
   129  Bq   0.000000
   130  Bq   0.000000
   131  Bq   0.000000
   132  Bq   0.000000
   133  Bq   0.000000
   134  Bq   0.000000
   135  Bq   0.000000
   136  Bq   0.000000
   137  Bq   0.000000
   138  Bq   0.000000
   139  Bq   0.000000
   140  Bq   0.000000
   141  Bq   0.000000
   142  Bq   0.000000
   143  Bq   0.000000
   144  Bq   0.000000
   145  Bq   0.000000
   146  Bq   0.000000
   147  Bq   0.000000
   148  Bq   0.000000
   149  Bq   0.000000
   150  Bq   0.000000
   151  Bq   0.000000
   152  Bq   0.000000
   153  Bq   0.000000
   154  Bq   0.000000
   155  Bq   0.000000
   156  Bq   0.000000
   157  Bq   0.000000
   158  Bq   0.000000
   159  Bq   0.000000
   160  Bq   0.000000
   161  Bq   0.000000
   162  Bq   0.000000
   163  Bq   0.000000
   164  Bq   0.000000
   165  Bq   0.000000
   166  Bq   0.000000
   167  Bq   0.000000
   168  Bq   0.000000
   169  Bq   0.000000
   170  Bq   0.000000
   171  Bq   0.000000
   172  Bq   0.000000
   173  Bq   0.000000
   174  Bq   0.000000
   175  Bq   0.000000
   176  Bq   0.000000
   177  Bq   0.000000
   178  Bq   0.000000
   179  Bq   0.000000
   180  Bq   0.000000
   181  Bq   0.000000
   182  Bq   0.000000
   183  Bq   0.000000
   184  Bq   0.000000
   185  Bq   0.000000
   186  Bq   0.000000
   187  Bq   0.000000
   188  Bq   0.000000
   189  Bq   0.000000
   190  Bq   0.000000
   191  Bq   0.000000
   192  Bq   0.000000
   193  Bq   0.000000
   194  Bq   0.000000
   195  Bq   0.000000
   196  Bq   0.000000
   197  Bq   0.000000
   198  Bq   0.000000
   199  Bq   0.000000
   200  Bq   0.000000
   201  Bq   0.000000
   202  Bq   0.000000
   203  Bq   0.000000
   204  Bq   0.000000
   205  Bq   0.000000
   206  Bq   0.000000
   207  Bq   0.000000
   208  Bq   0.000000
   209  Bq   0.000000
   210  Bq   0.000000
   211  Bq   0.000000
   212  Bq   0.000000
   213  Bq   0.000000
   214  Bq   0.000000
   215  Bq   0.000000
   216  Bq   0.000000
   217  Bq   0.128962
   218  Bq   0.000000
 Electronic spatial extent (au):  <R**2>=           1312.5323
 Charge=              0.0000 electrons
 Dipole moment (field-independent basis, Debye):
    X=              0.0000    Y=              0.0000    Z=              0.0000  Tot=              0.0000
 Quadrupole moment (field-independent basis, Debye-Ang):
   XX=            -51.9618   YY=            -52.1216   ZZ=            -65.1252
   XY=              0.0000   XZ=              0.0000   YZ=              0.0000
 Traceless Quadrupole moment (field-independent basis, Debye-Ang):
   XX=              4.4411   YY=              4.2812   ZZ=             -8.7224
   XY=              0.0000   XZ=              0.0000   YZ=              0.0000
 Octapole moment (field-independent basis, Debye-Ang**2):
  XXX=              0.0000  YYY=              0.0000  ZZZ=              0.0000  XYY=              0.0000
  XXY=              0.0000  XXZ=              0.0000  XZZ=              0.0000  YZZ=              0.0000
  YYZ=              0.0000  XYZ=              0.0000
 Hexadecapole moment (field-independent basis, Debye-Ang**3):
 XXXX=          -1119.8966 YYYY=           -498.1664 ZZZZ=            -79.6336 XXXY=              0.0000
 XXXZ=              0.0000 YYYX=              0.0000 YYYZ=              0.0000 ZZZX=              0.0000
 ZZZY=              0.0000 XXYY=           -275.3262 XXZZ=           -249.8350 YYZZ=           -117.4791
 XXYZ=              0.0000 YYXZ=              0.0000 ZZXY=              0.0000
 N-N= 4.538675371600D+02 E-N=-1.802310911208D+03  KE= 3.837199947839D+02
 1\1\GINC-PLANA\SP\RB3LYP\6-311+G(d,p)\C10H8\YANNICK\25-Sep-2020\0\\# r
 b3lyp/6-311+g** NMR geom=connectivity\\Title\\0,1\C,0,2.45076,-0.71174
 ,0.\C,0,2.45076,0.71174,0.\C,0,1.25139,1.41137,0.\C,0,0.,0.72289,0.\C,
 0,-1.25139,1.41137,0.\C,0,-2.45076,0.71174,0.\C,0,-2.45076,-0.71174,0.
 \C,0,-1.25139,-1.41137,0.\C,0,0.,-0.72289,0.\C,0,1.25139,-1.41137,0.\H
 ,0,3.40873,-1.25791,0.\H,0,3.40873,1.25791,0.\H,0,1.24972,2.51472,0.\H
 ,0,-1.24972,2.51472,0.\H,0,-3.40873,1.25791,0.\H,0,-3.40873,-1.25791,0
 .\H,0,-1.24972,-2.51472,0.\H,0,1.24972,-2.51472,0.\Bq,0,-4.37465583,1.
 46923487,0.14942925\Bq,0,-4.33260953,1.25791,-0.38268343\Bq,0,-4.33260
 953,1.25791,0.38268343\Bq,0,-4.32438738,1.0490634,-0.34344529\Bq,0,-4.
 32438738,1.0490634,0.34344529\Bq,0,-4.32438738,1.4667566,-0.34344529\B
 q,0,-4.32438738,1.4667566,0.34344529\Bq,0,-4.31326403,0.83150857,0.\Bq
 ,0,-4.31326403,1.68431143,0.\Bq,0,-4.2747554,0.84966171,-0.28867513\Bq
 ,0,-4.2747554,0.84966171,0.28867513\Bq,0,-4.2747554,1.66615829,-0.2886
 7513\Bq,0,-4.2747554,1.66615829,0.28867513\Bq,0,-4.24019961,1.25791,-0
 .55557023\Bq,0,-4.24019961,1.25791,0.55557023\Bq,0,-4.22787066,1.05915
 315,-0.53805603\Bq,0,-4.22787066,1.05915315,0.53805603\Bq,0,-4.2278706
 6,1.45666685,-0.53805603\Bq,0,-4.22787066,1.45666685,0.53805603\Bq,0,-
 4.18595818,0.85329496,-0.48187449\Bq,0,-4.18595818,0.85329496,0.481874
 49\Bq,0,-4.18595818,1.66252504,-0.48187449\Bq,0,-4.18595818,1.66252504
 ,0.48187449\Bq,0,-4.16250836,0.61830785,-0.15075567\Bq,0,-4.16250836,0
 .61830785,0.15075567\Bq,0,-4.16250836,1.89751215,-0.15075567\Bq,0,-4.1
 6250836,1.89751215,0.15075567\Bq,0,-4.11583678,0.68055973,-0.40824829\
 Bq,0,-4.11583678,0.68055973,0.40824829\Bq,0,-4.11583678,1.25791,-0.707
 10678\Bq,0,-4.11583678,1.25791,0.70710678\Bq,0,-4.11583678,1.83526027,
 -0.40824829\Bq,0,-4.11583678,1.83526027,0.40824829\Bq,0,-4.10224992,1.
 06281968,-0.69351992\Bq,0,-4.10224992,1.06281968,0.69351992\Bq,0,-4.10
 224992,1.45300032,-0.69351992\Bq,0,-4.10224992,1.45300032,0.69351992\B
 q,0,-4.06201148,0.87522657,-0.65328148\Bq,0,-4.06201148,0.87522657,0.6
 5328148\Bq,0,-4.06201148,1.64059343,-0.65328148\Bq,0,-4.06201148,1.640
 59343,0.65328148\Bq,0,-3.9966678,0.70233977,-0.5879378\Bq,0,-3.9966678
 ,0.70233977,0.5879378\Bq,0,-3.9966678,1.81348023,-0.5879378\Bq,0,-3.99
 66678,1.81348023,0.5879378\Bq,0,-3.98608027,0.44141342,0.\Bq,0,-3.9860
 8027,2.07440658,0.\Bq,0,-3.96640754,0.46923487,-0.25881905\Bq,0,-3.966
 40754,0.46923487,0.25881905\Bq,0,-3.96640754,2.04658513,-0.25881905\Bq
 ,0,-3.96640754,2.04658513,0.25881905\Bq,0,-3.96430023,1.25791,-0.83146
 961\Bq,0,-3.96430023,1.25791,0.83146961\Bq,0,-3.94678603,1.05915315,-0
 .81914066\Bq,0,-3.94678603,1.05915315,0.81914066\Bq,0,-3.94678603,1.45
 666685,-0.81914066\Bq,0,-3.94678603,1.45666685,0.81914066\Bq,0,-3.9087
 3,0.55080322,-0.5\Bq,0,-3.90873,0.55080322,0.5\Bq,0,-3.90873,1.9650167
 8,-0.5\Bq,0,-3.90873,1.96501678,0.5\Bq,0,-3.89060449,0.85329496,-0.777
 22818\Bq,0,-3.89060449,0.85329496,0.77722818\Bq,0,-3.89060449,1.662525
 04,-0.77722818\Bq,0,-3.89060449,1.66252504,0.77722818\Bq,0,-3.84251289
 ,0.36758997,-0.1384292\Bq,0,-3.84251289,0.36758997,0.1384292\Bq,0,-3.8
 4251289,2.14823003,-0.1384292\Bq,0,-3.84251289,2.14823003,0.1384292\Bq
 ,0,-3.81697829,0.68055973,-0.70710678\Bq,0,-3.81697829,0.68055973,0.70
 710678\Bq,0,-3.81697829,1.83526027,-0.70710678\Bq,0,-3.81697829,1.8352
 6027,0.70710678\Bq,0,-3.80157748,0.42644039,-0.39284748\Bq,0,-3.801577
 48,0.42644039,0.39284748\Bq,0,-3.80157748,2.08937961,-0.39284748\Bq,0,
 -3.80157748,2.08937961,0.39284748\Bq,0,-3.79141343,1.25791,-0.92387953
 \Bq,0,-3.79141343,1.25791,0.92387953\Bq,0,-3.75217529,1.0490634,-0.915
 65738\Bq,0,-3.75217529,1.0490634,0.91565738\Bq,0,-3.75217529,1.4667566
 ,-0.91565738\Bq,0,-3.75217529,1.4667566,0.91565738\Bq,0,-3.69740513,0.
 84966171,-0.8660254\Bq,0,-3.69740513,0.84966171,0.8660254\Bq,0,-3.6974
 0513,1.66615829,-0.8660254\Bq,0,-3.69740513,1.66615829,0.8660254\Bq,0,
 -3.68981464,0.29822702,0.\Bq,0,-3.68981464,2.21759298,0.\Bq,0,-3.67932
 805,0.33403047,-0.27059805\Bq,0,-3.67932805,0.33403047,0.27059805\Bq,0
 ,-3.67932805,2.18178953,-0.27059805\Bq,0,-3.67932805,2.18178953,0.2705
 9805\Bq,0,-3.66754905,0.46923487,-0.55767754\Bq,0,-3.66754905,0.469234
 87,0.55767754\Bq,0,-3.66754905,2.04658513,-0.55767754\Bq,0,-3.66754905
 ,2.04658513,0.55767754\Bq,0,-3.60382032,1.25791,-0.98078528\Bq,0,-3.60
 382032,1.25791,0.98078528\Bq,0,-3.55948567,0.61830785,-0.75377836\Bq,0
 ,-3.55948567,0.61830785,0.75377836\Bq,0,-3.55948567,1.89751215,-0.7537
 7836\Bq,0,-3.55948567,1.89751215,0.75377836\Bq,0,-3.55815925,1.0465851
 3,-0.96592583\Bq,0,-3.55815925,1.04658513,0.96592583\Bq,0,-3.55815925,
 1.46923487,-0.96592583\Bq,0,-3.55815925,1.46923487,0.96592583\Bq,0,-3.
 5471592,0.36758997,-0.43378289\Bq,0,-3.5471592,0.36758997,0.43378289\B
 q,0,-3.5471592,2.14823003,-0.43378289\Bq,0,-3.5471592,2.14823003,0.433
 78289\Bq,0,-3.54667969,0.27712472,-0.13794969\Bq,0,-3.54667969,0.27712
 472,0.13794969\Bq,0,-3.54667969,2.23869528,-0.13794969\Bq,0,-3.5466796
 9,2.23869528,0.13794969\Bq,0,-3.40873,0.25791,0.\Bq,0,-3.40873,0.29822
 702,-0.28108464\Bq,0,-3.40873,0.29822702,0.28108464\Bq,0,-3.40873,0.44
 141342,-0.57735027\Bq,0,-3.40873,0.44141342,0.57735027\Bq,0,-3.40873,0
 .83150857,-0.90453403\Bq,0,-3.40873,0.83150857,0.90453403\Bq,0,-3.4087
 3,1.25791,-1.\Bq,0,-3.40873,1.25791,1.\Bq,0,-3.40873,1.68431143,-0.904
 53403\Bq,0,-3.40873,1.68431143,0.90453403\Bq,0,-3.40873,2.07440658,-0.
 57735027\Bq,0,-3.40873,2.07440658,0.57735027\Bq,0,-3.40873,2.21759298,
 -0.28108464\Bq,0,-3.40873,2.21759298,0.28108464\Bq,0,-3.40873,2.25791,
 0.\Bq,0,-3.27078031,2.23869528,-0.13794969\Bq,0,-3.27078031,2.23869528
 ,0.13794969\Bq,0,-3.2703008,2.14823003,-0.43378289\Bq,0,-3.2703008,2.1
 4823003,0.43378289\Bq,0,-3.25930075,1.04658513,-0.96592583\Bq,0,-3.259
 30075,1.04658513,0.96592583\Bq,0,-3.25930075,1.46923487,-0.96592583\Bq
 ,0,-3.25930075,1.46923487,0.96592583\Bq,0,-3.25797433,0.61830785,-0.75
 377836\Bq,0,-3.25797433,0.61830785,0.75377836\Bq,0,-3.25797433,1.89751
 215,-0.75377836\Bq,0,-3.25797433,1.89751215,0.75377836\Bq,0,-3.2136396
 8,1.25791,-0.98078528\Bq,0,-3.21363968,1.25791,0.98078528\Bq,0,-3.1499
 1095,2.04658513,-0.55767754\Bq,0,-3.14991095,2.04658513,0.55767754\Bq,
 0,-3.13813195,2.18178953,-0.27059805\Bq,0,-3.13813195,2.18178953,0.270
 59805\Bq,0,-3.12764536,2.21759298,0.\Bq,0,-3.12005487,0.84966171,-0.86
 60254\Bq,0,-3.12005487,0.84966171,0.8660254\Bq,0,-3.12005487,1.6661582
 9,-0.8660254\Bq,0,-3.12005487,1.66615829,0.8660254\Bq,0,-3.06528471,1.
 0490634,-0.91565738\Bq,0,-3.06528471,1.0490634,0.91565738\Bq,0,-3.0652
 8471,1.4667566,-0.91565738\Bq,0,-3.06528471,1.4667566,0.91565738\Bq,0,
 -3.02604657,1.25791,-0.92387953\Bq,0,-3.02604657,1.25791,0.92387953\Bq
 ,0,-3.01588252,2.08937961,-0.39284748\Bq,0,-3.01588252,2.08937961,0.39
 284748\Bq,0,-3.00048171,1.83526027,-0.70710678\Bq,0,-3.00048171,1.8352
 6027,0.70710678\Bq,0,-2.97494711,2.14823003,-0.1384292\Bq,0,-2.9749471
 1,2.14823003,0.1384292\Bq,0,-2.92685551,1.66252504,-0.77722818\Bq,0,-2
 .92685551,1.66252504,0.77722818\Bq,0,-2.90873,1.96501678,-0.5\Bq,0,-2.
 90873,1.96501678,0.5\Bq,0,-2.87067397,1.45666685,-0.81914066\Bq,0,-2.8
 7067397,1.45666685,0.81914066\Bq,0,-2.85315977,1.25791,-0.83146961\Bq,
 0,-2.85315977,1.25791,0.83146961\Bq,0,-2.85105246,2.04658513,-0.258819
 05\Bq,0,-2.85105246,2.04658513,0.25881905\Bq,0,-2.83137973,2.07440658,
 0.\Bq,0,-2.8207922,1.81348023,-0.5879378\Bq,0,-2.8207922,1.81348023,0.
 5879378\Bq,0,-2.75544852,1.64059343,-0.65328148\Bq,0,-2.75544852,1.640
 59343,0.65328148\Bq,0,-2.71521008,1.45300032,-0.69351992\Bq,0,-2.71521
 008,1.45300032,0.69351992\Bq,0,-2.70162322,1.83526027,-0.40824829\Bq,0
 ,-2.70162322,1.83526027,0.40824829\Bq,0,-2.65495164,1.89751215,-0.1507
 5567\Bq,0,-2.65495164,1.89751215,0.15075567\Bq,0,-2.63150182,1.6625250
 4,-0.48187449\Bq,0,-2.63150182,1.66252504,0.48187449\Bq,0,-2.5427046,1
 .66615829,-0.28867513\Bq,0,-2.5427046,1.66615829,0.28867513\Bq,0,-4.40
 873,-1.25791,0.\Bq,0,-4.38951528,-1.25791,-0.19509032\Bq,0,-4.38951528
 ,-1.25791,0.19509032\Bq,0,-4.37465583,-1.46923487,-0.14942925\Bq,0,-4.
 37465583,-1.46923487,0.14942925\Bq,0,-4.37465583,-1.04658513,-0.149429
 25\Bq,0,-4.37465583,-1.04658513,0.14942925\Bq,0,-4.33260953,-1.25791,-
 0.38268343\Bq,0,-4.33260953,-1.25791,0.38268343\\Version=ES64L-G09RevD
 .01\HF=-385.9859319\RMSD=7.923e-09\Dipole=0.,0.,0.\Quadrupole=3.301858
 8,3.182998,-6.4848568,0.,0.,0.\PG=C01 [X(C10H8)]\\@


 KEEP CLOSE TO NATURES HEART, YOURSELF;
 AND BREAK CLEAR AWAY, ONCE IN A WHILE, AND
 CLIMB A MOUNTAIN OR SPEND A WEEK IN THE
 WOODS.  WASH YOUR SPIRIT CLEAN...
                                         -- JOHN MUIR
 Job cpu time:       0 days  0 hours 10 minutes 55.4 seconds.
 File lengths (MBytes):  RWF=     43 Int=      0 D2E=      0 Chk=      5 Scr=      1
 Normal termination of Gaussian 09 at Fri Sep 25 17:02:51 2020.
