 Entering Gaussian System, Link 0=g09
 Input=input_batch_02400.com
 Output=input_batch_02400.log
 Initial command:
 /share/programs/GAUSSIAN/64/g09/l1.exe "/scratch/yannick.45717/Gau-1385891.inp" -scrdir="/scratch/yannick.45717/"
 Entering Link 1 = /share/programs/GAUSSIAN/64/g09/l1.exe PID=   1385899.
  
 Copyright (c) 1988,1990,1992,1993,1995,1998,2003,2009,2013,
            Gaussian, Inc.  All Rights Reserved.
  
 This is part of the Gaussian(R) 09 program.  It is based on
 the Gaussian(R) 03 system (copyright 2003, Gaussian, Inc.),
 the Gaussian(R) 98 system (copyright 1998, Gaussian, Inc.),
 the Gaussian(R) 94 system (copyright 1995, Gaussian, Inc.),
 the Gaussian 92(TM) system (copyright 1992, Gaussian, Inc.),
 the Gaussian 90(TM) system (copyright 1990, Gaussian, Inc.),
 the Gaussian 88(TM) system (copyright 1988, Gaussian, Inc.),
 the Gaussian 86(TM) system (copyright 1986, Carnegie Mellon
 University), and the Gaussian 82(TM) system (copyright 1983,
 Carnegie Mellon University). Gaussian is a federally registered
 trademark of Gaussian, Inc.
  
 This software contains proprietary and confidential information,
 including trade secrets, belonging to Gaussian, Inc.
  
 This software is provided under written license and may be
 used, copied, transmitted, or stored only in accord with that
 written license.
  
 The following legend is applicable only to US Government
 contracts under FAR:
  
                    RESTRICTED RIGHTS LEGEND
  
 Use, reproduction and disclosure by the US Government is
 subject to restrictions as set forth in subparagraphs (a)
 and (c) of the Commercial Computer Software - Restricted
 Rights clause in FAR 52.227-19.
  
 Gaussian, Inc.
 340 Quinnipiac St., Bldg. 40, Wallingford CT 06492
  
  
 ---------------------------------------------------------------
 Warning -- This program may not be used in any manner that
 competes with the business of Gaussian, Inc. or will provide
 assistance to any competitor of Gaussian, Inc.  The licensee
 of this program is prohibited from giving any competitor of
 Gaussian, Inc. access to this program.  By using this program,
 the user acknowledges that Gaussian, Inc. is engaged in the
 business of creating and licensing software in the field of
 computational chemistry and represents and warrants to the
 licensee that it is not a competitor of Gaussian, Inc. and that
 it will not use this program in any manner prohibited above.
 ---------------------------------------------------------------
  

 Cite this work as:
 Gaussian 09, Revision D.01,
 M. J. Frisch, G. W. Trucks, H. B. Schlegel, G. E. Scuseria, 
 M. A. Robb, J. R. Cheeseman, G. Scalmani, V. Barone, B. Mennucci, 
 G. A. Petersson, H. Nakatsuji, M. Caricato, X. Li, H. P. Hratchian, 
 A. F. Izmaylov, J. Bloino, G. Zheng, J. L. Sonnenberg, M. Hada, 
 M. Ehara, K. Toyota, R. Fukuda, J. Hasegawa, M. Ishida, T. Nakajima, 
 Y. Honda, O. Kitao, H. Nakai, T. Vreven, J. A. Montgomery, Jr., 
 J. E. Peralta, F. Ogliaro, M. Bearpark, J. J. Heyd, E. Brothers, 
 K. N. Kudin, V. N. Staroverov, T. Keith, R. Kobayashi, J. Normand, 
 K. Raghavachari, A. Rendell, J. C. Burant, S. S. Iyengar, J. Tomasi, 
 M. Cossi, N. Rega, J. M. Millam, M. Klene, J. E. Knox, J. B. Cross, 
 V. Bakken, C. Adamo, J. Jaramillo, R. Gomperts, R. E. Stratmann, 
 O. Yazyev, A. J. Austin, R. Cammi, C. Pomelli, J. W. Ochterski, 
 R. L. Martin, K. Morokuma, V. G. Zakrzewski, G. A. Voth, 
 P. Salvador, J. J. Dannenberg, S. Dapprich, A. D. Daniels, 
 O. Farkas, J. B. Foresman, J. V. Ortiz, J. Cioslowski, 
 and D. J. Fox, Gaussian, Inc., Wallingford CT, 2013.
 
 ******************************************
 Gaussian 09:  ES64L-G09RevD.01 24-Apr-2013
                25-Sep-2020 
 ******************************************
 %nproc=8
 Will use up to    8 processors via shared memory.
 %mem=1000MB
 ----------------------------------------
 # rb3lyp/6-311+g** NMR geom=connectivity
 ----------------------------------------
 1/38=1,57=2/1;
 2/12=2,17=6,18=5,40=1/2;
 3/5=4,6=6,7=111,11=2,16=1,25=1,30=1,74=-5,116=1/1,2,8,3;
 4//1;
 5/5=2,38=5/2;
 8/6=1,10=90,11=11/1;
 10/13=100,45=16/2;
 6/7=2,8=2,9=2,10=2,28=1/1;
 99/9=1/99;
 -----
 Title
 -----
 Symbolic Z-matrix:
 Charge =  0 Multiplicity = 1
 C                     2.45076  -0.71174   0. 
 C                     2.45076   0.71174   0. 
 C                     1.25139   1.41137   0. 
 C                     0.        0.72289   0. 
 C                    -1.25139   1.41137   0. 
 C                    -2.45076   0.71174   0. 
 C                    -2.45076  -0.71174   0. 
 C                    -1.25139  -1.41137   0. 
 C                     0.       -0.72289   0. 
 C                     1.25139  -1.41137   0. 
 H                     3.40873  -1.25791   0. 
 H                     3.40873   1.25791   0. 
 H                     1.24972   2.51472   0. 
 H                    -1.24972   2.51472   0. 
 H                    -3.40873   1.25791   0. 
 H                    -3.40873  -1.25791   0. 
 H                    -1.24972  -2.51472   0. 
 H                     1.24972  -2.51472   0. 
 Bq                    0.38369  -2.92297  -0.28868 
 Bq                    0.38369  -2.92297   0.28868 
 Bq                    0.38369  -2.10647  -0.28868 
 Bq                    0.38369  -2.10647   0.28868 
 Bq                    0.41825  -2.51472  -0.55557 
 Bq                    0.41825  -2.51472   0.55557 
 Bq                    0.43058  -2.71348  -0.53806 
 Bq                    0.43058  -2.71348   0.53806 
 Bq                    0.43058  -2.31596  -0.53806 
 Bq                    0.43058  -2.31596   0.53806 
 Bq                    0.47249  -2.91934  -0.48187 
 Bq                    0.47249  -2.91934   0.48187 
 Bq                    0.47249  -2.1101   -0.48187 
 Bq                    0.47249  -2.1101    0.48187 
 Bq                    0.49594  -3.15432  -0.15076 
 Bq                    0.49594  -3.15432   0.15076 
 Bq                    0.54261  -3.09207  -0.40825 
 Bq                    0.54261  -3.09207   0.40825 
 Bq                    0.54261  -2.51472  -0.70711 
 Bq                    0.54261  -2.51472   0.70711 
 Bq                    0.5562   -2.70981  -0.69352 
 Bq                    0.5562   -2.70981   0.69352 
 Bq                    0.5562   -2.31963  -0.69352 
 Bq                    0.5562   -2.31963   0.69352 
 Bq                    0.59644  -2.8974   -0.65328 
 Bq                    0.59644  -2.8974    0.65328 
 Bq                    0.59644  -2.13204  -0.65328 
 Bq                    0.59644  -2.13204   0.65328 
 Bq                    0.66178  -3.07029  -0.58794 
 Bq                    0.66178  -3.07029   0.58794 
 Bq                    0.67237  -3.33122   0. 
 Bq                    0.69204  -3.3034   -0.25882 
 Bq                    0.69204  -3.3034    0.25882 
 Bq                    0.69415  -2.51472  -0.83147 
 Bq                    0.69415  -2.51472   0.83147 
 Bq                    0.71166  -2.71348  -0.81914 
 Bq                    0.71166  -2.71348   0.81914 
 Bq                    0.71166  -2.31596  -0.81914 
 Bq                    0.71166  -2.31596   0.81914 
 Bq                    0.74972  -3.22183  -0.5 
 Bq                    0.74972  -3.22183   0.5 
 Bq                    0.76785  -2.91934  -0.77723 
 Bq                    0.76785  -2.91934   0.77723 
 Bq                    0.76785  -2.1101   -0.77723 
 Bq                    0.76785  -2.1101    0.77723 
 Bq                    0.81594  -3.40504  -0.13843 
 Bq                    0.81594  -3.40504   0.13843 
 Bq                    0.84147  -3.09207  -0.70711 
 Bq                    0.84147  -3.09207   0.70711 
 Bq                    0.85687  -3.34619  -0.39285 
 Bq                    0.85687  -3.34619   0.39285 
 Bq                    0.86704  -2.51472  -0.92388 
 Bq                    0.86704  -2.51472   0.92388 
 Bq                    0.90627  -2.72357  -0.91566 
 Bq                    0.90627  -2.72357   0.91566 
 Bq                    0.90627  -2.30587  -0.91566 
 Bq                    0.90627  -2.30587   0.91566 
 Bq                    0.96104  -2.92297  -0.86603 
 Bq                    0.96104  -2.92297   0.86603 
 Bq                    0.96104  -2.10647  -0.86603 
 Bq                    0.96104  -2.10647   0.86603 
 Bq                    0.96864  -3.4744    0. 
 Bq                    0.97912  -3.4386   -0.2706 
 Bq                    0.97912  -3.4386    0.2706 
 Bq                    0.9909   -3.3034   -0.55768 
 Bq                    0.9909   -3.3034    0.55768 
 Bq                    1.05463  -2.51472  -0.98079 
 Bq                    1.05463  -2.51472   0.98079 
 Bq                    1.09896  -3.15432  -0.75378 
 Bq                    1.09896  -3.15432   0.75378 
 Bq                    1.10029  -2.72604  -0.96593 
 Bq                    1.10029  -2.72604   0.96593 
 Bq                    1.10029  -2.3034   -0.96593 
 Bq                    1.10029  -2.3034    0.96593 
 Bq                    1.11129  -3.40504  -0.43378 
 Bq                    1.11129  -3.40504   0.43378 
 Bq                    1.11177  -3.49551  -0.13795 
 Bq                    1.11177  -3.49551   0.13795 
 Bq                    1.24972  -3.51472   0. 
 Bq                    1.24972  -3.4744   -0.28108 
 Bq                    1.24972  -3.4744    0.28108 
 Bq                    1.24972  -3.33122  -0.57735 
 Bq                    1.24972  -3.33122   0.57735 
 Bq                    1.24972  -2.94112  -0.90453 
 Bq                    1.24972  -2.94112   0.90453 
 Bq                    1.24972  -2.51472  -1. 
 Bq                    1.24972  -2.51472   1. 
 Bq                    1.24972  -2.08832  -0.90453 
 Bq                    1.24972  -2.08832   0.90453 
 Bq                    1.38767  -3.49551  -0.13795 
 Bq                    1.38767  -3.49551   0.13795 
 Bq                    1.38815  -3.40504  -0.43378 
 Bq                    1.38815  -3.40504   0.43378 
 Bq                    1.39915  -2.72604  -0.96593 
 Bq                    1.39915  -2.72604   0.96593 
 Bq                    1.39915  -2.3034   -0.96593 
 Bq                    1.39915  -2.3034    0.96593 
 Bq                    1.40048  -3.15432  -0.75378 
 Bq                    1.40048  -3.15432   0.75378 
 Bq                    1.44481  -2.51472  -0.98079 
 Bq                    1.44481  -2.51472   0.98079 
 Bq                    1.50854  -3.3034   -0.55768 
 Bq                    1.50854  -3.3034    0.55768 
 Bq                    1.52032  -3.4386   -0.2706 
 Bq                    1.52032  -3.4386    0.2706 
 Bq                    1.5308   -3.4744    0. 
 Bq                    1.5384   -2.92297  -0.86603 
 Bq                    1.5384   -2.92297   0.86603 
 Bq                    1.5384   -2.10647  -0.86603 
 Bq                    1.5384   -2.10647   0.86603 
 Bq                    1.59317  -2.72357  -0.91566 
 Bq                    1.59317  -2.72357   0.91566 
 Bq                    1.59317  -2.30587  -0.91566 
 Bq                    1.59317  -2.30587   0.91566 
 Bq                    1.6324   -2.51472  -0.92388 
 Bq                    1.6324   -2.51472   0.92388 
 Bq                    1.64257  -3.34619  -0.39285 
 Bq                    1.64257  -3.34619   0.39285 
 Bq                    1.65797  -3.09207  -0.70711 
 Bq                    1.65797  -3.09207   0.70711 
 Bq                    1.6835   -3.40504  -0.13843 
 Bq                    1.6835   -3.40504   0.13843 
 Bq                    1.73159  -2.91934  -0.77723 
 Bq                    1.73159  -2.91934   0.77723 
 Bq                    1.73159  -2.1101   -0.77723 
 Bq                    1.73159  -2.1101    0.77723 
 Bq                    1.74972  -3.22183  -0.5 
 Bq                    1.74972  -3.22183   0.5 
 Bq                    1.78778  -2.71348  -0.81914 
 Bq                    1.78778  -2.71348   0.81914 
 Bq                    1.78778  -2.31596  -0.81914 
 Bq                    1.78778  -2.31596   0.81914 
 Bq                    1.80529  -2.51472  -0.83147 
 Bq                    1.80529  -2.51472   0.83147 
 Bq                    1.8074   -3.3034   -0.25882 
 Bq                    1.8074   -3.3034    0.25882 
 Bq                    1.82707  -3.33122   0. 
 Bq                    1.83766  -3.07029  -0.58794 
 Bq                    1.83766  -3.07029   0.58794 
 Bq                    1.903    -2.8974   -0.65328 
 Bq                    1.903    -2.8974    0.65328 
 Bq                    1.903    -2.13204  -0.65328 
 Bq                    1.903    -2.13204   0.65328 
 Bq                    1.94324  -2.70981  -0.69352 
 Bq                    1.94324  -2.70981   0.69352 
 Bq                    1.94324  -2.31963  -0.69352 
 Bq                    1.94324  -2.31963   0.69352 
 Bq                    1.95683  -3.09207  -0.40825 
 Bq                    1.95683  -3.09207   0.40825 
 Bq                    1.95683  -2.51472  -0.70711 
 Bq                    1.95683  -2.51472   0.70711 
 Bq                    2.0035   -3.15432  -0.15076 
 Bq                    2.0035   -3.15432   0.15076 
 Bq                    2.02695  -2.91934  -0.48187 
 Bq                    2.02695  -2.91934   0.48187 
 Bq                    2.02695  -2.1101   -0.48187 
 Bq                    2.02695  -2.1101    0.48187 
 Bq                    2.06886  -2.71348  -0.53806 
 Bq                    2.06886  -2.71348   0.53806 
 Bq                    2.06886  -2.31596  -0.53806 
 Bq                    2.06886  -2.31596   0.53806 
 Bq                    2.08119  -2.51472  -0.55557 
 Bq                    2.08119  -2.51472   0.55557 
 Bq                    2.11575  -2.92297  -0.28868 
 Bq                    2.11575  -2.92297   0.28868 
 Bq                    2.11575  -2.10647  -0.28868 
 Bq                    2.11575  -2.10647   0.28868 
 Bq                    2.15425  -2.94112   0. 
 Bq                    2.15425  -2.08832   0. 
 Bq                    2.16538  -2.72357  -0.34345 
 Bq                    2.16538  -2.72357   0.34345 
 Bq                    2.16538  -2.30587  -0.34345 
 Bq                    2.16538  -2.30587   0.34345 
 Bq                    2.1736   -2.51472  -0.38268 
 Bq                    2.1736   -2.51472   0.38268 
 Bq                    2.21565  -2.72604  -0.14943 
 Bq                    2.21565  -2.72604   0.14943 
 Bq                    2.21565  -2.3034   -0.14943 
 Bq                    2.21565  -2.3034    0.14943 
 Bq                    2.23051  -2.51472  -0.19509 
 Bq                    2.23051  -2.51472   0.19509 
 Bq                    2.24972  -2.51472   0. 
 Bq                   -1.94116   0.       -0.70711 
 Bq                   -1.94116   0.        0.70711 
 Bq                   -1.92757  -0.19509  -0.69352 
 Bq                   -1.92757  -0.19509   0.69352 
 Bq                   -1.92757   0.19509  -0.69352 
 Bq                   -1.92757   0.19509   0.69352 
 Bq                   -1.78962   0.       -0.83147 
 Bq                   -1.78962   0.        0.83147 
 Bq                   -1.77211  -0.19876  -0.81914 
 Bq                   -1.77211  -0.19876   0.81914 
 Bq                   -1.77211   0.19876  -0.81914 
 Bq                   -1.77211   0.19876   0.81914 
 Bq                   -1.71592  -0.40462  -0.77723 
 Bq                   -1.71592  -0.40462   0.77723 
 Bq                   -1.71592   0.40462  -0.77723 
 Bq                   -1.71592   0.40462   0.77723 
 Bq                   -1.6423   -0.57735  -0.70711 
 Bq                   -1.6423   -0.57735   0.70711 
 
 Symmetry turned off:
 Cannot cope with ghost atoms or with translation vectors.
 Stoichiometry    C10H8
 Framework group  C1[X(C10H8)]
 NUMDOF-- NAT=    18 NAtoms=   218
 Deg. of freedom     0
 Full point group                 C1      NOp   1
                          Input orientation:                          
 ---------------------------------------------------------------------
 Center     Atomic      Atomic             Coordinates (Angstroms)
 Number     Number       Type             X           Y           Z
 ---------------------------------------------------------------------
      1          6           0        2.450760   -0.711740    0.000000
      2          6           0        2.450760    0.711740    0.000000
      3          6           0        1.251390    1.411370    0.000000
      4          6           0        0.000000    0.722890    0.000000
      5          6           0       -1.251390    1.411370    0.000000
      6          6           0       -2.450760    0.711740    0.000000
      7          6           0       -2.450760   -0.711740    0.000000
      8          6           0       -1.251390   -1.411370    0.000000
      9          6           0        0.000000   -0.722890    0.000000
     10          6           0        1.251390   -1.411370    0.000000
     11          1           0        3.408730   -1.257910    0.000000
     12          1           0        3.408730    1.257910    0.000000
     13          1           0        1.249720    2.514720    0.000000
     14          1           0       -1.249720    2.514720    0.000000
     15          1           0       -3.408730    1.257910    0.000000
     16          1           0       -3.408730   -1.257910    0.000000
     17          1           0       -1.249720   -2.514720    0.000000
     18          1           0        1.249720   -2.514720    0.000000
     19          0           0        0.383695   -2.922968   -0.288675
     20          0           0        0.383695   -2.922968    0.288675
     21          0           0        0.383695   -2.106472   -0.288675
     22          0           0        0.383695   -2.106472    0.288675
     23          0           0        0.418250   -2.514720   -0.555570
     24          0           0        0.418250   -2.514720    0.555570
     25          0           0        0.430579   -2.713477   -0.538056
     26          0           0        0.430579   -2.713477    0.538056
     27          0           0        0.430579   -2.315963   -0.538056
     28          0           0        0.430579   -2.315963    0.538056
     29          0           0        0.472492   -2.919335   -0.481874
     30          0           0        0.472492   -2.919335    0.481874
     31          0           0        0.472492   -2.110105   -0.481874
     32          0           0        0.472492   -2.110105    0.481874
     33          0           0        0.495942   -3.154322   -0.150756
     34          0           0        0.495942   -3.154322    0.150756
     35          0           0        0.542613   -3.092070   -0.408248
     36          0           0        0.542613   -3.092070    0.408248
     37          0           0        0.542613   -2.514720   -0.707107
     38          0           0        0.542613   -2.514720    0.707107
     39          0           0        0.556200   -2.709810   -0.693520
     40          0           0        0.556200   -2.709810    0.693520
     41          0           0        0.556200   -2.319630   -0.693520
     42          0           0        0.556200   -2.319630    0.693520
     43          0           0        0.596439   -2.897403   -0.653281
     44          0           0        0.596439   -2.897403    0.653281
     45          0           0        0.596439   -2.132037   -0.653281
     46          0           0        0.596439   -2.132037    0.653281
     47          0           0        0.661782   -3.070290   -0.587938
     48          0           0        0.661782   -3.070290    0.587938
     49          0           0        0.672370   -3.331217    0.000000
     50          0           0        0.692042   -3.303395   -0.258819
     51          0           0        0.692042   -3.303395    0.258819
     52          0           0        0.694150   -2.514720   -0.831470
     53          0           0        0.694150   -2.514720    0.831470
     54          0           0        0.711664   -2.713477   -0.819141
     55          0           0        0.711664   -2.713477    0.819141
     56          0           0        0.711664   -2.315963   -0.819141
     57          0           0        0.711664   -2.315963    0.819141
     58          0           0        0.749720   -3.221827   -0.500000
     59          0           0        0.749720   -3.221827    0.500000
     60          0           0        0.767846   -2.919335   -0.777228
     61          0           0        0.767846   -2.919335    0.777228
     62          0           0        0.767846   -2.110105   -0.777228
     63          0           0        0.767846   -2.110105    0.777228
     64          0           0        0.815937   -3.405040   -0.138429
     65          0           0        0.815937   -3.405040    0.138429
     66          0           0        0.841472   -3.092070   -0.707107
     67          0           0        0.841472   -3.092070    0.707107
     68          0           0        0.856873   -3.346190   -0.392847
     69          0           0        0.856873   -3.346190    0.392847
     70          0           0        0.867037   -2.514720   -0.923880
     71          0           0        0.867037   -2.514720    0.923880
     72          0           0        0.906275   -2.723567   -0.915657
     73          0           0        0.906275   -2.723567    0.915657
     74          0           0        0.906275   -2.305873   -0.915657
     75          0           0        0.906275   -2.305873    0.915657
     76          0           0        0.961045   -2.922968   -0.866025
     77          0           0        0.961045   -2.922968    0.866025
     78          0           0        0.961045   -2.106472   -0.866025
     79          0           0        0.961045   -2.106472    0.866025
     80          0           0        0.968635   -3.474403    0.000000
     81          0           0        0.979122   -3.438600   -0.270598
     82          0           0        0.979122   -3.438600    0.270598
     83          0           0        0.990901   -3.303395   -0.557678
     84          0           0        0.990901   -3.303395    0.557678
     85          0           0        1.054630   -2.514720   -0.980785
     86          0           0        1.054630   -2.514720    0.980785
     87          0           0        1.098964   -3.154322   -0.753778
     88          0           0        1.098964   -3.154322    0.753778
     89          0           0        1.100291   -2.726045   -0.965926
     90          0           0        1.100291   -2.726045    0.965926
     91          0           0        1.100291   -2.303395   -0.965926
     92          0           0        1.100291   -2.303395    0.965926
     93          0           0        1.111291   -3.405040   -0.433783
     94          0           0        1.111291   -3.405040    0.433783
     95          0           0        1.111770   -3.495505   -0.137950
     96          0           0        1.111770   -3.495505    0.137950
     97          0           0        1.249720   -3.514720    0.000000
     98          0           0        1.249720   -3.474403   -0.281085
     99          0           0        1.249720   -3.474403    0.281085
    100          0           0        1.249720   -3.331217   -0.577350
    101          0           0        1.249720   -3.331217    0.577350
    102          0           0        1.249720   -2.941121   -0.904534
    103          0           0        1.249720   -2.941121    0.904534
    104          0           0        1.249720   -2.514720   -1.000000
    105          0           0        1.249720   -2.514720    1.000000
    106          0           0        1.249720   -2.088319   -0.904534
    107          0           0        1.249720   -2.088319    0.904534
    108          0           0        1.387670   -3.495505   -0.137950
    109          0           0        1.387670   -3.495505    0.137950
    110          0           0        1.388149   -3.405040   -0.433783
    111          0           0        1.388149   -3.405040    0.433783
    112          0           0        1.399149   -2.726045   -0.965926
    113          0           0        1.399149   -2.726045    0.965926
    114          0           0        1.399149   -2.303395   -0.965926
    115          0           0        1.399149   -2.303395    0.965926
    116          0           0        1.400476   -3.154322   -0.753778
    117          0           0        1.400476   -3.154322    0.753778
    118          0           0        1.444810   -2.514720   -0.980785
    119          0           0        1.444810   -2.514720    0.980785
    120          0           0        1.508539   -3.303395   -0.557678
    121          0           0        1.508539   -3.303395    0.557678
    122          0           0        1.520318   -3.438600   -0.270598
    123          0           0        1.520318   -3.438600    0.270598
    124          0           0        1.530805   -3.474403    0.000000
    125          0           0        1.538395   -2.922968   -0.866025
    126          0           0        1.538395   -2.922968    0.866025
    127          0           0        1.538395   -2.106472   -0.866025
    128          0           0        1.538395   -2.106472    0.866025
    129          0           0        1.593165   -2.723567   -0.915657
    130          0           0        1.593165   -2.723567    0.915657
    131          0           0        1.593165   -2.305873   -0.915657
    132          0           0        1.593165   -2.305873    0.915657
    133          0           0        1.632403   -2.514720   -0.923880
    134          0           0        1.632403   -2.514720    0.923880
    135          0           0        1.642567   -3.346190   -0.392847
    136          0           0        1.642567   -3.346190    0.392847
    137          0           0        1.657968   -3.092070   -0.707107
    138          0           0        1.657968   -3.092070    0.707107
    139          0           0        1.683503   -3.405040   -0.138429
    140          0           0        1.683503   -3.405040    0.138429
    141          0           0        1.731594   -2.919335   -0.777228
    142          0           0        1.731594   -2.919335    0.777228
    143          0           0        1.731594   -2.110105   -0.777228
    144          0           0        1.731594   -2.110105    0.777228
    145          0           0        1.749720   -3.221827   -0.500000
    146          0           0        1.749720   -3.221827    0.500000
    147          0           0        1.787776   -2.713477   -0.819141
    148          0           0        1.787776   -2.713477    0.819141
    149          0           0        1.787776   -2.315963   -0.819141
    150          0           0        1.787776   -2.315963    0.819141
    151          0           0        1.805290   -2.514720   -0.831470
    152          0           0        1.805290   -2.514720    0.831470
    153          0           0        1.807398   -3.303395   -0.258819
    154          0           0        1.807398   -3.303395    0.258819
    155          0           0        1.827070   -3.331217    0.000000
    156          0           0        1.837658   -3.070290   -0.587938
    157          0           0        1.837658   -3.070290    0.587938
    158          0           0        1.903001   -2.897403   -0.653281
    159          0           0        1.903001   -2.897403    0.653281
    160          0           0        1.903001   -2.132037   -0.653281
    161          0           0        1.903001   -2.132037    0.653281
    162          0           0        1.943240   -2.709810   -0.693520
    163          0           0        1.943240   -2.709810    0.693520
    164          0           0        1.943240   -2.319630   -0.693520
    165          0           0        1.943240   -2.319630    0.693520
    166          0           0        1.956827   -3.092070   -0.408248
    167          0           0        1.956827   -3.092070    0.408248
    168          0           0        1.956827   -2.514720   -0.707107
    169          0           0        1.956827   -2.514720    0.707107
    170          0           0        2.003498   -3.154322   -0.150756
    171          0           0        2.003498   -3.154322    0.150756
    172          0           0        2.026948   -2.919335   -0.481874
    173          0           0        2.026948   -2.919335    0.481874
    174          0           0        2.026948   -2.110105   -0.481874
    175          0           0        2.026948   -2.110105    0.481874
    176          0           0        2.068861   -2.713477   -0.538056
    177          0           0        2.068861   -2.713477    0.538056
    178          0           0        2.068861   -2.315963   -0.538056
    179          0           0        2.068861   -2.315963    0.538056
    180          0           0        2.081190   -2.514720   -0.555570
    181          0           0        2.081190   -2.514720    0.555570
    182          0           0        2.115745   -2.922968   -0.288675
    183          0           0        2.115745   -2.922968    0.288675
    184          0           0        2.115745   -2.106472   -0.288675
    185          0           0        2.115745   -2.106472    0.288675
    186          0           0        2.154254   -2.941121    0.000000
    187          0           0        2.154254   -2.088319    0.000000
    188          0           0        2.165377   -2.723567   -0.343445
    189          0           0        2.165377   -2.723567    0.343445
    190          0           0        2.165377   -2.305873   -0.343445
    191          0           0        2.165377   -2.305873    0.343445
    192          0           0        2.173600   -2.514720   -0.382683
    193          0           0        2.173600   -2.514720    0.382683
    194          0           0        2.215646   -2.726045   -0.149429
    195          0           0        2.215646   -2.726045    0.149429
    196          0           0        2.215646   -2.303395   -0.149429
    197          0           0        2.215646   -2.303395    0.149429
    198          0           0        2.230505   -2.514720   -0.195090
    199          0           0        2.230505   -2.514720    0.195090
    200          0           0        2.249720   -2.514720    0.000000
    201          0           0       -1.941157    0.000000   -0.707107
    202          0           0       -1.941157    0.000000    0.707107
    203          0           0       -1.927570   -0.195090   -0.693520
    204          0           0       -1.927570   -0.195090    0.693520
    205          0           0       -1.927570    0.195090   -0.693520
    206          0           0       -1.927570    0.195090    0.693520
    207          0           0       -1.789620    0.000000   -0.831470
    208          0           0       -1.789620    0.000000    0.831470
    209          0           0       -1.772106   -0.198757   -0.819141
    210          0           0       -1.772106   -0.198757    0.819141
    211          0           0       -1.772106    0.198757   -0.819141
    212          0           0       -1.772106    0.198757    0.819141
    213          0           0       -1.715924   -0.404615   -0.777228
    214          0           0       -1.715924   -0.404615    0.777228
    215          0           0       -1.715924    0.404615   -0.777228
    216          0           0       -1.715924    0.404615    0.777228
    217          0           0       -1.642298   -0.577350   -0.707107
    218          0           0       -1.642298   -0.577350    0.707107
 ---------------------------------------------------------------------
 Rotational constants (GHZ):      3.0751358      1.2130944      0.8699230
 Standard basis: 6-311+G(d,p) (5D, 7F)
 Warning:  center  19 has no basis functions!
 Warning:  center  20 has no basis functions!
 Warning:  center  21 has no basis functions!
 Warning:  center  22 has no basis functions!
 Warning:  center  23 has no basis functions!
 Warning:  center  24 has no basis functions!
 Warning:  center  25 has no basis functions!
 Warning:  center  26 has no basis functions!
 Warning:  center  27 has no basis functions!
 Warning:  center  28 has no basis functions!
 Warning:  center  29 has no basis functions!
 Warning:  center  30 has no basis functions!
 Warning:  center  31 has no basis functions!
 Warning:  center  32 has no basis functions!
 Warning:  center  33 has no basis functions!
 Warning:  center  34 has no basis functions!
 Warning:  center  35 has no basis functions!
 Warning:  center  36 has no basis functions!
 Warning:  center  37 has no basis functions!
 Warning:  center  38 has no basis functions!
 Warning:  center  39 has no basis functions!
 Warning:  center  40 has no basis functions!
 Warning:  center  41 has no basis functions!
 Warning:  center  42 has no basis functions!
 Warning:  center  43 has no basis functions!
 Warning:  center  44 has no basis functions!
 Warning:  center  45 has no basis functions!
 Warning:  center  46 has no basis functions!
 Warning:  center  47 has no basis functions!
 Warning:  center  48 has no basis functions!
 Warning:  center  49 has no basis functions!
 Warning:  center  50 has no basis functions!
 Warning:  center  51 has no basis functions!
 Warning:  center  52 has no basis functions!
 Warning:  center  53 has no basis functions!
 Warning:  center  54 has no basis functions!
 Warning:  center  55 has no basis functions!
 Warning:  center  56 has no basis functions!
 Warning:  center  57 has no basis functions!
 Warning:  center  58 has no basis functions!
 Warning:  center  59 has no basis functions!
 Warning:  center  60 has no basis functions!
 Warning:  center  61 has no basis functions!
 Warning:  center  62 has no basis functions!
 Warning:  center  63 has no basis functions!
 Warning:  center  64 has no basis functions!
 Warning:  center  65 has no basis functions!
 Warning:  center  66 has no basis functions!
 Warning:  center  67 has no basis functions!
 Warning:  center  68 has no basis functions!
 Warning:  center  69 has no basis functions!
 Warning:  center  70 has no basis functions!
 Warning:  center  71 has no basis functions!
 Warning:  center  72 has no basis functions!
 Warning:  center  73 has no basis functions!
 Warning:  center  74 has no basis functions!
 Warning:  center  75 has no basis functions!
 Warning:  center  76 has no basis functions!
 Warning:  center  77 has no basis functions!
 Warning:  center  78 has no basis functions!
 Warning:  center  79 has no basis functions!
 Warning:  center  80 has no basis functions!
 Warning:  center  81 has no basis functions!
 Warning:  center  82 has no basis functions!
 Warning:  center  83 has no basis functions!
 Warning:  center  84 has no basis functions!
 Warning:  center  85 has no basis functions!
 Warning:  center  86 has no basis functions!
 Warning:  center  87 has no basis functions!
 Warning:  center  88 has no basis functions!
 Warning:  center  89 has no basis functions!
 Warning:  center  90 has no basis functions!
 Warning:  center  91 has no basis functions!
 Warning:  center  92 has no basis functions!
 Warning:  center  93 has no basis functions!
 Warning:  center  94 has no basis functions!
 Warning:  center  95 has no basis functions!
 Warning:  center  96 has no basis functions!
 Warning:  center  97 has no basis functions!
 Warning:  center  98 has no basis functions!
 Warning:  center  99 has no basis functions!
 Warning:  center 100 has no basis functions!
 Warning:  center 101 has no basis functions!
 Warning:  center 102 has no basis functions!
 Warning:  center 103 has no basis functions!
 Warning:  center 104 has no basis functions!
 Warning:  center 105 has no basis functions!
 Warning:  center 106 has no basis functions!
 Warning:  center 107 has no basis functions!
 Warning:  center 108 has no basis functions!
 Warning:  center 109 has no basis functions!
 Warning:  center 110 has no basis functions!
 Warning:  center 111 has no basis functions!
 Warning:  center 112 has no basis functions!
 Warning:  center 113 has no basis functions!
 Warning:  center 114 has no basis functions!
 Warning:  center 115 has no basis functions!
 Warning:  center 116 has no basis functions!
 Warning:  center 117 has no basis functions!
 Warning:  center 118 has no basis functions!
 Warning:  center 119 has no basis functions!
 Warning:  center 120 has no basis functions!
 Warning:  center 121 has no basis functions!
 Warning:  center 122 has no basis functions!
 Warning:  center 123 has no basis functions!
 Warning:  center 124 has no basis functions!
 Warning:  center 125 has no basis functions!
 Warning:  center 126 has no basis functions!
 Warning:  center 127 has no basis functions!
 Warning:  center 128 has no basis functions!
 Warning:  center 129 has no basis functions!
 Warning:  center 130 has no basis functions!
 Warning:  center 131 has no basis functions!
 Warning:  center 132 has no basis functions!
 Warning:  center 133 has no basis functions!
 Warning:  center 134 has no basis functions!
 Warning:  center 135 has no basis functions!
 Warning:  center 136 has no basis functions!
 Warning:  center 137 has no basis functions!
 Warning:  center 138 has no basis functions!
 Warning:  center 139 has no basis functions!
 Warning:  center 140 has no basis functions!
 Warning:  center 141 has no basis functions!
 Warning:  center 142 has no basis functions!
 Warning:  center 143 has no basis functions!
 Warning:  center 144 has no basis functions!
 Warning:  center 145 has no basis functions!
 Warning:  center 146 has no basis functions!
 Warning:  center 147 has no basis functions!
 Warning:  center 148 has no basis functions!
 Warning:  center 149 has no basis functions!
 Warning:  center 150 has no basis functions!
 Warning:  center 151 has no basis functions!
 Warning:  center 152 has no basis functions!
 Warning:  center 153 has no basis functions!
 Warning:  center 154 has no basis functions!
 Warning:  center 155 has no basis functions!
 Warning:  center 156 has no basis functions!
 Warning:  center 157 has no basis functions!
 Warning:  center 158 has no basis functions!
 Warning:  center 159 has no basis functions!
 Warning:  center 160 has no basis functions!
 Warning:  center 161 has no basis functions!
 Warning:  center 162 has no basis functions!
 Warning:  center 163 has no basis functions!
 Warning:  center 164 has no basis functions!
 Warning:  center 165 has no basis functions!
 Warning:  center 166 has no basis functions!
 Warning:  center 167 has no basis functions!
 Warning:  center 168 has no basis functions!
 Warning:  center 169 has no basis functions!
 Warning:  center 170 has no basis functions!
 Warning:  center 171 has no basis functions!
 Warning:  center 172 has no basis functions!
 Warning:  center 173 has no basis functions!
 Warning:  center 174 has no basis functions!
 Warning:  center 175 has no basis functions!
 Warning:  center 176 has no basis functions!
 Warning:  center 177 has no basis functions!
 Warning:  center 178 has no basis functions!
 Warning:  center 179 has no basis functions!
 Warning:  center 180 has no basis functions!
 Warning:  center 181 has no basis functions!
 Warning:  center 182 has no basis functions!
 Warning:  center 183 has no basis functions!
 Warning:  center 184 has no basis functions!
 Warning:  center 185 has no basis functions!
 Warning:  center 186 has no basis functions!
 Warning:  center 187 has no basis functions!
 Warning:  center 188 has no basis functions!
 Warning:  center 189 has no basis functions!
 Warning:  center 190 has no basis functions!
 Warning:  center 191 has no basis functions!
 Warning:  center 192 has no basis functions!
 Warning:  center 193 has no basis functions!
 Warning:  center 194 has no basis functions!
 Warning:  center 195 has no basis functions!
 Warning:  center 196 has no basis functions!
 Warning:  center 197 has no basis functions!
 Warning:  center 198 has no basis functions!
 Warning:  center 199 has no basis functions!
 Warning:  center 200 has no basis functions!
 Warning:  center 201 has no basis functions!
 Warning:  center 202 has no basis functions!
 Warning:  center 203 has no basis functions!
 Warning:  center 204 has no basis functions!
 Warning:  center 205 has no basis functions!
 Warning:  center 206 has no basis functions!
 Warning:  center 207 has no basis functions!
 Warning:  center 208 has no basis functions!
 Warning:  center 209 has no basis functions!
 Warning:  center 210 has no basis functions!
 Warning:  center 211 has no basis functions!
 Warning:  center 212 has no basis functions!
 Warning:  center 213 has no basis functions!
 Warning:  center 214 has no basis functions!
 Warning:  center 215 has no basis functions!
 Warning:  center 216 has no basis functions!
 Warning:  center 217 has no basis functions!
 Warning:  center 218 has no basis functions!
   268 basis functions,   424 primitive gaussians,   278 cartesian basis functions
    34 alpha electrons       34 beta electrons
       nuclear repulsion energy       453.8675371600 Hartrees.
 NAtoms=  218 NActive=  218 NUniq=  218 SFac= 1.00D+00 NAtFMM=   60 NAOKFM=T Big=T
 Integral buffers will be    131072 words long.
 Raffenetti 2 integral format.
 Two-electron integral symmetry is turned off.
 One-electron integrals computed using PRISM.
 NBasis=   268 RedAO= T EigKep=  1.12D-06  NBF=   268
 NBsUse=   267 1.00D-06 EigRej=  6.14D-07 NBFU=   267
 ExpMin= 4.38D-02 ExpMax= 4.56D+03 ExpMxC= 6.82D+02 IAcc=2 IRadAn=         4 AccDes= 0.00D+00
 Harris functional with IExCor=  402 and IRadAn=       4 diagonalized for initial guess.
 HarFok:  IExCor=  402 AccDes= 0.00D+00 IRadAn=         4 IDoV= 1 UseB2=F ITyADJ=14
 ICtDFT=  3500011 ScaDFX=  1.000000  1.000000  1.000000  1.000000
 FoFCou: FMM=F IPFlag=           0 FMFlag=      100000 FMFlg1=        2001
         NFxFlg=           0 DoJE=T BraDBF=F KetDBF=T FulRan=T
         wScrn=  0.000000 ICntrl=     500 IOpCl=  0 I1Cent=   200000004 NGrid=           0
         NMat0=    1 NMatS0=      1 NMatT0=    0 NMatD0=    1 NMtDS0=    0 NMtDT0=    0
 Symmetry not used in FoFCou.
 Requested convergence on RMS density matrix=1.00D-08 within 128 cycles.
 Requested convergence on MAX density matrix=1.00D-06.
 Requested convergence on             energy=1.00D-06.
 No special actions if energy rises.
 SCF Done:  E(RB3LYP) =  -385.985931946     A.U. after   11 cycles
            NFock= 11  Conv=0.78D-08     -V/T= 2.0059
 DoSCS=F DFT=T ScalE2(SS,OS)=  1.000000  1.000000
 Range of M.O.s used for correlation:     1   267
 NBasis=   268 NAE=    34 NBE=    34 NFC=     0 NFV=     0
 NROrb=    267 NOA=    34 NOB=    34 NVA=   233 NVB=   233

 **** Warning!!: The largest alpha MO coefficient is  0.20992188D+03

          Differentiating once with respect to magnetic field using GIAOs.
          Electric field/nuclear overlap derivatives assumed to be zero.
 FoFCou: FMM=F IPFlag=           0 FMFlag=      100000 FMFlg1=        2001
         NFxFlg=           0 DoJE=F BraDBF=F KetDBF=T FulRan=T
         wScrn=  0.000000 ICntrl=    6100 IOpCl=  0 I1Cent=           7 NGrid=         218
         NMat0=    1 NMatS0=      1 NMatT0=    0 NMatD0=    1 NMtDS0=    0 NMtDT0=    0
 Symmetry not used in FoFCou.
 FoFJK:  IHMeth= 1 ICntrl=    6127 DoSepK=F KAlg= 0 I1Cent=   0 FoldK=F
 IRaf=         1 NMat=   1 IRICut=       1 DoRegI=T DoRafI=F ISym2E= 0.
          There are     3 degrees of freedom in the 1st order CPHF.  IDoFFX=0 NUNeed=     3.
      3 vectors produced by pass  0 Test12= 2.64D-13 3.33D-08 XBig12= 1.44D+02 6.48D+00.
 AX will form     3 AO Fock derivatives at one time.
      3 vectors produced by pass  1 Test12= 2.64D-13 3.33D-08 XBig12= 2.28D-01 1.79D-01.
      3 vectors produced by pass  2 Test12= 2.64D-13 3.33D-08 XBig12= 7.58D-04 1.41D-02.
      3 vectors produced by pass  3 Test12= 2.64D-13 3.33D-08 XBig12= 2.19D-06 6.12D-04.
      3 vectors produced by pass  4 Test12= 2.64D-13 3.33D-08 XBig12= 2.99D-09 2.39D-05.
      3 vectors produced by pass  5 Test12= 2.64D-13 3.33D-08 XBig12= 6.15D-12 9.51D-07.
      1 vectors produced by pass  6 Test12= 2.64D-13 3.33D-08 XBig12= 9.29D-15 3.79D-08.
 InvSVY:  IOpt=1 It=  1 EMax= 1.78D-15
 Solved reduced A of dimension    19 with     3 vectors.
 Calculating GIAO nuclear magnetic shielding tensors.
 SCF GIAO Magnetic shielding tensor (ppm):
      1  C    Isotropic =    48.8814   Anisotropy =   178.3631
   XX=   -26.3877   YX=    47.3635   ZX=     0.0000
   XY=    49.5434   YY=     5.2417   ZY=     0.0000
   XZ=     0.0000   YZ=     0.0000   ZZ=   167.7901
   Eigenvalues:   -61.5420    40.3960   167.7901
      2  C    Isotropic =    48.8814   Anisotropy =   178.3631
   XX=   -26.3877   YX=   -47.3635   ZX=     0.0000
   XY=   -49.5434   YY=     5.2417   ZY=     0.0000
   XZ=     0.0000   YZ=     0.0000   ZZ=   167.7901
   Eigenvalues:   -61.5420    40.3960   167.7901
      3  C    Isotropic =    47.0315   Anisotropy =   159.6105
   XX=    39.7012   YX=   -14.9645   ZX=     0.0000
   XY=   -12.8373   YY=   -52.0452   ZY=     0.0000
   XZ=     0.0000   YZ=     0.0000   ZZ=   153.4385
   Eigenvalues:   -54.1051    41.7611   153.4385
      4  C    Isotropic =    40.3220   Anisotropy =   214.7654
   XX=   -33.3511   YX=     0.0000   ZX=     0.0000
   XY=     0.0000   YY=   -29.1819   ZY=     0.0000
   XZ=     0.0000   YZ=     0.0000   ZZ=   183.4989
   Eigenvalues:   -33.3511   -29.1819   183.4989
      5  C    Isotropic =    47.0315   Anisotropy =   159.6105
   XX=    39.7012   YX=    14.9645   ZX=     0.0000
   XY=    12.8373   YY=   -52.0452   ZY=     0.0000
   XZ=     0.0000   YZ=     0.0000   ZZ=   153.4385
   Eigenvalues:   -54.1051    41.7611   153.4385
      6  C    Isotropic =    48.8814   Anisotropy =   178.3631
   XX=   -26.3877   YX=    47.3635   ZX=     0.0000
   XY=    49.5434   YY=     5.2417   ZY=     0.0000
   XZ=     0.0000   YZ=     0.0000   ZZ=   167.7901
   Eigenvalues:   -61.5420    40.3960   167.7901
      7  C    Isotropic =    48.8814   Anisotropy =   178.3631
   XX=   -26.3877   YX=   -47.3635   ZX=     0.0000
   XY=   -49.5434   YY=     5.2417   ZY=     0.0000
   XZ=     0.0000   YZ=     0.0000   ZZ=   167.7901
   Eigenvalues:   -61.5420    40.3960   167.7901
      8  C    Isotropic =    47.0315   Anisotropy =   159.6105
   XX=    39.7012   YX=   -14.9645   ZX=     0.0000
   XY=   -12.8373   YY=   -52.0452   ZY=     0.0000
   XZ=     0.0000   YZ=     0.0000   ZZ=   153.4385
   Eigenvalues:   -54.1051    41.7611   153.4385
      9  C    Isotropic =    40.3220   Anisotropy =   214.7654
   XX=   -33.3511   YX=     0.0000   ZX=     0.0000
   XY=     0.0000   YY=   -29.1819   ZY=     0.0000
   XZ=     0.0000   YZ=     0.0000   ZZ=   183.4989
   Eigenvalues:   -33.3511   -29.1819   183.4989
     10  C    Isotropic =    47.0315   Anisotropy =   159.6105
   XX=    39.7012   YX=    14.9645   ZX=     0.0000
   XY=    12.8373   YY=   -52.0452   ZY=     0.0000
   XZ=     0.0000   YZ=     0.0000   ZZ=   153.4385
   Eigenvalues:   -54.1051    41.7611   153.4385
     11  H    Isotropic =    23.8865   Anisotropy =     5.6622
   XX=    25.3494   YX=     1.7328   ZX=     0.0000
   XY=     1.7216   YY=    26.3711   ZY=     0.0000
   XZ=     0.0000   YZ=     0.0000   ZZ=    19.9391
   Eigenvalues:    19.9391    24.0591    27.6614
     12  H    Isotropic =    23.8865   Anisotropy =     5.6622
   XX=    25.3494   YX=    -1.7328   ZX=     0.0000
   XY=    -1.7216   YY=    26.3711   ZY=     0.0000
   XZ=     0.0000   YZ=     0.0000   ZZ=    19.9391
   Eigenvalues:    19.9391    24.0591    27.6614
     13  H    Isotropic =    23.5289   Anisotropy =     7.4859
   XX=    28.4698   YX=    -0.2957   ZX=     0.0000
   XY=    -0.7473   YY=    23.0511   ZY=     0.0000
   XZ=     0.0000   YZ=     0.0000   ZZ=    19.0659
   Eigenvalues:    19.0659    23.0014    28.5196
     14  H    Isotropic =    23.5289   Anisotropy =     7.4859
   XX=    28.4698   YX=     0.2957   ZX=     0.0000
   XY=     0.7473   YY=    23.0511   ZY=     0.0000
   XZ=     0.0000   YZ=     0.0000   ZZ=    19.0659
   Eigenvalues:    19.0659    23.0014    28.5196
     15  H    Isotropic =    23.8865   Anisotropy =     5.6622
   XX=    25.3494   YX=     1.7328   ZX=     0.0000
   XY=     1.7216   YY=    26.3711   ZY=     0.0000
   XZ=     0.0000   YZ=     0.0000   ZZ=    19.9391
   Eigenvalues:    19.9391    24.0591    27.6614
     16  H    Isotropic =    23.8865   Anisotropy =     5.6622
   XX=    25.3494   YX=    -1.7328   ZX=     0.0000
   XY=    -1.7216   YY=    26.3711   ZY=     0.0000
   XZ=     0.0000   YZ=     0.0000   ZZ=    19.9391
   Eigenvalues:    19.9391    24.0591    27.6614
     17  H    Isotropic =    23.5289   Anisotropy =     7.4859
   XX=    28.4698   YX=    -0.2957   ZX=     0.0000
   XY=    -0.7473   YY=    23.0511   ZY=     0.0000
   XZ=     0.0000   YZ=     0.0000   ZZ=    19.0659
   Eigenvalues:    19.0659    23.0014    28.5196
     18  H    Isotropic =    23.5289   Anisotropy =     7.4859
   XX=    28.4698   YX=     0.2957   ZX=     0.0000
   XY=     0.7473   YY=    23.0511   ZY=     0.0000
   XZ=     0.0000   YZ=     0.0000   ZZ=    19.0659
   Eigenvalues:    19.0659    23.0014    28.5196
     19  Bq   Isotropic =    -0.7107   Anisotropy =     9.4827
   XX=     4.3176   YX=     1.9213   ZX=     0.8859
   XY=     1.3002   YY=     2.8028   ZY=     1.0117
   XZ=     0.9632   YZ=     3.4378   ZZ=    -9.2525
   Eigenvalues:    -9.6786     1.9353     5.6111
     20  Bq   Isotropic =    -0.7107   Anisotropy =     9.4827
   XX=     4.3176   YX=     1.9213   ZX=    -0.8859
   XY=     1.3002   YY=     2.8028   ZY=    -1.0117
   XZ=    -0.9632   YZ=    -3.4378   ZZ=    -9.2525
   Eigenvalues:    -9.6786     1.9353     5.6111
     21  Bq   Isotropic =     0.9515   Anisotropy =    18.0784
   XX=    12.3629   YX=    -1.0780   ZX=     1.2456
   XY=    -3.0135   YY=     5.6589   ZY=    -0.1065
   XZ=     2.9568   YZ=     5.1904   ZZ=   -15.1673
   Eigenvalues:   -15.6678     5.5186    13.0038
     22  Bq   Isotropic =     0.9515   Anisotropy =    18.0784
   XX=    12.3629   YX=    -1.0780   ZX=    -1.2456
   XY=    -3.0135   YY=     5.6589   ZY=     0.1065
   XZ=    -2.9568   YZ=    -5.1904   ZZ=   -15.1673
   Eigenvalues:   -15.6678     5.5186    13.0038
     23  Bq   Isotropic =    -0.0517   Anisotropy =    10.8402
   XX=     6.2333   YX=     1.0761   ZX=     2.2143
   XY=     0.1580   YY=     2.5245   ZY=     1.3084
   XZ=     2.9526   YZ=     7.6722   ZZ=    -8.9128
   Eigenvalues:   -10.7627     3.4325     7.1752
     24  Bq   Isotropic =    -0.0517   Anisotropy =    10.8402
   XX=     6.2333   YX=     1.0761   ZX=    -2.2143
   XY=     0.1580   YY=     2.5245   ZY=    -1.3084
   XZ=    -2.9526   YZ=    -7.6722   ZZ=    -8.9128
   Eigenvalues:   -10.7627     3.4325     7.1752
     25  Bq   Isotropic =    -0.3350   Anisotropy =     9.8520
   XX=     4.7138   YX=     1.5504   ZX=     1.8734
   XY=     0.8360   YY=     2.4284   ZY=     1.6021
   XZ=     2.1926   YZ=     6.7688   ZZ=    -8.1472
   Eigenvalues:    -9.7671     2.5291     6.2330
     26  Bq   Isotropic =    -0.3350   Anisotropy =     9.8520
   XX=     4.7138   YX=     1.5504   ZX=    -1.8734
   XY=     0.8360   YY=     2.4284   ZY=    -1.6021
   XZ=    -2.1926   YZ=    -6.7688   ZZ=    -8.1472
   Eigenvalues:    -9.7671     2.5291     6.2330
     27  Bq   Isotropic =     0.5183   Anisotropy =    12.2601
   XX=     8.1220   YX=     0.3379   ZX=     2.3821
   XY=    -0.8991   YY=     3.3363   ZY=     0.8065
   XZ=     3.8059   YZ=     8.3569   ZZ=    -9.9035
   Eigenvalues:   -11.7980     4.6611     8.6917
     28  Bq   Isotropic =     0.5183   Anisotropy =    12.2601
   XX=     8.1220   YX=     0.3379   ZX=    -2.3821
   XY=    -0.8991   YY=     3.3363   ZY=    -0.8065
   XZ=    -3.8059   YZ=    -8.3569   ZZ=    -9.9035
   Eigenvalues:   -11.7980     4.6611     8.6917
     29  Bq   Isotropic =    -0.5040   Anisotropy =     9.2033
   XX=     3.3559   YX=     1.8460   ZX=     1.4365
   XY=     1.2865   YY=     2.7987   ZY=     1.6819
   XZ=     1.4995   YZ=     5.6083   ZZ=    -7.6666
   Eigenvalues:    -8.8837     1.7401     5.6315
     30  Bq   Isotropic =    -0.5040   Anisotropy =     9.2033
   XX=     3.3559   YX=     1.8460   ZX=    -1.4365
   XY=     1.2865   YY=     2.7987   ZY=    -1.6819
   XZ=    -1.4995   YZ=    -5.6083   ZZ=    -7.6666
   Eigenvalues:    -8.8837     1.7401     5.6315
     31  Bq   Isotropic =     1.8857   Anisotropy =    14.2931
   XX=    10.6379   YX=    -0.9047   ZX=     2.0993
   XY=    -2.6958   YY=     5.4816   ZY=    -0.0424
   XZ=     4.6587   YZ=     8.6080   ZZ=   -10.4626
   Eigenvalues:   -12.1474     6.3900    11.4144
     32  Bq   Isotropic =     1.8857   Anisotropy =    14.2931
   XX=    10.6379   YX=    -0.9047   ZX=    -2.0993
   XY=    -2.6958   YY=     5.4816   ZY=     0.0424
   XZ=    -4.6587   YZ=    -8.6080   ZZ=   -10.4626
   Eigenvalues:   -12.1474     6.3900    11.4144
     33  Bq   Isotropic =    -0.7345   Anisotropy =     8.7042
   XX=     2.5155   YX=     2.0741   ZX=     0.3826
   XY=     1.6119   YY=     3.5917   ZY=     0.5979
   XZ=     0.3643   YZ=     1.6536   ZZ=    -8.3105
   Eigenvalues:    -8.4198     1.1481     5.0683
     34  Bq   Isotropic =    -0.7345   Anisotropy =     8.7042
   XX=     2.5155   YX=     2.0741   ZX=    -0.3826
   XY=     1.6119   YY=     3.5917   ZY=    -0.5979
   XZ=    -0.3643   YZ=    -1.6536   ZZ=    -8.3105
   Eigenvalues:    -8.4198     1.1481     5.0683
     35  Bq   Isotropic =    -0.5891   Anisotropy =     8.8908
   XX=     2.2543   YX=     1.9294   ZX=     1.0383
   XY=     1.4955   YY=     3.3497   ZY=     1.5648
   XZ=     0.9771   YZ=     4.4836   ZZ=    -7.3714
   Eigenvalues:    -8.1944     1.0888     5.3381
     36  Bq   Isotropic =    -0.5891   Anisotropy =     8.8908
   XX=     2.2543   YX=     1.9294   ZX=    -1.0383
   XY=     1.4955   YY=     3.3497   ZY=    -1.5648
   XZ=    -0.9771   YZ=    -4.4836   ZZ=    -7.3714
   Eigenvalues:    -8.1944     1.0888     5.3381
     37  Bq   Isotropic =     0.4925   Anisotropy =     9.9385
   XX=     4.6714   YX=     1.0145   ZX=     2.6374
   XY=     0.2558   YY=     2.5160   ZY=     1.7251
   XZ=     3.3118   YZ=     9.5171   ZZ=    -5.7101
   Eigenvalues:    -8.9798     3.3391     7.1181
     38  Bq   Isotropic =     0.4925   Anisotropy =     9.9385
   XX=     4.6714   YX=     1.0145   ZX=    -2.6374
   XY=     0.2558   YY=     2.5160   ZY=    -1.7251
   XZ=    -3.3118   YZ=    -9.5171   ZZ=    -5.7101
   Eigenvalues:    -8.9798     3.3391     7.1181
     39  Bq   Isotropic =     0.0503   Anisotropy =     9.6566
   XX=     3.3707   YX=     1.4120   ZX=     2.2394
   XY=     0.8378   YY=     2.4453   ZY=     2.0888
   XZ=     2.4582   YZ=     8.5063   ZZ=    -5.6650
   Eigenvalues:    -8.5048     2.1677     6.4880
     40  Bq   Isotropic =     0.0503   Anisotropy =     9.6566
   XX=     3.3707   YX=     1.4120   ZX=    -2.2394
   XY=     0.8378   YY=     2.4453   ZY=    -2.0888
   XZ=    -2.4582   YZ=    -8.5063   ZZ=    -5.6650
   Eigenvalues:    -8.5048     2.1677     6.4880
     41  Bq   Isotropic =     1.3025   Anisotropy =    10.1339
   XX=     6.3200   YX=     0.3703   ZX=     2.8729
   XY=    -0.6485   YY=     3.2258   ZY=     1.1294
   XZ=     4.2899   YZ=    10.4829   ZZ=    -5.6382
   Eigenvalues:    -9.2063     5.0554     8.0585
     42  Bq   Isotropic =     1.3025   Anisotropy =    10.1339
   XX=     6.3200   YX=     0.3703   ZX=    -2.8729
   XY=    -0.6485   YY=     3.2258   ZY=    -1.1294
   XZ=    -4.2899   YZ=   -10.4829   ZZ=    -5.6382
   Eigenvalues:    -9.2063     5.0554     8.0585
     43  Bq   Isotropic =    -0.2112   Anisotropy =     9.4054
   XX=     2.3088   YX=     1.6112   ZX=     1.7878
   XY=     1.1813   YY=     2.7638   ZY=     2.2508
   XZ=     1.7400   YZ=     7.4542   ZZ=    -5.7061
   Eigenvalues:    -8.0173     1.3246     6.0591
     44  Bq   Isotropic =    -0.2112   Anisotropy =     9.4054
   XX=     2.3088   YX=     1.6112   ZX=    -1.7878
   XY=     1.1813   YY=     2.7638   ZY=    -2.2508
   XZ=    -1.7400   YZ=    -7.4542   ZZ=    -5.7061
   Eigenvalues:    -8.0173     1.3246     6.0591
     45  Bq   Isotropic =     2.8314   Anisotropy =    10.1269
   XX=     8.4523   YX=    -0.6103   ZX=     2.7073
   XY=    -2.0057   YY=     4.9198   ZY=     0.1771
   XZ=     5.2707   YZ=    11.2535   ZZ=    -4.8779
   Eigenvalues:    -8.5316     7.4431     9.5827
     46  Bq   Isotropic =     2.8314   Anisotropy =    10.1269
   XX=     8.4523   YX=    -0.6103   ZX=    -2.7073
   XY=    -2.0057   YY=     4.9198   ZY=    -0.1771
   XZ=    -5.2707   YZ=   -11.2535   ZZ=    -4.8779
   Eigenvalues:    -8.5316     7.4431     9.5827
     47  Bq   Isotropic =    -0.3783   Anisotropy =     9.2006
   XX=     1.4262   YX=     1.6316   ZX=     1.3310
   XY=     1.3301   YY=     3.2857   ZY=     2.2164
   XZ=     1.1385   YZ=     6.3381   ZZ=    -5.8468
   Eigenvalues:    -7.5789     0.6886     5.7554
     48  Bq   Isotropic =    -0.3783   Anisotropy =     9.2006
   XX=     1.4262   YX=     1.6316   ZX=    -1.3310
   XY=     1.3301   YY=     3.2857   ZY=    -2.2164
   XZ=    -1.1385   YZ=    -6.3381   ZZ=    -5.8468
   Eigenvalues:    -7.5789     0.6886     5.7554
     49  Bq   Isotropic =    -0.7045   Anisotropy =     8.5902
   XX=     1.0109   YX=     1.7842   ZX=     0.0000
   XY=     1.5223   YY=     4.3409   ZY=     0.0000
   XZ=     0.0000   YZ=     0.0000   ZZ=    -7.4653
   Eigenvalues:    -7.4653     0.3295     5.0223
     50  Bq   Isotropic =    -0.6518   Anisotropy =     8.6991
   XX=     0.9257   YX=     1.7084   ZX=     0.4869
   XY=     1.4673   YY=     4.2144   ZY=     1.0718
   XZ=     0.3722   YZ=     2.6549   ZZ=    -7.0954
   Eigenvalues:    -7.3981     0.2952     5.1477
     51  Bq   Isotropic =    -0.6518   Anisotropy =     8.6991
   XX=     0.9257   YX=     1.7084   ZX=    -0.4869
   XY=     1.4673   YY=     4.2144   ZY=    -1.0718
   XZ=    -0.3722   YZ=    -2.6549   ZZ=    -7.0954
   Eigenvalues:    -7.3981     0.2952     5.1477
     52  Bq   Isotropic =     1.0388   Anisotropy =    10.2806
   XX=     3.2036   YX=     0.8349   ZX=     2.6341
   XY=     0.3413   YY=     2.5072   ZY=     2.0811
   XZ=     2.9708   YZ=    10.8990   ZZ=    -2.5944
   Eigenvalues:    -7.3992     2.6230     7.8925
     53  Bq   Isotropic =     1.0388   Anisotropy =    10.2806
   XX=     3.2036   YX=     0.8349   ZX=    -2.6341
   XY=     0.3413   YY=     2.5072   ZY=    -2.0811
   XZ=    -2.9708   YZ=   -10.8990   ZZ=    -2.5944
   Eigenvalues:    -7.3992     2.6230     7.8925
     54  Bq   Isotropic =     0.4303   Anisotropy =    10.1092
   XX=     2.0577   YX=     1.1343   ZX=     2.1977
   XY=     0.7980   YY=     2.4795   ZY=     2.5043
   XZ=     2.1169   YZ=     9.7720   ZZ=    -3.2461
   Eigenvalues:    -7.3418     1.4630     7.1698
     55  Bq   Isotropic =     0.4303   Anisotropy =    10.1092
   XX=     2.0577   YX=     1.1343   ZX=    -2.1977
   XY=     0.7980   YY=     2.4795   ZY=    -2.5043
   XZ=    -2.1169   YZ=    -9.7720   ZZ=    -3.2461
   Eigenvalues:    -7.3418     1.4630     7.1698
     56  Bq   Isotropic =     2.1213   Anisotropy =    10.2148
   XX=     4.7036   YX=     0.2986   ZX=     2.8771
   XY=    -0.3833   YY=     3.1487   ZY=     1.3735
   XZ=     3.8685   YZ=    12.0639   ZZ=    -1.4882
   Eigenvalues:    -6.9505     4.3833     8.9312
     57  Bq   Isotropic =     2.1213   Anisotropy =    10.2148
   XX=     4.7036   YX=     0.2986   ZX=    -2.8771
   XY=    -0.3833   YY=     3.1487   ZY=    -1.3735
   XZ=    -3.8685   YZ=   -12.0639   ZZ=    -1.4882
   Eigenvalues:    -6.9505     4.3833     8.9312
     58  Bq   Isotropic =    -0.4878   Anisotropy =     9.0303
   XX=     0.6987   YX=     1.4806   ZX=     0.8992
   XY=     1.3054   YY=     3.8711   ZY=     1.9992
   XZ=     0.6445   YZ=     5.1495   ZZ=    -6.0333
   Eigenvalues:    -7.2006     0.2048     5.5323
     59  Bq   Isotropic =    -0.4878   Anisotropy =     9.0303
   XX=     0.6987   YX=     1.4806   ZX=    -0.8992
   XY=     1.3054   YY=     3.8711   ZY=    -1.9992
   XZ=    -0.6445   YZ=    -5.1495   ZZ=    -6.0333
   Eigenvalues:    -7.2006     0.2048     5.5323
     60  Bq   Isotropic =     0.0421   Anisotropy =     9.8523
   XX=     1.0800   YX=     1.2161   ZX=     1.6464
   XY=     1.0327   YY=     2.8646   ZY=     2.7129
   XZ=     1.3054   YZ=     8.5683   ZZ=    -3.8184
   Eigenvalues:    -7.0991     0.6151     6.6103
     61  Bq   Isotropic =     0.0421   Anisotropy =     9.8523
   XX=     1.0800   YX=     1.2161   ZX=    -1.6464
   XY=     1.0327   YY=     2.8646   ZY=    -2.7129
   XZ=    -1.3054   YZ=    -8.5683   ZZ=    -3.8184
   Eigenvalues:    -7.0991     0.6151     6.6103
     62  Bq   Isotropic =     4.2812   Anisotropy =     9.3496
   XX=     7.0100   YX=    -0.5828   ZX=     2.6482
   XY=    -1.5156   YY=     4.9161   ZY=     0.0521
   XZ=     4.6693   YZ=    13.1885   ZZ=     0.9174
   Eigenvalues:    -5.0611     7.3904    10.5142
     63  Bq   Isotropic =     4.2812   Anisotropy =     9.3496
   XX=     7.0100   YX=    -0.5828   ZX=    -2.6482
   XY=    -1.5156   YY=     4.9161   ZY=    -0.0521
   XZ=    -4.6693   YZ=   -13.1885   ZZ=     0.9174
   Eigenvalues:    -5.0611     7.3904    10.5142
     64  Bq   Isotropic =    -0.6592   Anisotropy =     8.6572
   XX=     0.2518   YX=     1.3406   ZX=     0.1954
   XY=     1.2422   YY=     4.6827   ZY=     0.5867
   XZ=     0.1125   YZ=     1.3700   ZZ=    -6.9122
   Eigenvalues:    -6.9945    -0.0954     5.1123
     65  Bq   Isotropic =    -0.6592   Anisotropy =     8.6572
   XX=     0.2518   YX=     1.3406   ZX=    -0.1954
   XY=     1.2422   YY=     4.6827   ZY=    -0.5867
   XZ=    -0.1125   YZ=    -1.3700   ZZ=    -6.9122
   Eigenvalues:    -6.9945    -0.0954     5.1123
     66  Bq   Isotropic =    -0.1934   Anisotropy =     9.5830
   XX=     0.4107   YX=     1.1106   ZX=     1.1469
   XY=     1.0527   YY=     3.4077   ZY=     2.6719
   XZ=     0.7002   YZ=     7.3763   ZZ=    -4.3987
   Eigenvalues:    -6.8752     0.0996     6.1952
     67  Bq   Isotropic =    -0.1934   Anisotropy =     9.5830
   XX=     0.4107   YX=     1.1106   ZX=    -1.1469
   XY=     1.0527   YY=     3.4077   ZY=    -2.6719
   XZ=    -0.7002   YZ=    -7.3763   ZZ=    -4.3987
   Eigenvalues:    -6.8752     0.0996     6.1952
     68  Bq   Isotropic =    -0.5557   Anisotropy =     8.8906
   XX=     0.1203   YX=     1.1692   ZX=     0.5219
   XY=     1.1249   YY=     4.4180   ZY=     1.6281
   XZ=     0.2652   YZ=     3.8973   ZZ=    -6.2055
   Eigenvalues:    -6.8828    -0.1558     5.3713
     69  Bq   Isotropic =    -0.5557   Anisotropy =     8.8906
   XX=     0.1203   YX=     1.1692   ZX=    -0.5219
   XY=     1.1249   YY=     4.4180   ZY=    -1.6281
   XZ=    -0.2652   YZ=    -3.8973   ZZ=    -6.2055
   Eigenvalues:    -6.8828    -0.1558     5.3713
     70  Bq   Isotropic =     1.5074   Anisotropy =    11.0420
   XX=     1.9863   YX=     0.5606   ZX=     2.1401
   XY=     0.3966   YY=     2.5389   ZY=     2.3549
   XZ=     1.8813   YZ=    11.8103   ZZ=    -0.0030
   Eigenvalues:    -6.1204     1.7738     8.8687
     71  Bq   Isotropic =     1.5074   Anisotropy =    11.0420
   XX=     1.9863   YX=     0.5606   ZX=    -2.1401
   XY=     0.3966   YY=     2.5389   ZY=    -2.3549
   XZ=    -1.8813   YZ=   -11.8103   ZZ=    -0.0030
   Eigenvalues:    -6.1204     1.7738     8.8687
     72  Bq   Isotropic =     0.7559   Anisotropy =    10.7590
   XX=     0.8853   YX=     0.6871   ZX=     1.6383
   XY=     0.6781   YY=     2.5659   ZY=     2.8449
   XZ=     1.0437   YZ=    10.5933   ZZ=    -1.1836
   Eigenvalues:    -6.3451     0.6842     7.9285
     73  Bq   Isotropic =     0.7559   Anisotropy =    10.7590
   XX=     0.8853   YX=     0.6871   ZX=    -1.6383
   XY=     0.6781   YY=     2.5659   ZY=    -2.8449
   XZ=    -1.0437   YZ=   -10.5933   ZZ=    -1.1836
   Eigenvalues:    -6.3451     0.6842     7.9285
     74  Bq   Isotropic =     2.9228   Anisotropy =    11.2796
   XX=     3.3447   YX=     0.1709   ZX=     2.2425
   XY=    -0.0709   YY=     3.1731   ZY=     1.5309
   XZ=     2.2882   YZ=    13.1738   ZZ=     2.2507
   Eigenvalues:    -4.9756     3.3015    10.4426
     75  Bq   Isotropic =     2.9228   Anisotropy =    11.2796
   XX=     3.3447   YX=     0.1709   ZX=    -2.2425
   XY=    -0.0709   YY=     3.1731   ZY=    -1.5309
   XZ=    -2.2882   YZ=   -13.1738   ZZ=     2.2507
   Eigenvalues:    -4.9756     3.3015    10.4426
     76  Bq   Isotropic =     0.2695   Anisotropy =    10.3356
   XX=     0.1897   YX=     0.6428   ZX=     1.1267
   XY=     0.7518   YY=     2.9607   ZY=     3.0248
   XZ=     0.4019   YZ=     9.2948   ZZ=    -2.3420
   Eigenvalues:    -6.4068     0.0553     7.1598
     77  Bq   Isotropic =     0.2695   Anisotropy =    10.3356
   XX=     0.1897   YX=     0.6428   ZX=    -1.1267
   XY=     0.7518   YY=     2.9607   ZY=    -3.0248
   XZ=    -0.4019   YZ=    -9.2948   ZZ=    -2.3420
   Eigenvalues:    -6.4068     0.0553     7.1598
     78  Bq   Isotropic =     5.2990   Anisotropy =    10.8118
   XX=     5.6967   YX=    -0.3295   ZX=     2.0150
   XY=    -0.6729   YY=     4.8312   ZY=     0.0320
   XZ=     2.4746   YZ=    14.2800   ZZ=     5.3692
   Eigenvalues:    -2.5150     5.9051    12.5069
     79  Bq   Isotropic =     5.2990   Anisotropy =    10.8118
   XX=     5.6967   YX=    -0.3295   ZX=    -2.0150
   XY=    -0.6729   YY=     4.8312   ZY=    -0.0320
   XZ=    -2.4746   YZ=   -14.2800   ZZ=     5.3692
   Eigenvalues:    -2.5150     5.9051    12.5069
     80  Bq   Isotropic =    -0.6382   Anisotropy =     8.6711
   XX=    -0.2873   YX=     0.7687   ZX=     0.0000
   XY=     0.8439   YY=     5.0228   ZY=     0.0000
   XZ=     0.0000   YZ=     0.0000   ZZ=    -6.6501
   Eigenvalues:    -6.6501    -0.4070     5.1425
     81  Bq   Isotropic =    -0.5899   Anisotropy =     8.7904
   XX=    -0.3069   YX=     0.7198   ZX=     0.2293
   XY=     0.8142   YY=     4.8567   ZY=     1.1424
   XZ=     0.0185   YZ=     2.6026   ZZ=    -6.3196
   Eigenvalues:    -6.6249    -0.4151     5.2703
     82  Bq   Isotropic =    -0.5899   Anisotropy =     8.7904
   XX=    -0.3069   YX=     0.7198   ZX=    -0.2293
   XY=     0.8142   YY=     4.8567   ZY=    -1.1424
   XZ=    -0.0185   YZ=    -2.6026   ZZ=    -6.3196
   Eigenvalues:    -6.6249    -0.4151     5.2703
     83  Bq   Isotropic =    -0.4057   Anisotropy =     9.2153
   XX=    -0.2894   YX=     0.6477   ZX=     0.4934
   XY=     0.7791   YY=     4.2649   ZY=     2.2577
   XZ=     0.0312   YZ=     5.4678   ZZ=    -5.1924
   Eigenvalues:    -6.5696    -0.3852     5.7379
     84  Bq   Isotropic =    -0.4057   Anisotropy =     9.2153
   XX=    -0.2894   YX=     0.6477   ZX=    -0.4934
   XY=     0.7791   YY=     4.2649   ZY=    -2.2577
   XZ=    -0.0312   YZ=    -5.4678   ZZ=    -5.1924
   Eigenvalues:    -6.5696    -0.3852     5.7379
     85  Bq   Isotropic =     1.8392   Anisotropy =    11.7247
   XX=     1.1456   YX=     0.2274   ZX=     1.2086
   XY=     0.4135   YY=     2.6556   ZY=     2.5403
   XZ=     0.1757   YZ=    12.2517   ZZ=     1.7164
   Eigenvalues:    -5.2377     1.0996     9.6557
     86  Bq   Isotropic =     1.8392   Anisotropy =    11.7247
   XX=     1.1456   YX=     0.2274   ZX=    -1.2086
   XY=     0.4135   YY=     2.6556   ZY=    -2.5403
   XZ=    -0.1757   YZ=   -12.2517   ZZ=     1.7164
   Eigenvalues:    -5.2377     1.0996     9.6557
     87  Bq   Isotropic =    -0.1079   Anisotropy =     9.8182
   XX=    -0.4376   YX=     0.2104   ZX=     0.4032
   XY=     0.5078   YY=     3.7369   ZY=     2.8864
   XZ=    -0.3700   YZ=     7.5006   ZZ=    -3.6230
   Eigenvalues:    -6.3120    -0.4493     6.4376
     88  Bq   Isotropic =    -0.1079   Anisotropy =     9.8182
   XX=    -0.4376   YX=     0.2104   ZX=    -0.4032
   XY=     0.5078   YY=     3.7369   ZY=    -2.8864
   XZ=     0.3700   YZ=    -7.5006   ZZ=    -3.6230
   Eigenvalues:    -6.3120    -0.4493     6.4376
     89  Bq   Isotropic =     0.9655   Anisotropy =    11.2327
   XX=     0.2197   YX=     0.1738   ZX=     0.7490
   XY=     0.4844   YY=     2.7038   ZY=     3.0249
   XZ=    -0.4037   YZ=    10.9091   ZZ=    -0.0271
   Eigenvalues:    -5.7621     0.2046     8.4540
     90  Bq   Isotropic =     0.9655   Anisotropy =    11.2327
   XX=     0.2197   YX=     0.1738   ZX=    -0.7490
   XY=     0.4844   YY=     2.7038   ZY=    -3.0249
   XZ=     0.4037   YZ=   -10.9091   ZZ=    -0.0271
   Eigenvalues:    -5.7621     0.2046     8.4540
     91  Bq   Isotropic =     3.3844   Anisotropy =    12.1689
   XX=     2.4939   YX=     0.0727   ZX=     1.1387
   XY=     0.2573   YY=     3.3208   ZY=     1.6564
   XZ=    -0.0450   YZ=    13.5861   ZZ=     4.3385
   Eigenvalues:    -3.8187     2.4749    11.4970
     92  Bq   Isotropic =     3.3844   Anisotropy =    12.1689
   XX=     2.4939   YX=     0.0727   ZX=    -1.1387
   XY=     0.2573   YY=     3.3208   ZY=    -1.6564
   XZ=     0.0450   YZ=   -13.5861   ZZ=     4.3385
   Eigenvalues:    -3.8187     2.4749    11.4970
     93  Bq   Isotropic =    -0.4833   Anisotropy =     9.0264
   XX=    -0.5665   YX=     0.1686   ZX=     0.1672
   XY=     0.4330   YY=     4.7361   ZY=     1.7961
   XZ=    -0.2390   YZ=     4.1191   ZZ=    -5.6196
   Eigenvalues:    -6.4069    -0.5774     5.5343
     94  Bq   Isotropic =    -0.4833   Anisotropy =     9.0264
   XX=    -0.5665   YX=     0.1686   ZX=    -0.1672
   XY=     0.4330   YY=     4.7361   ZY=    -1.7961
   XZ=     0.2390   YZ=    -4.1191   ZZ=    -5.6196
   Eigenvalues:    -6.4069    -0.5774     5.5343
     95  Bq   Isotropic =    -0.5950   Anisotropy =     8.7451
   XX=    -0.5787   YX=     0.1670   ZX=     0.0488
   XY=     0.4088   YY=     5.1447   ZY=     0.5854
   XZ=    -0.0753   YZ=     1.2934   ZZ=    -6.3510
   Eigenvalues:    -6.4275    -0.5925     5.2351
     96  Bq   Isotropic =    -0.5950   Anisotropy =     8.7451
   XX=    -0.5787   YX=     0.1670   ZX=    -0.0488
   XY=     0.4088   YY=     5.1447   ZY=    -0.5854
   XZ=     0.0753   YZ=    -1.2934   ZZ=    -6.3510
   Eigenvalues:    -6.4275    -0.5925     5.2351
     97  Bq   Isotropic =    -0.5740   Anisotropy =     8.7708
   XX=    -0.6925   YX=    -0.4452   ZX=     0.0000
   XY=    -0.0474   YY=     5.2630   ZY=     0.0000
   XZ=     0.0000   YZ=     0.0000   ZZ=    -6.2924
   Eigenvalues:    -6.2924    -0.7027     5.2732
     98  Bq   Isotropic =    -0.5260   Anisotropy =     8.8977
   XX=    -0.6914   YX=    -0.4381   ZX=    -0.0424
   XY=    -0.0267   YY=     5.0818   ZY=     1.1749
   XZ=    -0.3367   YZ=     2.5957   ZZ=    -5.9684
   Eigenvalues:    -6.2852    -0.6986     5.4058
     99  Bq   Isotropic =    -0.5260   Anisotropy =     8.8977
   XX=    -0.6914   YX=    -0.4381   ZX=     0.0424
   XY=    -0.0267   YY=     5.0818   ZY=    -1.1749
   XZ=     0.3367   YZ=    -2.5957   ZZ=    -5.9684
   Eigenvalues:    -6.2852    -0.6986     5.4058
    100  Bq   Isotropic =    -0.3366   Anisotropy =     9.3578
   XX=    -0.6692   YX=    -0.4118   ZX=    -0.0799
   XY=     0.0441   YY=     4.4765   ZY=     2.3219
   XZ=    -0.7324   YZ=     5.4500   ZZ=    -4.8171
   Eigenvalues:    -6.2461    -0.6657     5.9019
    101  Bq   Isotropic =    -0.3366   Anisotropy =     9.3578
   XX=    -0.6692   YX=    -0.4118   ZX=     0.0799
   XY=     0.0441   YY=     4.4765   ZY=    -2.3219
   XZ=     0.7324   YZ=    -5.4500   ZZ=    -4.8171
   Eigenvalues:    -6.2461    -0.6657     5.9019
    102  Bq   Isotropic =     0.4006   Anisotropy =    10.6870
   XX=    -0.3870   YX=    -0.3200   ZX=    -0.0876
   XY=     0.2159   YY=     3.2099   ZY=     3.1803
   XZ=    -1.3608   YZ=     9.3291   ZZ=    -1.6209
   Eigenvalues:    -5.9683    -0.3551     7.5253
    103  Bq   Isotropic =     0.4006   Anisotropy =    10.6870
   XX=    -0.3870   YX=    -0.3200   ZX=     0.0876
   XY=     0.2159   YY=     3.2099   ZY=    -3.1803
   XZ=     1.3608   YZ=    -9.3291   ZZ=    -1.6209
   Eigenvalues:    -5.9683    -0.3551     7.5253
    104  Bq   Isotropic =     2.0000   Anisotropy =    12.1319
   XX=     0.7717   YX=    -0.1450   ZX=    -0.0049
   XY=     0.3868   YY=     2.8830   ZY=     2.6418
   XZ=    -1.8683   YZ=    12.2277   ZZ=     2.3453
   Eigenvalues:    -4.9267     0.8387    10.0879
    105  Bq   Isotropic =     2.0000   Anisotropy =    12.1319
   XX=     0.7717   YX=    -0.1450   ZX=     0.0049
   XY=     0.3868   YY=     2.8830   ZY=    -2.6418
   XZ=     1.8683   YZ=   -12.2277   ZZ=     2.3453
   Eigenvalues:    -4.9267     0.8387    10.0879
    106  Bq   Isotropic =     6.2604   Anisotropy =    12.0802
   XX=     5.0345   YX=     0.1507   ZX=     0.3725
   XY=     0.6271   YY=     5.4705   ZY=    -0.0598
   XZ=    -2.1913   YZ=    14.6285   ZZ=     8.2762
   Eigenvalues:    -0.6804     5.1477    14.3139
    107  Bq   Isotropic =     6.2604   Anisotropy =    12.0802
   XX=     5.0345   YX=     0.1507   ZX=    -0.3725
   XY=     0.6271   YY=     5.4705   ZY=     0.0598
   XZ=     2.1913   YZ=   -14.6285   ZZ=     8.2762
   Eigenvalues:    -0.6804     5.1477    14.3139
    108  Bq   Isotropic =    -0.5284   Anisotropy =     8.8802
   XX=    -0.6486   YX=    -1.0672   ZX=    -0.0934
   XY=    -0.5064   YY=     5.2137   ZY=     0.5750
   XZ=    -0.2540   YZ=     1.2475   ZZ=    -6.1501
   Eigenvalues:    -6.2249    -0.7519     5.3917
    109  Bq   Isotropic =    -0.5284   Anisotropy =     8.8802
   XX=    -0.6486   YX=    -1.0672   ZX=     0.0934
   XY=    -0.5064   YY=     5.2137   ZY=    -0.5750
   XZ=     0.2540   YZ=    -1.2475   ZZ=    -6.1501
   Eigenvalues:    -6.2249    -0.7519     5.3917
    110  Bq   Isotropic =    -0.4164   Anisotropy =     9.1690
   XX=    -0.6387   YX=    -1.0360   ZX=    -0.3011
   XY=    -0.4393   YY=     4.8324   ZY=     1.7679
   XZ=    -0.8341   YZ=     3.9744   ZZ=    -5.4428
   Eigenvalues:    -6.2146    -0.7309     5.6963
    111  Bq   Isotropic =    -0.4164   Anisotropy =     9.1690
   XX=    -0.6387   YX=    -1.0360   ZX=     0.3011
   XY=    -0.4393   YY=     4.8324   ZY=    -1.7679
   XZ=     0.8341   YZ=    -3.9744   ZZ=    -5.4428
   Eigenvalues:    -6.2146    -0.7309     5.6963
    112  Bq   Isotropic =     1.0527   Anisotropy =    11.5298
   XX=     0.0807   YX=    -0.6820   ZX=    -0.8999
   XY=     0.0918   YY=     3.0359   ZY=     3.0688
   XZ=    -2.8456   YZ=    10.5458   ZZ=     0.0416
   Eigenvalues:    -5.7183     0.1372     8.7393
    113  Bq   Isotropic =     1.0527   Anisotropy =    11.5298
   XX=     0.0807   YX=    -0.6820   ZX=     0.8999
   XY=     0.0918   YY=     3.0359   ZY=    -3.0688
   XZ=     2.8456   YZ=   -10.5458   ZZ=     0.0416
   Eigenvalues:    -5.7183     0.1372     8.7393
    114  Bq   Isotropic =     3.5335   Anisotropy =    12.6515
   XX=     2.2291   YX=    -0.1311   ZX=    -0.9610
   XY=     0.6808   YY=     3.9005   ZY=     1.8085
   XZ=    -4.0706   YZ=    13.1908   ZZ=     4.4710
   Eigenvalues:    -3.9475     2.5802    11.9679
    115  Bq   Isotropic =     3.5335   Anisotropy =    12.6515
   XX=     2.2291   YX=    -0.1311   ZX=     0.9610
   XY=     0.6808   YY=     3.9005   ZY=    -1.8085
   XZ=     4.0706   YZ=   -13.1908   ZZ=     4.4710
   Eigenvalues:    -3.9475     2.5802    11.9679
    116  Bq   Isotropic =    -0.0336   Anisotropy =    10.0073
   XX=    -0.5285   YX=    -0.9780   ZX=    -0.6051
   XY=    -0.2827   YY=     3.9222   ZY=     2.8606
   XZ=    -1.7024   YZ=     7.2246   ZZ=    -3.4946
   Eigenvalues:    -6.1460    -0.5928     6.6379
    117  Bq   Isotropic =    -0.0336   Anisotropy =    10.0073
   XX=    -0.5285   YX=    -0.9780   ZX=     0.6051
   XY=    -0.2827   YY=     3.9222   ZY=    -2.8606
   XZ=     1.7024   YZ=    -7.2246   ZZ=    -3.4946
   Eigenvalues:    -6.1460    -0.5928     6.6379
    118  Bq   Isotropic =     1.9806   Anisotropy =    12.2275
   XX=     0.9020   YX=    -0.5555   ZX=    -1.2794
   XY=     0.3095   YY=     3.2172   ZY=     2.6650
   XZ=    -3.8886   YZ=    11.7501   ZZ=     1.8227
   Eigenvalues:    -5.2832     1.0928    10.1323
    119  Bq   Isotropic =     1.9806   Anisotropy =    12.2275
   XX=     0.9020   YX=    -0.5555   ZX=     1.2794
   XY=     0.3095   YY=     3.2172   ZY=    -2.6650
   XZ=     3.8886   YZ=   -11.7501   ZZ=     1.8227
   Eigenvalues:    -5.2832     1.0928    10.1323
    120  Bq   Isotropic =    -0.2792   Anisotropy =     9.5163
   XX=    -0.4351   YX=    -1.5162   ZX=    -0.6837
   XY=    -0.7436   YY=     4.4953   ZY=     2.2044
   XZ=    -1.4868   YZ=     5.1140   ZZ=    -4.8980
   Eigenvalues:    -6.2324    -0.6704     6.0650
    121  Bq   Isotropic =    -0.2792   Anisotropy =     9.5163
   XX=    -0.4351   YX=    -1.5162   ZX=     0.6837
   XY=    -0.7436   YY=     4.4953   ZY=    -2.2044
   XZ=     1.4868   YZ=    -5.1140   ZZ=    -4.8980
   Eigenvalues:    -6.2324    -0.6704     6.0650
    122  Bq   Isotropic =    -0.4583   Anisotropy =     9.0805
   XX=    -0.4517   YX=    -1.6476   ZX=    -0.3287
   XY=    -0.9194   YY=     5.0178   ZY=     1.1062
   XZ=    -0.6880   YZ=     2.4231   ZZ=    -5.9411
   Eigenvalues:    -6.2346    -0.7357     5.5953
    123  Bq   Isotropic =    -0.4583   Anisotropy =     9.0805
   XX=    -0.4517   YX=    -1.6476   ZX=     0.3287
   XY=    -0.9194   YY=     5.0178   ZY=    -1.1062
   XZ=     0.6880   YZ=    -2.4231   ZZ=    -5.9411
   Eigenvalues:    -6.2346    -0.7357     5.5953
    124  Bq   Isotropic =    -0.5016   Anisotropy =     8.9683
   XX=    -0.4369   YX=    -1.7156   ZX=     0.0000
   XY=    -0.9928   YY=     5.1672   ZY=     0.0000
   XZ=     0.0000   YZ=     0.0000   ZZ=    -6.2350
   Eigenvalues:    -6.2350    -0.7470     5.4773
    125  Bq   Isotropic =     0.4222   Anisotropy =    10.8179
   XX=    -0.0286   YX=    -1.3358   ZX=    -1.3826
   XY=    -0.4032   YY=     3.4554   ZY=     3.0395
   XZ=    -3.0930   YZ=     8.6666   ZZ=    -2.1602
   Eigenvalues:    -6.1919    -0.1756     7.6342
    126  Bq   Isotropic =     0.4222   Anisotropy =    10.8179
   XX=    -0.0286   YX=    -1.3358   ZX=     1.3826
   XY=    -0.4032   YY=     3.4554   ZY=    -3.0395
   XZ=     3.0930   YZ=    -8.6666   ZZ=    -2.1602
   Eigenvalues:    -6.1919    -0.1756     7.6342
    127  Bq   Isotropic =     5.7457   Anisotropy =    11.9201
   XX=     4.9716   YX=     0.3884   ZX=    -1.5467
   XY=     1.7179   YY=     6.3988   ZY=     0.4144
   XZ=    -6.7906   YZ=    13.5233   ZZ=     5.8669
   Eigenvalues:    -2.7231     6.2678    13.6925
    128  Bq   Isotropic =     5.7457   Anisotropy =    11.9201
   XX=     4.9716   YX=     0.3884   ZX=     1.5467
   XY=     1.7179   YY=     6.3988   ZY=    -0.4144
   XZ=     6.7906   YZ=   -13.5233   ZZ=     5.8669
   Eigenvalues:    -2.7231     6.2678    13.6925
    129  Bq   Isotropic =     0.9624   Anisotropy =    11.4888
   XX=     0.5592   YX=    -1.2735   ZX=    -1.9082
   XY=    -0.2191   YY=     3.3196   ZY=     2.9551
   XZ=    -4.2215   YZ=     9.7754   ZZ=    -0.9915
   Eigenvalues:    -6.2194     0.4850     8.6216
    130  Bq   Isotropic =     0.9624   Anisotropy =    11.4888
   XX=     0.5592   YX=    -1.2735   ZX=     1.9082
   XY=    -0.2191   YY=     3.3196   ZY=    -2.9551
   XZ=     4.2215   YZ=    -9.7754   ZZ=    -0.9915
   Eigenvalues:    -6.2194     0.4850     8.6216
    131  Bq   Isotropic =     3.2769   Anisotropy =    12.4154
   XX=     2.7475   YX=    -0.3775   ZX=    -2.2503
   XY=     0.8464   YY=     4.4857   ZY=     1.8793
   XZ=    -6.3340   YZ=    12.2740   ZZ=     2.5975
   Eigenvalues:    -5.1368     3.4137    11.5538
    132  Bq   Isotropic =     3.2769   Anisotropy =    12.4154
   XX=     2.7475   YX=    -0.3775   ZX=     2.2503
   XY=     0.8464   YY=     4.4857   ZY=    -1.8793
   XZ=     6.3340   YZ=   -12.2740   ZZ=     2.5975
   Eigenvalues:    -5.1368     3.4137    11.5538
    133  Bq   Isotropic =     1.7958   Anisotropy =    12.0755
   XX=     1.5062   YX=    -1.0014   ZX=    -2.3752
   XY=     0.1751   YY=     3.6250   ZY=     2.6066
   XZ=    -5.5133   YZ=    10.8442   ZZ=     0.2561
   Eigenvalues:    -6.1350     1.6762     9.8461
[...]
    24  Bq   0.000000
    25  Bq   0.000000
    26  Bq   0.000000
    27  Bq   0.000000
    28  Bq   0.000000
    29  Bq   0.000000
    30  Bq   0.000000
    31  Bq   0.000000
    32  Bq   0.000000
    33  Bq   0.000000
    34  Bq   0.000000
    35  Bq   0.000000
    36  Bq   0.000000
    37  Bq   0.000000
    38  Bq   0.000000
    39  Bq   0.000000
    40  Bq   0.000000
    41  Bq   0.000000
    42  Bq   0.000000
    43  Bq   0.000000
    44  Bq   0.000000
    45  Bq   0.000000
    46  Bq   0.000000
    47  Bq   0.000000
    48  Bq   0.000000
    49  Bq   0.000000
    50  Bq   0.000000
    51  Bq   0.000000
    52  Bq   0.000000
    53  Bq   0.000000
    54  Bq   0.000000
    55  Bq   0.000000
    56  Bq   0.000000
    57  Bq   0.000000
    58  Bq   0.000000
    59  Bq   0.000000
    60  Bq   0.000000
    61  Bq   0.000000
    62  Bq   0.000000
    63  Bq   0.000000
    64  Bq   0.000000
    65  Bq   0.000000
    66  Bq   0.000000
    67  Bq   0.000000
    68  Bq   0.000000
    69  Bq   0.000000
    70  Bq   0.000000
    71  Bq   0.000000
    72  Bq   0.000000
    73  Bq   0.000000
    74  Bq   0.000000
    75  Bq   0.000000
    76  Bq   0.000000
    77  Bq   0.000000
    78  Bq   0.000000
    79  Bq   0.000000
    80  Bq   0.000000
    81  Bq   0.000000
    82  Bq   0.000000
    83  Bq   0.000000
    84  Bq   0.000000
    85  Bq   0.000000
    86  Bq   0.000000
    87  Bq   0.000000
    88  Bq   0.000000
    89  Bq   0.000000
    90  Bq   0.000000
    91  Bq   0.000000
    92  Bq   0.000000
    93  Bq   0.000000
    94  Bq   0.000000
    95  Bq   0.000000
    96  Bq   0.000000
    97  Bq   0.000000
    98  Bq   0.000000
    99  Bq   0.000000
   100  Bq   0.000000
   101  Bq   0.000000
   102  Bq   0.000000
   103  Bq   0.000000
   104  Bq   0.000000
   105  Bq   0.000000
   106  Bq   0.000000
   107  Bq   0.000000
   108  Bq   0.000000
   109  Bq   0.000000
   110  Bq   0.000000
   111  Bq   0.000000
   112  Bq   0.000000
   113  Bq   0.000000
   114  Bq   0.000000
   115  Bq   0.000000
   116  Bq   0.000000
   117  Bq   0.000000
   118  Bq   0.000000
   119  Bq   0.000000
   120  Bq   0.000000
   121  Bq   0.000000
   122  Bq   0.000000
   123  Bq   0.000000
   124  Bq   0.000000
   125  Bq   0.000000
   126  Bq   0.000000
   127  Bq   0.000000
   128  Bq   0.000000
   129  Bq   0.000000
   130  Bq   0.000000
   131  Bq   0.000000
   132  Bq   0.000000
   133  Bq   0.000000
   134  Bq   0.000000
   135  Bq   0.000000
   136  Bq   0.000000
   137  Bq   0.000000
   138  Bq   0.000000
   139  Bq   0.000000
   140  Bq   0.000000
   141  Bq   0.000000
   142  Bq   0.000000
   143  Bq   0.000000
   144  Bq   0.000000
   145  Bq   0.000000
   146  Bq   0.000000
   147  Bq   0.000000
   148  Bq   0.000000
   149  Bq   0.000000
   150  Bq   0.000000
   151  Bq   0.000000
   152  Bq   0.000000
   153  Bq   0.000000
   154  Bq   0.000000
   155  Bq   0.000000
   156  Bq   0.000000
   157  Bq   0.000000
   158  Bq   0.000000
   159  Bq   0.000000
   160  Bq   0.000000
   161  Bq   0.000000
   162  Bq   0.000000
   163  Bq   0.000000
   164  Bq   0.000000
   165  Bq   0.000000
   166  Bq   0.000000
   167  Bq   0.000000
   168  Bq   0.000000
   169  Bq   0.000000
   170  Bq   0.000000
   171  Bq   0.000000
   172  Bq   0.000000
   173  Bq   0.000000
   174  Bq   0.000000
   175  Bq   0.000000
   176  Bq   0.000000
   177  Bq   0.000000
   178  Bq   0.000000
   179  Bq   0.000000
   180  Bq   0.000000
   181  Bq   0.000000
   182  Bq   0.000000
   183  Bq   0.000000
   184  Bq   0.000000
   185  Bq   0.000000
   186  Bq   0.000000
   187  Bq   0.000000
   188  Bq   0.000000
   189  Bq   0.000000
   190  Bq   0.000000
   191  Bq   0.000000
   192  Bq   0.000000
   193  Bq   0.000000
   194  Bq   0.000000
   195  Bq   0.000000
   196  Bq   0.000000
   197  Bq   0.000000
   198  Bq   0.000000
   199  Bq   0.000000
   200  Bq   0.000000
   201  Bq   0.000000
   202  Bq   0.000000
   203  Bq   0.000000
   204  Bq   0.000000
   205  Bq   0.000000
   206  Bq   0.000000
   207  Bq   0.000000
   208  Bq   0.000000
   209  Bq   0.000000
   210  Bq   0.000000
   211  Bq   0.000000
   212  Bq   0.000000
   213  Bq   0.000000
   214  Bq   0.000000
   215  Bq   0.000000
   216  Bq   0.000000
   217  Bq   0.000000
   218  Bq   0.000000
 Sum of Mulliken charges =   0.00000
 Mulliken charges with hydrogens summed into heavy atoms:
               1
     1  C   -0.142297
     2  C   -0.142297
     3  C    0.040055
     4  C    0.204484
     5  C    0.040055
     6  C   -0.142297
     7  C   -0.142297
     8  C    0.040055
     9  C    0.204484
    10  C   -0.081784
    19  Bq   0.121839
    20  Bq   0.000000
    21  Bq   0.000000
    22  Bq   0.000000
    23  Bq   0.000000
    24  Bq   0.000000
    25  Bq   0.000000
    26  Bq   0.000000
    27  Bq   0.000000
    28  Bq   0.000000
    29  Bq   0.000000
    30  Bq   0.000000
    31  Bq   0.000000
    32  Bq   0.000000
    33  Bq   0.000000
    34  Bq   0.000000
    35  Bq   0.000000
    36  Bq   0.000000
    37  Bq   0.000000
    38  Bq   0.000000
    39  Bq   0.000000
    40  Bq   0.000000
    41  Bq   0.000000
    42  Bq   0.000000
    43  Bq   0.000000
    44  Bq   0.000000
    45  Bq   0.000000
    46  Bq   0.000000
    47  Bq   0.000000
    48  Bq   0.000000
    49  Bq   0.000000
    50  Bq   0.000000
    51  Bq   0.000000
    52  Bq   0.000000
    53  Bq   0.000000
    54  Bq   0.000000
    55  Bq   0.000000
    56  Bq   0.000000
    57  Bq   0.000000
    58  Bq   0.000000
    59  Bq   0.000000
    60  Bq   0.000000
    61  Bq   0.000000
    62  Bq   0.000000
    63  Bq   0.000000
    64  Bq   0.000000
    65  Bq   0.000000
    66  Bq   0.000000
    67  Bq   0.000000
    68  Bq   0.000000
    69  Bq   0.000000
    70  Bq   0.000000
    71  Bq   0.000000
    72  Bq   0.000000
    73  Bq   0.000000
    74  Bq   0.000000
    75  Bq   0.000000
    76  Bq   0.000000
    77  Bq   0.000000
    78  Bq   0.000000
    79  Bq   0.000000
    80  Bq   0.000000
    81  Bq   0.000000
    82  Bq   0.000000
    83  Bq   0.000000
    84  Bq   0.000000
    85  Bq   0.000000
    86  Bq   0.000000
    87  Bq   0.000000
    88  Bq   0.000000
    89  Bq   0.000000
    90  Bq   0.000000
    91  Bq   0.000000
    92  Bq   0.000000
    93  Bq   0.000000
    94  Bq   0.000000
    95  Bq   0.000000
    96  Bq   0.000000
    97  Bq   0.000000
    98  Bq   0.000000
    99  Bq   0.000000
   100  Bq   0.000000
   101  Bq   0.000000
   102  Bq   0.000000
   103  Bq   0.000000
   104  Bq   0.000000
   105  Bq   0.000000
   106  Bq   0.000000
   107  Bq   0.000000
   108  Bq   0.000000
   109  Bq   0.000000
   110  Bq   0.000000
   111  Bq   0.000000
   112  Bq   0.000000
   113  Bq   0.000000
   114  Bq   0.000000
   115  Bq   0.000000
   116  Bq   0.000000
   117  Bq   0.000000
   118  Bq   0.000000
   119  Bq   0.000000
   120  Bq   0.000000
   121  Bq   0.000000
   122  Bq   0.000000
   123  Bq   0.000000
   124  Bq   0.000000
   125  Bq   0.000000
   126  Bq   0.000000
   127  Bq   0.000000
   128  Bq   0.000000
   129  Bq   0.000000
   130  Bq   0.000000
   131  Bq   0.000000
   132  Bq   0.000000
   133  Bq   0.000000
   134  Bq   0.000000
   135  Bq   0.000000
   136  Bq   0.000000
   137  Bq   0.000000
   138  Bq   0.000000
   139  Bq   0.000000
   140  Bq   0.000000
   141  Bq   0.000000
   142  Bq   0.000000
   143  Bq   0.000000
   144  Bq   0.000000
   145  Bq   0.000000
   146  Bq   0.000000
   147  Bq   0.000000
   148  Bq   0.000000
   149  Bq   0.000000
   150  Bq   0.000000
   151  Bq   0.000000
   152  Bq   0.000000
   153  Bq   0.000000
   154  Bq   0.000000
   155  Bq   0.000000
   156  Bq   0.000000
   157  Bq   0.000000
   158  Bq   0.000000
   159  Bq   0.000000
   160  Bq   0.000000
   161  Bq   0.000000
   162  Bq   0.000000
   163  Bq   0.000000
   164  Bq   0.000000
   165  Bq   0.000000
   166  Bq   0.000000
   167  Bq   0.000000
   168  Bq   0.000000
   169  Bq   0.000000
   170  Bq   0.000000
   171  Bq   0.000000
   172  Bq   0.000000
   173  Bq   0.000000
   174  Bq   0.000000
   175  Bq   0.000000
   176  Bq   0.000000
   177  Bq   0.000000
   178  Bq   0.000000
   179  Bq   0.000000
   180  Bq   0.000000
   181  Bq   0.000000
   182  Bq   0.000000
   183  Bq   0.000000
   184  Bq   0.000000
   185  Bq   0.000000
   186  Bq   0.000000
   187  Bq   0.000000
   188  Bq   0.000000
   189  Bq   0.000000
   190  Bq   0.000000
   191  Bq   0.000000
   192  Bq   0.000000
   193  Bq   0.000000
   194  Bq   0.000000
   195  Bq   0.000000
   196  Bq   0.000000
   197  Bq   0.000000
   198  Bq   0.000000
   199  Bq   0.000000
   200  Bq   0.000000
   201  Bq   0.000000
   202  Bq   0.000000
   203  Bq   0.000000
   204  Bq   0.000000
   205  Bq   0.000000
   206  Bq   0.000000
   207  Bq   0.000000
   208  Bq   0.000000
   209  Bq   0.000000
   210  Bq   0.000000
   211  Bq   0.000000
   212  Bq   0.000000
   213  Bq   0.000000
   214  Bq   0.000000
   215  Bq   0.000000
   216  Bq   0.000000
   217  Bq   0.000000
   218  Bq   0.000000
 Electronic spatial extent (au):  <R**2>=           1312.5323
 Charge=              0.0000 electrons
 Dipole moment (field-independent basis, Debye):
    X=              0.0000    Y=              0.0000    Z=              0.0000  Tot=              0.0000
 Quadrupole moment (field-independent basis, Debye-Ang):
   XX=            -51.9618   YY=            -52.1216   ZZ=            -65.1252
   XY=              0.0000   XZ=              0.0000   YZ=              0.0000
 Traceless Quadrupole moment (field-independent basis, Debye-Ang):
   XX=              4.4411   YY=              4.2812   ZZ=             -8.7224
   XY=              0.0000   XZ=              0.0000   YZ=              0.0000
 Octapole moment (field-independent basis, Debye-Ang**2):
  XXX=              0.0000  YYY=              0.0000  ZZZ=              0.0000  XYY=              0.0000
  XXY=              0.0000  XXZ=              0.0000  XZZ=              0.0000  YZZ=              0.0000
  YYZ=              0.0000  XYZ=              0.0000
 Hexadecapole moment (field-independent basis, Debye-Ang**3):
 XXXX=          -1119.8966 YYYY=           -498.1664 ZZZZ=            -79.6336 XXXY=              0.0000
 XXXZ=              0.0000 YYYX=              0.0000 YYYZ=              0.0000 ZZZX=              0.0000
 ZZZY=              0.0000 XXYY=           -275.3262 XXZZ=           -249.8350 YYZZ=           -117.4791
 XXYZ=              0.0000 YYXZ=              0.0000 ZZXY=              0.0000
 N-N= 4.538675371600D+02 E-N=-1.802310911208D+03  KE= 3.837199947839D+02
 1\1\GINC-PLANA\SP\RB3LYP\6-311+G(d,p)\C10H8\YANNICK\25-Sep-2020\0\\# r
 b3lyp/6-311+g** NMR geom=connectivity\\Title\\0,1\C,0,2.45076,-0.71174
 ,0.\C,0,2.45076,0.71174,0.\C,0,1.25139,1.41137,0.\C,0,0.,0.72289,0.\C,
 0,-1.25139,1.41137,0.\C,0,-2.45076,0.71174,0.\C,0,-2.45076,-0.71174,0.
 \C,0,-1.25139,-1.41137,0.\C,0,0.,-0.72289,0.\C,0,1.25139,-1.41137,0.\H
 ,0,3.40873,-1.25791,0.\H,0,3.40873,1.25791,0.\H,0,1.24972,2.51472,0.\H
 ,0,-1.24972,2.51472,0.\H,0,-3.40873,1.25791,0.\H,0,-3.40873,-1.25791,0
 .\H,0,-1.24972,-2.51472,0.\H,0,1.24972,-2.51472,0.\Bq,0,0.3836946,-2.9
 2296829,-0.28867513\Bq,0,0.3836946,-2.92296829,0.28867513\Bq,0,0.38369
 46,-2.10647171,-0.28867513\Bq,0,0.3836946,-2.10647171,0.28867513\Bq,0,
 0.41825039,-2.51472,-0.55557023\Bq,0,0.41825039,-2.51472,0.55557023\Bq
 ,0,0.43057934,-2.71347685,-0.53805603\Bq,0,0.43057934,-2.71347685,0.53
 805603\Bq,0,0.43057934,-2.31596315,-0.53805603\Bq,0,0.43057934,-2.3159
 6315,0.53805603\Bq,0,0.47249182,-2.91933504,-0.48187449\Bq,0,0.4724918
 2,-2.91933504,0.48187449\Bq,0,0.47249182,-2.11010496,-0.48187449\Bq,0,
 0.47249182,-2.11010496,0.48187449\Bq,0,0.49594164,-3.15432215,-0.15075
 567\Bq,0,0.49594164,-3.15432215,0.15075567\Bq,0,0.54261322,-3.09207027
 ,-0.40824829\Bq,0,0.54261322,-3.09207027,0.40824829\Bq,0,0.54261322,-2
 .51472,-0.70710678\Bq,0,0.54261322,-2.51472,0.70710678\Bq,0,0.55620008
 ,-2.70981032,-0.69351992\Bq,0,0.55620008,-2.70981032,0.69351992\Bq,0,0
 .55620008,-2.31962968,-0.69351992\Bq,0,0.55620008,-2.31962968,0.693519
 92\Bq,0,0.59643852,-2.89740343,-0.65328148\Bq,0,0.59643852,-2.89740343
 ,0.65328148\Bq,0,0.59643852,-2.13203657,-0.65328148\Bq,0,0.59643852,-2
 .13203657,0.65328148\Bq,0,0.6617822,-3.07029023,-0.5879378\Bq,0,0.6617
 822,-3.07029023,0.5879378\Bq,0,0.67236973,-3.33121658,0.\Bq,0,0.692042
 46,-3.30339513,-0.25881905\Bq,0,0.69204246,-3.30339513,0.25881905\Bq,0
 ,0.69414977,-2.51472,-0.83146961\Bq,0,0.69414977,-2.51472,0.83146961\B
 q,0,0.71166397,-2.71347685,-0.81914066\Bq,0,0.71166397,-2.71347685,0.8
 1914066\Bq,0,0.71166397,-2.31596315,-0.81914066\Bq,0,0.71166397,-2.315
 96315,0.81914066\Bq,0,0.74972,-3.22182678,-0.5\Bq,0,0.74972,-3.2218267
 8,0.5\Bq,0,0.76784551,-2.91933504,-0.77722818\Bq,0,0.76784551,-2.91933
 504,0.77722818\Bq,0,0.76784551,-2.11010496,-0.77722818\Bq,0,0.76784551
 ,-2.11010496,0.77722818\Bq,0,0.81593711,-3.40504003,-0.1384292\Bq,0,0.
 81593711,-3.40504003,0.1384292\Bq,0,0.84147171,-3.09207027,-0.70710678
 \Bq,0,0.84147171,-3.09207027,0.70710678\Bq,0,0.85687252,-3.34618961,-0
 .39284748\Bq,0,0.85687252,-3.34618961,0.39284748\Bq,0,0.86703657,-2.51
 472,-0.92387953\Bq,0,0.86703657,-2.51472,0.92387953\Bq,0,0.90627471,-2
 .7235666,-0.91565738\Bq,0,0.90627471,-2.7235666,0.91565738\Bq,0,0.9062
 7471,-2.3058734,-0.91565738\Bq,0,0.90627471,-2.3058734,0.91565738\Bq,0
 ,0.96104487,-2.92296829,-0.8660254\Bq,0,0.96104487,-2.92296829,0.86602
 54\Bq,0,0.96104487,-2.10647171,-0.8660254\Bq,0,0.96104487,-2.10647171,
 0.8660254\Bq,0,0.96863536,-3.47440298,0.\Bq,0,0.97912195,-3.43859953,-
 0.27059805\Bq,0,0.97912195,-3.43859953,0.27059805\Bq,0,0.99090095,-3.3
 0339513,-0.55767754\Bq,0,0.99090095,-3.30339513,0.55767754\Bq,0,1.0546
 2968,-2.51472,-0.98078528\Bq,0,1.05462968,-2.51472,0.98078528\Bq,0,1.0
 9896433,-3.15432215,-0.75377836\Bq,0,1.09896433,-3.15432215,0.75377836
 \Bq,0,1.10029075,-2.72604487,-0.96592583\Bq,0,1.10029075,-2.72604487,0
 .96592583\Bq,0,1.10029075,-2.30339513,-0.96592583\Bq,0,1.10029075,-2.3
 0339513,0.96592583\Bq,0,1.1112908,-3.40504003,-0.43378289\Bq,0,1.11129
 08,-3.40504003,0.43378289\Bq,0,1.11177031,-3.49550528,-0.13794969\Bq,0
 ,1.11177031,-3.49550528,0.13794969\Bq,0,1.24972,-3.51472,0.\Bq,0,1.249
 72,-3.47440298,-0.28108464\Bq,0,1.24972,-3.47440298,0.28108464\Bq,0,1.
 24972,-3.33121658,-0.57735027\Bq,0,1.24972,-3.33121658,0.57735027\Bq,0
 ,1.24972,-2.94112143,-0.90453403\Bq,0,1.24972,-2.94112143,0.90453403\B
 q,0,1.24972,-2.51472,-1.\Bq,0,1.24972,-2.51472,1.\Bq,0,1.24972,-2.0883
 1857,-0.90453403\Bq,0,1.24972,-2.08831857,0.90453403\Bq,0,1.38766969,-
 3.49550528,-0.13794969\Bq,0,1.38766969,-3.49550528,0.13794969\Bq,0,1.3
 881492,-3.40504003,-0.43378289\Bq,0,1.3881492,-3.40504003,0.43378289\B
 q,0,1.39914925,-2.72604487,-0.96592583\Bq,0,1.39914925,-2.72604487,0.9
 6592583\Bq,0,1.39914925,-2.30339513,-0.96592583\Bq,0,1.39914925,-2.303
 39513,0.96592583\Bq,0,1.40047567,-3.15432215,-0.75377836\Bq,0,1.400475
 67,-3.15432215,0.75377836\Bq,0,1.44481032,-2.51472,-0.98078528\Bq,0,1.
 44481032,-2.51472,0.98078528\Bq,0,1.50853905,-3.30339513,-0.55767754\B
 q,0,1.50853905,-3.30339513,0.55767754\Bq,0,1.52031805,-3.43859953,-0.2
 7059805\Bq,0,1.52031805,-3.43859953,0.27059805\Bq,0,1.53080464,-3.4744
 0298,0.\Bq,0,1.53839513,-2.92296829,-0.8660254\Bq,0,1.53839513,-2.9229
 6829,0.8660254\Bq,0,1.53839513,-2.10647171,-0.8660254\Bq,0,1.53839513,
 -2.10647171,0.8660254\Bq,0,1.59316529,-2.7235666,-0.91565738\Bq,0,1.59
 316529,-2.7235666,0.91565738\Bq,0,1.59316529,-2.3058734,-0.91565738\Bq
 ,0,1.59316529,-2.3058734,0.91565738\Bq,0,1.63240343,-2.51472,-0.923879
 53\Bq,0,1.63240343,-2.51472,0.92387953\Bq,0,1.64256748,-3.34618961,-0.
 39284748\Bq,0,1.64256748,-3.34618961,0.39284748\Bq,0,1.65796829,-3.092
 07027,-0.70710678\Bq,0,1.65796829,-3.09207027,0.70710678\Bq,0,1.683502
 89,-3.40504003,-0.1384292\Bq,0,1.68350289,-3.40504003,0.1384292\Bq,0,1
 .73159449,-2.91933504,-0.77722818\Bq,0,1.73159449,-2.91933504,0.777228
 18\Bq,0,1.73159449,-2.11010496,-0.77722818\Bq,0,1.73159449,-2.11010496
 ,0.77722818\Bq,0,1.74972,-3.22182678,-0.5\Bq,0,1.74972,-3.22182678,0.5
 \Bq,0,1.78777603,-2.71347685,-0.81914066\Bq,0,1.78777603,-2.71347685,0
 .81914066\Bq,0,1.78777603,-2.31596315,-0.81914066\Bq,0,1.78777603,-2.3
 1596315,0.81914066\Bq,0,1.80529023,-2.51472,-0.83146961\Bq,0,1.8052902
 3,-2.51472,0.83146961\Bq,0,1.80739754,-3.30339513,-0.25881905\Bq,0,1.8
 0739754,-3.30339513,0.25881905\Bq,0,1.82707027,-3.33121658,0.\Bq,0,1.8
 376578,-3.07029023,-0.5879378\Bq,0,1.8376578,-3.07029023,0.5879378\Bq,
 0,1.90300148,-2.89740343,-0.65328148\Bq,0,1.90300148,-2.89740343,0.653
 28148\Bq,0,1.90300148,-2.13203657,-0.65328148\Bq,0,1.90300148,-2.13203
 657,0.65328148\Bq,0,1.94323992,-2.70981032,-0.69351992\Bq,0,1.94323992
 ,-2.70981032,0.69351992\Bq,0,1.94323992,-2.31962968,-0.69351992\Bq,0,1
 .94323992,-2.31962968,0.69351992\Bq,0,1.95682678,-3.09207027,-0.408248
 29\Bq,0,1.95682678,-3.09207027,0.40824829\Bq,0,1.95682678,-2.51472,-0.
 70710678\Bq,0,1.95682678,-2.51472,0.70710678\Bq,0,2.00349836,-3.154322
 15,-0.15075567\Bq,0,2.00349836,-3.15432215,0.15075567\Bq,0,2.02694818,
 -2.91933504,-0.48187449\Bq,0,2.02694818,-2.91933504,0.48187449\Bq,0,2.
 02694818,-2.11010496,-0.48187449\Bq,0,2.02694818,-2.11010496,0.4818744
 9\Bq,0,2.06886066,-2.71347685,-0.53805603\Bq,0,2.06886066,-2.71347685,
 0.53805603\Bq,0,2.06886066,-2.31596315,-0.53805603\Bq,0,2.06886066,-2.
 31596315,0.53805603\Bq,0,2.08118961,-2.51472,-0.55557023\Bq,0,2.081189
 61,-2.51472,0.55557023\Bq,0,2.1157454,-2.92296829,-0.28867513\Bq,0,2.1
 157454,-2.92296829,0.28867513\Bq,0,2.1157454,-2.10647171,-0.28867513\B
 q,0,2.1157454,-2.10647171,0.28867513\Bq,0,2.15425403,-2.94112143,0.\Bq
 ,0,2.15425403,-2.08831857,0.\Bq,0,2.16537738,-2.7235666,-0.34344529\Bq
 ,0,2.16537738,-2.7235666,0.34344529\Bq,0,2.16537738,-2.3058734,-0.3434
 4529\Bq,0,2.16537738,-2.3058734,0.34344529\Bq,0,2.17359953,-2.51472,-0
 .38268343\Bq,0,2.17359953,-2.51472,0.38268343\Bq,0,2.21564583,-2.72604
 487,-0.14942925\Bq,0,2.21564583,-2.72604487,0.14942925\Bq,0,2.21564583
 ,-2.30339513,-0.14942925\Bq,0,2.21564583,-2.30339513,0.14942925\Bq,0,2
 .23050528,-2.51472,-0.19509032\Bq,0,2.23050528,-2.51472,0.19509032\Bq,
 0,2.24972,-2.51472,0.\Bq,0,-1.94115678,0.,-0.70710678\Bq,0,-1.94115678
 ,0.,0.70710678\Bq,0,-1.92756992,-0.19509032,-0.69351992\Bq,0,-1.927569
 92,-0.19509032,0.69351992\Bq,0,-1.92756992,0.19509032,-0.69351992\Bq,0
 ,-1.92756992,0.19509032,0.69351992\Bq,0,-1.78962023,0.,-0.83146961\Bq,
 0,-1.78962023,0.,0.83146961\Bq,0,-1.77210603,-0.19875685,-0.81914066\B
 q,0,-1.77210603,-0.19875685,0.81914066\Bq,0,-1.77210603,0.19875685,-0.
 81914066\Bq,0,-1.77210603,0.19875685,0.81914066\Bq,0,-1.71592449,-0.40
 461504,-0.77722818\Bq,0,-1.71592449,-0.40461504,0.77722818\Bq,0,-1.715
 92449,0.40461504,-0.77722818\Bq,0,-1.71592449,0.40461504,0.77722818\Bq
 ,0,-1.64229829,-0.57735027,-0.70710678\Bq,0,-1.64229829,-0.57735027,0.
 70710678\\Version=ES64L-G09RevD.01\HF=-385.9859319\RMSD=7.835e-09\Dipo
 le=0.,0.,0.\Quadrupole=3.3018588,3.182998,-6.4848568,0.,0.,0.\PG=C01 [
 X(C10H8)]\\@


 LORD, MAN... WERE YE BUT WHYLES WHERE I AM, 
 THE GENTILES YE WAD NE'ER ENVY 'EM.        
 IT'S TRUE, THEY NEEDNA STARVE OR SWEAT,     
 THRO' WINTER'S CAULD OR SIMMER'S HEAT...  
 THEY'VE NAE SAIR WARK TO CRAZE THEIR BANES, 
 AND FILL AULD AGE WITH GRIPS AN' GRANES...  
                                             
 BUT HUMAN BODIES ARE SIC FOOLS              
 FOR A' THEIR COLLEGES AND SCHOOLS,           
 THAT WHEN NAE REAL ILLS PERPLEX THEM,       
 THEY MAK ENOW THEMSELVES TO VEX THEM,       
 AN' AYE THE LESS THEY HAE TO STURT THEM,    
 IN LIKE PROPORTION LESS WILL HURT THEM....  
                                             
                (ROBERT BURNS 'THE TWA DOGS')
 Job cpu time:       0 days  0 hours 10 minutes 60.0 seconds.
 File lengths (MBytes):  RWF=     43 Int=      0 D2E=      0 Chk=      5 Scr=      1
 Normal termination of Gaussian 09 at Fri Sep 25 17:02:52 2020.
