 Entering Gaussian System, Link 0=g09
 Input=input_batch_02600.com
 Output=input_batch_02600.log
 Initial command:
 /share/programs/GAUSSIAN/64/g09/l1.exe "/scratch/yannick.45704/Gau-1385889.inp" -scrdir="/scratch/yannick.45704/"
 Entering Link 1 = /share/programs/GAUSSIAN/64/g09/l1.exe PID=   1385905.
  
 Copyright (c) 1988,1990,1992,1993,1995,1998,2003,2009,2013,
            Gaussian, Inc.  All Rights Reserved.
  
 This is part of the Gaussian(R) 09 program.  It is based on
 the Gaussian(R) 03 system (copyright 2003, Gaussian, Inc.),
 the Gaussian(R) 98 system (copyright 1998, Gaussian, Inc.),
 the Gaussian(R) 94 system (copyright 1995, Gaussian, Inc.),
 the Gaussian 92(TM) system (copyright 1992, Gaussian, Inc.),
 the Gaussian 90(TM) system (copyright 1990, Gaussian, Inc.),
 the Gaussian 88(TM) system (copyright 1988, Gaussian, Inc.),
 the Gaussian 86(TM) system (copyright 1986, Carnegie Mellon
 University), and the Gaussian 82(TM) system (copyright 1983,
 Carnegie Mellon University). Gaussian is a federally registered
 trademark of Gaussian, Inc.
  
 This software contains proprietary and confidential information,
 including trade secrets, belonging to Gaussian, Inc.
  
 This software is provided under written license and may be
 used, copied, transmitted, or stored only in accord with that
 written license.
  
 The following legend is applicable only to US Government
 contracts under FAR:
  
                    RESTRICTED RIGHTS LEGEND
  
 Use, reproduction and disclosure by the US Government is
 subject to restrictions as set forth in subparagraphs (a)
 and (c) of the Commercial Computer Software - Restricted
 Rights clause in FAR 52.227-19.
  
 Gaussian, Inc.
 340 Quinnipiac St., Bldg. 40, Wallingford CT 06492
  
  
 ---------------------------------------------------------------
 Warning -- This program may not be used in any manner that
 competes with the business of Gaussian, Inc. or will provide
 assistance to any competitor of Gaussian, Inc.  The licensee
 of this program is prohibited from giving any competitor of
 Gaussian, Inc. access to this program.  By using this program,
 the user acknowledges that Gaussian, Inc. is engaged in the
 business of creating and licensing software in the field of
 computational chemistry and represents and warrants to the
 licensee that it is not a competitor of Gaussian, Inc. and that
 it will not use this program in any manner prohibited above.
 ---------------------------------------------------------------
  

 Cite this work as:
 Gaussian 09, Revision D.01,
 M. J. Frisch, G. W. Trucks, H. B. Schlegel, G. E. Scuseria, 
 M. A. Robb, J. R. Cheeseman, G. Scalmani, V. Barone, B. Mennucci, 
 G. A. Petersson, H. Nakatsuji, M. Caricato, X. Li, H. P. Hratchian, 
 A. F. Izmaylov, J. Bloino, G. Zheng, J. L. Sonnenberg, M. Hada, 
 M. Ehara, K. Toyota, R. Fukuda, J. Hasegawa, M. Ishida, T. Nakajima, 
 Y. Honda, O. Kitao, H. Nakai, T. Vreven, J. A. Montgomery, Jr., 
 J. E. Peralta, F. Ogliaro, M. Bearpark, J. J. Heyd, E. Brothers, 
 K. N. Kudin, V. N. Staroverov, T. Keith, R. Kobayashi, J. Normand, 
 K. Raghavachari, A. Rendell, J. C. Burant, S. S. Iyengar, J. Tomasi, 
 M. Cossi, N. Rega, J. M. Millam, M. Klene, J. E. Knox, J. B. Cross, 
 V. Bakken, C. Adamo, J. Jaramillo, R. Gomperts, R. E. Stratmann, 
 O. Yazyev, A. J. Austin, R. Cammi, C. Pomelli, J. W. Ochterski, 
 R. L. Martin, K. Morokuma, V. G. Zakrzewski, G. A. Voth, 
 P. Salvador, J. J. Dannenberg, S. Dapprich, A. D. Daniels, 
 O. Farkas, J. B. Foresman, J. V. Ortiz, J. Cioslowski, 
 and D. J. Fox, Gaussian, Inc., Wallingford CT, 2013.
 
 ******************************************
 Gaussian 09:  ES64L-G09RevD.01 24-Apr-2013
                25-Sep-2020 
 ******************************************
 %nproc=8
 Will use up to    8 processors via shared memory.
 %mem=1000MB
 ----------------------------------------
 # rb3lyp/6-311+g** NMR geom=connectivity
 ----------------------------------------
 1/38=1,57=2/1;
 2/12=2,17=6,18=5,40=1/2;
 3/5=4,6=6,7=111,11=2,16=1,25=1,30=1,74=-5,116=1/1,2,8,3;
 4//1;
 5/5=2,38=5/2;
 8/6=1,10=90,11=11/1;
 10/13=100,45=16/2;
 6/7=2,8=2,9=2,10=2,28=1/1;
 99/9=1/99;
 -----
 Title
 -----
 Symbolic Z-matrix:
 Charge =  0 Multiplicity = 1
 C                     2.45076  -0.71174   0. 
 C                     2.45076   0.71174   0. 
 C                     1.25139   1.41137   0. 
 C                     0.        0.72289   0. 
 C                    -1.25139   1.41137   0. 
 C                    -2.45076   0.71174   0. 
 C                    -2.45076  -0.71174   0. 
 C                    -1.25139  -1.41137   0. 
 C                     0.       -0.72289   0. 
 C                     1.25139  -1.41137   0. 
 H                     3.40873  -1.25791   0. 
 H                     3.40873   1.25791   0. 
 H                     1.24972   2.51472   0. 
 H                    -1.24972   2.51472   0. 
 H                    -3.40873   1.25791   0. 
 H                    -3.40873  -1.25791   0. 
 H                    -1.24972  -2.51472   0. 
 H                     1.24972  -2.51472   0. 
 Bq                   -1.6423    0.57735  -0.70711 
 Bq                   -1.6423    0.57735   0.70711 
 Bq                   -1.61673   0.       -0.92388 
 Bq                   -1.61673   0.        0.92388 
 Bq                   -1.5775   -0.20885  -0.91566 
 Bq                   -1.5775   -0.20885   0.91566 
 Bq                   -1.5775    0.20885  -0.91566 
 Bq                   -1.5775    0.20885   0.91566 
 Bq                   -1.52273  -0.40825  -0.86603 
 Bq                   -1.52273  -0.40825   0.86603 
 Bq                   -1.52273   0.40825  -0.86603 
 Bq                   -1.52273   0.40825   0.86603 
 Bq                   -1.42914   0.       -0.98079 
 Bq                   -1.42914   0.        0.98079 
 Bq                   -1.38481  -0.6396   -0.75378 
 Bq                   -1.38481  -0.6396    0.75378 
 Bq                   -1.38481   0.6396   -0.75378 
 Bq                   -1.38481   0.6396    0.75378 
 Bq                   -1.38348  -0.21132  -0.96593 
 Bq                   -1.38348  -0.21132   0.96593 
 Bq                   -1.38348   0.21132  -0.96593 
 Bq                   -1.38348   0.21132   0.96593 
 Bq                   -1.23405  -0.4264   -0.90453 
 Bq                   -1.23405  -0.4264    0.90453 
 Bq                   -1.23405   0.       -1. 
 Bq                   -1.23405   0.        1. 
 Bq                   -1.23405   0.4264   -0.90453 
 Bq                   -1.23405   0.4264    0.90453 
 Bq                   -1.08462  -0.21132  -0.96593 
 Bq                   -1.08462  -0.21132   0.96593 
 Bq                   -1.08462   0.21132  -0.96593 
 Bq                   -1.08462   0.21132   0.96593 
 Bq                   -1.08329  -0.6396   -0.75378 
 Bq                   -1.08329  -0.6396    0.75378 
 Bq                   -1.08329   0.6396   -0.75378 
 Bq                   -1.08329   0.6396    0.75378 
 Bq                   -1.03896   0.       -0.98079 
 Bq                   -1.03896   0.        0.98079 
 Bq                   -0.94537  -0.40825  -0.86603 
 Bq                   -0.94537  -0.40825   0.86603 
 Bq                   -0.94537   0.40825  -0.86603 
 Bq                   -0.94537   0.40825   0.86603 
 Bq                   -0.8906   -0.20885  -0.91566 
 Bq                   -0.8906   -0.20885   0.91566 
 Bq                   -0.8906    0.20885  -0.91566 
 Bq                   -0.8906    0.20885   0.91566 
 Bq                   -0.85137   0.       -0.92388 
 Bq                   -0.85137   0.        0.92388 
 Bq                   -0.8258   -0.57735  -0.70711 
 Bq                   -0.8258   -0.57735   0.70711 
 Bq                   -0.8258    0.57735  -0.70711 
 Bq                   -0.8258    0.57735   0.70711 
 Bq                   -0.75218  -0.40462  -0.77723 
 Bq                   -0.75218  -0.40462   0.77723 
 Bq                   -0.75218   0.40462  -0.77723 
 Bq                   -0.75218   0.40462   0.77723 
 Bq                   -0.69599  -0.19876  -0.81914 
 Bq                   -0.69599  -0.19876   0.81914 
 Bq                   -0.69599   0.19876  -0.81914 
 Bq                   -0.69599   0.19876   0.81914 
 Bq                   -0.67848   0.       -0.83147 
 Bq                   -0.67848   0.        0.83147 
 Bq                   -0.54053  -0.19509  -0.69352 
 Bq                   -0.54053  -0.19509   0.69352 
 Bq                   -0.54053   0.19509  -0.69352 
 Bq                   -0.54053   0.19509   0.69352 
 Bq                   -0.52694   0.       -0.70711 
 Bq                   -0.52694   0.        0.70711 
 Bq                    0.52694   0.       -0.70711 
 Bq                    0.52694   0.        0.70711 
 Bq                    0.54053  -0.19509  -0.69352 
 Bq                    0.54053  -0.19509   0.69352 
 Bq                    0.54053   0.19509  -0.69352 
 Bq                    0.54053   0.19509   0.69352 
 Bq                    0.67848   0.       -0.83147 
 Bq                    0.67848   0.        0.83147 
 Bq                    0.69599  -0.19876  -0.81914 
 Bq                    0.69599  -0.19876   0.81914 
 Bq                    0.69599   0.19876  -0.81914 
 Bq                    0.69599   0.19876   0.81914 
 Bq                    0.75218  -0.40462  -0.77723 
 Bq                    0.75218  -0.40462   0.77723 
 Bq                    0.75218   0.40462  -0.77723 
 Bq                    0.75218   0.40462   0.77723 
 Bq                    0.8258   -0.57735  -0.70711 
 Bq                    0.8258   -0.57735   0.70711 
 Bq                    0.8258    0.57735  -0.70711 
 Bq                    0.8258    0.57735   0.70711 
 Bq                    0.85137   0.       -0.92388 
 Bq                    0.85137   0.        0.92388 
 Bq                    0.8906   -0.20885  -0.91566 
 Bq                    0.8906   -0.20885   0.91566 
 Bq                    0.8906    0.20885  -0.91566 
 Bq                    0.8906    0.20885   0.91566 
 Bq                    0.94537  -0.40825  -0.86603 
 Bq                    0.94537  -0.40825   0.86603 
 Bq                    0.94537   0.40825  -0.86603 
 Bq                    0.94537   0.40825   0.86603 
 Bq                    1.03896   0.       -0.98079 
 Bq                    1.03896   0.        0.98079 
 Bq                    1.08329  -0.6396   -0.75378 
 Bq                    1.08329  -0.6396    0.75378 
 Bq                    1.08329   0.6396   -0.75378 
 Bq                    1.08329   0.6396    0.75378 
 Bq                    1.08462  -0.21132  -0.96593 
 Bq                    1.08462  -0.21132   0.96593 
 Bq                    1.08462   0.21132  -0.96593 
 Bq                    1.08462   0.21132   0.96593 
 Bq                    1.23405  -0.4264   -0.90453 
 Bq                    1.23405  -0.4264    0.90453 
 Bq                    1.23405   0.       -1. 
 Bq                    1.23405   0.        1. 
 Bq                    1.23405   0.4264   -0.90453 
 Bq                    1.23405   0.4264    0.90453 
 Bq                    1.38348  -0.21132  -0.96593 
 Bq                    1.38348  -0.21132   0.96593 
 Bq                    1.38348   0.21132  -0.96593 
 Bq                    1.38348   0.21132   0.96593 
 Bq                    1.38481  -0.6396   -0.75378 
 Bq                    1.38481  -0.6396    0.75378 
 Bq                    1.38481   0.6396   -0.75378 
 Bq                    1.38481   0.6396    0.75378 
 Bq                    1.42914   0.       -0.98079 
 Bq                    1.42914   0.        0.98079 
 Bq                    1.52273  -0.40825  -0.86603 
 Bq                    1.52273  -0.40825   0.86603 
 Bq                    1.52273   0.40825  -0.86603 
 Bq                    1.52273   0.40825   0.86603 
 Bq                    1.5775   -0.20885  -0.91566 
 Bq                    1.5775   -0.20885   0.91566 
 Bq                    1.5775    0.20885  -0.91566 
 Bq                    1.5775    0.20885   0.91566 
 Bq                    1.61673   0.       -0.92388 
 Bq                    1.61673   0.        0.92388 
 Bq                    1.6423   -0.57735  -0.70711 
 Bq                    1.6423   -0.57735   0.70711 
 Bq                    1.6423    0.57735  -0.70711 
 Bq                    1.6423    0.57735   0.70711 
 Bq                    1.71592  -0.40462  -0.77723 
 Bq                    1.71592  -0.40462   0.77723 
 Bq                    1.71592   0.40462  -0.77723 
 Bq                    1.71592   0.40462   0.77723 
 Bq                    1.77211  -0.19876  -0.81914 
 Bq                    1.77211  -0.19876   0.81914 
 Bq                    1.77211   0.19876  -0.81914 
 Bq                    1.77211   0.19876   0.81914 
 Bq                    1.78962   0.       -0.83147 
 Bq                    1.78962   0.        0.83147 
 Bq                    1.92757  -0.19509  -0.69352 
 Bq                    1.92757  -0.19509   0.69352 
 Bq                    1.92757   0.19509  -0.69352 
 Bq                    1.92757   0.19509   0.69352 
 Bq                    1.94116   0.       -0.70711 
 Bq                    1.94116   0.        0.70711 
 
 Symmetry turned off:
 Cannot cope with ghost atoms or with translation vectors.
 Stoichiometry    C10H8
 Framework group  C1[X(C10H8)]
 NUMDOF-- NAT=    18 NAtoms=   172
 Deg. of freedom     0
 Full point group                 C1      NOp   1
                          Input orientation:                          
 ---------------------------------------------------------------------
 Center     Atomic      Atomic             Coordinates (Angstroms)
 Number     Number       Type             X           Y           Z
 ---------------------------------------------------------------------
      1          6           0        2.450760   -0.711740    0.000000
      2          6           0        2.450760    0.711740    0.000000
      3          6           0        1.251390    1.411370    0.000000
      4          6           0        0.000000    0.722890    0.000000
      5          6           0       -1.251390    1.411370    0.000000
      6          6           0       -2.450760    0.711740    0.000000
      7          6           0       -2.450760   -0.711740    0.000000
      8          6           0       -1.251390   -1.411370    0.000000
      9          6           0        0.000000   -0.722890    0.000000
     10          6           0        1.251390   -1.411370    0.000000
     11          1           0        3.408730   -1.257910    0.000000
     12          1           0        3.408730    1.257910    0.000000
     13          1           0        1.249720    2.514720    0.000000
     14          1           0       -1.249720    2.514720    0.000000
     15          1           0       -3.408730    1.257910    0.000000
     16          1           0       -3.408730   -1.257910    0.000000
     17          1           0       -1.249720   -2.514720    0.000000
     18          1           0        1.249720   -2.514720    0.000000
     19          0           0       -1.642298    0.577350   -0.707107
     20          0           0       -1.642298    0.577350    0.707107
     21          0           0       -1.616733    0.000000   -0.923880
     22          0           0       -1.616733    0.000000    0.923880
     23          0           0       -1.577495   -0.208847   -0.915657
     24          0           0       -1.577495   -0.208847    0.915657
     25          0           0       -1.577495    0.208847   -0.915657
     26          0           0       -1.577495    0.208847    0.915657
     27          0           0       -1.522725   -0.408248   -0.866025
     28          0           0       -1.522725   -0.408248    0.866025
     29          0           0       -1.522725    0.408248   -0.866025
     30          0           0       -1.522725    0.408248    0.866025
     31          0           0       -1.429140    0.000000   -0.980785
     32          0           0       -1.429140    0.000000    0.980785
     33          0           0       -1.384806   -0.639602   -0.753778
     34          0           0       -1.384806   -0.639602    0.753778
     35          0           0       -1.384806    0.639602   -0.753778
     36          0           0       -1.384806    0.639602    0.753778
     37          0           0       -1.383479   -0.211325   -0.965926
     38          0           0       -1.383479   -0.211325    0.965926
     39          0           0       -1.383479    0.211325   -0.965926
     40          0           0       -1.383479    0.211325    0.965926
     41          0           0       -1.234050   -0.426401   -0.904534
     42          0           0       -1.234050   -0.426401    0.904534
     43          0           0       -1.234050    0.000000   -1.000000
     44          0           0       -1.234050    0.000000    1.000000
     45          0           0       -1.234050    0.426401   -0.904534
     46          0           0       -1.234050    0.426401    0.904534
     47          0           0       -1.084621   -0.211325   -0.965926
     48          0           0       -1.084621   -0.211325    0.965926
     49          0           0       -1.084621    0.211325   -0.965926
     50          0           0       -1.084621    0.211325    0.965926
     51          0           0       -1.083294   -0.639602   -0.753778
     52          0           0       -1.083294   -0.639602    0.753778
     53          0           0       -1.083294    0.639602   -0.753778
     54          0           0       -1.083294    0.639602    0.753778
     55          0           0       -1.038960    0.000000   -0.980785
     56          0           0       -1.038960    0.000000    0.980785
     57          0           0       -0.945375   -0.408248   -0.866025
     58          0           0       -0.945375   -0.408248    0.866025
     59          0           0       -0.945375    0.408248   -0.866025
     60          0           0       -0.945375    0.408248    0.866025
     61          0           0       -0.890605   -0.208847   -0.915657
     62          0           0       -0.890605   -0.208847    0.915657
     63          0           0       -0.890605    0.208847   -0.915657
     64          0           0       -0.890605    0.208847    0.915657
     65          0           0       -0.851367    0.000000   -0.923880
     66          0           0       -0.851367    0.000000    0.923880
     67          0           0       -0.825802   -0.577350   -0.707107
     68          0           0       -0.825802   -0.577350    0.707107
     69          0           0       -0.825802    0.577350   -0.707107
     70          0           0       -0.825802    0.577350    0.707107
     71          0           0       -0.752176   -0.404615   -0.777228
     72          0           0       -0.752176   -0.404615    0.777228
     73          0           0       -0.752176    0.404615   -0.777228
     74          0           0       -0.752176    0.404615    0.777228
     75          0           0       -0.695994   -0.198757   -0.819141
     76          0           0       -0.695994   -0.198757    0.819141
     77          0           0       -0.695994    0.198757   -0.819141
     78          0           0       -0.695994    0.198757    0.819141
     79          0           0       -0.678480    0.000000   -0.831470
     80          0           0       -0.678480    0.000000    0.831470
     81          0           0       -0.540530   -0.195090   -0.693520
     82          0           0       -0.540530   -0.195090    0.693520
     83          0           0       -0.540530    0.195090   -0.693520
     84          0           0       -0.540530    0.195090    0.693520
     85          0           0       -0.526943    0.000000   -0.707107
     86          0           0       -0.526943    0.000000    0.707107
     87          0           0        0.526943    0.000000   -0.707107
     88          0           0        0.526943    0.000000    0.707107
     89          0           0        0.540530   -0.195090   -0.693520
     90          0           0        0.540530   -0.195090    0.693520
     91          0           0        0.540530    0.195090   -0.693520
     92          0           0        0.540530    0.195090    0.693520
     93          0           0        0.678480    0.000000   -0.831470
     94          0           0        0.678480    0.000000    0.831470
     95          0           0        0.695994   -0.198757   -0.819141
     96          0           0        0.695994   -0.198757    0.819141
     97          0           0        0.695994    0.198757   -0.819141
     98          0           0        0.695994    0.198757    0.819141
     99          0           0        0.752176   -0.404615   -0.777228
    100          0           0        0.752176   -0.404615    0.777228
    101          0           0        0.752176    0.404615   -0.777228
    102          0           0        0.752176    0.404615    0.777228
    103          0           0        0.825802   -0.577350   -0.707107
    104          0           0        0.825802   -0.577350    0.707107
    105          0           0        0.825802    0.577350   -0.707107
    106          0           0        0.825802    0.577350    0.707107
    107          0           0        0.851367    0.000000   -0.923880
    108          0           0        0.851367    0.000000    0.923880
    109          0           0        0.890605   -0.208847   -0.915657
    110          0           0        0.890605   -0.208847    0.915657
    111          0           0        0.890605    0.208847   -0.915657
    112          0           0        0.890605    0.208847    0.915657
    113          0           0        0.945375   -0.408248   -0.866025
    114          0           0        0.945375   -0.408248    0.866025
    115          0           0        0.945375    0.408248   -0.866025
    116          0           0        0.945375    0.408248    0.866025
    117          0           0        1.038960    0.000000   -0.980785
    118          0           0        1.038960    0.000000    0.980785
    119          0           0        1.083294   -0.639602   -0.753778
    120          0           0        1.083294   -0.639602    0.753778
    121          0           0        1.083294    0.639602   -0.753778
    122          0           0        1.083294    0.639602    0.753778
    123          0           0        1.084621   -0.211325   -0.965926
    124          0           0        1.084621   -0.211325    0.965926
    125          0           0        1.084621    0.211325   -0.965926
    126          0           0        1.084621    0.211325    0.965926
    127          0           0        1.234050   -0.426401   -0.904534
    128          0           0        1.234050   -0.426401    0.904534
    129          0           0        1.234050    0.000000   -1.000000
    130          0           0        1.234050    0.000000    1.000000
    131          0           0        1.234050    0.426401   -0.904534
    132          0           0        1.234050    0.426401    0.904534
    133          0           0        1.383479   -0.211325   -0.965926
    134          0           0        1.383479   -0.211325    0.965926
    135          0           0        1.383479    0.211325   -0.965926
    136          0           0        1.383479    0.211325    0.965926
    137          0           0        1.384806   -0.639602   -0.753778
    138          0           0        1.384806   -0.639602    0.753778
    139          0           0        1.384806    0.639602   -0.753778
    140          0           0        1.384806    0.639602    0.753778
    141          0           0        1.429140    0.000000   -0.980785
    142          0           0        1.429140    0.000000    0.980785
    143          0           0        1.522725   -0.408248   -0.866025
    144          0           0        1.522725   -0.408248    0.866025
    145          0           0        1.522725    0.408248   -0.866025
    146          0           0        1.522725    0.408248    0.866025
    147          0           0        1.577495   -0.208847   -0.915657
    148          0           0        1.577495   -0.208847    0.915657
    149          0           0        1.577495    0.208847   -0.915657
    150          0           0        1.577495    0.208847    0.915657
    151          0           0        1.616733    0.000000   -0.923880
    152          0           0        1.616733    0.000000    0.923880
    153          0           0        1.642298   -0.577350   -0.707107
    154          0           0        1.642298   -0.577350    0.707107
    155          0           0        1.642298    0.577350   -0.707107
    156          0           0        1.642298    0.577350    0.707107
    157          0           0        1.715924   -0.404615   -0.777228
    158          0           0        1.715924   -0.404615    0.777228
    159          0           0        1.715924    0.404615   -0.777228
    160          0           0        1.715924    0.404615    0.777228
    161          0           0        1.772106   -0.198757   -0.819141
    162          0           0        1.772106   -0.198757    0.819141
    163          0           0        1.772106    0.198757   -0.819141
    164          0           0        1.772106    0.198757    0.819141
    165          0           0        1.789620    0.000000   -0.831470
    166          0           0        1.789620    0.000000    0.831470
    167          0           0        1.927570   -0.195090   -0.693520
    168          0           0        1.927570   -0.195090    0.693520
    169          0           0        1.927570    0.195090   -0.693520
    170          0           0        1.927570    0.195090    0.693520
    171          0           0        1.941157    0.000000   -0.707107
    172          0           0        1.941157    0.000000    0.707107
 ---------------------------------------------------------------------
 Rotational constants (GHZ):      3.0751358      1.2130944      0.8699230
 Standard basis: 6-311+G(d,p) (5D, 7F)
 Warning:  center  19 has no basis functions!
 Warning:  center  20 has no basis functions!
 Warning:  center  21 has no basis functions!
 Warning:  center  22 has no basis functions!
 Warning:  center  23 has no basis functions!
 Warning:  center  24 has no basis functions!
 Warning:  center  25 has no basis functions!
 Warning:  center  26 has no basis functions!
 Warning:  center  27 has no basis functions!
 Warning:  center  28 has no basis functions!
 Warning:  center  29 has no basis functions!
 Warning:  center  30 has no basis functions!
 Warning:  center  31 has no basis functions!
 Warning:  center  32 has no basis functions!
 Warning:  center  33 has no basis functions!
 Warning:  center  34 has no basis functions!
 Warning:  center  35 has no basis functions!
 Warning:  center  36 has no basis functions!
 Warning:  center  37 has no basis functions!
 Warning:  center  38 has no basis functions!
 Warning:  center  39 has no basis functions!
 Warning:  center  40 has no basis functions!
 Warning:  center  41 has no basis functions!
 Warning:  center  42 has no basis functions!
 Warning:  center  43 has no basis functions!
 Warning:  center  44 has no basis functions!
 Warning:  center  45 has no basis functions!
 Warning:  center  46 has no basis functions!
 Warning:  center  47 has no basis functions!
 Warning:  center  48 has no basis functions!
 Warning:  center  49 has no basis functions!
 Warning:  center  50 has no basis functions!
 Warning:  center  51 has no basis functions!
 Warning:  center  52 has no basis functions!
 Warning:  center  53 has no basis functions!
 Warning:  center  54 has no basis functions!
 Warning:  center  55 has no basis functions!
 Warning:  center  56 has no basis functions!
 Warning:  center  57 has no basis functions!
 Warning:  center  58 has no basis functions!
 Warning:  center  59 has no basis functions!
 Warning:  center  60 has no basis functions!
 Warning:  center  61 has no basis functions!
 Warning:  center  62 has no basis functions!
 Warning:  center  63 has no basis functions!
 Warning:  center  64 has no basis functions!
 Warning:  center  65 has no basis functions!
 Warning:  center  66 has no basis functions!
 Warning:  center  67 has no basis functions!
 Warning:  center  68 has no basis functions!
 Warning:  center  69 has no basis functions!
 Warning:  center  70 has no basis functions!
 Warning:  center  71 has no basis functions!
 Warning:  center  72 has no basis functions!
 Warning:  center  73 has no basis functions!
 Warning:  center  74 has no basis functions!
 Warning:  center  75 has no basis functions!
 Warning:  center  76 has no basis functions!
 Warning:  center  77 has no basis functions!
 Warning:  center  78 has no basis functions!
 Warning:  center  79 has no basis functions!
 Warning:  center  80 has no basis functions!
 Warning:  center  81 has no basis functions!
 Warning:  center  82 has no basis functions!
 Warning:  center  83 has no basis functions!
 Warning:  center  84 has no basis functions!
 Warning:  center  85 has no basis functions!
 Warning:  center  86 has no basis functions!
 Warning:  center  87 has no basis functions!
 Warning:  center  88 has no basis functions!
 Warning:  center  89 has no basis functions!
 Warning:  center  90 has no basis functions!
 Warning:  center  91 has no basis functions!
 Warning:  center  92 has no basis functions!
 Warning:  center  93 has no basis functions!
 Warning:  center  94 has no basis functions!
 Warning:  center  95 has no basis functions!
 Warning:  center  96 has no basis functions!
 Warning:  center  97 has no basis functions!
 Warning:  center  98 has no basis functions!
 Warning:  center  99 has no basis functions!
 Warning:  center 100 has no basis functions!
 Warning:  center 101 has no basis functions!
 Warning:  center 102 has no basis functions!
 Warning:  center 103 has no basis functions!
 Warning:  center 104 has no basis functions!
 Warning:  center 105 has no basis functions!
 Warning:  center 106 has no basis functions!
 Warning:  center 107 has no basis functions!
 Warning:  center 108 has no basis functions!
 Warning:  center 109 has no basis functions!
 Warning:  center 110 has no basis functions!
 Warning:  center 111 has no basis functions!
 Warning:  center 112 has no basis functions!
 Warning:  center 113 has no basis functions!
 Warning:  center 114 has no basis functions!
 Warning:  center 115 has no basis functions!
 Warning:  center 116 has no basis functions!
 Warning:  center 117 has no basis functions!
 Warning:  center 118 has no basis functions!
 Warning:  center 119 has no basis functions!
 Warning:  center 120 has no basis functions!
 Warning:  center 121 has no basis functions!
 Warning:  center 122 has no basis functions!
 Warning:  center 123 has no basis functions!
 Warning:  center 124 has no basis functions!
 Warning:  center 125 has no basis functions!
 Warning:  center 126 has no basis functions!
 Warning:  center 127 has no basis functions!
 Warning:  center 128 has no basis functions!
 Warning:  center 129 has no basis functions!
 Warning:  center 130 has no basis functions!
 Warning:  center 131 has no basis functions!
 Warning:  center 132 has no basis functions!
 Warning:  center 133 has no basis functions!
 Warning:  center 134 has no basis functions!
 Warning:  center 135 has no basis functions!
 Warning:  center 136 has no basis functions!
 Warning:  center 137 has no basis functions!
 Warning:  center 138 has no basis functions!
 Warning:  center 139 has no basis functions!
 Warning:  center 140 has no basis functions!
 Warning:  center 141 has no basis functions!
 Warning:  center 142 has no basis functions!
 Warning:  center 143 has no basis functions!
 Warning:  center 144 has no basis functions!
 Warning:  center 145 has no basis functions!
 Warning:  center 146 has no basis functions!
 Warning:  center 147 has no basis functions!
 Warning:  center 148 has no basis functions!
 Warning:  center 149 has no basis functions!
 Warning:  center 150 has no basis functions!
 Warning:  center 151 has no basis functions!
 Warning:  center 152 has no basis functions!
 Warning:  center 153 has no basis functions!
 Warning:  center 154 has no basis functions!
 Warning:  center 155 has no basis functions!
 Warning:  center 156 has no basis functions!
 Warning:  center 157 has no basis functions!
 Warning:  center 158 has no basis functions!
 Warning:  center 159 has no basis functions!
 Warning:  center 160 has no basis functions!
 Warning:  center 161 has no basis functions!
 Warning:  center 162 has no basis functions!
 Warning:  center 163 has no basis functions!
 Warning:  center 164 has no basis functions!
 Warning:  center 165 has no basis functions!
 Warning:  center 166 has no basis functions!
 Warning:  center 167 has no basis functions!
 Warning:  center 168 has no basis functions!
 Warning:  center 169 has no basis functions!
 Warning:  center 170 has no basis functions!
 Warning:  center 171 has no basis functions!
 Warning:  center 172 has no basis functions!
   268 basis functions,   424 primitive gaussians,   278 cartesian basis functions
    34 alpha electrons       34 beta electrons
       nuclear repulsion energy       453.8675371600 Hartrees.
 NAtoms=  172 NActive=  172 NUniq=  172 SFac= 1.00D+00 NAtFMM=   60 NAOKFM=T Big=T
 Integral buffers will be    131072 words long.
 Raffenetti 2 integral format.
 Two-electron integral symmetry is turned off.
 One-electron integrals computed using PRISM.
 NBasis=   268 RedAO= T EigKep=  1.12D-06  NBF=   268
 NBsUse=   267 1.00D-06 EigRej=  6.14D-07 NBFU=   267
 ExpMin= 4.38D-02 ExpMax= 4.56D+03 ExpMxC= 6.82D+02 IAcc=2 IRadAn=         4 AccDes= 0.00D+00
 Harris functional with IExCor=  402 and IRadAn=       4 diagonalized for initial guess.
 HarFok:  IExCor=  402 AccDes= 0.00D+00 IRadAn=         4 IDoV= 1 UseB2=F ITyADJ=14
 ICtDFT=  3500011 ScaDFX=  1.000000  1.000000  1.000000  1.000000
 FoFCou: FMM=F IPFlag=           0 FMFlag=      100000 FMFlg1=        2001
         NFxFlg=           0 DoJE=T BraDBF=F KetDBF=T FulRan=T
         wScrn=  0.000000 ICntrl=     500 IOpCl=  0 I1Cent=   200000004 NGrid=           0
         NMat0=    1 NMatS0=      1 NMatT0=    0 NMatD0=    1 NMtDS0=    0 NMtDT0=    0
 Symmetry not used in FoFCou.
 Requested convergence on RMS density matrix=1.00D-08 within 128 cycles.
 Requested convergence on MAX density matrix=1.00D-06.
 Requested convergence on             energy=1.00D-06.
 No special actions if energy rises.
 SCF Done:  E(RB3LYP) =  -385.985931946     A.U. after   11 cycles
            NFock= 11  Conv=0.78D-08     -V/T= 2.0059
 DoSCS=F DFT=T ScalE2(SS,OS)=  1.000000  1.000000
 Range of M.O.s used for correlation:     1   267
 NBasis=   268 NAE=    34 NBE=    34 NFC=     0 NFV=     0
 NROrb=    267 NOA=    34 NOB=    34 NVA=   233 NVB=   233

 **** Warning!!: The largest alpha MO coefficient is  0.20992188D+03

          Differentiating once with respect to magnetic field using GIAOs.
          Electric field/nuclear overlap derivatives assumed to be zero.
 FoFCou: FMM=F IPFlag=           0 FMFlag=      100000 FMFlg1=        2001
         NFxFlg=           0 DoJE=F BraDBF=F KetDBF=T FulRan=T
         wScrn=  0.000000 ICntrl=    6100 IOpCl=  0 I1Cent=           7 NGrid=         172
         NMat0=    1 NMatS0=      1 NMatT0=    0 NMatD0=    1 NMtDS0=    0 NMtDT0=    0
 Symmetry not used in FoFCou.
 FoFJK:  IHMeth= 1 ICntrl=    6127 DoSepK=F KAlg= 0 I1Cent=   0 FoldK=F
 IRaf=         1 NMat=   1 IRICut=       1 DoRegI=T DoRafI=F ISym2E= 0.
          There are     3 degrees of freedom in the 1st order CPHF.  IDoFFX=0 NUNeed=     3.
      3 vectors produced by pass  0 Test12= 2.64D-13 3.33D-08 XBig12= 1.44D+02 6.48D+00.
 AX will form     3 AO Fock derivatives at one time.
      3 vectors produced by pass  1 Test12= 2.64D-13 3.33D-08 XBig12= 2.28D-01 1.79D-01.
      3 vectors produced by pass  2 Test12= 2.64D-13 3.33D-08 XBig12= 7.58D-04 1.41D-02.
      3 vectors produced by pass  3 Test12= 2.64D-13 3.33D-08 XBig12= 2.19D-06 6.12D-04.
      3 vectors produced by pass  4 Test12= 2.64D-13 3.33D-08 XBig12= 2.99D-09 2.39D-05.
      3 vectors produced by pass  5 Test12= 2.64D-13 3.33D-08 XBig12= 6.15D-12 9.51D-07.
      1 vectors produced by pass  6 Test12= 2.64D-13 3.33D-08 XBig12= 9.29D-15 3.79D-08.
 InvSVY:  IOpt=1 It=  1 EMax= 1.78D-15
 Solved reduced A of dimension    19 with     3 vectors.
 Calculating GIAO nuclear magnetic shielding tensors.
 SCF GIAO Magnetic shielding tensor (ppm):
      1  C    Isotropic =    48.8814   Anisotropy =   178.3631
   XX=   -26.3877   YX=    47.3635   ZX=     0.0000
   XY=    49.5434   YY=     5.2417   ZY=     0.0000
   XZ=     0.0000   YZ=     0.0000   ZZ=   167.7901
   Eigenvalues:   -61.5420    40.3960   167.7901
      2  C    Isotropic =    48.8814   Anisotropy =   178.3631
   XX=   -26.3877   YX=   -47.3635   ZX=     0.0000
   XY=   -49.5434   YY=     5.2417   ZY=     0.0000
   XZ=     0.0000   YZ=     0.0000   ZZ=   167.7901
   Eigenvalues:   -61.5420    40.3960   167.7901
      3  C    Isotropic =    47.0315   Anisotropy =   159.6105
   XX=    39.7012   YX=   -14.9645   ZX=     0.0000
   XY=   -12.8373   YY=   -52.0452   ZY=     0.0000
   XZ=     0.0000   YZ=     0.0000   ZZ=   153.4385
   Eigenvalues:   -54.1051    41.7611   153.4385
      4  C    Isotropic =    40.3220   Anisotropy =   214.7654
   XX=   -33.3511   YX=     0.0000   ZX=     0.0000
   XY=     0.0000   YY=   -29.1819   ZY=     0.0000
   XZ=     0.0000   YZ=     0.0000   ZZ=   183.4989
   Eigenvalues:   -33.3511   -29.1819   183.4989
      5  C    Isotropic =    47.0315   Anisotropy =   159.6105
   XX=    39.7012   YX=    14.9645   ZX=     0.0000
   XY=    12.8373   YY=   -52.0452   ZY=     0.0000
   XZ=     0.0000   YZ=     0.0000   ZZ=   153.4385
   Eigenvalues:   -54.1051    41.7611   153.4385
      6  C    Isotropic =    48.8814   Anisotropy =   178.3631
   XX=   -26.3877   YX=    47.3635   ZX=     0.0000
   XY=    49.5434   YY=     5.2417   ZY=     0.0000
   XZ=     0.0000   YZ=     0.0000   ZZ=   167.7901
   Eigenvalues:   -61.5420    40.3960   167.7901
      7  C    Isotropic =    48.8814   Anisotropy =   178.3631
   XX=   -26.3877   YX=   -47.3635   ZX=     0.0000
   XY=   -49.5434   YY=     5.2417   ZY=     0.0000
   XZ=     0.0000   YZ=     0.0000   ZZ=   167.7901
   Eigenvalues:   -61.5420    40.3960   167.7901
      8  C    Isotropic =    47.0315   Anisotropy =   159.6105
   XX=    39.7012   YX=   -14.9645   ZX=     0.0000
   XY=   -12.8373   YY=   -52.0452   ZY=     0.0000
   XZ=     0.0000   YZ=     0.0000   ZZ=   153.4385
   Eigenvalues:   -54.1051    41.7611   153.4385
      9  C    Isotropic =    40.3220   Anisotropy =   214.7654
   XX=   -33.3511   YX=     0.0000   ZX=     0.0000
   XY=     0.0000   YY=   -29.1819   ZY=     0.0000
   XZ=     0.0000   YZ=     0.0000   ZZ=   183.4989
   Eigenvalues:   -33.3511   -29.1819   183.4989
     10  C    Isotropic =    47.0315   Anisotropy =   159.6105
   XX=    39.7012   YX=    14.9645   ZX=     0.0000
   XY=    12.8373   YY=   -52.0452   ZY=     0.0000
   XZ=     0.0000   YZ=     0.0000   ZZ=   153.4385
   Eigenvalues:   -54.1051    41.7611   153.4385
     11  H    Isotropic =    23.8865   Anisotropy =     5.6622
   XX=    25.3494   YX=     1.7328   ZX=     0.0000
   XY=     1.7216   YY=    26.3711   ZY=     0.0000
   XZ=     0.0000   YZ=     0.0000   ZZ=    19.9391
   Eigenvalues:    19.9391    24.0591    27.6614
     12  H    Isotropic =    23.8865   Anisotropy =     5.6622
   XX=    25.3494   YX=    -1.7328   ZX=     0.0000
   XY=    -1.7216   YY=    26.3711   ZY=     0.0000
   XZ=     0.0000   YZ=     0.0000   ZZ=    19.9391
   Eigenvalues:    19.9391    24.0591    27.6614
     13  H    Isotropic =    23.5289   Anisotropy =     7.4859
   XX=    28.4698   YX=    -0.2957   ZX=     0.0000
   XY=    -0.7473   YY=    23.0511   ZY=     0.0000
   XZ=     0.0000   YZ=     0.0000   ZZ=    19.0659
   Eigenvalues:    19.0659    23.0014    28.5196
     14  H    Isotropic =    23.5289   Anisotropy =     7.4859
   XX=    28.4698   YX=     0.2957   ZX=     0.0000
   XY=     0.7473   YY=    23.0511   ZY=     0.0000
   XZ=     0.0000   YZ=     0.0000   ZZ=    19.0659
   Eigenvalues:    19.0659    23.0014    28.5196
     15  H    Isotropic =    23.8865   Anisotropy =     5.6622
   XX=    25.3494   YX=     1.7328   ZX=     0.0000
   XY=     1.7216   YY=    26.3711   ZY=     0.0000
   XZ=     0.0000   YZ=     0.0000   ZZ=    19.9391
   Eigenvalues:    19.9391    24.0591    27.6614
     16  H    Isotropic =    23.8865   Anisotropy =     5.6622
   XX=    25.3494   YX=    -1.7328   ZX=     0.0000
   XY=    -1.7216   YY=    26.3711   ZY=     0.0000
   XZ=     0.0000   YZ=     0.0000   ZZ=    19.9391
   Eigenvalues:    19.9391    24.0591    27.6614
     17  H    Isotropic =    23.5289   Anisotropy =     7.4859
   XX=    28.4698   YX=    -0.2957   ZX=     0.0000
   XY=    -0.7473   YY=    23.0511   ZY=     0.0000
   XZ=     0.0000   YZ=     0.0000   ZZ=    19.0659
   Eigenvalues:    19.0659    23.0014    28.5196
     18  H    Isotropic =    23.5289   Anisotropy =     7.4859
   XX=    28.4698   YX=     0.2957   ZX=     0.0000
   XY=     0.7473   YY=    23.0511   ZY=     0.0000
   XZ=     0.0000   YZ=     0.0000   ZZ=    19.0659
   Eigenvalues:    19.0659    23.0014    28.5196
     19  Bq   Isotropic =    20.0550   Anisotropy =    29.3954
   XX=     8.4791   YX=    -0.5080   ZX=     1.5994
   XY=    -0.1792   YY=    12.0972   ZY=    -0.6458
   XZ=     1.1905   YZ=     0.9805   ZZ=    39.5886
   Eigenvalues:     8.3836    12.1295    39.6519
     20  Bq   Isotropic =    20.0550   Anisotropy =    29.3954
   XX=     8.4791   YX=    -0.5080   ZX=    -1.5994
   XY=    -0.1792   YY=    12.0972   ZY=     0.6458
   XZ=    -1.1905   YZ=    -0.9805   ZZ=    39.5886
   Eigenvalues:     8.3836    12.1295    39.6519
     21  Bq   Isotropic =    12.5426   Anisotropy =    29.1845
   XX=     1.3140   YX=     0.0000   ZX=    -0.3743
   XY=     0.0000   YY=     4.3601   ZY=     0.0000
   XZ=     2.7338   YZ=     0.0000   ZZ=    31.9535
   Eigenvalues:     1.2687     4.3601    31.9989
     22  Bq   Isotropic =    12.5426   Anisotropy =    29.1845
   XX=     1.3140   YX=     0.0000   ZX=     0.3743
   XY=     0.0000   YY=     4.3601   ZY=     0.0000
   XZ=    -2.7338   YZ=     0.0000   ZZ=    31.9535
   Eigenvalues:     1.2687     4.3601    31.9989
     23  Bq   Isotropic =    12.7790   Anisotropy =    29.0933
   XX=     1.7316   YX=    -0.2141   ZX=    -0.2331
   XY=    -0.3794   YY=     4.4843   ZY=    -0.6024
   XZ=     2.7643   YZ=     0.3375   ZZ=    32.1212
   Eigenvalues:     1.6491     4.5134    32.1746
     24  Bq   Isotropic =    12.7790   Anisotropy =    29.0933
   XX=     1.7316   YX=    -0.2141   ZX=     0.2331
   XY=    -0.3794   YY=     4.4843   ZY=     0.6024
   XZ=    -2.7643   YZ=    -0.3375   ZZ=    32.1212
   Eigenvalues:     1.6491     4.5134    32.1746
     25  Bq   Isotropic =    12.7790   Anisotropy =    29.0933
   XX=     1.7316   YX=     0.2141   ZX=    -0.2331
   XY=     0.3794   YY=     4.4843   ZY=     0.6024
   XZ=     2.7643   YZ=    -0.3375   ZZ=    32.1212
   Eigenvalues:     1.6491     4.5134    32.1746
     26  Bq   Isotropic =    12.7790   Anisotropy =    29.0933
   XX=     1.7316   YX=     0.2141   ZX=     0.2331
   XY=     0.3794   YY=     4.4843   ZY=    -0.6024
   XZ=    -2.7643   YZ=     0.3375   ZZ=    32.1212
   Eigenvalues:     1.6491     4.5134    32.1746
     27  Bq   Isotropic =    14.2240   Anisotropy =    29.1009
   XX=     3.6228   YX=     0.0174   ZX=     0.0254
   XY=    -0.2017   YY=     5.4825   ZY=    -0.8582
   XZ=     2.5744   YZ=     0.4439   ZZ=    33.5667
   Eigenvalues:     3.5629     5.4845    33.6246
     28  Bq   Isotropic =    14.2240   Anisotropy =    29.1009
   XX=     3.6228   YX=     0.0174   ZX=    -0.0254
   XY=    -0.2017   YY=     5.4825   ZY=     0.8582
   XZ=    -2.5744   YZ=    -0.4439   ZZ=    33.5667
   Eigenvalues:     3.5629     5.4845    33.6246
     29  Bq   Isotropic =    14.2240   Anisotropy =    29.1009
   XX=     3.6228   YX=    -0.0174   ZX=     0.0254
   XY=     0.2017   YY=     5.4825   ZY=     0.8582
   XZ=     2.5744   YZ=    -0.4439   ZZ=    33.5667
   Eigenvalues:     3.5629     5.4845    33.6246
     30  Bq   Isotropic =    14.2240   Anisotropy =    29.1009
   XX=     3.6228   YX=    -0.0174   ZX=    -0.0254
   XY=     0.2017   YY=     5.4825   ZY=    -0.8582
   XZ=    -2.5744   YZ=     0.4439   ZZ=    33.5667
   Eigenvalues:     3.5629     5.4845    33.6246
     31  Bq   Isotropic =    11.0977   Anisotropy =    28.3114
   XX=     0.7146   YX=     0.0000   ZX=    -0.1943
   XY=     0.0000   YY=     2.6913   ZY=     0.0000
   XZ=     3.3446   YZ=     0.0000   ZZ=    29.8872
   Eigenvalues:     0.6298     2.6913    29.9720
     32  Bq   Isotropic =    11.0977   Anisotropy =    28.3114
   XX=     0.7146   YX=     0.0000   ZX=     0.1943
   XY=     0.0000   YY=     2.6913   ZY=     0.0000
   XZ=    -3.3446   YZ=     0.0000   ZZ=    29.8872
   Eigenvalues:     0.6298     2.6913    29.9720
     33  Bq   Isotropic =    17.7033   Anisotropy =    28.5879
   XX=     9.4009   YX=     0.8636   ZX=    -0.0543
   XY=     1.0099   YY=     7.0024   ZY=     0.8876
   XZ=     2.2551   YZ=     0.1867   ZZ=    36.7065
   Eigenvalues:     6.6792     9.6688    36.7619
     34  Bq   Isotropic =    17.7033   Anisotropy =    28.5879
   XX=     9.4009   YX=     0.8636   ZX=     0.0543
   XY=     1.0099   YY=     7.0024   ZY=    -0.8876
   XZ=    -2.2551   YZ=    -0.1867   ZZ=    36.7065
   Eigenvalues:     6.6792     9.6688    36.7619
     35  Bq   Isotropic =    17.7033   Anisotropy =    28.5879
   XX=     9.4009   YX=    -0.8636   ZX=    -0.0543
   XY=    -1.0099   YY=     7.0024   ZY=    -0.8876
   XZ=     2.2551   YZ=    -0.1867   ZZ=    36.7065
   Eigenvalues:     6.6792     9.6688    36.7619
     36  Bq   Isotropic =    17.7033   Anisotropy =    28.5879
   XX=     9.4009   YX=    -0.8636   ZX=     0.0543
   XY=    -1.0099   YY=     7.0024   ZY=     0.8876
   XZ=    -2.2551   YZ=     0.1867   ZZ=    36.7065
   Eigenvalues:     6.6792     9.6688    36.7619
     37  Bq   Isotropic =    11.4020   Anisotropy =    28.3002
   XX=     1.2820   YX=     0.0514   ZX=    -0.0584
   XY=    -0.0628   YY=     2.7512   ZY=    -0.8162
   XZ=     3.3816   YZ=     0.5142   ZZ=    30.1726
   Eigenvalues:     1.1867     2.7504    30.2687
     38  Bq   Isotropic =    11.4020   Anisotropy =    28.3002
   XX=     1.2820   YX=     0.0514   ZX=     0.0584
   XY=    -0.0628   YY=     2.7512   ZY=     0.8162
   XZ=    -3.3816   YZ=    -0.5142   ZZ=    30.1726
   Eigenvalues:     1.1867     2.7504    30.2687
     39  Bq   Isotropic =    11.4020   Anisotropy =    28.3002
   XX=     1.2820   YX=    -0.0514   ZX=    -0.0584
   XY=     0.0628   YY=     2.7512   ZY=     0.8162
   XZ=     3.3816   YZ=    -0.5142   ZZ=    30.1726
   Eigenvalues:     1.1867     2.7504    30.2687
     40  Bq   Isotropic =    11.4020   Anisotropy =    28.3002
   XX=     1.2820   YX=    -0.0514   ZX=     0.0584
   XY=     0.0628   YY=     2.7512   ZY=    -0.8162
   XZ=    -3.3816   YZ=     0.5142   ZZ=    30.1726
   Eigenvalues:     1.1867     2.7504    30.2687
     41  Bq   Isotropic =    12.6950   Anisotropy =    28.2752
   XX=     3.5646   YX=     0.3727   ZX=     0.2634
   XY=     0.2543   YY=     3.1124   ZY=    -1.1018
   XZ=     3.6518   YZ=     0.9545   ZZ=    31.4081
   Eigenvalues:     2.9152     3.6248    31.5452
     42  Bq   Isotropic =    12.6950   Anisotropy =    28.2752
   XX=     3.5646   YX=     0.3727   ZX=    -0.2634
   XY=     0.2543   YY=     3.1124   ZY=     1.1018
   XZ=    -3.6518   YZ=    -0.9545   ZZ=    31.4081
   Eigenvalues:     2.9152     3.6248    31.5452
     43  Bq   Isotropic =    10.5208   Anisotropy =    27.8321
   XX=     0.7459   YX=     0.0000   ZX=     0.4585
   XY=     0.0000   YY=     1.9133   ZY=     0.0000
   XZ=     3.9592   YZ=     0.0000   ZZ=    28.9033
   Eigenvalues:     0.5737     1.9133    29.0756
     44  Bq   Isotropic =    10.5208   Anisotropy =    27.8321
   XX=     0.7459   YX=     0.0000   ZX=    -0.4585
   XY=     0.0000   YY=     1.9133   ZY=     0.0000
   XZ=    -3.9592   YZ=     0.0000   ZZ=    28.9033
   Eigenvalues:     0.5737     1.9133    29.0756
     45  Bq   Isotropic =    12.6950   Anisotropy =    28.2752
   XX=     3.5646   YX=    -0.3727   ZX=     0.2634
   XY=    -0.2543   YY=     3.1124   ZY=     1.1018
   XZ=     3.6518   YZ=    -0.9545   ZZ=    31.4081
   Eigenvalues:     2.9152     3.6248    31.5452
     46  Bq   Isotropic =    12.6950   Anisotropy =    28.2752
   XX=     3.5646   YX=    -0.3727   ZX=    -0.2634
   XY=    -0.2543   YY=     3.1124   ZY=    -1.1018
   XZ=    -3.6518   YZ=     0.9545   ZZ=    31.4081
   Eigenvalues:     2.9152     3.6248    31.5452
     47  Bq   Isotropic =    11.0554   Anisotropy =    27.9069
   XX=     1.6307   YX=     0.3108   ZX=     0.9157
   XY=     0.2308   YY=     2.1384   ZY=    -0.8246
   XZ=     4.5123   YZ=     0.6533   ZZ=    29.3971
   Eigenvalues:     1.2782     2.2280    29.6600
     48  Bq   Isotropic =    11.0554   Anisotropy =    27.9069
   XX=     1.6307   YX=     0.3108   ZX=    -0.9157
   XY=     0.2308   YY=     2.1384   ZY=     0.8246
   XZ=    -4.5123   YZ=    -0.6533   ZZ=    29.3971
   Eigenvalues:     1.2782     2.2280    29.6600
     49  Bq   Isotropic =    11.0554   Anisotropy =    27.9069
   XX=     1.6307   YX=    -0.3108   ZX=     0.9157
   XY=    -0.2308   YY=     2.1384   ZY=     0.8246
   XZ=     4.5123   YZ=    -0.6533   ZZ=    29.3971
   Eigenvalues:     1.2782     2.2280    29.6600
     50  Bq   Isotropic =    11.0554   Anisotropy =    27.9069
   XX=     1.6307   YX=    -0.3108   ZX=    -0.9157
   XY=    -0.2308   YY=     2.1384   ZY=    -0.8246
   XZ=    -4.5123   YZ=     0.6533   ZZ=    29.3971
   Eigenvalues:     1.2782     2.2280    29.6600
     51  Bq   Isotropic =    16.7066   Anisotropy =    28.1924
   XX=     9.3046   YX=     0.2127   ZX=     0.3864
   XY=     0.0254   YY=     5.5463   ZY=     0.7040
   XZ=     4.4262   YZ=     0.4531   ZZ=    35.2689
   Eigenvalues:     5.5336     9.0847    35.5015
     52  Bq   Isotropic =    16.7066   Anisotropy =    28.1924
   XX=     9.3046   YX=     0.2127   ZX=    -0.3864
   XY=     0.0254   YY=     5.5463   ZY=    -0.7040
   XZ=    -4.4262   YZ=    -0.4531   ZZ=    35.2689
   Eigenvalues:     5.5336     9.0847    35.5015
     53  Bq   Isotropic =    16.7066   Anisotropy =    28.1924
   XX=     9.3046   YX=    -0.2127   ZX=     0.3864
   XY=    -0.0254   YY=     5.5463   ZY=    -0.7040
   XZ=     4.4262   YZ=    -0.4531   ZZ=    35.2689
   Eigenvalues:     5.5336     9.0847    35.5015
     54  Bq   Isotropic =    16.7066   Anisotropy =    28.1924
   XX=     9.3046   YX=    -0.2127   ZX=    -0.3864
   XY=    -0.0254   YY=     5.5463   ZY=     0.7040
   XZ=    -4.4262   YZ=     0.4531   ZZ=    35.2689
   Eigenvalues:     5.5336     9.0847    35.5015
     55  Bq   Isotropic =    10.7141   Anisotropy =    27.8608
   XX=     1.1933   YX=     0.0000   ZX=     1.1810
   XY=     0.0000   YY=     1.9787   ZY=     0.0000
   XZ=     4.7920   YZ=     0.0000   ZZ=    28.9705
   Eigenvalues:     0.8758     1.9787    29.2880
     56  Bq   Isotropic =    10.7141   Anisotropy =    27.8608
   XX=     1.1933   YX=     0.0000   ZX=    -1.1810
   XY=     0.0000   YY=     1.9787   ZY=     0.0000
   XZ=    -4.7920   YZ=     0.0000   ZZ=    28.9705
   Eigenvalues:     0.8758     1.9787    29.2880
     57  Bq   Isotropic =    13.2128   Anisotropy =    28.1700
   XX=     4.1281   YX=     0.7237   ZX=     0.7546
   XY=     0.5905   YY=     3.8360   ZY=    -0.9922
   XZ=     5.2036   YZ=     0.8970   ZZ=    31.6743
   Eigenvalues:     3.1642     4.4813    31.9928
     58  Bq   Isotropic =    13.2128   Anisotropy =    28.1700
   XX=     4.1281   YX=     0.7237   ZX=    -0.7546
   XY=     0.5905   YY=     3.8360   ZY=     0.9922
   XZ=    -5.2036   YZ=    -0.8970   ZZ=    31.6743
   Eigenvalues:     3.1642     4.4813    31.9928
     59  Bq   Isotropic =    13.2128   Anisotropy =    28.1700
   XX=     4.1281   YX=    -0.7237   ZX=     0.7546
   XY=    -0.5905   YY=     3.8360   ZY=     0.9922
   XZ=     5.2036   YZ=    -0.8970   ZZ=    31.6743
   Eigenvalues:     3.1642     4.4813    31.9928
     60  Bq   Isotropic =    13.2128   Anisotropy =    28.1700
   XX=     4.1281   YX=    -0.7237   ZX=    -0.7546
   XY=    -0.5905   YY=     3.8360   ZY=    -0.9922
   XZ=    -5.2036   YZ=     0.8970   ZZ=    31.6743
   Eigenvalues:     3.1642     4.4813    31.9928
     61  Bq   Isotropic =    11.9825   Anisotropy =    28.2339
   XX=     2.5309   YX=     0.5720   ZX=     1.3099
   XY=     0.5033   YY=     3.0375   ZY=    -0.6614
   XZ=     5.6303   YZ=     0.6334   ZZ=    30.3791
   Eigenvalues:     1.8613     3.2811    30.8051
     62  Bq   Isotropic =    11.9825   Anisotropy =    28.2339
   XX=     2.5309   YX=     0.5720   ZX=    -1.3099
   XY=     0.5033   YY=     3.0375   ZY=     0.6614
   XZ=    -5.6303   YZ=    -0.6334   ZZ=    30.3791
   Eigenvalues:     1.8613     3.2811    30.8051
     63  Bq   Isotropic =    11.9825   Anisotropy =    28.2339
   XX=     2.5309   YX=    -0.5720   ZX=     1.3099
   XY=    -0.5033   YY=     3.0375   ZY=     0.6614
   XZ=     5.6303   YZ=    -0.6334   ZZ=    30.3791
   Eigenvalues:     1.8613     3.2811    30.8051
     64  Bq   Isotropic =    11.9825   Anisotropy =    28.2339
   XX=     2.5309   YX=    -0.5720   ZX=    -1.3099
   XY=    -0.5033   YY=     3.0375   ZY=    -0.6614
   XZ=    -5.6303   YZ=     0.6334   ZZ=    30.3791
   Eigenvalues:     1.8613     3.2811    30.8051
     65  Bq   Isotropic =    11.7952   Anisotropy =    28.3815
   XX=     2.2531   YX=     0.0000   ZX=     1.5923
   XY=     0.0000   YY=     2.9157   ZY=     0.0000
   XZ=     5.9487   YZ=     0.0000   ZZ=    30.2167
   Eigenvalues:     1.7536     2.9157    30.7162
     66  Bq   Isotropic =    11.7952   Anisotropy =    28.3815
   XX=     2.2531   YX=     0.0000   ZX=    -1.5923
   XY=     0.0000   YY=     2.9157   ZY=     0.0000
   XZ=    -5.9487   YZ=     0.0000   ZZ=    30.2167
   Eigenvalues:     1.7536     2.9157    30.7162
     67  Bq   Isotropic =    17.7010   Anisotropy =    27.9507
   XX=     8.4753   YX=     0.6238   ZX=    -0.7094
   XY=     0.3122   YY=     8.5604   ZY=    -0.0060
   XZ=     6.1599   YZ=    -0.4177   ZZ=    36.0672
   Eigenvalues:     7.8670     8.9011    36.3348
     68  Bq   Isotropic =    17.7010   Anisotropy =    27.9507
   XX=     8.4753   YX=     0.6238   ZX=     0.7094
   XY=     0.3122   YY=     8.5604   ZY=     0.0060
   XZ=    -6.1599   YZ=     0.4177   ZZ=    36.0672
   Eigenvalues:     7.8670     8.9011    36.3348
     69  Bq   Isotropic =    17.7010   Anisotropy =    27.9507
   XX=     8.4753   YX=    -0.6238   ZX=    -0.7094
   XY=    -0.3122   YY=     8.5604   ZY=     0.0060
   XZ=     6.1599   YZ=     0.4177   ZZ=    36.0672
   Eigenvalues:     7.8670     8.9011    36.3348
     70  Bq   Isotropic =    17.7010   Anisotropy =    27.9507
   XX=     8.4753   YX=    -0.6238   ZX=     0.7094
   XY=    -0.3122   YY=     8.5604   ZY=    -0.0060
   XZ=    -6.1599   YZ=    -0.4177   ZZ=    36.0672
   Eigenvalues:     7.8670     8.9011    36.3348
     71  Bq   Isotropic =    15.4721   Anisotropy =    28.2592
   XX=     5.7926   YX=     1.4799   ZX=    -0.1446
   XY=     1.3448   YY=     6.6749   ZY=    -0.3823
   XZ=     6.5657   YZ=     0.4374   ZZ=    33.9489
   Eigenvalues:     4.5204     7.5844    34.3116
     72  Bq   Isotropic =    15.4721   Anisotropy =    28.2592
   XX=     5.7926   YX=     1.4799   ZX=     0.1446
   XY=     1.3448   YY=     6.6749   ZY=     0.3823
   XZ=    -6.5657   YZ=    -0.4374   ZZ=    33.9489
   Eigenvalues:     4.5204     7.5844    34.3116
     73  Bq   Isotropic =    15.4721   Anisotropy =    28.2592
   XX=     5.7926   YX=    -1.4799   ZX=    -0.1446
   XY=    -1.3448   YY=     6.6749   ZY=     0.3823
   XZ=     6.5657   YZ=    -0.4374   ZZ=    33.9489
   Eigenvalues:     4.5204     7.5844    34.3116
     74  Bq   Isotropic =    15.4721   Anisotropy =    28.2592
   XX=     5.7926   YX=    -1.4799   ZX=     0.1446
   XY=    -1.3448   YY=     6.6749   ZY=    -0.3823
   XZ=    -6.5657   YZ=     0.4374   ZZ=    33.9489
   Eigenvalues:     4.5204     7.5844    34.3116
     75  Bq   Isotropic =    14.3696   Anisotropy =    28.9528
   XX=     4.7484   YX=     1.1350   ZX=     0.8895
   XY=     1.0606   YY=     5.2523   ZY=    -0.0985
   XZ=     7.1524   YZ=     0.4999   ZZ=    33.1081
   Eigenvalues:     3.5341     5.9032    33.6715
     76  Bq   Isotropic =    14.3696   Anisotropy =    28.9528
   XX=     4.7484   YX=     1.1350   ZX=    -0.8895
   XY=     1.0606   YY=     5.2523   ZY=     0.0985
   XZ=    -7.1524   YZ=    -0.4999   ZZ=    33.1081
   Eigenvalues:     3.5341     5.9032    33.6715
     77  Bq   Isotropic =    14.3696   Anisotropy =    28.9528
   XX=     4.7484   YX=    -1.1350   ZX=     0.8895
   XY=    -1.0606   YY=     5.2523   ZY=     0.0985
   XZ=     7.1524   YZ=    -0.4999   ZZ=    33.1081
   Eigenvalues:     3.5341     5.9032    33.6715
     78  Bq   Isotropic =    14.3696   Anisotropy =    28.9528
   XX=     4.7484   YX=    -1.1350   ZX=    -0.8895
   XY=    -1.0606   YY=     5.2523   ZY=    -0.0985
   XZ=    -7.1524   YZ=     0.4999   ZZ=    33.1081
   Eigenvalues:     3.5341     5.9032    33.6715
     79  Bq   Isotropic =    14.0892   Anisotropy =    29.2856
   XX=     4.5405   YX=     0.0000   ZX=     1.3356
   XY=     0.0000   YY=     4.7659   ZY=     0.0000
   XZ=     7.3702   YZ=     0.0000   ZZ=    32.9612
   Eigenvalues:     3.8888     4.7659    33.6129
     80  Bq   Isotropic =    14.0892   Anisotropy =    29.2856
   XX=     4.5405   YX=     0.0000   ZX=    -1.3356
   XY=     0.0000   YY=     4.7659   ZY=     0.0000
   XZ=    -7.3702   YZ=     0.0000   ZZ=    32.9612
   Eigenvalues:     3.8888     4.7659    33.6129
     81  Bq   Isotropic =    18.2346   Anisotropy =    29.9002
   XX=     8.8666   YX=     2.2876   ZX=    -0.6801
   XY=     2.1118   YY=     8.2228   ZY=     1.1657
   XZ=     8.4704   YZ=     0.3166   ZZ=    37.6144
   Eigenvalues:     6.1849    10.3509    38.1681
     82  Bq   Isotropic =    18.2346   Anisotropy =    29.9002
   XX=     8.8666   YX=     2.2876   ZX=     0.6801
   XY=     2.1118   YY=     8.2228   ZY=    -1.1657
   XZ=    -8.4704   YZ=    -0.3166   ZZ=    37.6144
   Eigenvalues:     6.1849    10.3509    38.1681
     83  Bq   Isotropic =    18.2346   Anisotropy =    29.9002
   XX=     8.8666   YX=    -2.2876   ZX=    -0.6801
   XY=    -2.1118   YY=     8.2228   ZY=    -1.1657
   XZ=     8.4704   YZ=    -0.3166   ZZ=    37.6144
   Eigenvalues:     6.1849    10.3509    38.1681
     84  Bq   Isotropic =    18.2346   Anisotropy =    29.9002
   XX=     8.8666   YX=    -2.2876   ZX=     0.6801
   XY=    -2.1118   YY=     8.2228   ZY=     1.1657
   XZ=    -8.4704   YZ=     0.3166   ZZ=    37.6144
   Eigenvalues:     6.1849    10.3509    38.1681
     85  Bq   Isotropic =    17.9862   Anisotropy =    30.5305
   XX=     8.9924   YX=     0.0000   ZX=     0.1809
   XY=     0.0000   YY=     7.2996   ZY=     0.0000
   XZ=     8.7094   YZ=     0.0000   ZZ=    37.6666
   Eigenvalues:     7.2996     8.3192    38.3398
     86  Bq   Isotropic =    17.9862   Anisotropy =    30.5305
   XX=     8.9924   YX=     0.0000   ZX=    -0.1809
   XY=     0.0000   YY=     7.2996   ZY=     0.0000
   XZ=    -8.7094   YZ=     0.0000   ZZ=    37.6666
   Eigenvalues:     7.2996     8.3192    38.3398
     87  Bq   Isotropic =    17.9862   Anisotropy =    30.5305
   XX=     8.9924   YX=     0.0000   ZX=    -0.1809
   XY=     0.0000   YY=     7.2996   ZY=     0.0000
   XZ=    -8.7094   YZ=     0.0000   ZZ=    37.6666
   Eigenvalues:     7.2996     8.3192    38.3398
     88  Bq   Isotropic =    17.9862   Anisotropy =    30.5305
   XX=     8.9924   YX=     0.0000   ZX=     0.1809
   XY=     0.0000   YY=     7.2996   ZY=     0.0000
   XZ=     8.7094   YZ=     0.0000   ZZ=    37.6666
   Eigenvalues:     7.2996     8.3192    38.3398
     89  Bq   Isotropic =    18.2346   Anisotropy =    29.9002
   XX=     8.8666   YX=    -2.2876   ZX=     0.6801
   XY=    -2.1118   YY=     8.2228   ZY=     1.1657
   XZ=    -8.4704   YZ=     0.3166   ZZ=    37.6144
   Eigenvalues:     6.1849    10.3509    38.1681
     90  Bq   Isotropic =    18.2346   Anisotropy =    29.9002
   XX=     8.8666   YX=    -2.2876   ZX=    -0.6801
   XY=    -2.1118   YY=     8.2228   ZY=    -1.1657
   XZ=     8.4704   YZ=    -0.3166   ZZ=    37.6144
   Eigenvalues:     6.1849    10.3509    38.1681
     91  Bq   Isotropic =    18.2346   Anisotropy =    29.9002
   XX=     8.8666   YX=     2.2876   ZX=     0.6801
   XY=     2.1118   YY=     8.2228   ZY=    -1.1657
   XZ=    -8.4704   YZ=    -0.3166   ZZ=    37.6144
   Eigenvalues:     6.1849    10.3509    38.1681
     92  Bq   Isotropic =    18.2346   Anisotropy =    29.9002
   XX=     8.8666   YX=     2.2876   ZX=    -0.6801
   XY=     2.1118   YY=     8.2228   ZY=     1.1657
   XZ=     8.4704   YZ=     0.3166   ZZ=    37.6144
   Eigenvalues:     6.1849    10.3509    38.1681
     93  Bq   Isotropic =    14.0892   Anisotropy =    29.2856
   XX=     4.5405   YX=     0.0000   ZX=    -1.3356
   XY=     0.0000   YY=     4.7659   ZY=     0.0000
   XZ=    -7.3702   YZ=     0.0000   ZZ=    32.9612
   Eigenvalues:     3.8888     4.7659    33.6129
     94  Bq   Isotropic =    14.0892   Anisotropy =    29.2856
   XX=     4.5405   YX=     0.0000   ZX=     1.3356
   XY=     0.0000   YY=     4.7659   ZY=     0.0000
   XZ=     7.3702   YZ=     0.0000   ZZ=    32.9612
   Eigenvalues:     3.8888     4.7659    33.6129
     95  Bq   Isotropic =    14.3696   Anisotropy =    28.9528
   XX=     4.7484   YX=    -1.1350   ZX=    -0.8895
   XY=    -1.0606   YY=     5.2523   ZY=    -0.0985
   XZ=    -7.1524   YZ=     0.4999   ZZ=    33.1081
   Eigenvalues:     3.5341     5.9032    33.6715
     96  Bq   Isotropic =    14.3696   Anisotropy =    28.9528
   XX=     4.7484   YX=    -1.1350   ZX=     0.8895
   XY=    -1.0606   YY=     5.2523   ZY=     0.0985
   XZ=     7.1524   YZ=    -0.4999   ZZ=    33.1081
   Eigenvalues:     3.5341     5.9032    33.6715
     97  Bq   Isotropic =    14.3696   Anisotropy =    28.9528
   XX=     4.7484   YX=     1.1350   ZX=    -0.8895
   XY=     1.0606   YY=     5.2523   ZY=     0.0985
   XZ=    -7.1524   YZ=    -0.4999   ZZ=    33.1081
   Eigenvalues:     3.5341     5.9032    33.6715
     98  Bq   Isotropic =    14.3696   Anisotropy =    28.9528
   XX=     4.7484   YX=     1.1350   ZX=     0.8895
   XY=     1.0606   YY=     5.2523   ZY=    -0.0985
   XZ=     7.1524   YZ=     0.4999   ZZ=    33.1081
   Eigenvalues:     3.5341     5.9032    33.6715
     99  Bq   Isotropic =    15.4721   Anisotropy =    28.2592
   XX=     5.7926   YX=    -1.4799   ZX=     0.1446
   XY=    -1.3448   YY=     6.6749   ZY=    -0.3823
   XZ=    -6.5657   YZ=     0.4374   ZZ=    33.9489
   Eigenvalues:     4.5204     7.5844    34.3116
    100  Bq   Isotropic =    15.4721   Anisotropy =    28.2592
   XX=     5.7926   YX=    -1.4799   ZX=    -0.1446
   XY=    -1.3448   YY=     6.6749   ZY=     0.3823
   XZ=     6.5657   YZ=    -0.4374   ZZ=    33.9489
   Eigenvalues:     4.5204     7.5844    34.3116
    101  Bq   Isotropic =    15.4721   Anisotropy =    28.2592
   XX=     5.7926   YX=     1.4799   ZX=     0.1446
   XY=     1.3448   YY=     6.6749   ZY=     0.3823
   XZ=    -6.5657   YZ=    -0.4374   ZZ=    33.9489
   Eigenvalues:     4.5204     7.5844    34.3116
    102  Bq   Isotropic =    15.4721   Anisotropy =    28.2592
   XX=     5.7926   YX=     1.4799   ZX=    -0.1446
   XY=     1.3448   YY=     6.6749   ZY=    -0.3823
   XZ=     6.5657   YZ=     0.4374   ZZ=    33.9489
   Eigenvalues:     4.5204     7.5844    34.3116
    103  Bq   Isotropic =    17.7010   Anisotropy =    27.9507
   XX=     8.4753   YX=    -0.6238   ZX=     0.7094
   XY=    -0.3122   YY=     8.5604   ZY=    -0.0060
   XZ=    -6.1599   YZ=    -0.4177   ZZ=    36.0672
   Eigenvalues:     7.8670     8.9011    36.3348
    104  Bq   Isotropic =    17.7010   Anisotropy =    27.9507
   XX=     8.4753   YX=    -0.6238   ZX=    -0.7094
   XY=    -0.3122   YY=     8.5604   ZY=     0.0060
   XZ=     6.1599   YZ=     0.4177   ZZ=    36.0672
   Eigenvalues:     7.8670     8.9011    36.3348
    105  Bq   Isotropic =    17.7010   Anisotropy =    27.9507
   XX=     8.4753   YX=     0.6238   ZX=     0.7094
   XY=     0.3122   YY=     8.5604   ZY=     0.0060
   XZ=    -6.1599   YZ=     0.4177   ZZ=    36.0672
   Eigenvalues:     7.8670     8.9011    36.3348
    106  Bq   Isotropic =    17.7010   Anisotropy =    27.9507
   XX=     8.4753   YX=     0.6238   ZX=    -0.7094
   XY=     0.3122   YY=     8.5604   ZY=    -0.0060
   XZ=     6.1599   YZ=    -0.4177   ZZ=    36.0672
   Eigenvalues:     7.8670     8.9011    36.3348
    107  Bq   Isotropic =    11.7952   Anisotropy =    28.3815
   XX=     2.2531   YX=     0.0000   ZX=    -1.5923
   XY=     0.0000   YY=     2.9157   ZY=     0.0000
   XZ=    -5.9487   YZ=     0.0000   ZZ=    30.2167
   Eigenvalues:     1.7536     2.9157    30.7162
    108  Bq   Isotropic =    11.7952   Anisotropy =    28.3815
   XX=     2.2531   YX=     0.0000   ZX=     1.5923
   XY=     0.0000   YY=     2.9157   ZY=     0.0000
   XZ=     5.9487   YZ=     0.0000   ZZ=    30.2167
   Eigenvalues:     1.7536     2.9157    30.7162
    109  Bq   Isotropic =    11.9825   Anisotropy =    28.2339
   XX=     2.5309   YX=    -0.5720   ZX=    -1.3099
   XY=    -0.5033   YY=     3.0375   ZY=    -0.6614
   XZ=    -5.6303   YZ=     0.6334   ZZ=    30.3791
   Eigenvalues:     1.8613     3.2811    30.8051
    110  Bq   Isotropic =    11.9825   Anisotropy =    28.2339
   XX=     2.5309   YX=    -0.5720   ZX=     1.3099
   XY=    -0.5033   YY=     3.0375   ZY=     0.6614
   XZ=     5.6303   YZ=    -0.6334   ZZ=    30.3791
   Eigenvalues:     1.8613     3.2811    30.8051
    111  Bq   Isotropic =    11.9825   Anisotropy =    28.2339
   XX=     2.5309   YX=     0.5720   ZX=    -1.3099
   XY=     0.5033   YY=     3.0375   ZY=     0.6614
   XZ=    -5.6303   YZ=    -0.6334   ZZ=    30.3791
   Eigenvalues:     1.8613     3.2811    30.8051
    112  Bq   Isotropic =    11.9825   Anisotropy =    28.2339
   XX=     2.5309   YX=     0.5720   ZX=     1.3099
   XY=     0.5033   YY=     3.0375   ZY=    -0.6614
   XZ=     5.6303   YZ=     0.6334   ZZ=    30.3791
   Eigenvalues:     1.8613     3.2811    30.8051
    113  Bq   Isotropic =    13.2128   Anisotropy =    28.1700
   XX=     4.1281   YX=    -0.7237   ZX=    -0.7546
   XY=    -0.5905   YY=     3.8360   ZY=    -0.9922
   XZ=    -5.2036   YZ=     0.8970   ZZ=    31.6743
   Eigenvalues:     3.1642     4.4813    31.9928
    114  Bq   Isotropic =    13.2128   Anisotropy =    28.1700
   XX=     4.1281   YX=    -0.7237   ZX=     0.7546
   XY=    -0.5905   YY=     3.8360   ZY=     0.9922
   XZ=     5.2036   YZ=    -0.8970   ZZ=    31.6743
   Eigenvalues:     3.1642     4.4813    31.9928
    115  Bq   Isotropic =    13.2128   Anisotropy =    28.1700
   XX=     4.1281   YX=     0.7237   ZX=    -0.7546
   XY=     0.5905   YY=     3.8360   ZY=     0.9922
   XZ=    -5.2036   YZ=    -0.8970   ZZ=    31.6743
   Eigenvalues:     3.1642     4.4813    31.9928
    116  Bq   Isotropic =    13.2128   Anisotropy =    28.1700
   XX=     4.1281   YX=     0.7237   ZX=     0.7546
   XY=     0.5905   YY=     3.8360   ZY=    -0.9922
   XZ=     5.2036   YZ=     0.8970   ZZ=    31.6743
   Eigenvalues:     3.1642     4.4813    31.9928
    117  Bq   Isotropic =    10.7141   Anisotropy =    27.8608
   XX=     1.1933   YX=     0.0000   ZX=    -1.1810
   XY=     0.0000   YY=     1.9787   ZY=     0.0000
   XZ=    -4.7920   YZ=     0.0000   ZZ=    28.9705
   Eigenvalues:     0.8758     1.9787    29.2880
    118  Bq   Isotropic =    10.7141   Anisotropy =    27.8608
   XX=     1.1933   YX=     0.0000   ZX=     1.1810
   XY=     0.0000   YY=     1.9787   ZY=     0.0000
   XZ=     4.7920   YZ=     0.0000   ZZ=    28.9705
   Eigenvalues:     0.8758     1.9787    29.2880
    119  Bq   Isotropic =    16.7066   Anisotropy =    28.1924
   XX=     9.3046   YX=    -0.2127   ZX=    -0.3864
   XY=    -0.0254   YY=     5.5463   ZY=     0.7040
   XZ=    -4.4262   YZ=     0.4531   ZZ=    35.2689
   Eigenvalues:     5.5336     9.0847    35.5015
    120  Bq   Isotropic =    16.7066   Anisotropy =    28.1924
   XX=     9.3046   YX=    -0.2127   ZX=     0.3864
   XY=    -0.0254   YY=     5.5463   ZY=    -0.7040
   XZ=     4.4262   YZ=    -0.4531   ZZ=    35.2689
   Eigenvalues:     5.5336     9.0847    35.5015
    121  Bq   Isotropic =    16.7066   Anisotropy =    28.1924
   XX=     9.3046   YX=     0.2127   ZX=    -0.3864
   XY=     0.0254   YY=     5.5463   ZY=    -0.7040
   XZ=    -4.4262   YZ=    -0.4531   ZZ=    35.2689
   Eigenvalues:     5.5336     9.0847    35.5015
    122  Bq   Isotropic =    16.7066   Anisotropy =    28.1924
   XX=     9.3046   YX=     0.2127   ZX=     0.3864
   XY=     0.0254   YY=     5.5463   ZY=     0.7040
   XZ=     4.4262   YZ=     0.4531   ZZ=    35.2689
   Eigenvalues:     5.5336     9.0847    35.5015
    123  Bq   Isotropic =    11.0554   Anisotropy =    27.9069
   XX=     1.6307   YX=    -0.3108   ZX=    -0.9157
   XY=    -0.2308   YY=     2.1384   ZY=    -0.8246
   XZ=    -4.5123   YZ=     0.6533   ZZ=    29.3971
   Eigenvalues:     1.2782     2.2280    29.6600
    124  Bq   Isotropic =    11.0554   Anisotropy =    27.9069
   XX=     1.6307   YX=    -0.3108   ZX=     0.9157
   XY=    -0.2308   YY=     2.1384   ZY=     0.8246
   XZ=     4.5123   YZ=    -0.6533   ZZ=    29.3971
   Eigenvalues:     1.2782     2.2280    29.6600
    125  Bq   Isotropic =    11.0554   Anisotropy =    27.9069
   XX=     1.6307   YX=     0.3108   ZX=    -0.9157
   XY=     0.2308   YY=     2.1384   ZY=     0.8246
   XZ=    -4.5123   YZ=    -0.6533   ZZ=    29.3971
   Eigenvalues:     1.2782     2.2280    29.6600
    126  Bq   Isotropic =    11.0554   Anisotropy =    27.9069
   XX=     1.6307   YX=     0.3108   ZX=     0.9157
   XY=     0.2308   YY=     2.1384   ZY=    -0.8246
   XZ=     4.5123   YZ=     0.6533   ZZ=    29.3971
   Eigenvalues:     1.2782     2.2280    29.6600
    127  Bq   Isotropic =    12.6950   Anisotropy =    28.2752
   XX=     3.5646   YX=    -0.3727   ZX=    -0.2634
   XY=    -0.2543   YY=     3.1124   ZY=    -1.1018
   XZ=    -3.6518   YZ=     0.9545   ZZ=    31.4081
   Eigenvalues:     2.9152     3.6248    31.5452
    128  Bq   Isotropic =    12.6950   Anisotropy =    28.2752
   XX=     3.5646   YX=    -0.3727   ZX=     0.2634
   XY=    -0.2543   YY=     3.1124   ZY=     1.1018
   XZ=     3.6518   YZ=    -0.9545   ZZ=    31.4081
   Eigenvalues:     2.9152     3.6248    31.5452
    129  Bq   Isotropic =    10.5208   Anisotropy =    27.8321
   XX=     0.7459   YX=     0.0000   ZX=    -0.4585
   XY=     0.0000   YY=     1.9133   ZY=     0.0000
   XZ=    -3.9592   YZ=     0.0000   ZZ=    28.9033
   Eigenvalues:     0.5737     1.9133    29.0756
    130  Bq   Isotropic =    10.5208   Anisotropy =    27.8321
   XX=     0.7459   YX=     0.0000   ZX=     0.4585
   XY=     0.0000   YY=     1.9133   ZY=     0.0000
   XZ=     3.9592   YZ=     0.0000   ZZ=    28.9033
   Eigenvalues:     0.5737     1.9133    29.0756
    131  Bq   Isotropic =    12.6950   Anisotropy =    28.2752
   XX=     3.5646   YX=     0.3727   ZX=    -0.2634
   XY=     0.2543   YY=     3.1124   ZY=     1.1018
   XZ=    -3.6518   YZ=    -0.9545   ZZ=    31.4081
   Eigenvalues:     2.9152     3.6248    31.5452
    132  Bq   Isotropic =    12.6950   Anisotropy =    28.2752
   XX=     3.5646   YX=     0.3727   ZX=     0.2634
   XY=     0.2543   YY=     3.1124   ZY=    -1.1018
   XZ=     3.6518   YZ=     0.9545   ZZ=    31.4081
   Eigenvalues:     2.9152     3.6248    31.5452
    133  Bq   Isotropic =    11.4020   Anisotropy =    28.3002
   XX=     1.2820   YX=    -0.0514   ZX=     0.0584
   XY=     0.0628   YY=     2.7512   ZY=    -0.8162
   XZ=    -3.3816   YZ=     0.5142   ZZ=    30.1726
   Eigenvalues:     1.1867     2.7504    30.2687
    134  Bq   Isotropic =    11.4020   Anisotropy =    28.3002
   XX=     1.2820   YX=    -0.0514   ZX=    -0.0584
   XY=     0.0628   YY=     2.7512   ZY=     0.8162
   XZ=     3.3816   YZ=    -0.5142   ZZ=    30.1726
   Eigenvalues:     1.1867     2.7504    30.2687
    135  Bq   Isotropic =    11.4020   Anisotropy =    28.3002
   XX=     1.2820   YX=     0.0514   ZX=     0.0584
   XY=    -0.0628   YY=     2.7512   ZY=     0.8162
   XZ=    -3.3816   YZ=    -0.5142   ZZ=    30.1726
   Eigenvalues:     1.1867     2.7504    30.2687
    136  Bq   Isotropic =    11.4020   Anisotropy =    28.3002
   XX=     1.2820   YX=     0.0514   ZX=    -0.0584
   XY=    -0.0628   YY=     2.7512   ZY=    -0.8162
   XZ=     3.3816   YZ=     0.5142   ZZ=    30.1726
   Eigenvalues:     1.1867     2.7504    30.2687
    137  Bq   Isotropic =    17.7033   Anisotropy =    28.5879
   XX=     9.4009   YX=    -0.8636   ZX=     0.0543
   XY=    -1.0099   YY=     7.0024   ZY=     0.8876
   XZ=    -2.2551   YZ=     0.1867   ZZ=    36.7065
   Eigenvalues:     6.6792     9.6688    36.7619
    138  Bq   Isotropic =    17.7033   Anisotropy =    28.5879
   XX=     9.4009   YX=    -0.8636   ZX=    -0.0543
   XY=    -1.0099   YY=     7.0024   ZY=    -0.8876
   XZ=     2.2551   YZ=    -0.1867   ZZ=    36.7065
   Eigenvalues:     6.6792     9.6688    36.7619
    139  Bq   Isotropic =    17.7033   Anisotropy =    28.5879
   XX=     9.4009   YX=     0.8636   ZX=     0.0543
   XY=     1.0099   YY=     7.0024   ZY=    -0.8876
   XZ=    -2.2551   YZ=    -0.1867   ZZ=    36.7065
   Eigenvalues:     6.6792     9.6688    36.7619
    140  Bq   Isotropic =    17.7033   Anisotropy =    28.5879
   XX=     9.4009   YX=     0.8636   ZX=    -0.0543
   XY=     1.0099   YY=     7.0024   ZY=     0.8876
   XZ=     2.2551   YZ=     0.1867   ZZ=    36.7065
   Eigenvalues:     6.6792     9.6688    36.7619
    141  Bq   Isotropic =    11.0977   Anisotropy =    28.3114
   XX=     0.7146   YX=     0.0000   ZX=     0.1943
   XY=     0.0000   YY=     2.6913   ZY=     0.0000
   XZ=    -3.3446   YZ=     0.0000   ZZ=    29.8872
   Eigenvalues:     0.6298     2.6913    29.9720
    142  Bq   Isotropic =    11.0977   Anisotropy =    28.3114
   XX=     0.7146   YX=     0.0000   ZX=    -0.1943
   XY=     0.0000   YY=     2.6913   ZY=     0.0000
   XZ=     3.3446   YZ=     0.0000   ZZ=    29.8872
   Eigenvalues:     0.6298     2.6913    29.9720
    143  Bq   Isotropic =    14.2240   Anisotropy =    29.1009
   XX=     3.6228   YX=    -0.0174   ZX=    -0.0254
   XY=     0.2017   YY=     5.4825   ZY=    -0.8582
   XZ=    -2.5744   YZ=     0.4439   ZZ=    33.5667
   Eigenvalues:     3.5629     5.4845    33.6246
    144  Bq   Isotropic =    14.2240   Anisotropy =    29.1009
   XX=     3.6228   YX=    -0.0174   ZX=     0.0254
   XY=     0.2017   YY=     5.4825   ZY=     0.8582
   XZ=     2.5744   YZ=    -0.4439   ZZ=    33.5667
   Eigenvalues:     3.5629     5.4845    33.6246
    145  Bq   Isotropic =    14.2240   Anisotropy =    29.1009
   XX=     3.6228   YX=     0.0174   ZX=    -0.0254
   XY=    -0.2017   YY=     5.4825   ZY=     0.8582
   XZ=    -2.5744   YZ=    -0.4439   ZZ=    33.5667
   Eigenvalues:     3.5629     5.4845    33.6246
    146  Bq   Isotropic =    14.2240   Anisotropy =    29.1009
   XX=     3.6228   YX=     0.0174   ZX=     0.0254
   XY=    -0.2017   YY=     5.4825   ZY=    -0.8582
   XZ=     2.5744   YZ=     0.4439   ZZ=    33.5667
   Eigenvalues:     3.5629     5.4845    33.6246
    147  Bq   Isotropic =    12.7790   Anisotropy =    29.0933
   XX=     1.7316   YX=     0.2141   ZX=     0.2331
   XY=     0.3794   YY=     4.4843   ZY=    -0.6024
   XZ=    -2.7643   YZ=     0.3375   ZZ=    32.1212
   Eigenvalues:     1.6491     4.5134    32.1746
    148  Bq   Isotropic =    12.7790   Anisotropy =    29.0933
   XX=     1.7316   YX=     0.2141   ZX=    -0.2331
   XY=     0.3794   YY=     4.4843   ZY=     0.6024
   XZ=     2.7643   YZ=    -0.3375   ZZ=    32.1212
   Eigenvalues:     1.6491     4.5134    32.1746
    149  Bq   Isotropic =    12.7790   Anisotropy =    29.0933
   XX=     1.7316   YX=    -0.2141   ZX=     0.2331
   XY=    -0.3794   YY=     4.4843   ZY=     0.6024
   XZ=    -2.7643   YZ=    -0.3375   ZZ=    32.1212
   Eigenvalues:     1.6491     4.5134    32.1746
    150  Bq   Isotropic =    12.7790   Anisotropy =    29.0933
   XX=     1.7316   YX=    -0.2141   ZX=    -0.2331
   XY=    -0.3794   YY=     4.4843   ZY=    -0.6024
   XZ=     2.7643   YZ=     0.3375   ZZ=    32.1212
   Eigenvalues:     1.6491     4.5134    32.1746
    151  Bq   Isotropic =    12.5426   Anisotropy =    29.1845
   XX=     1.3140   YX=     0.0000   ZX=     0.3743
   XY=     0.0000   YY=     4.3601   ZY=     0.0000
   XZ=    -2.7338   YZ=     0.0000   ZZ=    31.9535
   Eigenvalues:     1.2687     4.3601    31.9989
    152  Bq   Isotropic =    12.5426   Anisotropy =    29.1845
   XX=     1.3140   YX=     0.0000   ZX=    -0.3743
   XY=     0.0000   YY=     4.3601   ZY=     0.0000
   XZ=     2.7338   YZ=     0.0000   ZZ=    31.9535
   Eigenvalues:     1.2687     4.3601    31.9989
    153  Bq   Isotropic =    20.0550   Anisotropy =    29.3954
   XX=     8.4791   YX=    -0.5080   ZX=    -1.5994
   XY=    -0.1792   YY=    12.0972   ZY=     0.6458
   XZ=    -1.1905   YZ=    -0.9805   ZZ=    39.5886
   Eigenvalues:     8.3836    12.1295    39.6519
    154  Bq   Isotropic =    20.0550   Anisotropy =    29.3954
   XX=     8.4791   YX=    -0.5080   ZX=     1.5994
   XY=    -0.1792   YY=    12.0972   ZY=    -0.6458
   XZ=     1.1905   YZ=     0.9805   ZZ=    39.5886
   Eigenvalues:     8.3836    12.1295    39.6519
    155  Bq   Isotropic =    20.0550   Anisotropy =    29.3954
   XX=     8.4791   YX=     0.5080   ZX=    -1.5994
   XY=     0.1792   YY=    12.0972   ZY=    -0.6458
   XZ=    -1.1905   YZ=     0.9805   ZZ=    39.5886
   Eigenvalues:     8.3836    12.1295    39.6519
    156  Bq   Isotropic =    20.0550   Anisotropy =    29.3954
   XX=     8.4791   YX=     0.5080   ZX=     1.5994
   XY=     0.1792   YY=    12.0972   ZY=     0.6458
   XZ=     1.1905   YZ=    -0.9805   ZZ=    39.5886
   Eigenvalues:     8.3836    12.1295    39.6519
    157  Bq   Isotropic =    17.1866   Anisotropy =    29.8413
   XX=     5.0159   YX=     0.7384   ZX=    -1.4363
   XY=     1.1595   YY=     9.5416   ZY=     0.0545
   XZ=    -1.7287   YZ=    -0.1425   ZZ=    37.0024
   Eigenvalues:     4.7511     9.7280    37.0808
    158  Bq   Isotropic =    17.1866   Anisotropy =    29.8413
   XX=     5.0159   YX=     0.7384   ZX=     1.4363
   XY=     1.1595   YY=     9.5416   ZY=    -0.0545
   XZ=     1.7287   YZ=     0.1425   ZZ=    37.0024
   Eigenvalues:     4.7511     9.7280    37.0808
    159  Bq   Isotropic =    17.1866   Anisotropy =    29.8413
   XX=     5.0159   YX=    -0.7384   ZX=    -1.4363
   XY=    -1.1595   YY=     9.5416   ZY=    -0.0545
   XZ=    -1.7287   YZ=     0.1425   ZZ=    37.0024
   Eigenvalues:     4.7511     9.7280    37.0808
    160  Bq   Isotropic =    17.1866   Anisotropy =    29.8413
   XX=     5.0159   YX=    -0.7384   ZX=     1.4363
   XY=    -1.1595   YY=     9.5416   ZY=     0.0545
   XZ=     1.7287   YZ=    -0.1425   ZZ=    37.0024
   Eigenvalues:     4.7511     9.7280    37.0808
    161  Bq   Isotropic =    15.5880   Anisotropy =    30.0938
   XX=     3.5352   YX=     0.8333   ZX=    -0.7004
   XY=     1.0285   YY=     7.6270   ZY=     0.1004
   XZ=    -1.7926   YZ=     0.1661   ZZ=    35.6018
   Eigenvalues:     3.2853     7.8282    35.6505
    162  Bq   Isotropic =    15.5880   Anisotropy =    30.0938
   XX=     3.5352   YX=     0.8333   ZX=     0.7004
   XY=     1.0285   YY=     7.6270   ZY=    -0.1004
   XZ=     1.7926   YZ=    -0.1661   ZZ=    35.6018
[...]
 Alpha  occ. eigenvalues --   -0.49821  -0.45248  -0.44631  -0.42336  -0.42227
 Alpha  occ. eigenvalues --   -0.40585  -0.39514  -0.37600  -0.34706  -0.33848
 Alpha  occ. eigenvalues --   -0.33373  -0.29305  -0.25287  -0.22507
 Alpha virt. eigenvalues --   -0.05458  -0.02654   0.00197   0.00335   0.01199
 Alpha virt. eigenvalues --    0.01293   0.03468   0.03498   0.05319   0.05517
 Alpha virt. eigenvalues --    0.05641   0.05827   0.06828   0.07191   0.07956
 Alpha virt. eigenvalues --    0.09348   0.09892   0.10093   0.11427   0.11855
 Alpha virt. eigenvalues --    0.12207   0.12946   0.13884   0.14689   0.14822
 Alpha virt. eigenvalues --    0.14853   0.16256   0.16626   0.16628   0.16890
 Alpha virt. eigenvalues --    0.17055   0.18789   0.19594   0.20119   0.20255
 Alpha virt. eigenvalues --    0.20498   0.20566   0.21035   0.21677   0.22004
 Alpha virt. eigenvalues --    0.22652   0.23299   0.23335   0.24311   0.24746
 Alpha virt. eigenvalues --    0.26146   0.27232   0.27309   0.27656   0.27937
 Alpha virt. eigenvalues --    0.28717   0.30000   0.31132   0.32030   0.32227
 Alpha virt. eigenvalues --    0.34047   0.34078   0.35943   0.37141   0.44638
 Alpha virt. eigenvalues --    0.45764   0.46333   0.48447   0.52332   0.52639
 Alpha virt. eigenvalues --    0.53200   0.53480   0.54028   0.54501   0.54774
 Alpha virt. eigenvalues --    0.56326   0.57344   0.57368   0.58096   0.59521
 Alpha virt. eigenvalues --    0.60458   0.62606   0.62913   0.63847   0.63994
 Alpha virt. eigenvalues --    0.64428   0.68946   0.69102   0.69403   0.69798
 Alpha virt. eigenvalues --    0.71158   0.72833   0.73012   0.73424   0.75070
 Alpha virt. eigenvalues --    0.78497   0.78870   0.80483   0.82011   0.83681
 Alpha virt. eigenvalues --    0.83901   0.85659   0.86603   0.86813   0.91213
 Alpha virt. eigenvalues --    0.91288   0.92235   0.92849   0.93312   0.96868
 Alpha virt. eigenvalues --    0.97245   0.98620   1.02647   1.04449   1.05026
 Alpha virt. eigenvalues --    1.05663   1.06748   1.09268   1.09794   1.11073
 Alpha virt. eigenvalues --    1.13808   1.15153   1.17304   1.31948   1.33048
 Alpha virt. eigenvalues --    1.34358   1.45859   1.45972   1.47655   1.48866
 Alpha virt. eigenvalues --    1.49051   1.50546   1.50691   1.54190   1.55179
 Alpha virt. eigenvalues --    1.55717   1.57978   1.58733   1.62733   1.62828
 Alpha virt. eigenvalues --    1.64267   1.69101   1.71951   1.72366   1.72847
 Alpha virt. eigenvalues --    1.73252   1.74702   1.75563   1.80467   1.80820
 Alpha virt. eigenvalues --    1.87643   1.87849   1.88506   1.89073   1.89115
 Alpha virt. eigenvalues --    1.90958   1.91855   1.94430   1.95188   1.95914
 Alpha virt. eigenvalues --    1.96251   1.98809   2.01793   2.06026   2.08381
 Alpha virt. eigenvalues --    2.09024   2.11238   2.17351   2.18044   2.20518
 Alpha virt. eigenvalues --    2.22184   2.34758   2.35978   2.36395   2.36771
 Alpha virt. eigenvalues --    2.39016   2.40896   2.43872   2.45405   2.53194
 Alpha virt. eigenvalues --    2.61452   2.63330   2.63398   2.67685   2.67839
 Alpha virt. eigenvalues --    2.69456   2.69813   2.70019   2.72426   2.74112
 Alpha virt. eigenvalues --    2.75113   2.76103   2.76989   2.77408   2.78021
 Alpha virt. eigenvalues --    2.80239   2.80714   2.81436   2.82166   2.88855
 Alpha virt. eigenvalues --    2.89258   2.91138   2.91762   2.93299   3.04934
 Alpha virt. eigenvalues --    3.07834   3.15865   3.18270   3.30039   3.32224
 Alpha virt. eigenvalues --    3.35541   3.38258   3.42848   3.46651   3.48398
 Alpha virt. eigenvalues --    3.51504   3.59153   3.60119   3.68724   3.99526
 Alpha virt. eigenvalues --    3.99680   4.00288   4.03257   4.15420   4.16869
 Alpha virt. eigenvalues --    4.35849   4.79780   4.81025  23.50350  23.77573
 Alpha virt. eigenvalues --   23.88100  23.91822  23.94306  23.96766  24.06311
 Alpha virt. eigenvalues --   24.06824  24.13369  24.13691
          Condensed to atoms (all electrons):
 Mulliken charges:
               1
     1  C   -0.271259
     2  C   -0.271259
     3  C   -0.081784
     4  C    0.204484
     5  C   -0.081784
     6  C   -0.271259
     7  C   -0.271259
     8  C   -0.081784
     9  C    0.204484
    10  C   -0.081784
    11  H    0.128962
    12  H    0.128962
    13  H    0.121839
    14  H    0.121839
    15  H    0.128962
    16  H    0.128962
    17  H    0.121839
    18  H    0.121839
    19  Bq   0.000000
    20  Bq   0.000000
    21  Bq   0.000000
    22  Bq   0.000000
    23  Bq   0.000000
    24  Bq   0.000000
    25  Bq   0.000000
    26  Bq   0.000000
    27  Bq   0.000000
    28  Bq   0.000000
    29  Bq   0.000000
    30  Bq   0.000000
    31  Bq   0.000000
    32  Bq   0.000000
    33  Bq   0.000000
    34  Bq   0.000000
    35  Bq   0.000000
    36  Bq   0.000000
    37  Bq   0.000000
    38  Bq   0.000000
    39  Bq   0.000000
    40  Bq   0.000000
    41  Bq   0.000000
    42  Bq   0.000000
    43  Bq   0.000000
    44  Bq   0.000000
    45  Bq   0.000000
    46  Bq   0.000000
    47  Bq   0.000000
    48  Bq   0.000000
    49  Bq   0.000000
    50  Bq   0.000000
    51  Bq   0.000000
    52  Bq   0.000000
    53  Bq   0.000000
    54  Bq   0.000000
    55  Bq   0.000000
    56  Bq   0.000000
    57  Bq   0.000000
    58  Bq   0.000000
    59  Bq   0.000000
    60  Bq   0.000000
    61  Bq   0.000000
    62  Bq   0.000000
    63  Bq   0.000000
    64  Bq   0.000000
    65  Bq   0.000000
    66  Bq   0.000000
    67  Bq   0.000000
    68  Bq   0.000000
    69  Bq   0.000000
    70  Bq   0.000000
    71  Bq   0.000000
    72  Bq   0.000000
    73  Bq   0.000000
    74  Bq   0.000000
    75  Bq   0.000000
    76  Bq   0.000000
    77  Bq   0.000000
    78  Bq   0.000000
    79  Bq   0.000000
    80  Bq   0.000000
    81  Bq   0.000000
    82  Bq   0.000000
    83  Bq   0.000000
    84  Bq   0.000000
    85  Bq   0.000000
    86  Bq   0.000000
    87  Bq   0.000000
    88  Bq   0.000000
    89  Bq   0.000000
    90  Bq   0.000000
    91  Bq   0.000000
    92  Bq   0.000000
    93  Bq   0.000000
    94  Bq   0.000000
    95  Bq   0.000000
    96  Bq   0.000000
    97  Bq   0.000000
    98  Bq   0.000000
    99  Bq   0.000000
   100  Bq   0.000000
   101  Bq   0.000000
   102  Bq   0.000000
   103  Bq   0.000000
   104  Bq   0.000000
   105  Bq   0.000000
   106  Bq   0.000000
   107  Bq   0.000000
   108  Bq   0.000000
   109  Bq   0.000000
   110  Bq   0.000000
   111  Bq   0.000000
   112  Bq   0.000000
   113  Bq   0.000000
   114  Bq   0.000000
   115  Bq   0.000000
   116  Bq   0.000000
   117  Bq   0.000000
   118  Bq   0.000000
   119  Bq   0.000000
   120  Bq   0.000000
   121  Bq   0.000000
   122  Bq   0.000000
   123  Bq   0.000000
   124  Bq   0.000000
   125  Bq   0.000000
   126  Bq   0.000000
   127  Bq   0.000000
   128  Bq   0.000000
   129  Bq   0.000000
   130  Bq   0.000000
   131  Bq   0.000000
   132  Bq   0.000000
   133  Bq   0.000000
   134  Bq   0.000000
   135  Bq   0.000000
   136  Bq   0.000000
   137  Bq   0.000000
   138  Bq   0.000000
   139  Bq   0.000000
   140  Bq   0.000000
   141  Bq   0.000000
   142  Bq   0.000000
   143  Bq   0.000000
   144  Bq   0.000000
   145  Bq   0.000000
   146  Bq   0.000000
   147  Bq   0.000000
   148  Bq   0.000000
   149  Bq   0.000000
   150  Bq   0.000000
   151  Bq   0.000000
   152  Bq   0.000000
   153  Bq   0.000000
   154  Bq   0.000000
   155  Bq   0.000000
   156  Bq   0.000000
   157  Bq   0.000000
   158  Bq   0.000000
   159  Bq   0.000000
   160  Bq   0.000000
   161  Bq   0.000000
   162  Bq   0.000000
   163  Bq   0.000000
   164  Bq   0.000000
   165  Bq   0.000000
   166  Bq   0.000000
   167  Bq   0.000000
   168  Bq   0.000000
   169  Bq   0.000000
   170  Bq   0.000000
   171  Bq   0.000000
   172  Bq   0.000000
 Sum of Mulliken charges =   0.00000
 Mulliken charges with hydrogens summed into heavy atoms:
               1
     1  C   -0.142297
     2  C   -0.142297
     3  C    0.040055
     4  C    0.204484
     5  C    0.040055
     6  C   -0.142297
     7  C   -0.142297
     8  C    0.040055
     9  C    0.204484
    10  C    0.040055
    19  Bq   0.000000
    20  Bq   0.000000
    21  Bq   0.000000
    22  Bq   0.000000
    23  Bq   0.000000
    24  Bq   0.000000
    25  Bq   0.000000
    26  Bq   0.000000
    27  Bq   0.000000
    28  Bq   0.000000
    29  Bq   0.000000
    30  Bq   0.000000
    31  Bq   0.000000
    32  Bq   0.000000
    33  Bq   0.000000
    34  Bq   0.000000
    35  Bq   0.000000
    36  Bq   0.000000
    37  Bq   0.000000
    38  Bq   0.000000
    39  Bq   0.000000
    40  Bq   0.000000
    41  Bq   0.000000
    42  Bq   0.000000
    43  Bq   0.000000
    44  Bq   0.000000
    45  Bq   0.000000
    46  Bq   0.000000
    47  Bq   0.000000
    48  Bq   0.000000
    49  Bq   0.000000
    50  Bq   0.000000
    51  Bq   0.000000
    52  Bq   0.000000
    53  Bq   0.000000
    54  Bq   0.000000
    55  Bq   0.000000
    56  Bq   0.000000
    57  Bq   0.000000
    58  Bq   0.000000
    59  Bq   0.000000
    60  Bq   0.000000
    61  Bq   0.000000
    62  Bq   0.000000
    63  Bq   0.000000
    64  Bq   0.000000
    65  Bq   0.000000
    66  Bq   0.000000
    67  Bq   0.000000
    68  Bq   0.000000
    69  Bq   0.000000
    70  Bq   0.000000
    71  Bq   0.000000
    72  Bq   0.000000
    73  Bq   0.000000
    74  Bq   0.000000
    75  Bq   0.000000
    76  Bq   0.000000
    77  Bq   0.000000
    78  Bq   0.000000
    79  Bq   0.000000
    80  Bq   0.000000
    81  Bq   0.000000
    82  Bq   0.000000
    83  Bq   0.000000
    84  Bq   0.000000
    85  Bq   0.000000
    86  Bq   0.000000
    87  Bq   0.000000
    88  Bq   0.000000
    89  Bq   0.000000
    90  Bq   0.000000
    91  Bq   0.000000
    92  Bq   0.000000
    93  Bq   0.000000
    94  Bq   0.000000
    95  Bq   0.000000
    96  Bq   0.000000
    97  Bq   0.000000
    98  Bq   0.000000
    99  Bq   0.000000
   100  Bq   0.000000
   101  Bq   0.000000
   102  Bq   0.000000
   103  Bq   0.000000
   104  Bq   0.000000
   105  Bq   0.000000
   106  Bq   0.000000
   107  Bq   0.000000
   108  Bq   0.000000
   109  Bq   0.000000
   110  Bq   0.000000
   111  Bq   0.000000
   112  Bq   0.000000
   113  Bq   0.000000
   114  Bq   0.000000
   115  Bq   0.000000
   116  Bq   0.000000
   117  Bq   0.000000
   118  Bq   0.000000
   119  Bq   0.000000
   120  Bq   0.000000
   121  Bq   0.000000
   122  Bq   0.000000
   123  Bq   0.000000
   124  Bq   0.000000
   125  Bq   0.000000
   126  Bq   0.000000
   127  Bq   0.000000
   128  Bq   0.000000
   129  Bq   0.000000
   130  Bq   0.000000
   131  Bq   0.000000
   132  Bq   0.000000
   133  Bq   0.000000
   134  Bq   0.000000
   135  Bq   0.000000
   136  Bq   0.000000
   137  Bq   0.000000
   138  Bq   0.000000
   139  Bq   0.000000
   140  Bq   0.000000
   141  Bq   0.000000
   142  Bq   0.000000
   143  Bq   0.000000
   144  Bq   0.000000
   145  Bq   0.000000
   146  Bq   0.000000
   147  Bq   0.000000
   148  Bq   0.000000
   149  Bq   0.000000
   150  Bq   0.000000
   151  Bq   0.000000
   152  Bq   0.000000
   153  Bq   0.000000
   154  Bq   0.000000
   155  Bq   0.000000
   156  Bq   0.000000
   157  Bq   0.000000
   158  Bq   0.000000
   159  Bq   0.000000
   160  Bq   0.000000
   161  Bq   0.000000
   162  Bq   0.000000
   163  Bq   0.000000
   164  Bq   0.000000
   165  Bq   0.000000
   166  Bq   0.000000
   167  Bq   0.000000
   168  Bq   0.000000
   169  Bq   0.000000
   170  Bq   0.000000
   171  Bq   0.000000
   172  Bq   0.000000
 Electronic spatial extent (au):  <R**2>=           1312.5323
 Charge=              0.0000 electrons
 Dipole moment (field-independent basis, Debye):
    X=              0.0000    Y=              0.0000    Z=              0.0000  Tot=              0.0000
 Quadrupole moment (field-independent basis, Debye-Ang):
   XX=            -51.9618   YY=            -52.1216   ZZ=            -65.1252
   XY=              0.0000   XZ=              0.0000   YZ=              0.0000
 Traceless Quadrupole moment (field-independent basis, Debye-Ang):
   XX=              4.4411   YY=              4.2812   ZZ=             -8.7224
   XY=              0.0000   XZ=              0.0000   YZ=              0.0000
 Octapole moment (field-independent basis, Debye-Ang**2):
  XXX=              0.0000  YYY=              0.0000  ZZZ=              0.0000  XYY=              0.0000
  XXY=              0.0000  XXZ=              0.0000  XZZ=              0.0000  YZZ=              0.0000
  YYZ=              0.0000  XYZ=              0.0000
 Hexadecapole moment (field-independent basis, Debye-Ang**3):
 XXXX=          -1119.8966 YYYY=           -498.1664 ZZZZ=            -79.6336 XXXY=              0.0000
 XXXZ=              0.0000 YYYX=              0.0000 YYYZ=              0.0000 ZZZX=              0.0000
 ZZZY=              0.0000 XXYY=           -275.3262 XXZZ=           -249.8350 YYZZ=           -117.4791
 XXYZ=              0.0000 YYXZ=              0.0000 ZZXY=              0.0000
 N-N= 4.538675371600D+02 E-N=-1.802310911208D+03  KE= 3.837199947839D+02
 1\1\GINC-PLANA\SP\RB3LYP\6-311+G(d,p)\C10H8\YANNICK\25-Sep-2020\0\\# r
 b3lyp/6-311+g** NMR geom=connectivity\\Title\\0,1\C,0,2.45076,-0.71174
 ,0.\C,0,2.45076,0.71174,0.\C,0,1.25139,1.41137,0.\C,0,0.,0.72289,0.\C,
 0,-1.25139,1.41137,0.\C,0,-2.45076,0.71174,0.\C,0,-2.45076,-0.71174,0.
 \C,0,-1.25139,-1.41137,0.\C,0,0.,-0.72289,0.\C,0,1.25139,-1.41137,0.\H
 ,0,3.40873,-1.25791,0.\H,0,3.40873,1.25791,0.\H,0,1.24972,2.51472,0.\H
 ,0,-1.24972,2.51472,0.\H,0,-3.40873,1.25791,0.\H,0,-3.40873,-1.25791,0
 .\H,0,-1.24972,-2.51472,0.\H,0,1.24972,-2.51472,0.\Bq,0,-1.64229829,0.
 57735027,-0.70710678\Bq,0,-1.64229829,0.57735027,0.70710678\Bq,0,-1.61
 673343,0.,-0.92387953\Bq,0,-1.61673343,0.,0.92387953\Bq,0,-1.57749529,
 -0.2088466,-0.91565738\Bq,0,-1.57749529,-0.2088466,0.91565738\Bq,0,-1.
 57749529,0.2088466,-0.91565738\Bq,0,-1.57749529,0.2088466,0.91565738\B
 q,0,-1.52272513,-0.40824829,-0.8660254\Bq,0,-1.52272513,-0.40824829,0.
 8660254\Bq,0,-1.52272513,0.40824829,-0.8660254\Bq,0,-1.52272513,0.4082
 4829,0.8660254\Bq,0,-1.42914032,0.,-0.98078528\Bq,0,-1.42914032,0.,0.9
 8078528\Bq,0,-1.38480567,-0.63960215,-0.75377836\Bq,0,-1.38480567,-0.6
 3960215,0.75377836\Bq,0,-1.38480567,0.63960215,-0.75377836\Bq,0,-1.384
 80567,0.63960215,0.75377836\Bq,0,-1.38347925,-0.21132487,-0.96592583\B
 q,0,-1.38347925,-0.21132487,0.96592583\Bq,0,-1.38347925,0.21132487,-0.
 96592583\Bq,0,-1.38347925,0.21132487,0.96592583\Bq,0,-1.23405,-0.42640
 143,-0.90453403\Bq,0,-1.23405,-0.42640143,0.90453403\Bq,0,-1.23405,0.,
 -1.\Bq,0,-1.23405,0.,1.\Bq,0,-1.23405,0.42640143,-0.90453403\Bq,0,-1.2
 3405,0.42640143,0.90453403\Bq,0,-1.08462075,-0.21132487,-0.96592583\Bq
 ,0,-1.08462075,-0.21132487,0.96592583\Bq,0,-1.08462075,0.21132487,-0.9
 6592583\Bq,0,-1.08462075,0.21132487,0.96592583\Bq,0,-1.08329433,-0.639
 60215,-0.75377836\Bq,0,-1.08329433,-0.63960215,0.75377836\Bq,0,-1.0832
 9433,0.63960215,-0.75377836\Bq,0,-1.08329433,0.63960215,0.75377836\Bq,
 0,-1.03895968,0.,-0.98078528\Bq,0,-1.03895968,0.,0.98078528\Bq,0,-0.94
 537487,-0.40824829,-0.8660254\Bq,0,-0.94537487,-0.40824829,0.8660254\B
 q,0,-0.94537487,0.40824829,-0.8660254\Bq,0,-0.94537487,0.40824829,0.86
 60254\Bq,0,-0.89060471,-0.2088466,-0.91565738\Bq,0,-0.89060471,-0.2088
 466,0.91565738\Bq,0,-0.89060471,0.2088466,-0.91565738\Bq,0,-0.89060471
 ,0.2088466,0.91565738\Bq,0,-0.85136657,0.,-0.92387953\Bq,0,-0.85136657
 ,0.,0.92387953\Bq,0,-0.82580171,-0.57735027,-0.70710678\Bq,0,-0.825801
 71,-0.57735027,0.70710678\Bq,0,-0.82580171,0.57735027,-0.70710678\Bq,0
 ,-0.82580171,0.57735027,0.70710678\Bq,0,-0.75217551,-0.40461504,-0.777
 22818\Bq,0,-0.75217551,-0.40461504,0.77722818\Bq,0,-0.75217551,0.40461
 504,-0.77722818\Bq,0,-0.75217551,0.40461504,0.77722818\Bq,0,-0.6959939
 7,-0.19875685,-0.81914066\Bq,0,-0.69599397,-0.19875685,0.81914066\Bq,0
 ,-0.69599397,0.19875685,-0.81914066\Bq,0,-0.69599397,0.19875685,0.8191
 4066\Bq,0,-0.67847977,0.,-0.83146961\Bq,0,-0.67847977,0.,0.83146961\Bq
 ,0,-0.54053008,-0.19509032,-0.69351992\Bq,0,-0.54053008,-0.19509032,0.
 69351992\Bq,0,-0.54053008,0.19509032,-0.69351992\Bq,0,-0.54053008,0.19
 509032,0.69351992\Bq,0,-0.52694322,0.,-0.70710678\Bq,0,-0.52694322,0.,
 0.70710678\Bq,0,0.52694322,0.,-0.70710678\Bq,0,0.52694322,0.,0.7071067
 8\Bq,0,0.54053008,-0.19509032,-0.69351992\Bq,0,0.54053008,-0.19509032,
 0.69351992\Bq,0,0.54053008,0.19509032,-0.69351992\Bq,0,0.54053008,0.19
 509032,0.69351992\Bq,0,0.67847977,0.,-0.83146961\Bq,0,0.67847977,0.,0.
 83146961\Bq,0,0.69599397,-0.19875685,-0.81914066\Bq,0,0.69599397,-0.19
 875685,0.81914066\Bq,0,0.69599397,0.19875685,-0.81914066\Bq,0,0.695993
 97,0.19875685,0.81914066\Bq,0,0.75217551,-0.40461504,-0.77722818\Bq,0,
 0.75217551,-0.40461504,0.77722818\Bq,0,0.75217551,0.40461504,-0.777228
 18\Bq,0,0.75217551,0.40461504,0.77722818\Bq,0,0.82580171,-0.57735027,-
 0.70710678\Bq,0,0.82580171,-0.57735027,0.70710678\Bq,0,0.82580171,0.57
 735027,-0.70710678\Bq,0,0.82580171,0.57735027,0.70710678\Bq,0,0.851366
 57,0.,-0.92387953\Bq,0,0.85136657,0.,0.92387953\Bq,0,0.89060471,-0.208
 8466,-0.91565738\Bq,0,0.89060471,-0.2088466,0.91565738\Bq,0,0.89060471
 ,0.2088466,-0.91565738\Bq,0,0.89060471,0.2088466,0.91565738\Bq,0,0.945
 37487,-0.40824829,-0.8660254\Bq,0,0.94537487,-0.40824829,0.8660254\Bq,
 0,0.94537487,0.40824829,-0.8660254\Bq,0,0.94537487,0.40824829,0.866025
 4\Bq,0,1.03895968,0.,-0.98078528\Bq,0,1.03895968,0.,0.98078528\Bq,0,1.
 08329433,-0.63960215,-0.75377836\Bq,0,1.08329433,-0.63960215,0.7537783
 6\Bq,0,1.08329433,0.63960215,-0.75377836\Bq,0,1.08329433,0.63960215,0.
 75377836\Bq,0,1.08462075,-0.21132487,-0.96592583\Bq,0,1.08462075,-0.21
 132487,0.96592583\Bq,0,1.08462075,0.21132487,-0.96592583\Bq,0,1.084620
 75,0.21132487,0.96592583\Bq,0,1.23405,-0.42640143,-0.90453403\Bq,0,1.2
 3405,-0.42640143,0.90453403\Bq,0,1.23405,0.,-1.\Bq,0,1.23405,0.,1.\Bq,
 0,1.23405,0.42640143,-0.90453403\Bq,0,1.23405,0.42640143,0.90453403\Bq
 ,0,1.38347925,-0.21132487,-0.96592583\Bq,0,1.38347925,-0.21132487,0.96
 592583\Bq,0,1.38347925,0.21132487,-0.96592583\Bq,0,1.38347925,0.211324
 87,0.96592583\Bq,0,1.38480567,-0.63960215,-0.75377836\Bq,0,1.38480567,
 -0.63960215,0.75377836\Bq,0,1.38480567,0.63960215,-0.75377836\Bq,0,1.3
 8480567,0.63960215,0.75377836\Bq,0,1.42914032,0.,-0.98078528\Bq,0,1.42
 914032,0.,0.98078528\Bq,0,1.52272513,-0.40824829,-0.8660254\Bq,0,1.522
 72513,-0.40824829,0.8660254\Bq,0,1.52272513,0.40824829,-0.8660254\Bq,0
 ,1.52272513,0.40824829,0.8660254\Bq,0,1.57749529,-0.2088466,-0.9156573
 8\Bq,0,1.57749529,-0.2088466,0.91565738\Bq,0,1.57749529,0.2088466,-0.9
 1565738\Bq,0,1.57749529,0.2088466,0.91565738\Bq,0,1.61673343,0.,-0.923
 87953\Bq,0,1.61673343,0.,0.92387953\Bq,0,1.64229829,-0.57735027,-0.707
 10678\Bq,0,1.64229829,-0.57735027,0.70710678\Bq,0,1.64229829,0.5773502
 7,-0.70710678\Bq,0,1.64229829,0.57735027,0.70710678\Bq,0,1.71592449,-0
 .40461504,-0.77722818\Bq,0,1.71592449,-0.40461504,0.77722818\Bq,0,1.71
 592449,0.40461504,-0.77722818\Bq,0,1.71592449,0.40461504,0.77722818\Bq
 ,0,1.77210603,-0.19875685,-0.81914066\Bq,0,1.77210603,-0.19875685,0.81
 914066\Bq,0,1.77210603,0.19875685,-0.81914066\Bq,0,1.77210603,0.198756
 85,0.81914066\Bq,0,1.78962023,0.,-0.83146961\Bq,0,1.78962023,0.,0.8314
 6961\Bq,0,1.92756992,-0.19509032,-0.69351992\Bq,0,1.92756992,-0.195090
 32,0.69351992\Bq,0,1.92756992,0.19509032,-0.69351992\Bq,0,1.92756992,0
 .19509032,0.69351992\Bq,0,1.94115678,0.,-0.70710678\Bq,0,1.94115678,0.
 ,0.70710678\\Version=ES64L-G09RevD.01\HF=-385.9859319\RMSD=7.818e-09\D
 ipole=0.,0.,0.\Quadrupole=3.3018588,3.182998,-6.4848568,0.,0.,0.\PG=C0
 1 [X(C10H8)]\\@


 I DON'T PRETEND TO UNDERSTAND THE UNIVERSE --
 IT'S A GREAT DEAL BIGGER THAN I AM.
       -- ATTR. TO WILLIAM ALLINGHAM (1828-89)
 Job cpu time:       0 days  0 hours 10 minutes 46.1 seconds.
 File lengths (MBytes):  RWF=     43 Int=      0 D2E=      0 Chk=      5 Scr=      1
 Normal termination of Gaussian 09 at Fri Sep 25 17:02:49 2020.
