 Entering Gaussian System, Link 0=g09
 Input=input_batch_00000.com
 Output=input_batch_00000.log
 Initial command:
 /share/programs/GAUSSIAN/64/g09/l1.exe "/scratch/yannick.45705/Gau-32227.inp" -scrdir="/scratch/yannick.45705/"
 Entering Link 1 = /share/programs/GAUSSIAN/64/g09/l1.exe PID=     32237.
  
 Copyright (c) 1988,1990,1992,1993,1995,1998,2003,2009,2013,
            Gaussian, Inc.  All Rights Reserved.
  
 This is part of the Gaussian(R) 09 program.  It is based on
 the Gaussian(R) 03 system (copyright 2003, Gaussian, Inc.),
 the Gaussian(R) 98 system (copyright 1998, Gaussian, Inc.),
 the Gaussian(R) 94 system (copyright 1995, Gaussian, Inc.),
 the Gaussian 92(TM) system (copyright 1992, Gaussian, Inc.),
 the Gaussian 90(TM) system (copyright 1990, Gaussian, Inc.),
 the Gaussian 88(TM) system (copyright 1988, Gaussian, Inc.),
 the Gaussian 86(TM) system (copyright 1986, Carnegie Mellon
 University), and the Gaussian 82(TM) system (copyright 1983,
 Carnegie Mellon University). Gaussian is a federally registered
 trademark of Gaussian, Inc.
  
 This software contains proprietary and confidential information,
 including trade secrets, belonging to Gaussian, Inc.
  
 This software is provided under written license and may be
 used, copied, transmitted, or stored only in accord with that
 written license.
  
 The following legend is applicable only to US Government
 contracts under FAR:
  
                    RESTRICTED RIGHTS LEGEND
  
 Use, reproduction and disclosure by the US Government is
 subject to restrictions as set forth in subparagraphs (a)
 and (c) of the Commercial Computer Software - Restricted
 Rights clause in FAR 52.227-19.
  
 Gaussian, Inc.
 340 Quinnipiac St., Bldg. 40, Wallingford CT 06492
  
  
 ---------------------------------------------------------------
 Warning -- This program may not be used in any manner that
 competes with the business of Gaussian, Inc. or will provide
 assistance to any competitor of Gaussian, Inc.  The licensee
 of this program is prohibited from giving any competitor of
 Gaussian, Inc. access to this program.  By using this program,
 the user acknowledges that Gaussian, Inc. is engaged in the
 business of creating and licensing software in the field of
 computational chemistry and represents and warrants to the
 licensee that it is not a competitor of Gaussian, Inc. and that
 it will not use this program in any manner prohibited above.
 ---------------------------------------------------------------
  

 Cite this work as:
 Gaussian 09, Revision D.01,
 M. J. Frisch, G. W. Trucks, H. B. Schlegel, G. E. Scuseria, 
 M. A. Robb, J. R. Cheeseman, G. Scalmani, V. Barone, B. Mennucci, 
 G. A. Petersson, H. Nakatsuji, M. Caricato, X. Li, H. P. Hratchian, 
 A. F. Izmaylov, J. Bloino, G. Zheng, J. L. Sonnenberg, M. Hada, 
 M. Ehara, K. Toyota, R. Fukuda, J. Hasegawa, M. Ishida, T. Nakajima, 
 Y. Honda, O. Kitao, H. Nakai, T. Vreven, J. A. Montgomery, Jr., 
 J. E. Peralta, F. Ogliaro, M. Bearpark, J. J. Heyd, E. Brothers, 
 K. N. Kudin, V. N. Staroverov, T. Keith, R. Kobayashi, J. Normand, 
 K. Raghavachari, A. Rendell, J. C. Burant, S. S. Iyengar, J. Tomasi, 
 M. Cossi, N. Rega, J. M. Millam, M. Klene, J. E. Knox, J. B. Cross, 
 V. Bakken, C. Adamo, J. Jaramillo, R. Gomperts, R. E. Stratmann, 
 O. Yazyev, A. J. Austin, R. Cammi, C. Pomelli, J. W. Ochterski, 
 R. L. Martin, K. Morokuma, V. G. Zakrzewski, G. A. Voth, 
 P. Salvador, J. J. Dannenberg, S. Dapprich, A. D. Daniels, 
 O. Farkas, J. B. Foresman, J. V. Ortiz, J. Cioslowski, 
 and D. J. Fox, Gaussian, Inc., Wallingford CT, 2013.
 
 ******************************************
 Gaussian 09:  ES64L-G09RevD.01 24-Apr-2013
                25-Sep-2020 
 ******************************************
 %nproc=8
 Will use up to    8 processors via shared memory.
 %mem=1000MB
 ----------------------------------------
 # rb3lyp/6-311+g** NMR geom=connectivity
 ----------------------------------------
 1/38=1,57=2/1;
 2/12=2,17=6,18=5,40=1/2;
 3/5=4,6=6,7=111,11=2,16=1,25=1,30=1,74=-5,116=1/1,2,8,3;
 4//1;
 5/5=2,38=5/2;
 8/6=1,10=90,11=11/1;
 10/13=100,45=16/2;
 6/7=2,8=2,9=2,10=2,28=1/1;
 99/9=1/99;
 -----
 Title
 -----
 Symbolic Z-matrix:
 Charge =  0 Multiplicity = 1
 C                     2.45076  -0.71174   0. 
 C                     2.45076   0.71174   0. 
 C                     1.25139   1.41137   0. 
 C                     0.        0.72289   0. 
 C                    -1.25139   1.41137   0. 
 C                    -2.45076   0.71174   0. 
 C                    -2.45076  -0.71174   0. 
 C                    -1.25139  -1.41137   0. 
 C                     0.       -0.72289   0. 
 C                     1.25139  -1.41137   0. 
 H                     3.40873  -1.25791   0. 
 H                     3.40873   1.25791   0. 
 H                     1.24972   2.51472   0. 
 H                    -1.24972   2.51472   0. 
 H                    -3.40873   1.25791   0. 
 H                    -3.40873  -1.25791   0. 
 H                    -1.24972  -2.51472   0. 
 H                     1.24972  -2.51472   0. 
 Bq                    1.74365  -0.71174  -0.70711 
 Bq                    1.74365  -0.71174   0.70711 
 Bq                    1.75724  -0.51665  -0.69352 
 Bq                    1.75724  -0.51665   0.69352 
 Bq                    1.89519  -0.71174  -0.83147 
 Bq                    1.89519  -0.71174   0.83147 
 Bq                    1.9127   -0.9105   -0.81914 
 Bq                    1.9127   -0.9105    0.81914 
 Bq                    1.9127   -0.51298  -0.81914 
 Bq                    1.9127   -0.51298   0.81914 
 Bq                    1.96889  -1.11636  -0.77723 
 Bq                    1.96889  -1.11636   0.77723 
 Bq                    1.96889  -0.30712  -0.77723 
 Bq                    1.96889  -0.30712   0.77723 
 Bq                    2.04251  -1.28909  -0.70711 
 Bq                    2.04251  -1.28909   0.70711 
 Bq                    2.04251  -0.13439  -0.70711 
 Bq                    2.04251  -0.13439   0.70711 
 Bq                    2.06808  -0.71174  -0.92388 
 Bq                    2.06808  -0.71174   0.92388 
 Bq                    2.10731  -0.92059  -0.91566 
 Bq                    2.10731  -0.92059   0.91566 
 Bq                    2.10731  -0.50289  -0.91566 
 Bq                    2.10731  -0.50289   0.91566 
 Bq                    2.16208  -1.11999  -0.86603 
 Bq                    2.16208  -1.11999   0.86603 
 Bq                    2.16208  -0.30349  -0.86603 
 Bq                    2.16208  -0.30349   0.86603 
 Bq                    2.19194  -1.50042  -0.55768 
 Bq                    2.19194  -1.50042   0.55768 
 Bq                    2.25567  -0.71174  -0.98079 
 Bq                    2.25567  -0.71174   0.98079 
 Bq                    2.3      -1.35134  -0.75378 
 Bq                    2.3      -1.35134   0.75378 
 Bq                    2.3      -0.07214  -0.75378 
 Bq                    2.3      -0.07214   0.75378 
 Bq                    2.30133  -0.92306  -0.96593 
 Bq                    2.30133  -0.92306   0.96593 
 Bq                    2.30133  -0.50042  -0.96593 
 Bq                    2.30133  -0.50042   0.96593 
 Bq                    2.31233  -1.60206  -0.43378 
 Bq                    2.31233  -1.60206   0.43378 
 Bq                    2.31281  -1.69253  -0.13795 
 Bq                    2.31281  -1.69253   0.13795 
 Bq                    2.45076  -1.71174   0. 
 Bq                    2.45076  -1.67142  -0.28108 
 Bq                    2.45076  -1.67142   0.28108 
 Bq                    2.45076  -1.52824  -0.57735 
 Bq                    2.45076  -1.52824   0.57735 
 Bq                    2.45076  -1.13814  -0.90453 
 Bq                    2.45076  -1.13814   0.90453 
 Bq                    2.45076  -0.71174  -1. 
 Bq                    2.45076  -0.71174   1. 
 Bq                    2.45076  -0.28534  -0.90453 
 Bq                    2.45076  -0.28534   0.90453 
 Bq                    2.60019  -0.92306  -0.96593 
 Bq                    2.60019  -0.92306   0.96593 
 Bq                    2.60019  -0.50042  -0.96593 
 Bq                    2.60019  -0.50042   0.96593 
 Bq                    2.60152  -1.35134  -0.75378 
 Bq                    2.60152  -1.35134   0.75378 
 Bq                    2.60152  -0.07214  -0.75378 
 Bq                    2.60152  -0.07214   0.75378 
 Bq                    2.64585  -0.71174  -0.98079 
 Bq                    2.64585  -0.71174   0.98079 
 Bq                    2.73944  -1.11999  -0.86603 
 Bq                    2.73944  -1.11999   0.86603 
 Bq                    2.73944  -0.30349  -0.86603 
 Bq                    2.73944  -0.30349   0.86603 
 Bq                    2.79421  -0.92059  -0.91566 
 Bq                    2.79421  -0.92059   0.91566 
 Bq                    2.79421  -0.50289  -0.91566 
 Bq                    2.79421  -0.50289   0.91566 
 Bq                    2.83344  -0.71174  -0.92388 
 Bq                    2.83344  -0.71174   0.92388 
 Bq                    2.85901  -0.13439  -0.70711 
 Bq                    2.85901  -0.13439   0.70711 
 Bq                    2.93263  -0.30712  -0.77723 
 Bq                    2.93263  -0.30712   0.77723 
 Bq                    2.95076  -0.00463  -0.5 
 Bq                    2.95076  -0.00463   0.5 
 Bq                    2.98882  -0.51298  -0.81914 
 Bq                    2.98882  -0.51298   0.81914 
 Bq                    3.00633  -0.71174  -0.83147 
 Bq                    3.00633  -0.71174   0.83147 
 Bq                    3.0387   -0.15617  -0.58794 
 Bq                    3.0387   -0.15617   0.58794 
 Bq                    3.10404  -0.32906  -0.65328 
 Bq                    3.10404  -0.32906   0.65328 
 Bq                    3.14428  -0.51665  -0.69352 
 Bq                    3.14428  -0.51665   0.69352 
 Bq                    3.15787  -0.13439  -0.40825 
 Bq                    3.15787  -0.13439   0.40825 
 Bq                    3.20454  -0.07214  -0.15076 
 Bq                    3.20454  -0.07214   0.15076 
 Bq                    3.22799  -0.30712  -0.48187 
 Bq                    3.22799  -0.30712   0.48187 
 Bq                    3.31679  -0.30349  -0.28868 
 Bq                    3.31679  -0.30349   0.28868 
 Bq                    1.74365   0.71174  -0.70711 
 Bq                    1.74365   0.71174   0.70711 
 Bq                    1.75724   0.51665  -0.69352 
 Bq                    1.75724   0.51665   0.69352 
 Bq                    1.89519   0.71174  -0.83147 
 Bq                    1.89519   0.71174   0.83147 
 Bq                    1.9127    0.51298  -0.81914 
 Bq                    1.9127    0.51298   0.81914 
 Bq                    1.9127    0.9105   -0.81914 
 Bq                    1.9127    0.9105    0.81914 
 Bq                    1.96889   0.30712  -0.77723 
 Bq                    1.96889   0.30712   0.77723 
 Bq                    1.96889   1.11636  -0.77723 
 Bq                    1.96889   1.11636   0.77723 
 Bq                    2.04251   0.13439  -0.70711 
 Bq                    2.04251   0.13439   0.70711 
 Bq                    2.04251   1.28909  -0.70711 
 Bq                    2.04251   1.28909   0.70711 
 Bq                    2.06808   0.71174  -0.92388 
 Bq                    2.06808   0.71174   0.92388 
 Bq                    2.10731   0.50289  -0.91566 
 Bq                    2.10731   0.50289   0.91566 
 Bq                    2.10731   0.92059  -0.91566 
 Bq                    2.10731   0.92059   0.91566 
 Bq                    2.16208   0.30349  -0.86603 
 Bq                    2.16208   0.30349   0.86603 
 Bq                    2.16208   1.11999  -0.86603 
 Bq                    2.16208   1.11999   0.86603 
 Bq                    2.19194   1.50042  -0.55768 
 Bq                    2.19194   1.50042   0.55768 
 Bq                    2.25567   0.71174  -0.98079 
 Bq                    2.25567   0.71174   0.98079 
 Bq                    2.3       0.07214  -0.75378 
 Bq                    2.3       0.07214   0.75378 
 Bq                    2.3       1.35134  -0.75378 
 Bq                    2.3       1.35134   0.75378 
 Bq                    2.30133   0.50042  -0.96593 
 Bq                    2.30133   0.50042   0.96593 
 Bq                    2.30133   0.92306  -0.96593 
 Bq                    2.30133   0.92306   0.96593 
 Bq                    2.31233   1.60206  -0.43378 
 Bq                    2.31233   1.60206   0.43378 
 Bq                    2.31281   1.69253  -0.13795 
 Bq                    2.31281   1.69253   0.13795 
 Bq                    2.45076   0.28534  -0.90453 
 Bq                    2.45076   0.28534   0.90453 
 Bq                    2.45076   0.71174  -1. 
 Bq                    2.45076   0.71174   1. 
 Bq                    2.45076   1.13814  -0.90453 
 Bq                    2.45076   1.13814   0.90453 
 Bq                    2.45076   1.52824  -0.57735 
 Bq                    2.45076   1.52824   0.57735 
 Bq                    2.45076   1.67142  -0.28108 
 Bq                    2.45076   1.67142   0.28108 
 Bq                    2.45076   1.71174   0. 
 Bq                    2.60019   0.50042  -0.96593 
 Bq                    2.60019   0.50042   0.96593 
 Bq                    2.60019   0.92306  -0.96593 
 Bq                    2.60019   0.92306   0.96593 
 Bq                    2.60152   0.07214  -0.75378 
 Bq                    2.60152   0.07214   0.75378 
 Bq                    2.60152   1.35134  -0.75378 
 Bq                    2.60152   1.35134   0.75378 
 Bq                    2.64585   0.71174  -0.98079 
 Bq                    2.64585   0.71174   0.98079 
 Bq                    2.73944   0.30349  -0.86603 
 Bq                    2.73944   0.30349   0.86603 
 Bq                    2.73944   1.11999  -0.86603 
 Bq                    2.73944   1.11999   0.86603 
 Bq                    2.79421   0.50289  -0.91566 
 Bq                    2.79421   0.50289   0.91566 
 Bq                    2.79421   0.92059  -0.91566 
 Bq                    2.79421   0.92059   0.91566 
 Bq                    2.83344   0.71174  -0.92388 
 Bq                    2.83344   0.71174   0.92388 
 Bq                    2.85901   0.13439  -0.70711 
 Bq                    2.85901   0.13439   0.70711 
 Bq                    2.93263   0.30712  -0.77723 
 Bq                    2.93263   0.30712   0.77723 
 Bq                    2.95076   0.00463  -0.5 
 Bq                    2.95076   0.00463   0.5 
 Bq                    2.98882   0.51298  -0.81914 
 Bq                    2.98882   0.51298   0.81914 
 Bq                    3.00633   0.71174  -0.83147 
 Bq                    3.00633   0.71174   0.83147 
 Bq                    3.0387    0.15617  -0.58794 
 Bq                    3.0387    0.15617   0.58794 
 Bq                    3.10404   0.32906  -0.65328 
 Bq                    3.10404   0.32906   0.65328 
 Bq                    3.14428   0.51665  -0.69352 
 Bq                    3.14428   0.51665   0.69352 
 Bq                    3.15787   0.13439  -0.40825 
 Bq                    3.15787   0.13439   0.40825 
 Bq                    3.20454   0.07214  -0.15076 
 Bq                    3.20454   0.07214   0.15076 
 Bq                    3.22799   0.30712  -0.48187 
 Bq                    3.22799   0.30712   0.48187 
 Bq                    3.31679   0.30349  -0.28868 
 Bq                    3.31679   0.30349   0.28868 
 Bq                    0.33573   1.62022  -0.34345 
 Bq                    0.33573   1.62022   0.34345 
 
 Symmetry turned off:
 Cannot cope with ghost atoms or with translation vectors.
 Stoichiometry    C10H8
 Framework group  C1[X(C10H8)]
 NUMDOF-- NAT=    18 NAtoms=   218
 Deg. of freedom     0
 Full point group                 C1      NOp   1
                          Input orientation:                          
 ---------------------------------------------------------------------
 Center     Atomic      Atomic             Coordinates (Angstroms)
 Number     Number       Type             X           Y           Z
 ---------------------------------------------------------------------
      1          6           0        2.450760   -0.711740    0.000000
      2          6           0        2.450760    0.711740    0.000000
      3          6           0        1.251390    1.411370    0.000000
      4          6           0        0.000000    0.722890    0.000000
      5          6           0       -1.251390    1.411370    0.000000
      6          6           0       -2.450760    0.711740    0.000000
      7          6           0       -2.450760   -0.711740    0.000000
      8          6           0       -1.251390   -1.411370    0.000000
      9          6           0        0.000000   -0.722890    0.000000
     10          6           0        1.251390   -1.411370    0.000000
     11          1           0        3.408730   -1.257910    0.000000
     12          1           0        3.408730    1.257910    0.000000
     13          1           0        1.249720    2.514720    0.000000
     14          1           0       -1.249720    2.514720    0.000000
     15          1           0       -3.408730    1.257910    0.000000
     16          1           0       -3.408730   -1.257910    0.000000
     17          1           0       -1.249720   -2.514720    0.000000
     18          1           0        1.249720   -2.514720    0.000000
     19          0           0        1.743653   -0.711740   -0.707107
     20          0           0        1.743653   -0.711740    0.707107
     21          0           0        1.757240   -0.516650   -0.693520
     22          0           0        1.757240   -0.516650    0.693520
     23          0           0        1.895190   -0.711740   -0.831470
     24          0           0        1.895190   -0.711740    0.831470
     25          0           0        1.912704   -0.910497   -0.819141
     26          0           0        1.912704   -0.910497    0.819141
     27          0           0        1.912704   -0.512983   -0.819141
     28          0           0        1.912704   -0.512983    0.819141
     29          0           0        1.968886   -1.116355   -0.777228
     30          0           0        1.968886   -1.116355    0.777228
     31          0           0        1.968886   -0.307125   -0.777228
     32          0           0        1.968886   -0.307125    0.777228
     33          0           0        2.042512   -1.289090   -0.707107
     34          0           0        2.042512   -1.289090    0.707107
     35          0           0        2.042512   -0.134390   -0.707107
     36          0           0        2.042512   -0.134390    0.707107
     37          0           0        2.068077   -0.711740   -0.923880
     38          0           0        2.068077   -0.711740    0.923880
     39          0           0        2.107315   -0.920587   -0.915657
     40          0           0        2.107315   -0.920587    0.915657
     41          0           0        2.107315   -0.502893   -0.915657
     42          0           0        2.107315   -0.502893    0.915657
     43          0           0        2.162085   -1.119988   -0.866025
     44          0           0        2.162085   -1.119988    0.866025
     45          0           0        2.162085   -0.303492   -0.866025
     46          0           0        2.162085   -0.303492    0.866025
     47          0           0        2.191941   -1.500415   -0.557678
     48          0           0        2.191941   -1.500415    0.557678
     49          0           0        2.255670   -0.711740   -0.980785
     50          0           0        2.255670   -0.711740    0.980785
     51          0           0        2.300004   -1.351342   -0.753778
     52          0           0        2.300004   -1.351342    0.753778
     53          0           0        2.300004   -0.072138   -0.753778
     54          0           0        2.300004   -0.072138    0.753778
     55          0           0        2.301331   -0.923065   -0.965926
     56          0           0        2.301331   -0.923065    0.965926
     57          0           0        2.301331   -0.500415   -0.965926
     58          0           0        2.301331   -0.500415    0.965926
     59          0           0        2.312331   -1.602060   -0.433783
     60          0           0        2.312331   -1.602060    0.433783
     61          0           0        2.312810   -1.692525   -0.137950
     62          0           0        2.312810   -1.692525    0.137950
     63          0           0        2.450760   -1.711740    0.000000
     64          0           0        2.450760   -1.671423   -0.281085
     65          0           0        2.450760   -1.671423    0.281085
     66          0           0        2.450760   -1.528237   -0.577350
     67          0           0        2.450760   -1.528237    0.577350
     68          0           0        2.450760   -1.138141   -0.904534
     69          0           0        2.450760   -1.138141    0.904534
     70          0           0        2.450760   -0.711740   -1.000000
     71          0           0        2.450760   -0.711740    1.000000
     72          0           0        2.450760   -0.285339   -0.904534
     73          0           0        2.450760   -0.285339    0.904534
     74          0           0        2.600189   -0.923065   -0.965926
     75          0           0        2.600189   -0.923065    0.965926
     76          0           0        2.600189   -0.500415   -0.965926
     77          0           0        2.600189   -0.500415    0.965926
     78          0           0        2.601516   -1.351342   -0.753778
     79          0           0        2.601516   -1.351342    0.753778
     80          0           0        2.601516   -0.072138   -0.753778
     81          0           0        2.601516   -0.072138    0.753778
     82          0           0        2.645850   -0.711740   -0.980785
     83          0           0        2.645850   -0.711740    0.980785
     84          0           0        2.739435   -1.119988   -0.866025
     85          0           0        2.739435   -1.119988    0.866025
     86          0           0        2.739435   -0.303492   -0.866025
     87          0           0        2.739435   -0.303492    0.866025
     88          0           0        2.794205   -0.920587   -0.915657
     89          0           0        2.794205   -0.920587    0.915657
     90          0           0        2.794205   -0.502893   -0.915657
     91          0           0        2.794205   -0.502893    0.915657
     92          0           0        2.833443   -0.711740   -0.923880
     93          0           0        2.833443   -0.711740    0.923880
     94          0           0        2.859008   -0.134390   -0.707107
     95          0           0        2.859008   -0.134390    0.707107
     96          0           0        2.932634   -0.307125   -0.777228
     97          0           0        2.932634   -0.307125    0.777228
     98          0           0        2.950760   -0.004633   -0.500000
     99          0           0        2.950760   -0.004633    0.500000
    100          0           0        2.988816   -0.512983   -0.819141
    101          0           0        2.988816   -0.512983    0.819141
    102          0           0        3.006330   -0.711740   -0.831470
    103          0           0        3.006330   -0.711740    0.831470
    104          0           0        3.038698   -0.156170   -0.587938
    105          0           0        3.038698   -0.156170    0.587938
    106          0           0        3.104041   -0.329057   -0.653281
    107          0           0        3.104041   -0.329057    0.653281
    108          0           0        3.144280   -0.516650   -0.693520
    109          0           0        3.144280   -0.516650    0.693520
    110          0           0        3.157867   -0.134390   -0.408248
    111          0           0        3.157867   -0.134390    0.408248
    112          0           0        3.204538   -0.072138   -0.150756
    113          0           0        3.204538   -0.072138    0.150756
    114          0           0        3.227988   -0.307125   -0.481874
    115          0           0        3.227988   -0.307125    0.481874
    116          0           0        3.316785   -0.303492   -0.288675
    117          0           0        3.316785   -0.303492    0.288675
    118          0           0        1.743653    0.711740   -0.707107
    119          0           0        1.743653    0.711740    0.707107
    120          0           0        1.757240    0.516650   -0.693520
    121          0           0        1.757240    0.516650    0.693520
    122          0           0        1.895190    0.711740   -0.831470
    123          0           0        1.895190    0.711740    0.831470
    124          0           0        1.912704    0.512983   -0.819141
    125          0           0        1.912704    0.512983    0.819141
    126          0           0        1.912704    0.910497   -0.819141
    127          0           0        1.912704    0.910497    0.819141
    128          0           0        1.968886    0.307125   -0.777228
    129          0           0        1.968886    0.307125    0.777228
    130          0           0        1.968886    1.116355   -0.777228
    131          0           0        1.968886    1.116355    0.777228
    132          0           0        2.042512    0.134390   -0.707107
    133          0           0        2.042512    0.134390    0.707107
    134          0           0        2.042512    1.289090   -0.707107
    135          0           0        2.042512    1.289090    0.707107
    136          0           0        2.068077    0.711740   -0.923880
    137          0           0        2.068077    0.711740    0.923880
    138          0           0        2.107315    0.502893   -0.915657
    139          0           0        2.107315    0.502893    0.915657
    140          0           0        2.107315    0.920587   -0.915657
    141          0           0        2.107315    0.920587    0.915657
    142          0           0        2.162085    0.303492   -0.866025
    143          0           0        2.162085    0.303492    0.866025
    144          0           0        2.162085    1.119988   -0.866025
    145          0           0        2.162085    1.119988    0.866025
    146          0           0        2.191941    1.500415   -0.557678
    147          0           0        2.191941    1.500415    0.557678
    148          0           0        2.255670    0.711740   -0.980785
    149          0           0        2.255670    0.711740    0.980785
    150          0           0        2.300004    0.072138   -0.753778
    151          0           0        2.300004    0.072138    0.753778
    152          0           0        2.300004    1.351342   -0.753778
    153          0           0        2.300004    1.351342    0.753778
    154          0           0        2.301331    0.500415   -0.965926
    155          0           0        2.301331    0.500415    0.965926
    156          0           0        2.301331    0.923065   -0.965926
    157          0           0        2.301331    0.923065    0.965926
    158          0           0        2.312331    1.602060   -0.433783
    159          0           0        2.312331    1.602060    0.433783
    160          0           0        2.312810    1.692525   -0.137950
    161          0           0        2.312810    1.692525    0.137950
    162          0           0        2.450760    0.285339   -0.904534
    163          0           0        2.450760    0.285339    0.904534
    164          0           0        2.450760    0.711740   -1.000000
    165          0           0        2.450760    0.711740    1.000000
    166          0           0        2.450760    1.138141   -0.904534
    167          0           0        2.450760    1.138141    0.904534
    168          0           0        2.450760    1.528237   -0.577350
    169          0           0        2.450760    1.528237    0.577350
    170          0           0        2.450760    1.671423   -0.281085
    171          0           0        2.450760    1.671423    0.281085
    172          0           0        2.450760    1.711740    0.000000
    173          0           0        2.600189    0.500415   -0.965926
    174          0           0        2.600189    0.500415    0.965926
    175          0           0        2.600189    0.923065   -0.965926
    176          0           0        2.600189    0.923065    0.965926
    177          0           0        2.601516    0.072138   -0.753778
    178          0           0        2.601516    0.072138    0.753778
    179          0           0        2.601516    1.351342   -0.753778
    180          0           0        2.601516    1.351342    0.753778
    181          0           0        2.645850    0.711740   -0.980785
    182          0           0        2.645850    0.711740    0.980785
    183          0           0        2.739435    0.303492   -0.866025
    184          0           0        2.739435    0.303492    0.866025
    185          0           0        2.739435    1.119988   -0.866025
    186          0           0        2.739435    1.119988    0.866025
    187          0           0        2.794205    0.502893   -0.915657
    188          0           0        2.794205    0.502893    0.915657
    189          0           0        2.794205    0.920587   -0.915657
    190          0           0        2.794205    0.920587    0.915657
    191          0           0        2.833443    0.711740   -0.923880
    192          0           0        2.833443    0.711740    0.923880
    193          0           0        2.859008    0.134390   -0.707107
    194          0           0        2.859008    0.134390    0.707107
    195          0           0        2.932634    0.307125   -0.777228
    196          0           0        2.932634    0.307125    0.777228
    197          0           0        2.950760    0.004633   -0.500000
    198          0           0        2.950760    0.004633    0.500000
    199          0           0        2.988816    0.512983   -0.819141
    200          0           0        2.988816    0.512983    0.819141
    201          0           0        3.006330    0.711740   -0.831470
    202          0           0        3.006330    0.711740    0.831470
    203          0           0        3.038698    0.156170   -0.587938
    204          0           0        3.038698    0.156170    0.587938
    205          0           0        3.104041    0.329057   -0.653281
    206          0           0        3.104041    0.329057    0.653281
    207          0           0        3.144280    0.516650   -0.693520
    208          0           0        3.144280    0.516650    0.693520
    209          0           0        3.157867    0.134390   -0.408248
    210          0           0        3.157867    0.134390    0.408248
    211          0           0        3.204538    0.072138   -0.150756
    212          0           0        3.204538    0.072138    0.150756
    213          0           0        3.227988    0.307125   -0.481874
    214          0           0        3.227988    0.307125    0.481874
    215          0           0        3.316785    0.303492   -0.288675
    216          0           0        3.316785    0.303492    0.288675
    217          0           0        0.335733    1.620217   -0.343445
    218          0           0        0.335733    1.620217    0.343445
 ---------------------------------------------------------------------
 Rotational constants (GHZ):      3.0751358      1.2130944      0.8699230
 Standard basis: 6-311+G(d,p) (5D, 7F)
 Warning:  center  19 has no basis functions!
 Warning:  center  20 has no basis functions!
 Warning:  center  21 has no basis functions!
 Warning:  center  22 has no basis functions!
 Warning:  center  23 has no basis functions!
 Warning:  center  24 has no basis functions!
 Warning:  center  25 has no basis functions!
 Warning:  center  26 has no basis functions!
 Warning:  center  27 has no basis functions!
 Warning:  center  28 has no basis functions!
 Warning:  center  29 has no basis functions!
 Warning:  center  30 has no basis functions!
 Warning:  center  31 has no basis functions!
 Warning:  center  32 has no basis functions!
 Warning:  center  33 has no basis functions!
 Warning:  center  34 has no basis functions!
 Warning:  center  35 has no basis functions!
 Warning:  center  36 has no basis functions!
 Warning:  center  37 has no basis functions!
 Warning:  center  38 has no basis functions!
 Warning:  center  39 has no basis functions!
 Warning:  center  40 has no basis functions!
 Warning:  center  41 has no basis functions!
 Warning:  center  42 has no basis functions!
 Warning:  center  43 has no basis functions!
 Warning:  center  44 has no basis functions!
 Warning:  center  45 has no basis functions!
 Warning:  center  46 has no basis functions!
 Warning:  center  47 has no basis functions!
 Warning:  center  48 has no basis functions!
 Warning:  center  49 has no basis functions!
 Warning:  center  50 has no basis functions!
 Warning:  center  51 has no basis functions!
 Warning:  center  52 has no basis functions!
 Warning:  center  53 has no basis functions!
 Warning:  center  54 has no basis functions!
 Warning:  center  55 has no basis functions!
 Warning:  center  56 has no basis functions!
 Warning:  center  57 has no basis functions!
 Warning:  center  58 has no basis functions!
 Warning:  center  59 has no basis functions!
 Warning:  center  60 has no basis functions!
 Warning:  center  61 has no basis functions!
 Warning:  center  62 has no basis functions!
 Warning:  center  63 has no basis functions!
 Warning:  center  64 has no basis functions!
 Warning:  center  65 has no basis functions!
 Warning:  center  66 has no basis functions!
 Warning:  center  67 has no basis functions!
 Warning:  center  68 has no basis functions!
 Warning:  center  69 has no basis functions!
 Warning:  center  70 has no basis functions!
 Warning:  center  71 has no basis functions!
 Warning:  center  72 has no basis functions!
 Warning:  center  73 has no basis functions!
 Warning:  center  74 has no basis functions!
 Warning:  center  75 has no basis functions!
 Warning:  center  76 has no basis functions!
 Warning:  center  77 has no basis functions!
 Warning:  center  78 has no basis functions!
 Warning:  center  79 has no basis functions!
 Warning:  center  80 has no basis functions!
 Warning:  center  81 has no basis functions!
 Warning:  center  82 has no basis functions!
 Warning:  center  83 has no basis functions!
 Warning:  center  84 has no basis functions!
 Warning:  center  85 has no basis functions!
 Warning:  center  86 has no basis functions!
 Warning:  center  87 has no basis functions!
 Warning:  center  88 has no basis functions!
 Warning:  center  89 has no basis functions!
 Warning:  center  90 has no basis functions!
 Warning:  center  91 has no basis functions!
 Warning:  center  92 has no basis functions!
 Warning:  center  93 has no basis functions!
 Warning:  center  94 has no basis functions!
 Warning:  center  95 has no basis functions!
 Warning:  center  96 has no basis functions!
 Warning:  center  97 has no basis functions!
 Warning:  center  98 has no basis functions!
 Warning:  center  99 has no basis functions!
 Warning:  center 100 has no basis functions!
 Warning:  center 101 has no basis functions!
 Warning:  center 102 has no basis functions!
 Warning:  center 103 has no basis functions!
 Warning:  center 104 has no basis functions!
 Warning:  center 105 has no basis functions!
 Warning:  center 106 has no basis functions!
 Warning:  center 107 has no basis functions!
 Warning:  center 108 has no basis functions!
 Warning:  center 109 has no basis functions!
 Warning:  center 110 has no basis functions!
 Warning:  center 111 has no basis functions!
 Warning:  center 112 has no basis functions!
 Warning:  center 113 has no basis functions!
 Warning:  center 114 has no basis functions!
 Warning:  center 115 has no basis functions!
 Warning:  center 116 has no basis functions!
 Warning:  center 117 has no basis functions!
 Warning:  center 118 has no basis functions!
 Warning:  center 119 has no basis functions!
 Warning:  center 120 has no basis functions!
 Warning:  center 121 has no basis functions!
 Warning:  center 122 has no basis functions!
 Warning:  center 123 has no basis functions!
 Warning:  center 124 has no basis functions!
 Warning:  center 125 has no basis functions!
 Warning:  center 126 has no basis functions!
 Warning:  center 127 has no basis functions!
 Warning:  center 128 has no basis functions!
 Warning:  center 129 has no basis functions!
 Warning:  center 130 has no basis functions!
 Warning:  center 131 has no basis functions!
 Warning:  center 132 has no basis functions!
 Warning:  center 133 has no basis functions!
 Warning:  center 134 has no basis functions!
 Warning:  center 135 has no basis functions!
 Warning:  center 136 has no basis functions!
 Warning:  center 137 has no basis functions!
 Warning:  center 138 has no basis functions!
 Warning:  center 139 has no basis functions!
 Warning:  center 140 has no basis functions!
 Warning:  center 141 has no basis functions!
 Warning:  center 142 has no basis functions!
 Warning:  center 143 has no basis functions!
 Warning:  center 144 has no basis functions!
 Warning:  center 145 has no basis functions!
 Warning:  center 146 has no basis functions!
 Warning:  center 147 has no basis functions!
 Warning:  center 148 has no basis functions!
 Warning:  center 149 has no basis functions!
 Warning:  center 150 has no basis functions!
 Warning:  center 151 has no basis functions!
 Warning:  center 152 has no basis functions!
 Warning:  center 153 has no basis functions!
 Warning:  center 154 has no basis functions!
 Warning:  center 155 has no basis functions!
 Warning:  center 156 has no basis functions!
 Warning:  center 157 has no basis functions!
 Warning:  center 158 has no basis functions!
 Warning:  center 159 has no basis functions!
 Warning:  center 160 has no basis functions!
 Warning:  center 161 has no basis functions!
 Warning:  center 162 has no basis functions!
 Warning:  center 163 has no basis functions!
 Warning:  center 164 has no basis functions!
 Warning:  center 165 has no basis functions!
 Warning:  center 166 has no basis functions!
 Warning:  center 167 has no basis functions!
 Warning:  center 168 has no basis functions!
 Warning:  center 169 has no basis functions!
 Warning:  center 170 has no basis functions!
 Warning:  center 171 has no basis functions!
 Warning:  center 172 has no basis functions!
 Warning:  center 173 has no basis functions!
 Warning:  center 174 has no basis functions!
 Warning:  center 175 has no basis functions!
 Warning:  center 176 has no basis functions!
 Warning:  center 177 has no basis functions!
 Warning:  center 178 has no basis functions!
 Warning:  center 179 has no basis functions!
 Warning:  center 180 has no basis functions!
 Warning:  center 181 has no basis functions!
 Warning:  center 182 has no basis functions!
 Warning:  center 183 has no basis functions!
 Warning:  center 184 has no basis functions!
 Warning:  center 185 has no basis functions!
 Warning:  center 186 has no basis functions!
 Warning:  center 187 has no basis functions!
 Warning:  center 188 has no basis functions!
 Warning:  center 189 has no basis functions!
 Warning:  center 190 has no basis functions!
 Warning:  center 191 has no basis functions!
 Warning:  center 192 has no basis functions!
 Warning:  center 193 has no basis functions!
 Warning:  center 194 has no basis functions!
 Warning:  center 195 has no basis functions!
 Warning:  center 196 has no basis functions!
 Warning:  center 197 has no basis functions!
 Warning:  center 198 has no basis functions!
 Warning:  center 199 has no basis functions!
 Warning:  center 200 has no basis functions!
 Warning:  center 201 has no basis functions!
 Warning:  center 202 has no basis functions!
 Warning:  center 203 has no basis functions!
 Warning:  center 204 has no basis functions!
 Warning:  center 205 has no basis functions!
 Warning:  center 206 has no basis functions!
 Warning:  center 207 has no basis functions!
 Warning:  center 208 has no basis functions!
 Warning:  center 209 has no basis functions!
 Warning:  center 210 has no basis functions!
 Warning:  center 211 has no basis functions!
 Warning:  center 212 has no basis functions!
 Warning:  center 213 has no basis functions!
 Warning:  center 214 has no basis functions!
 Warning:  center 215 has no basis functions!
 Warning:  center 216 has no basis functions!
 Warning:  center 217 has no basis functions!
 Warning:  center 218 has no basis functions!
   268 basis functions,   424 primitive gaussians,   278 cartesian basis functions
    34 alpha electrons       34 beta electrons
       nuclear repulsion energy       453.8675371600 Hartrees.
 NAtoms=  218 NActive=  218 NUniq=  218 SFac= 1.00D+00 NAtFMM=   60 NAOKFM=T Big=T
 Integral buffers will be    131072 words long.
 Raffenetti 2 integral format.
 Two-electron integral symmetry is turned off.
 One-electron integrals computed using PRISM.
 NBasis=   268 RedAO= T EigKep=  1.12D-06  NBF=   268
 NBsUse=   267 1.00D-06 EigRej=  6.14D-07 NBFU=   267
 ExpMin= 4.38D-02 ExpMax= 4.56D+03 ExpMxC= 6.82D+02 IAcc=2 IRadAn=         4 AccDes= 0.00D+00
 Harris functional with IExCor=  402 and IRadAn=       4 diagonalized for initial guess.
 HarFok:  IExCor=  402 AccDes= 0.00D+00 IRadAn=         4 IDoV= 1 UseB2=F ITyADJ=14
 ICtDFT=  3500011 ScaDFX=  1.000000  1.000000  1.000000  1.000000
 FoFCou: FMM=F IPFlag=           0 FMFlag=      100000 FMFlg1=        2001
         NFxFlg=           0 DoJE=T BraDBF=F KetDBF=T FulRan=T
         wScrn=  0.000000 ICntrl=     500 IOpCl=  0 I1Cent=   200000004 NGrid=           0
         NMat0=    1 NMatS0=      1 NMatT0=    0 NMatD0=    1 NMtDS0=    0 NMtDT0=    0
 Symmetry not used in FoFCou.
 Requested convergence on RMS density matrix=1.00D-08 within 128 cycles.
 Requested convergence on MAX density matrix=1.00D-06.
 Requested convergence on             energy=1.00D-06.
 No special actions if energy rises.
 SCF Done:  E(RB3LYP) =  -385.985931946     A.U. after   11 cycles
            NFock= 11  Conv=0.78D-08     -V/T= 2.0059
 DoSCS=F DFT=T ScalE2(SS,OS)=  1.000000  1.000000
 Range of M.O.s used for correlation:     1   267
 NBasis=   268 NAE=    34 NBE=    34 NFC=     0 NFV=     0
 NROrb=    267 NOA=    34 NOB=    34 NVA=   233 NVB=   233

 **** Warning!!: The largest alpha MO coefficient is  0.20992189D+03

          Differentiating once with respect to magnetic field using GIAOs.
          Electric field/nuclear overlap derivatives assumed to be zero.
 FoFCou: FMM=F IPFlag=           0 FMFlag=      100000 FMFlg1=        2001
         NFxFlg=           0 DoJE=F BraDBF=F KetDBF=T FulRan=T
         wScrn=  0.000000 ICntrl=    6100 IOpCl=  0 I1Cent=           7 NGrid=         218
         NMat0=    1 NMatS0=      1 NMatT0=    0 NMatD0=    1 NMtDS0=    0 NMtDT0=    0
 Symmetry not used in FoFCou.
 FoFJK:  IHMeth= 1 ICntrl=    6127 DoSepK=F KAlg= 0 I1Cent=   0 FoldK=F
 IRaf=         1 NMat=   1 IRICut=       1 DoRegI=T DoRafI=F ISym2E= 0.
          There are     3 degrees of freedom in the 1st order CPHF.  IDoFFX=0 NUNeed=     3.
      3 vectors produced by pass  0 Test12= 2.64D-13 3.33D-08 XBig12= 1.44D+02 6.48D+00.
 AX will form     3 AO Fock derivatives at one time.
      3 vectors produced by pass  1 Test12= 2.64D-13 3.33D-08 XBig12= 2.28D-01 1.79D-01.
      3 vectors produced by pass  2 Test12= 2.64D-13 3.33D-08 XBig12= 7.58D-04 1.41D-02.
      3 vectors produced by pass  3 Test12= 2.64D-13 3.33D-08 XBig12= 2.19D-06 6.12D-04.
      3 vectors produced by pass  4 Test12= 2.64D-13 3.33D-08 XBig12= 2.99D-09 2.39D-05.
      3 vectors produced by pass  5 Test12= 2.64D-13 3.33D-08 XBig12= 6.15D-12 9.51D-07.
      1 vectors produced by pass  6 Test12= 2.64D-13 3.33D-08 XBig12= 9.29D-15 3.79D-08.
 InvSVY:  IOpt=1 It=  1 EMax= 1.78D-15
 Solved reduced A of dimension    19 with     3 vectors.
 Calculating GIAO nuclear magnetic shielding tensors.
 SCF GIAO Magnetic shielding tensor (ppm):
      1  C    Isotropic =    48.8814   Anisotropy =   178.3631
   XX=   -26.3877   YX=    47.3635   ZX=     0.0000
   XY=    49.5434   YY=     5.2417   ZY=     0.0000
   XZ=     0.0000   YZ=     0.0000   ZZ=   167.7901
   Eigenvalues:   -61.5420    40.3960   167.7901
      2  C    Isotropic =    48.8814   Anisotropy =   178.3631
   XX=   -26.3877   YX=   -47.3635   ZX=     0.0000
   XY=   -49.5434   YY=     5.2417   ZY=     0.0000
   XZ=     0.0000   YZ=     0.0000   ZZ=   167.7901
   Eigenvalues:   -61.5420    40.3960   167.7901
      3  C    Isotropic =    47.0315   Anisotropy =   159.6105
   XX=    39.7012   YX=   -14.9645   ZX=     0.0000
   XY=   -12.8373   YY=   -52.0452   ZY=     0.0000
   XZ=     0.0000   YZ=     0.0000   ZZ=   153.4385
   Eigenvalues:   -54.1051    41.7611   153.4385
      4  C    Isotropic =    40.3220   Anisotropy =   214.7654
   XX=   -33.3511   YX=     0.0000   ZX=     0.0000
   XY=     0.0000   YY=   -29.1819   ZY=     0.0000
   XZ=     0.0000   YZ=     0.0000   ZZ=   183.4989
   Eigenvalues:   -33.3511   -29.1819   183.4989
      5  C    Isotropic =    47.0315   Anisotropy =   159.6105
   XX=    39.7012   YX=    14.9645   ZX=     0.0000
   XY=    12.8373   YY=   -52.0452   ZY=     0.0000
   XZ=     0.0000   YZ=     0.0000   ZZ=   153.4385
   Eigenvalues:   -54.1051    41.7611   153.4385
      6  C    Isotropic =    48.8814   Anisotropy =   178.3631
   XX=   -26.3877   YX=    47.3635   ZX=     0.0000
   XY=    49.5434   YY=     5.2417   ZY=     0.0000
   XZ=     0.0000   YZ=     0.0000   ZZ=   167.7901
   Eigenvalues:   -61.5420    40.3960   167.7901
      7  C    Isotropic =    48.8814   Anisotropy =   178.3631
   XX=   -26.3877   YX=   -47.3635   ZX=     0.0000
   XY=   -49.5434   YY=     5.2417   ZY=     0.0000
   XZ=     0.0000   YZ=     0.0000   ZZ=   167.7901
   Eigenvalues:   -61.5420    40.3960   167.7901
      8  C    Isotropic =    47.0315   Anisotropy =   159.6105
   XX=    39.7012   YX=   -14.9645   ZX=     0.0000
   XY=   -12.8373   YY=   -52.0452   ZY=     0.0000
   XZ=     0.0000   YZ=     0.0000   ZZ=   153.4385
   Eigenvalues:   -54.1051    41.7611   153.4385
      9  C    Isotropic =    40.3220   Anisotropy =   214.7654
   XX=   -33.3511   YX=     0.0000   ZX=     0.0000
   XY=     0.0000   YY=   -29.1819   ZY=     0.0000
   XZ=     0.0000   YZ=     0.0000   ZZ=   183.4989
   Eigenvalues:   -33.3511   -29.1819   183.4989
     10  C    Isotropic =    47.0315   Anisotropy =   159.6105
   XX=    39.7012   YX=    14.9645   ZX=     0.0000
   XY=    12.8373   YY=   -52.0452   ZY=     0.0000
   XZ=     0.0000   YZ=     0.0000   ZZ=   153.4385
   Eigenvalues:   -54.1051    41.7611   153.4385
     11  H    Isotropic =    23.8865   Anisotropy =     5.6622
   XX=    25.3494   YX=     1.7328   ZX=     0.0000
   XY=     1.7216   YY=    26.3711   ZY=     0.0000
   XZ=     0.0000   YZ=     0.0000   ZZ=    19.9391
   Eigenvalues:    19.9391    24.0591    27.6614
     12  H    Isotropic =    23.8865   Anisotropy =     5.6622
   XX=    25.3494   YX=    -1.7328   ZX=     0.0000
   XY=    -1.7216   YY=    26.3711   ZY=     0.0000
   XZ=     0.0000   YZ=     0.0000   ZZ=    19.9391
   Eigenvalues:    19.9391    24.0591    27.6614
     13  H    Isotropic =    23.5289   Anisotropy =     7.4859
   XX=    28.4698   YX=    -0.2957   ZX=     0.0000
   XY=    -0.7473   YY=    23.0511   ZY=     0.0000
   XZ=     0.0000   YZ=     0.0000   ZZ=    19.0659
   Eigenvalues:    19.0659    23.0014    28.5196
     14  H    Isotropic =    23.5289   Anisotropy =     7.4859
   XX=    28.4698   YX=     0.2957   ZX=     0.0000
   XY=     0.7473   YY=    23.0511   ZY=     0.0000
   XZ=     0.0000   YZ=     0.0000   ZZ=    19.0659
   Eigenvalues:    19.0659    23.0014    28.5196
     15  H    Isotropic =    23.8865   Anisotropy =     5.6622
   XX=    25.3494   YX=     1.7328   ZX=     0.0000
   XY=     1.7216   YY=    26.3711   ZY=     0.0000
   XZ=     0.0000   YZ=     0.0000   ZZ=    19.9391
   Eigenvalues:    19.9391    24.0591    27.6614
     16  H    Isotropic =    23.8865   Anisotropy =     5.6622
   XX=    25.3494   YX=    -1.7328   ZX=     0.0000
   XY=    -1.7216   YY=    26.3711   ZY=     0.0000
   XZ=     0.0000   YZ=     0.0000   ZZ=    19.9391
   Eigenvalues:    19.9391    24.0591    27.6614
     17  H    Isotropic =    23.5289   Anisotropy =     7.4859
   XX=    28.4698   YX=    -0.2957   ZX=     0.0000
   XY=    -0.7473   YY=    23.0511   ZY=     0.0000
   XZ=     0.0000   YZ=     0.0000   ZZ=    19.0659
   Eigenvalues:    19.0659    23.0014    28.5196
     18  H    Isotropic =    23.5289   Anisotropy =     7.4859
   XX=    28.4698   YX=     0.2957   ZX=     0.0000
   XY=     0.7473   YY=    23.0511   ZY=     0.0000
   XZ=     0.0000   YZ=     0.0000   ZZ=    19.0659
   Eigenvalues:    19.0659    23.0014    28.5196
     19  Bq   Isotropic =    24.0242   Anisotropy =    30.8280
   XX=    11.2992   YX=    -1.4525   ZX=    -2.9454
   XY=    -0.8863   YY=    16.4772   ZY=     1.4234
   XZ=    -2.5511   YZ=     0.8234   ZZ=    44.2962
   Eigenvalues:    10.8652    16.6312    44.5762
     20  Bq   Isotropic =    24.0242   Anisotropy =    30.8280
   XX=    11.2992   YX=    -1.4525   ZX=     2.9454
   XY=    -0.8863   YY=    16.4772   ZY=    -1.4234
   XZ=     2.5511   YZ=    -0.8234   ZZ=    44.2962
   Eigenvalues:    10.8652    16.6312    44.5762
     21  Bq   Isotropic =    20.7489   Anisotropy =    30.0092
   XX=     7.6899   YX=     0.6139   ZX=    -3.2233
   XY=     1.2714   YY=    13.9508   ZY=     0.9792
   XZ=    -1.2158   YZ=    -0.9381   ZZ=    40.6060
   Eigenvalues:     7.4054    14.0863    40.7551
     22  Bq   Isotropic =    20.7489   Anisotropy =    30.0092
   XX=     7.6899   YX=     0.6139   ZX=     3.2233
   XY=     1.2714   YY=    13.9508   ZY=    -0.9792
   XZ=     1.2158   YZ=     0.9381   ZZ=    40.6060
   Eigenvalues:     7.4054    14.0863    40.7551
     23  Bq   Isotropic =    21.5892   Anisotropy =    31.6096
   XX=     9.0870   YX=    -0.4672   ZX=    -3.8146
   XY=     0.2603   YY=    14.1007   ZY=     0.7227
   XZ=    -6.6454   YZ=     4.7749   ZZ=    41.5800
   Eigenvalues:     8.2473    13.8581    42.6623
     24  Bq   Isotropic =    21.5892   Anisotropy =    31.6096
   XX=     9.0870   YX=    -0.4672   ZX=     3.8146
   XY=     0.2603   YY=    14.1007   ZY=    -0.7227
   XZ=     6.6454   YZ=    -4.7749   ZZ=    41.5800
   Eigenvalues:     8.2473    13.8581    42.6623
     25  Bq   Isotropic =    22.8770   Anisotropy =    29.4819
   XX=    12.1702   YX=    -2.0722   ZX=    -3.5299
   XY=    -1.5975   YY=    16.0721   ZY=     1.2296
   XZ=    -8.0356   YZ=     8.5483   ZZ=    40.3888
   Eigenvalues:    10.8627    15.2367    42.5317
     26  Bq   Isotropic =    22.8770   Anisotropy =    29.4819
   XX=    12.1702   YX=    -2.0722   ZX=     3.5299
   XY=    -1.5975   YY=    16.0721   ZY=    -1.2296
   XZ=     8.0356   YZ=    -8.5483   ZZ=    40.3888
   Eigenvalues:    10.8627    15.2367    42.5317
     27  Bq   Isotropic =    20.0998   Anisotropy =    32.0418
   XX=     6.8995   YX=     1.1103   ZX=    -3.7422
   XY=     1.7755   YY=    12.5863   ZY=     0.9779
   XZ=    -5.1477   YZ=     2.3485   ZZ=    40.8135
   Eigenvalues:     5.9177    12.9206    41.4609
     28  Bq   Isotropic =    20.0998   Anisotropy =    32.0418
   XX=     6.8995   YX=     1.1103   ZX=     3.7422
   XY=     1.7755   YY=    12.5863   ZY=    -0.9779
   XZ=     5.1477   YZ=    -2.3485   ZZ=    40.8135
   Eigenvalues:     5.9177    12.9206    41.4609
     29  Bq   Isotropic =    22.3941   Anisotropy =    24.6414
   XX=    14.9760   YX=    -3.3385   ZX=    -2.8801
   XY=    -3.2070   YY=    18.1566   ZY=     1.8819
   XZ=    -9.2233   YZ=    12.6337   ZZ=    34.0497
   Eigenvalues:    12.7559    15.6048    38.8217
     30  Bq   Isotropic =    22.3941   Anisotropy =    24.6414
   XX=    14.9760   YX=    -3.3385   ZX=     2.8801
   XY=    -3.2070   YY=    18.1566   ZY=    -1.8819
   XZ=     9.2233   YZ=   -12.6337   ZZ=    34.0497
   Eigenvalues:    12.7559    15.6048    38.8217
     31  Bq   Isotropic =    19.7618   Anisotropy =    32.0576
   XX=     6.8692   YX=     2.1404   ZX=    -3.4589
   XY=     2.3867   YY=    11.6734   ZY=     1.7328
   XZ=    -3.3401   YZ=     1.2208   ZZ=    40.7427
   Eigenvalues:     5.5805    12.5714    41.1335
     32  Bq   Isotropic =    19.7618   Anisotropy =    32.0576
   XX=     6.8692   YX=     2.1404   ZX=     3.4589
   XY=     2.3867   YY=    11.6734   ZY=    -1.7328
   XZ=     3.3401   YZ=    -1.2208   ZZ=    40.7427
   Eigenvalues:     5.5805    12.5714    41.1335
     33  Bq   Isotropic =    19.7447   Anisotropy =    19.4330
   XX=    16.3725   YX=    -3.7651   ZX=    -2.0548
   XY=    -3.8440   YY=    19.1441   ZY=     1.8004
   XZ=    -9.3752   YZ=    14.3469   ZZ=    23.7174
   Eigenvalues:    12.8235    13.7105    32.7000
     34  Bq   Isotropic =    19.7447   Anisotropy =    19.4330
   XX=    16.3725   YX=    -3.7651   ZX=     2.0548
   XY=    -3.8440   YY=    19.1441   ZY=    -1.8004
   XZ=     9.3752   YZ=   -14.3469   ZZ=    23.7174
   Eigenvalues:    12.8235    13.7105    32.7000
     35  Bq   Isotropic =    21.4939   Anisotropy =    32.2905
   XX=     9.7040   YX=     1.7999   ZX=    -3.6102
   XY=     1.6892   YY=    11.9725   ZY=     1.6829
   XZ=    -1.2816   YZ=     0.6939   ZZ=    42.8050
   Eigenvalues:     8.5420    12.9187    43.0209
     36  Bq   Isotropic =    21.4939   Anisotropy =    32.2905
   XX=     9.7040   YX=     1.7999   ZX=     3.6102
   XY=     1.6892   YY=    11.9725   ZY=    -1.6829
   XZ=     1.2816   YZ=    -0.6939   ZZ=    42.8050
   Eigenvalues:     8.5420    12.9187    43.0209
     37  Bq   Isotropic =    19.0914   Anisotropy =    30.7410
   XX=     8.2324   YX=     0.0493   ZX=    -4.2115
   XY=     0.5765   YY=    11.7979   ZY=     0.7456
   XZ=   -10.6319   YZ=     7.4636   ZZ=    37.2439
   Eigenvalues:     6.1356    11.5531    39.5854
     38  Bq   Isotropic =    19.0914   Anisotropy =    30.7410
   XX=     8.2324   YX=     0.0493   ZX=     4.2115
   XY=     0.5765   YY=    11.7979   ZY=    -0.7456
   XZ=    10.6319   YZ=    -7.4636   ZZ=    37.2439
   Eigenvalues:     6.1356    11.5531    39.5854
     39  Bq   Isotropic =    18.5588   Anisotropy =    27.7096
   XX=    10.4545   YX=    -1.1351   ZX=    -4.0971
   XY=    -0.9578   YY=    12.2090   ZY=     0.7697
   XZ=   -11.8536   YZ=    11.2966   ZZ=    33.0129
   Eigenvalues:     7.7033    10.9413    37.0319
     40  Bq   Isotropic =    18.5588   Anisotropy =    27.7096
   XX=    10.4545   YX=    -1.1351   ZX=     4.0971
   XY=    -0.9578   YY=    12.2090   ZY=    -0.7697
   XZ=    11.8536   YZ=   -11.2966   ZZ=    33.0129
   Eigenvalues:     7.7033    10.9413    37.0319
     41  Bq   Isotropic =    18.7810   Anisotropy =    31.8716
   XX=     6.9858   YX=     1.1682   ZX=    -4.0275
   XY=     1.5926   YY=    11.0796   ZY=     1.3849
   XZ=    -9.9605   YZ=     4.7927   ZZ=    38.2777
   Eigenvalues:     4.8342    11.4801    40.0287
     42  Bq   Isotropic =    18.7810   Anisotropy =    31.8716
   XX=     6.9858   YX=     1.1682   ZX=     4.0275
   XY=     1.5926   YY=    11.0796   ZY=    -1.3849
   XZ=     9.9605   YZ=    -4.7927   ZZ=    38.2777
   Eigenvalues:     4.8342    11.4801    40.0287
     43  Bq   Isotropic =    17.0494   Anisotropy =    23.2134
   XX=    12.7379   YX=    -2.0367   ZX=    -3.5254
   XY=    -2.4346   YY=    12.6782   ZY=     1.0694
   XZ=   -11.9140   YZ=    14.4011   ZZ=    25.7320
   Eigenvalues:     8.1504    10.4728    32.5250
     44  Bq   Isotropic =    17.0494   Anisotropy =    23.2134
   XX=    12.7379   YX=    -2.0367   ZX=     3.5254
   XY=    -2.4346   YY=    12.6782   ZY=    -1.0694
   XZ=    11.9140   YZ=   -14.4011   ZZ=    25.7320
   Eigenvalues:     8.1504    10.4728    32.5250
     45  Bq   Isotropic =    19.5594   Anisotropy =    32.4289
   XX=     7.8441   YX=     1.6507   ZX=    -3.8245
   XY=     1.7387   YY=    11.0157   ZY=     2.1196
   XZ=    -8.8390   YZ=     2.8774   ZZ=    39.8185
   Eigenvalues:     5.7501    11.7494    41.1787
     46  Bq   Isotropic =    19.5594   Anisotropy =    32.4289
   XX=     7.8441   YX=     1.6507   ZX=     3.8245
   XY=     1.7387   YY=    11.0157   ZY=    -2.1196
   XZ=     8.8390   YZ=    -2.8774   ZZ=    39.8185
   Eigenvalues:     5.7501    11.7494    41.1787
     47  Bq   Isotropic =    12.9564   Anisotropy =    15.0739
   XX=    16.6112   YX=    -2.6835   ZX=    -0.8734
   XY=    -3.3635   YY=    16.6695   ZY=     0.6992
   XZ=    -7.3336   YZ=    12.4538   ZZ=     5.5884
   Eigenvalues:     2.0831    13.7804    23.0056
     48  Bq   Isotropic =    12.9564   Anisotropy =    15.0739
   XX=    16.6112   YX=    -2.6835   ZX=     0.8734
   XY=    -3.3635   YY=    16.6695   ZY=    -0.6992
   XZ=     7.3336   YZ=   -12.4538   ZZ=     5.5884
   Eigenvalues:     2.0831    13.7804    23.0056
     49  Bq   Isotropic =    16.6903   Anisotropy =    28.5071
   XX=     8.1595   YX=     0.0669   ZX=    -4.0043
   XY=     0.3004   YY=    10.0010   ZY=     0.8733
   XZ=   -13.9206   YZ=     8.6878   ZZ=    31.9105
   Eigenvalues:     4.5580     9.8179    35.6951
     50  Bq   Isotropic =    16.6903   Anisotropy =    28.5071
   XX=     8.1595   YX=     0.0669   ZX=     4.0043
   XY=     0.3004   YY=    10.0010   ZY=    -0.8733
   XZ=    13.9206   YZ=    -8.6878   ZZ=    31.9105
   Eigenvalues:     4.5580     9.8179    35.6951
     51  Bq   Isotropic =    12.5074   Anisotropy =    16.8448
   XX=    14.5238   YX=    -1.9389   ZX=    -1.9170
   XY=    -3.3395   YY=    11.5115   ZY=     0.9229
   XZ=    -9.9404   YZ=    15.3531   ZZ=    11.4870
   Eigenvalues:     2.7927    10.9923    23.7373
     52  Bq   Isotropic =    12.5074   Anisotropy =    16.8448
   XX=    14.5238   YX=    -1.9389   ZX=     1.9170
   XY=    -3.3395   YY=    11.5115   ZY=    -0.9229
   XZ=     9.9404   YZ=   -15.3531   ZZ=    11.4870
   Eigenvalues:     2.7927    10.9923    23.7373
     53  Bq   Isotropic =    23.1560   Anisotropy =    31.8391
   XX=    13.8570   YX=     0.6554   ZX=    -4.5030
   XY=     0.5293   YY=    12.5624   ZY=     1.2873
   XZ=    -8.1166   YZ=     0.8805   ZZ=    43.0487
   Eigenvalues:    11.7437    13.3423    44.3821
     54  Bq   Isotropic =    23.1560   Anisotropy =    31.8391
   XX=    13.8570   YX=     0.6554   ZX=     4.5030
   XY=     0.5293   YY=    12.5624   ZY=    -1.2873
   XZ=     8.1166   YZ=    -0.8805   ZZ=    43.0487
   Eigenvalues:    11.7437    13.3423    44.3821
     55  Bq   Isotropic =    15.3534   Anisotropy =    24.9920
   XX=     9.8723   YX=    -0.7366   ZX=    -3.5815
   XY=    -0.9196   YY=     9.6126   ZY=     0.5451
   XZ=   -14.0394   YZ=    11.9504   ZZ=    26.5753
   Eigenvalues:     5.1228     8.9226    32.0148
     56  Bq   Isotropic =    15.3534   Anisotropy =    24.9920
   XX=     9.8723   YX=    -0.7366   ZX=     3.5815
   XY=    -0.9196   YY=     9.6126   ZY=    -0.5451
   XZ=    14.0394   YZ=   -11.9504   ZZ=    26.5753
   Eigenvalues:     5.1228     8.9226    32.0148
     57  Bq   Isotropic =    17.0830   Anisotropy =    29.7794
   XX=     7.5519   YX=     0.6753   ZX=    -3.9629
   XY=     0.8937   YY=     9.9900   ZY=     1.6272
   XZ=   -14.1141   YZ=     5.8069   ZZ=    33.7070
   Eigenvalues:     4.1108    10.2023    36.9359
     58  Bq   Isotropic =    17.0830   Anisotropy =    29.7794
   XX=     7.5519   YX=     0.6753   ZX=     3.9629
   XY=     0.8937   YY=     9.9900   ZY=    -1.6272
   XZ=    14.1141   YZ=    -5.8069   ZZ=    33.7070
   Eigenvalues:     4.1108    10.2023    36.9359
     59  Bq   Isotropic =     8.5652   Anisotropy =    14.3267
   XX=    16.3858   YX=    -1.0143   ZX=    -0.1244
   XY=    -2.5973   YY=    13.1620   ZY=     0.2238
   XZ=    -4.8025   YZ=     9.6923   ZZ=    -3.8522
   Eigenvalues:    -5.3611    12.9403    18.1163
     60  Bq   Isotropic =     8.5652   Anisotropy =    14.3267
   XX=    16.3858   YX=    -1.0143   ZX=     0.1244
   XY=    -2.5973   YY=    13.1620   ZY=    -0.2238
   XZ=     4.8025   YZ=    -9.6923   ZZ=    -3.8522
   Eigenvalues:    -5.3611    12.9403    18.1163
     61  Bq   Isotropic =     6.5504   Anisotropy =    15.1838
   XX=    16.5983   YX=     0.2181   ZX=     0.1496
   XY=    -1.0449   YY=    13.3088   ZY=    -0.1117
   XZ=    -1.3883   YZ=     2.9222   ZZ=   -10.2560
   Eigenvalues:   -10.3526    13.3308    16.6729
     62  Bq   Isotropic =     6.5504   Anisotropy =    15.1838
   XX=    16.5983   YX=     0.2181   ZX=    -0.1496
   XY=    -1.0449   YY=    13.3088   ZY=     0.1117
   XZ=     1.3883   YZ=    -2.9222   ZZ=   -10.2560
   Eigenvalues:   -10.3526    13.3308    16.6729
     63  Bq   Isotropic =     4.5897   Anisotropy =    17.6075
   XX=    16.2751   YX=     1.9703   ZX=     0.0000
   XY=    -0.8060   YY=     9.9258   ZY=     0.0000
   XZ=     0.0000   YZ=     0.0000   ZZ=   -12.4317
   Eigenvalues:   -12.4317     9.8729    16.3281
     64  Bq   Isotropic =     5.4238   Anisotropy =    16.0428
   XX=    16.0882   YX=     1.3112   ZX=     0.5188
   XY=    -1.4465   YY=     9.8857   ZY=     0.1729
   XZ=    -2.1482   YZ=     6.4194   ZZ=    -9.7026
   Eigenvalues:   -10.2662    10.4185    16.1190
     65  Bq   Isotropic =     5.4238   Anisotropy =    16.0428
   XX=    16.0882   YX=     1.3112   ZX=    -0.5188
   XY=    -1.4465   YY=     9.8857   ZY=    -0.1729
   XZ=     2.1482   YZ=    -6.4194   ZZ=    -9.7026
   Eigenvalues:   -10.2662    10.4185    16.1190
     66  Bq   Isotropic =     7.9271   Anisotropy =    13.3864
   XX=    15.1720   YX=    -0.1612   ZX=     0.1193
   XY=    -2.6445   YY=     9.3452   ZY=     0.5346
   XZ=    -5.8035   YZ=    12.7102   ZZ=    -0.7359
   Eigenvalues:    -4.2124    11.1424    16.8513
     67  Bq   Isotropic =     7.9271   Anisotropy =    13.3864
   XX=    15.1720   YX=    -0.1612   ZX=    -0.1193
   XY=    -2.6445   YY=     9.3452   ZY=    -0.5346
   XZ=     5.8035   YZ=   -12.7102   ZZ=    -0.7359
   Eigenvalues:    -4.2124    11.1424    16.8513
     68  Bq   Isotropic =    12.0994   Anisotropy =    18.7333
   XX=    11.5441   YX=    -0.9168   ZX=    -1.9263
   XY=    -1.9743   YY=     8.1367   ZY=     0.2770
   XZ=   -12.6396   YZ=    14.0600   ZZ=    16.6174
   Eigenvalues:     3.0708     8.6392    24.5883
     69  Bq   Isotropic =    12.0994   Anisotropy =    18.7333
   XX=    11.5441   YX=    -0.9168   ZX=     1.9263
   XY=    -1.9743   YY=     8.1367   ZY=    -0.2770
   XZ=    12.6396   YZ=   -14.0600   ZZ=    16.6174
   Eigenvalues:     3.0708     8.6392    24.5883
     70  Bq   Isotropic =    14.3829   Anisotropy =    25.2284
   XX=     8.3122   YX=    -0.2816   ZX=    -3.2523
   XY=    -0.2390   YY=     8.7529   ZY=     0.7482
   XZ=   -16.1450   YZ=     8.5481   ZZ=    26.0836
   Eigenvalues:     3.4619     8.4850    31.2018
     71  Bq   Isotropic =    14.3829   Anisotropy =    25.2284
   XX=     8.3122   YX=    -0.2816   ZX=     3.2523
   XY=    -0.2390   YY=     8.7529   ZY=    -0.7482
   XZ=    16.1450   YZ=    -8.5481   ZZ=    26.0836
   Eigenvalues:     3.4619     8.4850    31.2018
     72  Bq   Isotropic =    17.5887   Anisotropy =    28.5559
   XX=     9.6631   YX=     0.2987   ZX=    -4.0716
   XY=     0.3660   YY=    10.3668   ZY=     2.2121
   XZ=   -15.7090   YZ=     3.2756   ZZ=    32.7362
   Eigenvalues:     5.6505    10.4896    36.6259
     73  Bq   Isotropic =    17.5887   Anisotropy =    28.5559
   XX=     9.6631   YX=     0.2987   ZX=     4.0716
   XY=     0.3660   YY=    10.3668   ZY=    -2.2121
   XZ=    15.7090   YZ=    -3.2756   ZZ=    32.7362
   Eigenvalues:     5.6505    10.4896    36.6259
     74  Bq   Isotropic =    11.7401   Anisotropy =    19.6138
   XX=     9.3340   YX=    -0.6562   ZX=    -1.6014
   XY=    -1.0960   YY=     7.3857   ZY=    -0.1235
   XZ=   -15.0793   YZ=    10.4353   ZZ=    18.5006
   Eigenvalues:     3.2258     7.1785    24.8159
     75  Bq   Isotropic =    11.7401   Anisotropy =    19.6138
   XX=     9.3340   YX=    -0.6562   ZX=     1.6014
   XY=    -1.0960   YY=     7.3857   ZY=     0.1235
   XZ=    15.0793   YZ=   -10.4353   ZZ=    18.5006
   Eigenvalues:     3.2258     7.1785    24.8159
     76  Bq   Isotropic =    13.8176   Anisotropy =    24.0635
   XX=     8.3909   YX=    -0.6610   ZX=    -3.1594
   XY=    -0.4116   YY=     9.0265   ZY=     1.2713
   XZ=   -18.0836   YZ=     5.0854   ZZ=    24.0355
   Eigenvalues:     2.8649     8.7280    29.8599
     77  Bq   Isotropic =    13.8176   Anisotropy =    24.0635
   XX=     8.3909   YX=    -0.6610   ZX=     3.1594
   XY=    -0.4116   YY=     9.0265   ZY=    -1.2713
   XZ=    18.0836   YZ=    -5.0854   ZZ=    24.0355
   Eigenvalues:     2.8649     8.7280    29.8599
     78  Bq   Isotropic =     8.8088   Anisotropy =    12.1750
   XX=    12.8326   YX=     0.1949   ZX=     0.5161
   XY=    -1.9361   YY=     6.8677   ZY=     0.2631
   XZ=    -8.3596   YZ=    14.0176   ZZ=     6.7261
   Eigenvalues:    -0.7141    10.2151    16.9255
     79  Bq   Isotropic =     8.8088   Anisotropy =    12.1750
   XX=    12.8326   YX=     0.1949   ZX=    -0.5161
   XY=    -1.9361   YY=     6.8677   ZY=    -0.2631
   XZ=     8.3596   YZ=   -14.0176   ZZ=     6.7261
   Eigenvalues:    -0.7141    10.2151    16.9255
     80  Bq   Isotropic =    19.9279   Anisotropy =    24.4636
   XX=    16.1945   YX=    -0.2762   ZX=    -4.4775
   XY=    -0.2161   YY=    12.5155   ZY=     1.1178
   XZ=   -15.7747   YZ=     0.7501   ZZ=    31.0737
   Eigenvalues:    11.0405    12.5063    36.2370
     81  Bq   Isotropic =    19.9279   Anisotropy =    24.4636
   XX=    16.1945   YX=    -0.2762   ZX=     4.4775
   XY=    -0.2161   YY=    12.5155   ZY=    -1.1178
   XZ=    15.7747   YZ=    -0.7501   ZZ=    31.0737
   Eigenvalues:    11.0405    12.5063    36.2370
     82  Bq   Isotropic =    12.2102   Anisotropy =    21.2461
   XX=     8.3169   YX=    -0.8221   ZX=    -2.1347
   XY=    -0.7619   YY=     8.0388   ZY=     0.2554
   XZ=   -17.1365   YZ=     7.2726   ZZ=    20.2748
   Eigenvalues:     2.6843     7.5720    26.3742
     83  Bq   Isotropic =    12.2102   Anisotropy =    21.2461
   XX=     8.3169   YX=    -0.8221   ZX=     2.1347
   XY=    -0.7619   YY=     8.0388   ZY=    -0.2554
   XZ=    17.1365   YZ=    -7.2726   ZZ=    20.2748
   Eigenvalues:     2.6843     7.5720    26.3742
     84  Bq   Isotropic =     9.6526   Anisotropy =    13.8046
   XX=    10.2178   YX=    -0.1255   ZX=     0.5219
   XY=    -1.2220   YY=     6.3047   ZY=    -0.5489
   XZ=   -11.8045   YZ=    11.3644   ZZ=    12.4353
   Eigenvalues:     2.2878     7.8144    18.8557
     85  Bq   Isotropic =     9.6526   Anisotropy =    13.8046
   XX=    10.2178   YX=    -0.1255   ZX=    -0.5219
   XY=    -1.2220   YY=     6.3047   ZY=     0.5489
   XZ=    11.8045   YZ=   -11.3644   ZZ=    12.4353
   Eigenvalues:     2.2878     7.8144    18.8557
     86  Bq   Isotropic =    13.6011   Anisotropy =    21.3831
   XX=    10.5506   YX=    -1.4493   ZX=    -3.3942
   XY=    -0.9444   YY=    10.0543   ZY=     1.4856
   XZ=   -19.0516   YZ=     2.1529   ZZ=    20.1983
   Eigenvalues:     3.1588     9.7880    27.8565
     87  Bq   Isotropic =    13.6011   Anisotropy =    21.3831
   XX=    10.5506   YX=    -1.4493   ZX=     3.3942
   XY=    -0.9444   YY=    10.0543   ZY=    -1.4856
   XZ=    19.0516   YZ=    -2.1529   ZZ=    20.1983
   Eigenvalues:     3.1588     9.7880    27.8565
     88  Bq   Isotropic =    10.0836   Anisotropy =    15.7066
   XX=     8.7356   YX=    -0.7254   ZX=    -0.1132
   XY=    -1.0371   YY=     6.9031   ZY=    -0.8543
   XZ=   -14.6460   YZ=     8.2707   ZZ=    14.6122
   Eigenvalues:     3.1234     6.5727    20.5547
     89  Bq   Isotropic =    10.0836   Anisotropy =    15.7066
   XX=     8.7356   YX=    -0.7254   ZX=     0.1132
   XY=    -1.0371   YY=     6.9031   ZY=     0.8543
   XZ=    14.6460   YZ=    -8.2707   ZZ=    14.6122
   Eigenvalues:     3.1234     6.5727    20.5547
     90  Bq   Isotropic =    11.4370   Anisotropy =    19.2849
   XX=     8.5434   YX=    -1.6510   ZX=    -2.2118
   XY=    -1.0916   YY=     8.9226   ZY=     0.5085
   XZ=   -18.6504   YZ=     3.4155   ZZ=    16.8451
   Eigenvalues:     1.4674     8.5500    24.2936
     91  Bq   Isotropic =    11.4370   Anisotropy =    19.2849
   XX=     8.5434   YX=    -1.6510   ZX=     2.2118
   XY=    -1.0916   YY=     8.9226   ZY=    -0.5085
   XZ=    18.6504   YZ=    -3.4155   ZZ=    16.8451
   Eigenvalues:     1.4674     8.5500    24.2936
     92  Bq   Isotropic =    10.3078   Anisotropy =    16.9381
   XX=     8.0123   YX=    -1.3717   ZX=    -0.9253
   XY=    -1.0616   YY=     7.9011   ZY=    -0.5797
   XZ=   -16.9630   YZ=     5.1562   ZZ=    15.0100
   Eigenvalues:     1.8926     7.4309    21.5998
     93  Bq   Isotropic =    10.3078   Anisotropy =    16.9381
   XX=     8.0123   YX=    -1.3717   ZX=     0.9253
   XY=    -1.0616   YY=     7.9011   ZY=     0.5797
   XZ=    16.9630   YZ=    -5.1562   ZZ=    15.0100
   Eigenvalues:     1.8926     7.4309    21.5998
     94  Bq   Isotropic =    13.7535   Anisotropy =    17.2746
   XX=    14.6555   YX=    -1.6667   ZX=    -3.2360
   XY=    -1.0737   YY=    11.9256   ZY=     0.9994
   XZ=   -17.6600   YZ=     0.3198   ZZ=    14.6795
   Eigenvalues:     4.1863    11.8043    25.2699
     95  Bq   Isotropic =    13.7535   Anisotropy =    17.2746
   XX=    14.6555   YX=    -1.6667   ZX=     3.2360
   XY=    -1.0737   YY=    11.9256   ZY=    -0.9994
   XZ=    17.6600   YZ=    -0.3198   ZZ=    14.6795
   Eigenvalues:     4.1863    11.8043    25.2699
     96  Bq   Isotropic =    10.5551   Anisotropy =    16.0558
   XX=    10.5659   YX=    -2.5752   ZX=    -2.3754
   XY=    -1.5321   YY=    10.4412   ZY=     0.5781
   XZ=   -18.2997   YZ=     0.4819   ZZ=    10.6583
   Eigenvalues:     0.1589    10.2475    21.2590
     97  Bq   Isotropic =    10.5551   Anisotropy =    16.0558
   XX=    10.5659   YX=    -2.5752   ZX=     2.3754
   XY=    -1.5321   YY=    10.4412   ZY=    -0.5781
   XZ=    18.2997   YZ=    -0.4819   ZZ=    10.6583
   Eigenvalues:     0.1589    10.2475    21.2590
     98  Bq   Isotropic =    13.9236   Anisotropy =    12.7702
   XX=    18.6389   YX=    -0.1174   ZX=    -1.6515
   XY=    -0.0742   YY=    14.6187   ZY=     0.0402
   XZ=   -12.8903   YZ=    -0.0152   ZZ=     8.5131
   Eigenvalues:     4.7160    14.6178    22.4370
     99  Bq   Isotropic =    13.9236   Anisotropy =    12.7702
   XX=    18.6389   YX=    -0.1174   ZX=     1.6515
   XY=    -0.0742   YY=    14.6187   ZY=    -0.0402
   XZ=    12.8903   YZ=     0.0152   ZZ=     8.5131
   Eigenvalues:     4.7160    14.6178    22.4370
    100  Bq   Isotropic =     9.0547   Anisotropy =    14.0154
   XX=     8.1427   YX=    -2.4837   ZX=    -1.0712
   XY=    -1.3799   YY=     9.4137   ZY=    -0.6836
   XZ=   -17.4504   YZ=     1.0372   ZZ=     9.6076
   Eigenvalues:    -0.5852     9.3509    18.3983
    101  Bq   Isotropic =     9.0547   Anisotropy =    14.0154
   XX=     8.1427   YX=    -2.4837   ZX=     1.0712
   XY=    -1.3799   YY=     9.4137   ZY=     0.6836
   XZ=    17.4504   YZ=    -1.0372   ZZ=     9.6076
   Eigenvalues:    -0.5852     9.3509    18.3983
    102  Bq   Isotropic =     8.8769   Anisotropy =    12.7041
   XX=     7.4768   YX=    -1.7447   ZX=     0.0435
   XY=    -0.9800   YY=     8.4632   ZY=    -1.6536
   XZ=   -15.9143   YZ=     2.5570   ZZ=    10.6906
   Eigenvalues:     0.9081     8.3763    17.3463
    103  Bq   Isotropic =     8.8769   Anisotropy =    12.7041
   XX=     7.4768   YX=    -1.7447   ZX=    -0.0435
   XY=    -0.9800   YY=     8.4632   ZY=     1.6536
   XZ=    15.9143   YZ=    -2.5570   ZZ=    10.6906
   Eigenvalues:     0.9081     8.3763    17.3463
    104  Bq   Isotropic =     9.7344   Anisotropy =    13.3205
   XX=    13.3435   YX=    -2.6046   ZX=    -1.8487
   XY=    -1.4650   YY=    12.4606   ZY=     0.3584
   XZ=   -14.9749   YZ=    -0.6489   ZZ=     3.3991
   Eigenvalues:    -1.4933    12.0818    18.6147
    105  Bq   Isotropic =     9.7344   Anisotropy =    13.3205
   XX=    13.3435   YX=    -2.6046   ZX=     1.8487
   XY=    -1.4650   YY=    12.4606   ZY=    -0.3584
   XZ=    14.9749   YZ=     0.6489   ZZ=     3.3991
   Eigenvalues:    -1.4933    12.0818    18.6147
    106  Bq   Isotropic =     7.7313   Anisotropy =    11.9036
   XX=     9.5620   YX=    -3.3228   ZX=    -1.2051
   XY=    -1.6259   YY=    11.3254   ZY=    -0.5136
   XZ=   -15.5291   YZ=    -1.2406   ZZ=     2.3064
   Eigenvalues:    -3.4835    11.0104    15.6670
    107  Bq   Isotropic =     7.7313   Anisotropy =    11.9036
   XX=     9.5620   YX=    -3.3228   ZX=     1.2051
   XY=    -1.6259   YY=    11.3254   ZY=     0.5136
   XZ=    15.5291   YZ=     1.2406   ZZ=     2.3064
   Eigenvalues:    -3.4835    11.0104    15.6670
    108  Bq   Isotropic =     7.3936   Anisotropy =     9.7068
   XX=     7.5046   YX=    -2.8399   ZX=    -0.3271
   XY=    -1.1021   YY=    10.6253   ZY=    -1.8100
   XZ=   -15.2284   YZ=    -1.2268   ZZ=     4.0510
   Eigenvalues:    -2.6310    10.9470    13.8648
    109  Bq   Isotropic =     7.3936   Anisotropy =     9.7068
   XX=     7.5046   YX=    -2.8399   ZX=     0.3271
   XY=    -1.1021   YY=    10.6253   ZY=     1.8100
   XZ=    15.2284   YZ=     1.2268   ZZ=     4.0510
   Eigenvalues:    -2.6310    10.9470    13.8648
    110  Bq   Isotropic =     7.2643   Anisotropy =    12.8877
   XX=    12.5334   YX=    -2.7793   ZX=    -0.7444
   XY=    -1.3717   YY=    13.8217   ZY=    -0.0445
   XZ=   -10.2227   YZ=    -1.0131   ZZ=    -4.5623
   Eigenvalues:    -6.2299    12.1666    15.8561
    111  Bq   Isotropic =     7.2643   Anisotropy =    12.8877
   XX=    12.5334   YX=    -2.7793   ZX=     0.7444
   XY=    -1.3717   YY=    13.8217   ZY=     0.0445
   XZ=    10.2227   YZ=     1.0131   ZZ=    -4.5623
   Eigenvalues:    -6.2299    12.1666    15.8561
    112  Bq   Isotropic =     6.3708   Anisotropy =    14.6466
   XX=    12.6609   YX=    -1.9477   ZX=    -0.0634
   XY=    -0.9230   YY=    15.5277   ZY=    -0.0220
   XZ=    -3.6491   YZ=    -0.3243   ZZ=    -9.0760
   Eigenvalues:    -9.2369    12.2142    16.1352
    113  Bq   Isotropic =     6.3708   Anisotropy =    14.6466
   XX=    12.6609   YX=    -1.9477   ZX=     0.0634
   XY=    -0.9230   YY=    15.5277   ZY=     0.0220
   XZ=     3.6491   YZ=     0.3243   ZZ=    -9.0760
   Eigenvalues:    -9.2369    12.2142    16.1352
    114  Bq   Isotropic =     5.8011   Anisotropy =    12.5693
   XX=     8.8847   YX=    -3.5828   ZX=    -0.5198
   XY=    -1.3219   YY=    12.9297   ZY=    -1.0321
   XZ=   -11.5204   YZ=    -2.2140   ZZ=    -4.4109
   Eigenvalues:    -7.0218    10.2446    14.1807
    115  Bq   Isotropic =     5.8011   Anisotropy =    12.5693
   XX=     8.8847   YX=    -3.5828   ZX=     0.5198
   XY=    -1.3219   YY=    12.9297   ZY=     1.0321
   XZ=    11.5204   YZ=     2.2140   ZZ=    -4.4109
   Eigenvalues:    -7.0218    10.2446    14.1807
    116  Bq   Isotropic =     4.4663   Anisotropy =    16.1112
   XX=     7.9510   YX=    -3.4968   ZX=    -0.1369
   XY=    -0.7575   YY=    14.5719   ZY=    -1.0376
   XZ=    -6.8553   YZ=    -2.0370   ZZ=    -9.1240
   Eigenvalues:    -9.9633     8.1551    15.2071
    117  Bq   Isotropic =     4.4663   Anisotropy =    16.1112
   XX=     7.9510   YX=    -3.4968   ZX=     0.1369
   XY=    -0.7575   YY=    14.5719   ZY=     1.0376
   XZ=     6.8553   YZ=     2.0370   ZZ=    -9.1240
   Eigenvalues:    -9.9633     8.1551    15.2071
    118  Bq   Isotropic =    24.0242   Anisotropy =    30.8280
   XX=    11.2992   YX=     1.4525   ZX=    -2.9454
   XY=     0.8863   YY=    16.4772   ZY=    -1.4234
   XZ=    -2.5511   YZ=    -0.8234   ZZ=    44.2962
   Eigenvalues:    10.8652    16.6312    44.5762
    119  Bq   Isotropic =    24.0242   Anisotropy =    30.8280
   XX=    11.2992   YX=     1.4525   ZX=     2.9454
   XY=     0.8863   YY=    16.4772   ZY=     1.4234
   XZ=     2.5511   YZ=     0.8234   ZZ=    44.2962
   Eigenvalues:    10.8652    16.6312    44.5762
    120  Bq   Isotropic =    20.7489   Anisotropy =    30.0092
   XX=     7.6899   YX=    -0.6139   ZX=    -3.2233
   XY=    -1.2714   YY=    13.9508   ZY=    -0.9792
   XZ=    -1.2158   YZ=     0.9381   ZZ=    40.6060
   Eigenvalues:     7.4054    14.0863    40.7551
    121  Bq   Isotropic =    20.7489   Anisotropy =    30.0092
   XX=     7.6899   YX=    -0.6139   ZX=     3.2233
   XY=    -1.2714   YY=    13.9508   ZY=     0.9792
   XZ=     1.2158   YZ=    -0.9381   ZZ=    40.6060
   Eigenvalues:     7.4054    14.0863    40.7551
    122  Bq   Isotropic =    21.5892   Anisotropy =    31.6096
   XX=     9.0870   YX=     0.4672   ZX=    -3.8146
   XY=    -0.2603   YY=    14.1007   ZY=    -0.7227
   XZ=    -6.6454   YZ=    -4.7749   ZZ=    41.5800
   Eigenvalues:     8.2473    13.8581    42.6623
    123  Bq   Isotropic =    21.5892   Anisotropy =    31.6096
   XX=     9.0870   YX=     0.4672   ZX=     3.8146
   XY=    -0.2603   YY=    14.1007   ZY=     0.7227
   XZ=     6.6454   YZ=     4.7749   ZZ=    41.5800
   Eigenvalues:     8.2473    13.8581    42.6623
    124  Bq   Isotropic =    20.0998   Anisotropy =    32.0418
   XX=     6.8995   YX=    -1.1103   ZX=    -3.7422
   XY=    -1.7755   YY=    12.5863   ZY=    -0.9779
   XZ=    -5.1477   YZ=    -2.3485   ZZ=    40.8135
   Eigenvalues:     5.9177    12.9206    41.4609
    125  Bq   Isotropic =    20.0998   Anisotropy =    32.0418
   XX=     6.8995   YX=    -1.1103   ZX=     3.7422
   XY=    -1.7755   YY=    12.5863   ZY=     0.9779
   XZ=     5.1477   YZ=     2.3485   ZZ=    40.8135
   Eigenvalues:     5.9177    12.9206    41.4609
    126  Bq   Isotropic =    22.8770   Anisotropy =    29.4819
   XX=    12.1702   YX=     2.0722   ZX=    -3.5299
   XY=     1.5975   YY=    16.0721   ZY=    -1.2296
   XZ=    -8.0356   YZ=    -8.5483   ZZ=    40.3888
   Eigenvalues:    10.8627    15.2367    42.5317
    127  Bq   Isotropic =    22.8770   Anisotropy =    29.4819
   XX=    12.1702   YX=     2.0722   ZX=     3.5299
   XY=     1.5975   YY=    16.0721   ZY=     1.2296
   XZ=     8.0356   YZ=     8.5483   ZZ=    40.3888
   Eigenvalues:    10.8627    15.2367    42.5317
    128  Bq   Isotropic =    19.7618   Anisotropy =    32.0576
   XX=     6.8692   YX=    -2.1404   ZX=    -3.4589
   XY=    -2.3867   YY=    11.6734   ZY=    -1.7328
   XZ=    -3.3401   YZ=    -1.2208   ZZ=    40.7427
   Eigenvalues:     5.5805    12.5714    41.1335
    129  Bq   Isotropic =    19.7618   Anisotropy =    32.0576
   XX=     6.8692   YX=    -2.1404   ZX=     3.4589
   XY=    -2.3867   YY=    11.6734   ZY=     1.7328
   XZ=     3.3401   YZ=     1.2208   ZZ=    40.7427
   Eigenvalues:     5.5805    12.5714    41.1335
    130  Bq   Isotropic =    22.3941   Anisotropy =    24.6414
   XX=    14.9760   YX=     3.3385   ZX=    -2.8801
   XY=     3.2070   YY=    18.1566   ZY=    -1.8819
   XZ=    -9.2233   YZ=   -12.6337   ZZ=    34.0497
   Eigenvalues:    12.7559    15.6048    38.8217
    131  Bq   Isotropic =    22.3941   Anisotropy =    24.6414
   XX=    14.9760   YX=     3.3385   ZX=     2.8801
   XY=     3.2070   YY=    18.1566   ZY=     1.8819
   XZ=     9.2233   YZ=    12.6337   ZZ=    34.0497
   Eigenvalues:    12.7559    15.6048    38.8217
    132  Bq   Isotropic =    21.4939   Anisotropy =    32.2905
   XX=     9.7040   YX=    -1.7999   ZX=    -3.6102
   XY=    -1.6892   YY=    11.9725   ZY=    -1.6829
   XZ=    -1.2816   YZ=    -0.6939   ZZ=    42.8050
   Eigenvalues:     8.5420    12.9187    43.0209
    133  Bq   Isotropic =    21.4939   Anisotropy =    32.2905
   XX=     9.7040   YX=    -1.7999   ZX=     3.6102
   XY=    -1.6892   YY=    11.9725   ZY=     1.6829
   XZ=     1.2816   YZ=     0.6939   ZZ=    42.8050
[...]
 Alpha virt. eigenvalues --   24.06824  24.13369  24.13691
          Condensed to atoms (all electrons):
 Mulliken charges:
               1
     1  C   -0.271259
     2  C   -0.271259
     3  C   -0.081784
     4  C    0.204484
     5  C   -0.081784
     6  C   -0.271259
     7  C   -0.271259
     8  C   -0.081784
     9  C    0.204484
    10  C   -0.081784
    11  H    0.128962
    12  H    0.128962
    13  H    0.121839
    14  H    0.121839
    15  H    0.128962
    16  H    0.128962
    17  H    0.121839
    18  H    0.121839
    19  Bq   0.000000
    20  Bq   0.000000
    21  Bq   0.000000
    22  Bq   0.000000
    23  Bq   0.000000
    24  Bq   0.000000
    25  Bq   0.000000
    26  Bq   0.000000
    27  Bq   0.000000
    28  Bq   0.000000
    29  Bq   0.000000
    30  Bq   0.000000
    31  Bq   0.000000
    32  Bq   0.000000
    33  Bq   0.000000
    34  Bq   0.000000
    35  Bq   0.000000
    36  Bq   0.000000
    37  Bq   0.000000
    38  Bq   0.000000
    39  Bq   0.000000
    40  Bq   0.000000
    41  Bq   0.000000
    42  Bq   0.000000
    43  Bq   0.000000
    44  Bq   0.000000
    45  Bq   0.000000
    46  Bq   0.000000
    47  Bq   0.000000
    48  Bq   0.000000
    49  Bq   0.000000
    50  Bq   0.000000
    51  Bq   0.000000
    52  Bq   0.000000
    53  Bq   0.000000
    54  Bq   0.000000
    55  Bq   0.000000
    56  Bq   0.000000
    57  Bq   0.000000
    58  Bq   0.000000
    59  Bq   0.000000
    60  Bq   0.000000
    61  Bq   0.000000
    62  Bq   0.000000
    63  Bq   0.000000
    64  Bq   0.000000
    65  Bq   0.000000
    66  Bq   0.000000
    67  Bq   0.000000
    68  Bq   0.000000
    69  Bq   0.000000
    70  Bq   0.000000
    71  Bq   0.000000
    72  Bq   0.000000
    73  Bq   0.000000
    74  Bq   0.000000
    75  Bq   0.000000
    76  Bq   0.000000
    77  Bq   0.000000
    78  Bq   0.000000
    79  Bq   0.000000
    80  Bq   0.000000
    81  Bq   0.000000
    82  Bq   0.000000
    83  Bq   0.000000
    84  Bq   0.000000
    85  Bq   0.000000
    86  Bq   0.000000
    87  Bq   0.000000
    88  Bq   0.000000
    89  Bq   0.000000
    90  Bq   0.000000
    91  Bq   0.000000
    92  Bq   0.000000
    93  Bq   0.000000
    94  Bq   0.000000
    95  Bq   0.000000
    96  Bq   0.000000
    97  Bq   0.000000
    98  Bq   0.000000
    99  Bq   0.000000
   100  Bq   0.000000
   101  Bq   0.000000
   102  Bq   0.000000
   103  Bq   0.000000
   104  Bq   0.000000
   105  Bq   0.000000
   106  Bq   0.000000
   107  Bq   0.000000
   108  Bq   0.000000
   109  Bq   0.000000
   110  Bq   0.000000
   111  Bq   0.000000
   112  Bq   0.000000
   113  Bq   0.000000
   114  Bq   0.000000
   115  Bq   0.000000
   116  Bq   0.000000
   117  Bq   0.000000
   118  Bq   0.000000
   119  Bq   0.000000
   120  Bq   0.000000
   121  Bq   0.000000
   122  Bq   0.000000
   123  Bq   0.000000
   124  Bq   0.000000
   125  Bq   0.000000
   126  Bq   0.000000
   127  Bq   0.000000
   128  Bq   0.000000
   129  Bq   0.000000
   130  Bq   0.000000
   131  Bq   0.000000
   132  Bq   0.000000
   133  Bq   0.000000
   134  Bq   0.000000
   135  Bq   0.000000
   136  Bq   0.000000
   137  Bq   0.000000
   138  Bq   0.000000
   139  Bq   0.000000
   140  Bq   0.000000
   141  Bq   0.000000
   142  Bq   0.000000
   143  Bq   0.000000
   144  Bq   0.000000
   145  Bq   0.000000
   146  Bq   0.000000
   147  Bq   0.000000
   148  Bq   0.000000
   149  Bq   0.000000
   150  Bq   0.000000
   151  Bq   0.000000
   152  Bq   0.000000
   153  Bq   0.000000
   154  Bq   0.000000
   155  Bq   0.000000
   156  Bq   0.000000
   157  Bq   0.000000
   158  Bq   0.000000
   159  Bq   0.000000
   160  Bq   0.000000
   161  Bq   0.000000
   162  Bq   0.000000
   163  Bq   0.000000
   164  Bq   0.000000
   165  Bq   0.000000
   166  Bq   0.000000
   167  Bq   0.000000
   168  Bq   0.000000
   169  Bq   0.000000
   170  Bq   0.000000
   171  Bq   0.000000
   172  Bq   0.000000
   173  Bq   0.000000
   174  Bq   0.000000
   175  Bq   0.000000
   176  Bq   0.000000
   177  Bq   0.000000
   178  Bq   0.000000
   179  Bq   0.000000
   180  Bq   0.000000
   181  Bq   0.000000
   182  Bq   0.000000
   183  Bq   0.000000
   184  Bq   0.000000
   185  Bq   0.000000
   186  Bq   0.000000
   187  Bq   0.000000
   188  Bq   0.000000
   189  Bq   0.000000
   190  Bq   0.000000
   191  Bq   0.000000
   192  Bq   0.000000
   193  Bq   0.000000
   194  Bq   0.000000
   195  Bq   0.000000
   196  Bq   0.000000
   197  Bq   0.000000
   198  Bq   0.000000
   199  Bq   0.000000
   200  Bq   0.000000
   201  Bq   0.000000
   202  Bq   0.000000
   203  Bq   0.000000
   204  Bq   0.000000
   205  Bq   0.000000
   206  Bq   0.000000
   207  Bq   0.000000
   208  Bq   0.000000
   209  Bq   0.000000
   210  Bq   0.000000
   211  Bq   0.000000
   212  Bq   0.000000
   213  Bq   0.000000
   214  Bq   0.000000
   215  Bq   0.000000
   216  Bq   0.000000
   217  Bq   0.000000
   218  Bq   0.000000
 Sum of Mulliken charges =   0.00000
 Mulliken charges with hydrogens summed into heavy atoms:
               1
     1  C   -0.271259
     2  C   -0.271259
     3  C    0.040055
     4  C    0.204484
     5  C    0.040055
     6  C   -0.142297
     7  C   -0.142297
     8  C    0.040055
     9  C    0.204484
    10  C    0.040055
    19  Bq   0.000000
    20  Bq   0.000000
    21  Bq   0.000000
    22  Bq   0.000000
    23  Bq   0.000000
    24  Bq   0.000000
    25  Bq   0.000000
    26  Bq   0.000000
    27  Bq   0.000000
    28  Bq   0.000000
    29  Bq   0.000000
    30  Bq   0.000000
    31  Bq   0.000000
    32  Bq   0.000000
    33  Bq   0.000000
    34  Bq   0.000000
    35  Bq   0.000000
    36  Bq   0.000000
    37  Bq   0.000000
    38  Bq   0.000000
    39  Bq   0.000000
    40  Bq   0.000000
    41  Bq   0.000000
    42  Bq   0.000000
    43  Bq   0.000000
    44  Bq   0.000000
    45  Bq   0.000000
    46  Bq   0.000000
    47  Bq   0.000000
    48  Bq   0.000000
    49  Bq   0.000000
    50  Bq   0.000000
    51  Bq   0.000000
    52  Bq   0.000000
    53  Bq   0.000000
    54  Bq   0.000000
    55  Bq   0.000000
    56  Bq   0.000000
    57  Bq   0.000000
    58  Bq   0.000000
    59  Bq   0.000000
    60  Bq   0.000000
    61  Bq   0.000000
    62  Bq   0.000000
    63  Bq   0.000000
    64  Bq   0.000000
    65  Bq   0.000000
    66  Bq   0.000000
    67  Bq   0.000000
    68  Bq   0.000000
    69  Bq   0.000000
    70  Bq   0.000000
    71  Bq   0.000000
    72  Bq   0.000000
    73  Bq   0.000000
    74  Bq   0.000000
    75  Bq   0.000000
    76  Bq   0.000000
    77  Bq   0.000000
    78  Bq   0.000000
    79  Bq   0.000000
    80  Bq   0.000000
    81  Bq   0.000000
    82  Bq   0.000000
    83  Bq   0.000000
    84  Bq   0.000000
    85  Bq   0.000000
    86  Bq   0.000000
    87  Bq   0.000000
    88  Bq   0.000000
    89  Bq   0.000000
    90  Bq   0.000000
    91  Bq   0.000000
    92  Bq   0.000000
    93  Bq   0.000000
    94  Bq   0.000000
    95  Bq   0.000000
    96  Bq   0.000000
    97  Bq   0.000000
    98  Bq   0.000000
    99  Bq   0.000000
   100  Bq   0.000000
   101  Bq   0.000000
   102  Bq   0.000000
   103  Bq   0.000000
   104  Bq   0.000000
   105  Bq   0.000000
   106  Bq   0.000000
   107  Bq   0.000000
   108  Bq   0.000000
   109  Bq   0.000000
   110  Bq   0.000000
   111  Bq   0.000000
   112  Bq   0.000000
   113  Bq   0.000000
   114  Bq   0.000000
   115  Bq   0.000000
   116  Bq   0.128962
   117  Bq   0.000000
   118  Bq   0.000000
   119  Bq   0.000000
   120  Bq   0.000000
   121  Bq   0.000000
   122  Bq   0.000000
   123  Bq   0.000000
   124  Bq   0.000000
   125  Bq   0.000000
   126  Bq   0.000000
   127  Bq   0.000000
   128  Bq   0.000000
   129  Bq   0.000000
   130  Bq   0.000000
   131  Bq   0.000000
   132  Bq   0.000000
   133  Bq   0.000000
   134  Bq   0.000000
   135  Bq   0.000000
   136  Bq   0.000000
   137  Bq   0.000000
   138  Bq   0.000000
   139  Bq   0.000000
   140  Bq   0.000000
   141  Bq   0.000000
   142  Bq   0.000000
   143  Bq   0.000000
   144  Bq   0.000000
   145  Bq   0.000000
   146  Bq   0.000000
   147  Bq   0.000000
   148  Bq   0.000000
   149  Bq   0.000000
   150  Bq   0.000000
   151  Bq   0.000000
   152  Bq   0.000000
   153  Bq   0.000000
   154  Bq   0.000000
   155  Bq   0.000000
   156  Bq   0.000000
   157  Bq   0.000000
   158  Bq   0.000000
   159  Bq   0.000000
   160  Bq   0.000000
   161  Bq   0.000000
   162  Bq   0.000000
   163  Bq   0.000000
   164  Bq   0.000000
   165  Bq   0.000000
   166  Bq   0.000000
   167  Bq   0.000000
   168  Bq   0.000000
   169  Bq   0.000000
   170  Bq   0.000000
   171  Bq   0.000000
   172  Bq   0.000000
   173  Bq   0.000000
   174  Bq   0.000000
   175  Bq   0.000000
   176  Bq   0.000000
   177  Bq   0.000000
   178  Bq   0.000000
   179  Bq   0.000000
   180  Bq   0.000000
   181  Bq   0.000000
   182  Bq   0.000000
   183  Bq   0.000000
   184  Bq   0.000000
   185  Bq   0.000000
   186  Bq   0.000000
   187  Bq   0.000000
   188  Bq   0.000000
   189  Bq   0.000000
   190  Bq   0.000000
   191  Bq   0.000000
   192  Bq   0.000000
   193  Bq   0.000000
   194  Bq   0.000000
   195  Bq   0.000000
   196  Bq   0.000000
   197  Bq   0.000000
   198  Bq   0.000000
   199  Bq   0.000000
   200  Bq   0.000000
   201  Bq   0.000000
   202  Bq   0.000000
   203  Bq   0.000000
   204  Bq   0.000000
   205  Bq   0.000000
   206  Bq   0.000000
   207  Bq   0.000000
   208  Bq   0.000000
   209  Bq   0.000000
   210  Bq   0.000000
   211  Bq   0.000000
   212  Bq   0.000000
   213  Bq   0.000000
   214  Bq   0.000000
   215  Bq   0.128962
   216  Bq   0.000000
   217  Bq   0.000000
   218  Bq   0.000000
 Electronic spatial extent (au):  <R**2>=           1312.5323
 Charge=              0.0000 electrons
 Dipole moment (field-independent basis, Debye):
    X=              0.0000    Y=              0.0000    Z=              0.0000  Tot=              0.0000
 Quadrupole moment (field-independent basis, Debye-Ang):
   XX=            -51.9618   YY=            -52.1216   ZZ=            -65.1252
   XY=              0.0000   XZ=              0.0000   YZ=              0.0000
 Traceless Quadrupole moment (field-independent basis, Debye-Ang):
   XX=              4.4411   YY=              4.2812   ZZ=             -8.7224
   XY=              0.0000   XZ=              0.0000   YZ=              0.0000
 Octapole moment (field-independent basis, Debye-Ang**2):
  XXX=              0.0000  YYY=              0.0000  ZZZ=              0.0000  XYY=              0.0000
  XXY=              0.0000  XXZ=              0.0000  XZZ=              0.0000  YZZ=              0.0000
  YYZ=              0.0000  XYZ=              0.0000
 Hexadecapole moment (field-independent basis, Debye-Ang**3):
 XXXX=          -1119.8966 YYYY=           -498.1664 ZZZZ=            -79.6336 XXXY=              0.0000
 XXXZ=              0.0000 YYYX=              0.0000 YYYZ=              0.0000 ZZZX=              0.0000
 ZZZY=              0.0000 XXYY=           -275.3262 XXZZ=           -249.8350 YYZZ=           -117.4791
 XXYZ=              0.0000 YYXZ=              0.0000 ZZXY=              0.0000
 N-N= 4.538675371600D+02 E-N=-1.802310911208D+03  KE= 3.837199947839D+02
 1\1\GINC-XHYSTOS\SP\RB3LYP\6-311+G(d,p)\C10H8\YANNICK\25-Sep-2020\0\\#
  rb3lyp/6-311+g** NMR geom=connectivity\\Title\\0,1\C,0,2.45076,-0.711
 74,0.\C,0,2.45076,0.71174,0.\C,0,1.25139,1.41137,0.\C,0,0.,0.72289,0.\
 C,0,-1.25139,1.41137,0.\C,0,-2.45076,0.71174,0.\C,0,-2.45076,-0.71174,
 0.\C,0,-1.25139,-1.41137,0.\C,0,0.,-0.72289,0.\C,0,1.25139,-1.41137,0.
 \H,0,3.40873,-1.25791,0.\H,0,3.40873,1.25791,0.\H,0,1.24972,2.51472,0.
 \H,0,-1.24972,2.51472,0.\H,0,-3.40873,1.25791,0.\H,0,-3.40873,-1.25791
 ,0.\H,0,-1.24972,-2.51472,0.\H,0,1.24972,-2.51472,0.\Bq,0,1.74365322,-
 0.71174,-0.70710678\Bq,0,1.74365322,-0.71174,0.70710678\Bq,0,1.7572400
 8,-0.51664968,-0.69351992\Bq,0,1.75724008,-0.51664968,0.69351992\Bq,0,
 1.89518977,-0.71174,-0.83146961\Bq,0,1.89518977,-0.71174,0.83146961\Bq
 ,0,1.91270397,-0.91049685,-0.81914066\Bq,0,1.91270397,-0.91049685,0.81
 914066\Bq,0,1.91270397,-0.51298315,-0.81914066\Bq,0,1.91270397,-0.5129
 8315,0.81914066\Bq,0,1.96888551,-1.11635504,-0.77722818\Bq,0,1.9688855
 1,-1.11635504,0.77722818\Bq,0,1.96888551,-0.30712496,-0.77722818\Bq,0,
 1.96888551,-0.30712496,0.77722818\Bq,0,2.04251171,-1.28909027,-0.70710
 678\Bq,0,2.04251171,-1.28909027,0.70710678\Bq,0,2.04251171,-0.13438973
 ,-0.70710678\Bq,0,2.04251171,-0.13438973,0.70710678\Bq,0,2.06807657,-0
 .71174,-0.92387953\Bq,0,2.06807657,-0.71174,0.92387953\Bq,0,2.10731471
 ,-0.9205866,-0.91565738\Bq,0,2.10731471,-0.9205866,0.91565738\Bq,0,2.1
 0731471,-0.5028934,-0.91565738\Bq,0,2.10731471,-0.5028934,0.91565738\B
 q,0,2.16208487,-1.11998829,-0.8660254\Bq,0,2.16208487,-1.11998829,0.86
 60254\Bq,0,2.16208487,-0.30349171,-0.8660254\Bq,0,2.16208487,-0.303491
 71,0.8660254\Bq,0,2.19194095,-1.50041513,-0.55767754\Bq,0,2.19194095,-
 1.50041513,0.55767754\Bq,0,2.25566968,-0.71174,-0.98078528\Bq,0,2.2556
 6968,-0.71174,0.98078528\Bq,0,2.30000433,-1.35134215,-0.75377836\Bq,0,
 2.30000433,-1.35134215,0.75377836\Bq,0,2.30000433,-0.07213785,-0.75377
 836\Bq,0,2.30000433,-0.07213785,0.75377836\Bq,0,2.30133075,-0.92306487
 ,-0.96592583\Bq,0,2.30133075,-0.92306487,0.96592583\Bq,0,2.30133075,-0
 .50041513,-0.96592583\Bq,0,2.30133075,-0.50041513,0.96592583\Bq,0,2.31
 23308,-1.60206003,-0.43378289\Bq,0,2.3123308,-1.60206003,0.43378289\Bq
 ,0,2.31281031,-1.69252528,-0.13794969\Bq,0,2.31281031,-1.69252528,0.13
 794969\Bq,0,2.45076,-1.71174,0.\Bq,0,2.45076,-1.67142298,-0.28108464\B
 q,0,2.45076,-1.67142298,0.28108464\Bq,0,2.45076,-1.52823658,-0.5773502
 7\Bq,0,2.45076,-1.52823658,0.57735027\Bq,0,2.45076,-1.13814143,-0.9045
 3403\Bq,0,2.45076,-1.13814143,0.90453403\Bq,0,2.45076,-0.71174,-1.\Bq,
 0,2.45076,-0.71174,1.\Bq,0,2.45076,-0.28533857,-0.90453403\Bq,0,2.4507
 6,-0.28533857,0.90453403\Bq,0,2.60018925,-0.92306487,-0.96592583\Bq,0,
 2.60018925,-0.92306487,0.96592583\Bq,0,2.60018925,-0.50041513,-0.96592
 583\Bq,0,2.60018925,-0.50041513,0.96592583\Bq,0,2.60151567,-1.35134215
 ,-0.75377836\Bq,0,2.60151567,-1.35134215,0.75377836\Bq,0,2.60151567,-0
 .07213785,-0.75377836\Bq,0,2.60151567,-0.07213785,0.75377836\Bq,0,2.64
 585032,-0.71174,-0.98078528\Bq,0,2.64585032,-0.71174,0.98078528\Bq,0,2
 .73943513,-1.11998829,-0.8660254\Bq,0,2.73943513,-1.11998829,0.8660254
 \Bq,0,2.73943513,-0.30349171,-0.8660254\Bq,0,2.73943513,-0.30349171,0.
 8660254\Bq,0,2.79420529,-0.9205866,-0.91565738\Bq,0,2.79420529,-0.9205
 866,0.91565738\Bq,0,2.79420529,-0.5028934,-0.91565738\Bq,0,2.79420529,
 -0.5028934,0.91565738\Bq,0,2.83344343,-0.71174,-0.92387953\Bq,0,2.8334
 4343,-0.71174,0.92387953\Bq,0,2.85900829,-0.13438973,-0.70710678\Bq,0,
 2.85900829,-0.13438973,0.70710678\Bq,0,2.93263449,-0.30712496,-0.77722
 818\Bq,0,2.93263449,-0.30712496,0.77722818\Bq,0,2.95076,-0.00463322,-0
 .5\Bq,0,2.95076,-0.00463322,0.5\Bq,0,2.98881603,-0.51298315,-0.8191406
 6\Bq,0,2.98881603,-0.51298315,0.81914066\Bq,0,3.00633023,-0.71174,-0.8
 3146961\Bq,0,3.00633023,-0.71174,0.83146961\Bq,0,3.0386978,-0.15616977
 ,-0.5879378\Bq,0,3.0386978,-0.15616977,0.5879378\Bq,0,3.10404148,-0.32
 905657,-0.65328148\Bq,0,3.10404148,-0.32905657,0.65328148\Bq,0,3.14427
 992,-0.51664968,-0.69351992\Bq,0,3.14427992,-0.51664968,0.69351992\Bq,
 0,3.15786678,-0.13438973,-0.40824829\Bq,0,3.15786678,-0.13438973,0.408
 24829\Bq,0,3.20453836,-0.07213785,-0.15075567\Bq,0,3.20453836,-0.07213
 785,0.15075567\Bq,0,3.22798818,-0.30712496,-0.48187449\Bq,0,3.22798818
 ,-0.30712496,0.48187449\Bq,0,3.3167854,-0.30349171,-0.28867513\Bq,0,3.
 3167854,-0.30349171,0.28867513\Bq,0,1.74365322,0.71174,-0.70710678\Bq,
 0,1.74365322,0.71174,0.70710678\Bq,0,1.75724008,0.51664968,-0.69351992
 \Bq,0,1.75724008,0.51664968,0.69351992\Bq,0,1.89518977,0.71174,-0.8314
 6961\Bq,0,1.89518977,0.71174,0.83146961\Bq,0,1.91270397,0.51298315,-0.
 81914066\Bq,0,1.91270397,0.51298315,0.81914066\Bq,0,1.91270397,0.91049
 685,-0.81914066\Bq,0,1.91270397,0.91049685,0.81914066\Bq,0,1.96888551,
 0.30712496,-0.77722818\Bq,0,1.96888551,0.30712496,0.77722818\Bq,0,1.96
 888551,1.11635504,-0.77722818\Bq,0,1.96888551,1.11635504,0.77722818\Bq
 ,0,2.04251171,0.13438973,-0.70710678\Bq,0,2.04251171,0.13438973,0.7071
 0678\Bq,0,2.04251171,1.28909027,-0.70710678\Bq,0,2.04251171,1.28909027
 ,0.70710678\Bq,0,2.06807657,0.71174,-0.92387953\Bq,0,2.06807657,0.7117
 4,0.92387953\Bq,0,2.10731471,0.5028934,-0.91565738\Bq,0,2.10731471,0.5
 028934,0.91565738\Bq,0,2.10731471,0.9205866,-0.91565738\Bq,0,2.1073147
 1,0.9205866,0.91565738\Bq,0,2.16208487,0.30349171,-0.8660254\Bq,0,2.16
 208487,0.30349171,0.8660254\Bq,0,2.16208487,1.11998829,-0.8660254\Bq,0
 ,2.16208487,1.11998829,0.8660254\Bq,0,2.19194095,1.50041513,-0.5576775
 4\Bq,0,2.19194095,1.50041513,0.55767754\Bq,0,2.25566968,0.71174,-0.980
 78528\Bq,0,2.25566968,0.71174,0.98078528\Bq,0,2.30000433,0.07213785,-0
 .75377836\Bq,0,2.30000433,0.07213785,0.75377836\Bq,0,2.30000433,1.3513
 4215,-0.75377836\Bq,0,2.30000433,1.35134215,0.75377836\Bq,0,2.30133075
 ,0.50041513,-0.96592583\Bq,0,2.30133075,0.50041513,0.96592583\Bq,0,2.3
 0133075,0.92306487,-0.96592583\Bq,0,2.30133075,0.92306487,0.96592583\B
 q,0,2.3123308,1.60206003,-0.43378289\Bq,0,2.3123308,1.60206003,0.43378
 289\Bq,0,2.31281031,1.69252528,-0.13794969\Bq,0,2.31281031,1.69252528,
 0.13794969\Bq,0,2.45076,0.28533857,-0.90453403\Bq,0,2.45076,0.28533857
 ,0.90453403\Bq,0,2.45076,0.71174,-1.\Bq,0,2.45076,0.71174,1.\Bq,0,2.45
 076,1.13814143,-0.90453403\Bq,0,2.45076,1.13814143,0.90453403\Bq,0,2.4
 5076,1.52823658,-0.57735027\Bq,0,2.45076,1.52823658,0.57735027\Bq,0,2.
 45076,1.67142298,-0.28108464\Bq,0,2.45076,1.67142298,0.28108464\Bq,0,2
 .45076,1.71174,0.\Bq,0,2.60018925,0.50041513,-0.96592583\Bq,0,2.600189
 25,0.50041513,0.96592583\Bq,0,2.60018925,0.92306487,-0.96592583\Bq,0,2
 .60018925,0.92306487,0.96592583\Bq,0,2.60151567,0.07213785,-0.75377836
 \Bq,0,2.60151567,0.07213785,0.75377836\Bq,0,2.60151567,1.35134215,-0.7
 5377836\Bq,0,2.60151567,1.35134215,0.75377836\Bq,0,2.64585032,0.71174,
 -0.98078528\Bq,0,2.64585032,0.71174,0.98078528\Bq,0,2.73943513,0.30349
 171,-0.8660254\Bq,0,2.73943513,0.30349171,0.8660254\Bq,0,2.73943513,1.
 11998829,-0.8660254\Bq,0,2.73943513,1.11998829,0.8660254\Bq,0,2.794205
 29,0.5028934,-0.91565738\Bq,0,2.79420529,0.5028934,0.91565738\Bq,0,2.7
 9420529,0.9205866,-0.91565738\Bq,0,2.79420529,0.9205866,0.91565738\Bq,
 0,2.83344343,0.71174,-0.92387953\Bq,0,2.83344343,0.71174,0.92387953\Bq
 ,0,2.85900829,0.13438973,-0.70710678\Bq,0,2.85900829,0.13438973,0.7071
 0678\Bq,0,2.93263449,0.30712496,-0.77722818\Bq,0,2.93263449,0.30712496
 ,0.77722818\Bq,0,2.95076,0.00463322,-0.5\Bq,0,2.95076,0.00463322,0.5\B
 q,0,2.98881603,0.51298315,-0.81914066\Bq,0,2.98881603,0.51298315,0.819
 14066\Bq,0,3.00633023,0.71174,-0.83146961\Bq,0,3.00633023,0.71174,0.83
 146961\Bq,0,3.0386978,0.15616977,-0.5879378\Bq,0,3.0386978,0.15616977,
 0.5879378\Bq,0,3.10404148,0.32905657,-0.65328148\Bq,0,3.10404148,0.329
 05657,0.65328148\Bq,0,3.14427992,0.51664968,-0.69351992\Bq,0,3.1442799
 2,0.51664968,0.69351992\Bq,0,3.15786678,0.13438973,-0.40824829\Bq,0,3.
 15786678,0.13438973,0.40824829\Bq,0,3.20453836,0.07213785,-0.15075567\
 Bq,0,3.20453836,0.07213785,0.15075567\Bq,0,3.22798818,0.30712496,-0.48
 187449\Bq,0,3.22798818,0.30712496,0.48187449\Bq,0,3.3167854,0.30349171
 ,-0.28867513\Bq,0,3.3167854,0.30349171,0.28867513\Bq,0,0.33573262,1.62
 02166,-0.34344529\Bq,0,0.33573262,1.6202166,0.34344529\\Version=ES64L-
 G09RevD.01\HF=-385.9859319\RMSD=7.848e-09\Dipole=0.,0.,0.\Quadrupole=3
 .3018588,3.182998,-6.4848568,0.,0.,0.\PG=C01 [X(C10H8)]\\@


 The most important thing in communication is to hear what isn't being said.
 -- Peter F. Drucker
 Job cpu time:       0 days  0 hours 12 minutes  5.6 seconds.
 File lengths (MBytes):  RWF=     43 Int=      0 D2E=      0 Chk=      5 Scr=      1
 Normal termination of Gaussian 09 at Fri Sep 25 17:03:01 2020.
