 Entering Gaussian System, Link 0=g09
 Input=input_cycle_03_batch_03000.com
 Output=input_cycle_03_batch_03000.log
 Initial command:
 /share/programs/GAUSSIAN/64/g09/l1.exe "/scratch/yannick.30237/Gau-23526.inp" -scrdir="/scratch/yannick.30237/"
 Entering Link 1 = /share/programs/GAUSSIAN/64/g09/l1.exe PID=     23527.
  
 Copyright (c) 1988,1990,1992,1993,1995,1998,2003,2009,2013,
            Gaussian, Inc.  All Rights Reserved.
  
 This is part of the Gaussian(R) 09 program.  It is based on
 the Gaussian(R) 03 system (copyright 2003, Gaussian, Inc.),
 the Gaussian(R) 98 system (copyright 1998, Gaussian, Inc.),
 the Gaussian(R) 94 system (copyright 1995, Gaussian, Inc.),
 the Gaussian 92(TM) system (copyright 1992, Gaussian, Inc.),
 the Gaussian 90(TM) system (copyright 1990, Gaussian, Inc.),
 the Gaussian 88(TM) system (copyright 1988, Gaussian, Inc.),
 the Gaussian 86(TM) system (copyright 1986, Carnegie Mellon
 University), and the Gaussian 82(TM) system (copyright 1983,
 Carnegie Mellon University). Gaussian is a federally registered
 trademark of Gaussian, Inc.
  
 This software contains proprietary and confidential information,
 including trade secrets, belonging to Gaussian, Inc.
  
 This software is provided under written license and may be
 used, copied, transmitted, or stored only in accord with that
 written license.
  
 The following legend is applicable only to US Government
 contracts under FAR:
  
                    RESTRICTED RIGHTS LEGEND
  
 Use, reproduction and disclosure by the US Government is
 subject to restrictions as set forth in subparagraphs (a)
 and (c) of the Commercial Computer Software - Restricted
 Rights clause in FAR 52.227-19.
  
 Gaussian, Inc.
 340 Quinnipiac St., Bldg. 40, Wallingford CT 06492
  
  
 ---------------------------------------------------------------
 Warning -- This program may not be used in any manner that
 competes with the business of Gaussian, Inc. or will provide
 assistance to any competitor of Gaussian, Inc.  The licensee
 of this program is prohibited from giving any competitor of
 Gaussian, Inc. access to this program.  By using this program,
 the user acknowledges that Gaussian, Inc. is engaged in the
 business of creating and licensing software in the field of
 computational chemistry and represents and warrants to the
 licensee that it is not a competitor of Gaussian, Inc. and that
 it will not use this program in any manner prohibited above.
 ---------------------------------------------------------------
  

 Cite this work as:
 Gaussian 09, Revision D.01,
 M. J. Frisch, G. W. Trucks, H. B. Schlegel, G. E. Scuseria, 
 M. A. Robb, J. R. Cheeseman, G. Scalmani, V. Barone, B. Mennucci, 
 G. A. Petersson, H. Nakatsuji, M. Caricato, X. Li, H. P. Hratchian, 
 A. F. Izmaylov, J. Bloino, G. Zheng, J. L. Sonnenberg, M. Hada, 
 M. Ehara, K. Toyota, R. Fukuda, J. Hasegawa, M. Ishida, T. Nakajima, 
 Y. Honda, O. Kitao, H. Nakai, T. Vreven, J. A. Montgomery, Jr., 
 J. E. Peralta, F. Ogliaro, M. Bearpark, J. J. Heyd, E. Brothers, 
 K. N. Kudin, V. N. Staroverov, T. Keith, R. Kobayashi, J. Normand, 
 K. Raghavachari, A. Rendell, J. C. Burant, S. S. Iyengar, J. Tomasi, 
 M. Cossi, N. Rega, J. M. Millam, M. Klene, J. E. Knox, J. B. Cross, 
 V. Bakken, C. Adamo, J. Jaramillo, R. Gomperts, R. E. Stratmann, 
 O. Yazyev, A. J. Austin, R. Cammi, C. Pomelli, J. W. Ochterski, 
 R. L. Martin, K. Morokuma, V. G. Zakrzewski, G. A. Voth, 
 P. Salvador, J. J. Dannenberg, S. Dapprich, A. D. Daniels, 
 O. Farkas, J. B. Foresman, J. V. Ortiz, J. Cioslowski, 
 and D. J. Fox, Gaussian, Inc., Wallingford CT, 2013.
 
 ******************************************
 Gaussian 09:  ES64L-G09RevD.01 24-Apr-2013
                22-Aug-2020 
 ******************************************
 %nproc=8
 Will use up to    8 processors via shared memory.
 %mem=1000MB
 ----------------------------------------
 # rb3lyp/6-311+g** NMR geom=connectivity
 ----------------------------------------
 1/38=1,57=2/1;
 2/12=2,17=6,18=5,40=1/2;
 3/5=4,6=6,7=111,11=2,16=1,25=1,30=1,74=-5,116=1/1,2,8,3;
 4//1;
 5/5=2,38=5/2;
 8/6=1,10=90,11=11/1;
 10/13=100,45=16/2;
 6/7=2,8=2,9=2,10=2,28=1/1;
 99/9=1/99;
 -----
 Title
 -----
 Symbolic Z-matrix:
 Charge =  0 Multiplicity = 1
 C                    -4.05006  -0.57719   0.81367 
 H                    -5.02638  -1.00827   1.00248 
 C                    -3.93816   0.66178   0.24009 
 H                    -4.82524   1.23389  -0.01113 
 C                    -2.67684   1.24332   0.00576 
 C                    -1.49741   0.50515   0.28483 
 C                    -1.65083  -0.73387   0.9404 
 H                    -0.77136  -1.2731    1.26338 
 C                    -2.88985  -1.2624    1.19943 
 H                    -2.96837  -2.21246   1.71527 
 C                    -2.57732   2.59637  -0.41929 
 H                    -3.48707   3.14122  -0.64741 
 C                    -1.37419   3.21479  -0.4364 
 H                    -1.29973   4.2742   -0.65781 
 C                    -0.17195   2.49941  -0.17346 
 C                    -0.20439   1.10184   0.01927 
 C                     1.05135   3.20426  -0.06762 
 H                     1.04273   4.28195  -0.1897 
 C                     2.19421   2.54874   0.25796 
 H                     3.11685   3.09128   0.43347 
 C                     2.22165   1.13366   0.2935 
 C                     1.04869   0.39455   0.03024 
 C                     3.44834   0.46146   0.55739 
 H                     4.30958   1.06061   0.83348 
 C                     3.54273  -0.88559   0.47495 
 H                     4.47315  -1.39397   0.70388 
 C                     2.44901  -1.64744  -0.01963 
 C                     1.21507  -1.00573  -0.30136 
 C                     0.25311  -1.74344  -1.02166 
 H                    -0.65414  -1.25351  -1.34628 
 C                     0.44942  -3.06286  -1.34138 
 H                    -0.30832  -3.59443  -1.90541 
 C                     1.62517  -3.7208   -0.95525 
 H                     1.767    -4.76874  -1.1927 
 C                     2.61099  -3.01442  -0.31831 
 H                     3.55256  -3.49028  -0.06464 
 Bq                   -0.9758    1.01962  -0.09217 
 Bq                   -1.10608   1.06384   0.79725 
 Bq                   -0.96132   1.01471  -0.191 
 Bq                   -1.0337    1.03928   0.30313 
 Bq                   -1.04746   1.14407   0.39709 
 Bq                   -1.01851   1.13424   0.19944 
 Bq                   -1.06194   1.14898   0.49592 
 Bq                   -1.00404   1.12933   0.10062 
 Bq                   -1.07642   1.1539    0.59474 
 Bq                   -0.98956   1.12442   0.00179 
 Bq                   -1.09089   1.15881   0.69356 
 Bq                   -0.97508   1.1195   -0.09703 
 Bq                   -1.10537   1.16372   0.79239 
 Bq                   -0.96061   1.11459  -0.19586 
 Bq                   -1.03299   1.13916   0.29827 
 Bq                   -1.04675   1.24395   0.39223 
 Bq                   -1.0178    1.23412   0.19458 
 Bq                   -1.06123   1.24886   0.49105 
 Bq                   -1.00332   1.22921   0.09576 
 Bq                   -1.0757    1.25378   0.58988 
 Bq                   -0.98885   1.2243   -0.00307 
 Bq                   -1.09018   1.25869   0.6887 
 Bq                   -0.97437   1.21938  -0.10189 
 Bq                   -1.10466   1.2636    0.78753 
 Bq                   -0.9599    1.21447  -0.20072 
 Bq                   -1.03228   1.23904   0.2934 
 Bq                   -1.04604   1.34383   0.38737 
 Bq                   -1.01709   1.334     0.18972 
 Bq                   -1.06052   1.34874   0.48619 
 Bq                   -1.00261   1.32909   0.09089 
 Bq                   -1.07499   1.35366   0.58502 
 Bq                   -0.98814   1.32417  -0.00793 
 Bq                   -1.08947   1.35857   0.68384 
 Bq                   -0.97366   1.31926  -0.10676 
 Bq                   -1.10394   1.36348   0.78267 
 Bq                   -0.95918   1.31435  -0.20558 
 Bq                   -1.03156   1.33892   0.28854 
 Bq                   -1.04533   1.44371   0.38251 
 Bq                   -1.01638   1.43388   0.18486 
 Bq                   -1.0598    1.44862   0.48133 
 Bq                   -1.0019    1.42897   0.08603 
 Bq                   -1.07428   1.45353   0.58016 
 Bq                   -0.98742   1.42405  -0.01279 
 Bq                   -1.08875   1.45845   0.67898 
 Bq                   -0.97295   1.41914  -0.11162 
 Bq                   -1.10323   1.46336   0.7778 
 Bq                   -0.95847   1.41423  -0.21044 
 Bq                   -1.03085   1.43879   0.28368 
 Bq                   -1.04461   1.54359   0.37764 
 Bq                   -1.01566   1.53376   0.18 
 Bq                   -1.05909   1.5485    0.47647 
 Bq                   -1.00119   1.52885   0.08117 
 Bq                   -1.07357   1.55341   0.57529 
 Bq                   -0.98671   1.52393  -0.01765 
 Bq                   -1.08804   1.55833   0.67412 
 Bq                   -0.97224   1.51902  -0.11648 
 Bq                   -1.10252   1.56324   0.77294 
 Bq                   -0.95776   1.51411  -0.2153 
 Bq                   -1.03014   1.53867   0.27882 
 Bq                   -1.0439    1.64347   0.37278 
 Bq                   -1.01495   1.63364   0.17513 
 Bq                   -1.05838   1.64838   0.47161 
 Bq                   -1.00047   1.62873   0.07631 
 Bq                   -1.07285   1.65329   0.57043 
 Bq                   -0.986     1.62381  -0.02252 
 Bq                   -1.08733   1.65821   0.66926 
 Bq                   -0.97152   1.6189   -0.12134 
 Bq                   -1.10181   1.66312   0.76808 
 Bq                   -0.95705   1.61399  -0.22017 
 Bq                   -1.02943   1.63855   0.27396 
 Bq                   -1.04319   1.74335   0.36792 
 Bq                   -1.01424   1.73352   0.17027 
 Bq                   -1.05767   1.74826   0.46675 
 Bq                   -0.99976   1.7286    0.07145 
 Bq                   -1.07214   1.75317   0.56557 
 Bq                   -0.98529   1.72369  -0.02738 
 Bq                   -1.08662   1.75809   0.66439 
 Bq                   -0.97081   1.71878  -0.1262 
 Bq                   -1.10109   1.763     0.76322 
 Bq                   -0.95633   1.71386  -0.22503 
 Bq                   -1.02871   1.73843   0.2691 
 Bq                   -1.04248   1.84322   0.36306 
 Bq                   -1.01353   1.8334    0.16541 
 Bq                   -1.05695   1.84814   0.46188 
 Bq                   -0.99905   1.82848   0.06659 
 Bq                   -1.07143   1.85305   0.56071 
 Bq                   -0.98457   1.82357  -0.03224 
 Bq                   -1.08591   1.85797   0.65953 
 Bq                   -0.9701    1.81866  -0.13106 
 Bq                   -1.10038   1.86288   0.75836 
 Bq                   -0.95562   1.81374  -0.22989 
 Bq                   -1.028     1.83831   0.26423 
 Bq                   -1.04177   1.9431    0.3582 
 Bq                   -1.01281   1.93328   0.16055 
 Bq                   -1.05624   1.94802   0.45702 
 Bq                   -0.99834   1.92836   0.06172 
 Bq                   -1.07072   1.95293   0.55585 
 Bq                   -0.98386   1.92345  -0.0371 
 Bq                   -1.08519   1.95784   0.65467 
 Bq                   -0.96939   1.91854  -0.13593 
 Bq                   -1.09967   1.96276   0.7535 
 Bq                   -0.95491   1.91362  -0.23475 
 Bq                   -1.02729   1.93819   0.25937 
 Bq                   -1.04105   2.04298   0.35334 
 Bq                   -1.0121    2.03316   0.15569 
 Bq                   -1.05553   2.0479    0.45216 
 Bq                   -0.99763   2.02824   0.05686 
 Bq                   -1.07001   2.05281   0.55099 
 Bq                   -0.98315   2.02333  -0.04196 
 Bq                   -1.08448   2.05772   0.64981 
 Bq                   -0.96867   2.01842  -0.14079 
 Bq                   -1.09896   2.06264   0.74863 
 Bq                   -0.9542    2.0135   -0.23961 
 Bq                   -1.02658   2.03807   0.25451 
 Bq                   -1.04034   2.14286   0.34847 
 Bq                   -1.01139   2.13304   0.15083 
 Bq                   -1.05482   2.14778   0.4473 
 Bq                   -0.99691   2.12812   0.052 
 Bq                   -1.06929   2.15269   0.54612 
 Bq                   -0.98244   2.12321  -0.04682 
 Bq                   -1.08377   2.1576    0.64495 
 Bq                   -0.96796   2.11829  -0.14565 
 Bq                   -1.09825   2.16252   0.74377 
 Bq                   -0.95349   2.11338  -0.24447 
 Bq                   -1.02587   2.13795   0.24965 
 Bq                   -1.03963   2.24274   0.34361 
 Bq                   -1.01068   2.23291   0.14596 
 Bq                   -1.05411   2.24765   0.44244 
 Bq                   -0.9962    2.228     0.04714 
 Bq                   -1.06858   2.25257   0.54126 
 Bq                   -0.98173   2.22309  -0.05169 
 Bq                   -1.08306   2.25748   0.64009 
 Bq                   -0.96725   2.21817  -0.15051 
 Bq                   -1.09753   2.2624    0.73891 
 Bq                   -0.95277   2.21326  -0.24933 
 Bq                   -1.02515   2.23783   0.24479 
 Bq                   -1.03892   2.34262   0.33875 
 Bq                   -1.00997   2.33279   0.1411 
 Bq                   -1.05339   2.34753   0.43758 
 Bq                   -0.99549   2.32788   0.04228 
 Bq                   -1.06787   2.35245   0.5364 
 Bq                   -0.98101   2.32297  -0.05655 
 Bq                   -1.08235   2.35736   0.63523 
 Bq                   -0.96654   2.31805  -0.15537 
 Bq                   -1.09682   2.36227   0.73405 
 Bq                   -0.95206   2.31314  -0.2542 
 Bq                   -1.02444   2.33771   0.23993 
 Bq                   -1.03821   2.4425    0.33389 
 Bq                   -1.00925   2.43267   0.13624 
 Bq                   -1.05268   2.44741   0.43271 
 Bq                   -0.99478   2.42776   0.03742 
 Bq                   -1.06716   2.45233   0.53154 
 Bq                   -0.9803    2.42285  -0.06141 
 Bq                   -1.08163   2.45724   0.63036 
 Bq                   -0.96583   2.41793  -0.16023 
 Bq                   -1.09611   2.46215   0.72919 
 Bq                   -0.95135   2.41302  -0.25906 
 Bq                   -1.02373   2.43759   0.23507 
 Bq                   -1.03749   2.54238   0.32903 
 Bq                   -1.00854   2.53255   0.13138 
 Bq                   -1.05197   2.54729   0.42785 
 Bq                   -0.99407   2.52764   0.03255 
 Bq                   -1.06645   2.55221   0.52668 
 Bq                   -0.97959   2.52273  -0.06627 
 Bq                   -1.08092   2.55712   0.6255 
 Bq                   -0.96511   2.51781  -0.16509 
 Bq                   -1.0954    2.56203   0.72433 
 Bq                   -0.95064   2.5129   -0.26392 
 Bq                   -1.02302   2.53747   0.2302 
 Bq                   -1.03678   2.64226   0.32417 
 Bq                   -1.00783   2.63243   0.12652 
 Bq                   -1.05126   2.64717   0.42299 
 Bq                   -0.99335   2.62752   0.02769 
 Bq                   -1.06573   2.65209   0.52182 
 Bq                   -0.97888   2.6226   -0.07113 
 Bq                   -1.08021   2.657     0.62064 
 Bq                   -0.9644    2.61769  -0.16996 
 Bq                   -1.09469   2.66191   0.71947 
 Bq                   -0.94993   2.61278  -0.26878 
 Bq                   -1.02231   2.63734   0.22534 
 Bq                   -1.03607   2.74214   0.31931 
 Bq                   -1.00712   2.73231   0.12166 
 Bq                   -1.05055   2.74705   0.41813 
 Bq                   -0.99264   2.7274    0.02283 
 Bq                   -1.06502   2.75196   0.51695 
 Bq                   -0.97817   2.72248  -0.07599 
 Bq                   -1.0795    2.75688   0.61578 
 Bq                   -0.96369   2.71757  -0.17482 
 Bq                   -1.09397   2.76179   0.7146 
 Bq                   -0.94921   2.71266  -0.27364 
 Bq                   -1.02159   2.73722   0.22048 
 Bq                   -1.03536   2.84202   0.31444 
 Bq                   -1.00641   2.83219   0.11679 
 Bq                   -1.04983   2.84693   0.41327 
 Bq                   -0.99193   2.82728   0.01797 
 Bq                   -1.06431   2.85184   0.51209 
 Bq                   -0.97745   2.82236  -0.08086 
 Bq                   -1.07879   2.85676   0.61092 
 Bq                   -0.96298   2.81745  -0.17968 
 Bq                   -1.09326   2.86167   0.70974 
 
 Symmetry turned off:
 Cannot cope with ghost atoms or with translation vectors.
 Stoichiometry    C22H14
 Framework group  C1[X(C22H14)]
 NUMDOF-- NAT=    36 NAtoms=   236
 Deg. of freedom     0
 Full point group                 C1      NOp   1
                          Input orientation:                          
 ---------------------------------------------------------------------
 Center     Atomic      Atomic             Coordinates (Angstroms)
 Number     Number       Type             X           Y           Z
 ---------------------------------------------------------------------
      1          6           0       -4.050056   -0.577186    0.813671
      2          1           0       -5.026380   -1.008273    1.002476
      3          6           0       -3.938155    0.661780    0.240088
      4          1           0       -4.825242    1.233889   -0.011130
      5          6           0       -2.676841    1.243325    0.005758
      6          6           0       -1.497412    0.505153    0.284825
      7          6           0       -1.650833   -0.733873    0.940403
      8          1           0       -0.771365   -1.273097    1.263375
      9          6           0       -2.889855   -1.262404    1.199431
     10          1           0       -2.968371   -2.212456    1.715268
     11          6           0       -2.577319    2.596370   -0.419293
     12          1           0       -3.487073    3.141224   -0.647406
     13          6           0       -1.374190    3.214790   -0.436403
     14          1           0       -1.299732    4.274202   -0.657814
     15          6           0       -0.171949    2.499409   -0.173459
     16          6           0       -0.204392    1.101844    0.019269
     17          6           0        1.051349    3.204256   -0.067622
     18          1           0        1.042734    4.281950   -0.189700
     19          6           0        2.194209    2.548745    0.257958
     20          1           0        3.116853    3.091285    0.433473
     21          6           0        2.221647    1.133656    0.293499
     22          6           0        1.048693    0.394553    0.030241
     23          6           0        3.448336    0.461463    0.557394
     24          1           0        4.309579    1.060605    0.833485
     25          6           0        3.542735   -0.885593    0.474946
     26          1           0        4.473147   -1.393970    0.703882
     27          6           0        2.449005   -1.647445   -0.019632
     28          6           0        1.215070   -1.005726   -0.301357
     29          6           0        0.253111   -1.743444   -1.021659
     30          1           0       -0.654136   -1.253505   -1.346285
     31          6           0        0.449419   -3.062860   -1.341378
     32          1           0       -0.308316   -3.594431   -1.905406
     33          6           0        1.625173   -3.720797   -0.955254
     34          1           0        1.767005   -4.768740   -1.192702
     35          6           0        2.610987   -3.014418   -0.318305
     36          1           0        3.552561   -3.490281   -0.064637
     37          0           0       -0.975796    1.019623   -0.092171
     38          0           0       -1.106079    1.063845    0.797251
     39          0           0       -0.961320    1.014710   -0.190995
     40          0           0       -1.033700    1.039277    0.303128
     41          0           0       -1.047463    1.144070    0.397091
     42          0           0       -1.018512    1.134243    0.199441
     43          0           0       -1.061939    1.148984    0.495915
     44          0           0       -1.004036    1.129330    0.100617
     45          0           0       -1.076415    1.153897    0.594740
     46          0           0       -0.989560    1.124416    0.001792
     47          0           0       -1.090891    1.158811    0.693565
     48          0           0       -0.975084    1.119503   -0.097032
     49          0           0       -1.105367    1.163724    0.792389
     50          0           0       -0.960608    1.114589   -0.195857
     51          0           0       -1.032987    1.139157    0.298266
     52          0           0       -1.046751    1.243949    0.392229
     53          0           0       -1.017799    1.234122    0.194580
     54          0           0       -1.061227    1.248863    0.491054
     55          0           0       -1.003323    1.229209    0.095755
     56          0           0       -1.075703    1.253776    0.589878
     57          0           0       -0.988848    1.224295   -0.003069
     58          0           0       -1.090179    1.258690    0.688703
     59          0           0       -0.974372    1.219382   -0.101894
     60          0           0       -1.104655    1.263603    0.787528
     61          0           0       -0.959896    1.214468   -0.200719
     62          0           0       -1.032275    1.239036    0.293404
     63          0           0       -1.046039    1.343829    0.387367
     64          0           0       -1.017087    1.334002    0.189718
     65          0           0       -1.060515    1.348742    0.486192
     66          0           0       -1.002611    1.329088    0.090894
     67          0           0       -1.074991    1.353656    0.585017
     68          0           0       -0.988135    1.324175   -0.007931
     69          0           0       -1.089467    1.358569    0.683841
     70          0           0       -0.973659    1.319261   -0.106756
     71          0           0       -1.103943    1.363482    0.782666
     72          0           0       -0.959183    1.314348   -0.205580
     73          0           0       -1.031563    1.338915    0.288543
     74          0           0       -1.045327    1.443708    0.382506
     75          0           0       -1.016375    1.433881    0.184857
     76          0           0       -1.059803    1.448621    0.481331
     77          0           0       -1.001899    1.428967    0.086032
     78          0           0       -1.074279    1.453535    0.580155
     79          0           0       -0.987423    1.424054   -0.012793
     80          0           0       -1.088755    1.458448    0.678980
     81          0           0       -0.972947    1.419140   -0.111617
     82          0           0       -1.103231    1.463362    0.777804
     83          0           0       -0.958471    1.414227   -0.210442
     84          0           0       -1.030851    1.438794    0.283681
     85          0           0       -1.044615    1.543587    0.377644
     86          0           0       -1.015663    1.533760    0.179995
     87          0           0       -1.059091    1.548500    0.476469
     88          0           0       -1.001187    1.528847    0.081170
     89          0           0       -1.073567    1.553414    0.575294
     90          0           0       -0.986711    1.523933   -0.017654
     91          0           0       -1.088043    1.558327    0.674118
     92          0           0       -0.972235    1.519020   -0.116479
     93          0           0       -1.102519    1.563241    0.772943
     94          0           0       -0.957759    1.514106   -0.215303
     95          0           0       -1.030139    1.538673    0.278820
     96          0           0       -1.043903    1.643466    0.372783
     97          0           0       -1.014951    1.633639    0.175133
     98          0           0       -1.058379    1.648380    0.471607
     99          0           0       -1.000475    1.628726    0.076309
    100          0           0       -1.072855    1.653293    0.570432
    101          0           0       -0.985999    1.623812   -0.022516
    102          0           0       -1.087331    1.658207    0.669257
    103          0           0       -0.971523    1.618899   -0.121340
    104          0           0       -1.101807    1.663120    0.768081
    105          0           0       -0.957047    1.613985   -0.220165
    106          0           0       -1.029427    1.638553    0.273958
    107          0           0       -1.043191    1.743345    0.367921
    108          0           0       -1.014239    1.733518    0.170272
    109          0           0       -1.057667    1.748259    0.466746
    110          0           0       -0.999763    1.728605    0.071447
    111          0           0       -1.072143    1.753172    0.565570
    112          0           0       -0.985287    1.723691   -0.027377
    113          0           0       -1.086619    1.758086    0.664395
    114          0           0       -0.970811    1.718778   -0.126202
    115          0           0       -1.101094    1.762999    0.763220
    116          0           0       -0.956335    1.713865   -0.225027
    117          0           0       -1.028715    1.738432    0.269096
    118          0           0       -1.042479    1.843225    0.363059
    119          0           0       -1.013527    1.833398    0.165410
    120          0           0       -1.056954    1.848138    0.461884
    121          0           0       -0.999051    1.828484    0.066586
    122          0           0       -1.071430    1.853052    0.560709
    123          0           0       -0.984575    1.823571   -0.032239
    124          0           0       -1.085906    1.857965    0.659533
    125          0           0       -0.970099    1.818657   -0.131064
    126          0           0       -1.100382    1.862879    0.758358
    127          0           0       -0.955623    1.813744   -0.229888
    128          0           0       -1.028003    1.838311    0.264235
    129          0           0       -1.041766    1.943104    0.358198
    130          0           0       -1.012814    1.933277    0.160549
    131          0           0       -1.056242    1.948017    0.457022
    132          0           0       -0.998339    1.928363    0.061724
    133          0           0       -1.070718    1.952931    0.555847
    134          0           0       -0.983863    1.923450   -0.037101
    135          0           0       -1.085194    1.957844    0.654672
    136          0           0       -0.969387    1.918536   -0.135925
    137          0           0       -1.099670    1.962758    0.753496
    138          0           0       -0.954911    1.913623   -0.234750
    139          0           0       -1.027290    1.938190    0.259373
    140          0           0       -1.041054    2.042983    0.353336
    141          0           0       -1.012102    2.033156    0.155687
    142          0           0       -1.055530    2.047897    0.452161
    143          0           0       -0.997626    2.028243    0.056862
    144          0           0       -1.070006    2.052810    0.550985
    145          0           0       -0.983150    2.023329   -0.041962
    146          0           0       -1.084482    2.057724    0.649810
    147          0           0       -0.968674    2.018416   -0.140787
    148          0           0       -1.098958    2.062637    0.748635
    149          0           0       -0.954199    2.013502   -0.239611
    150          0           0       -1.026578    2.038070    0.254512
    151          0           0       -1.040342    2.142862    0.348475
    152          0           0       -1.011390    2.133035    0.150825
    153          0           0       -1.054818    2.147776    0.447299
    154          0           0       -0.996914    2.128122    0.052001
    155          0           0       -1.069294    2.152689    0.546124
    156          0           0       -0.982438    2.123208   -0.046824
    157          0           0       -1.083770    2.157603    0.644949
    158          0           0       -0.967962    2.118295   -0.145648
    159          0           0       -1.098246    2.162516    0.743773
    160          0           0       -0.953486    2.113381   -0.244473
    161          0           0       -1.025866    2.137949    0.249650
    162          0           0       -1.039630    2.242741    0.343613
    163          0           0       -1.010678    2.232915    0.145964
    164          0           0       -1.054106    2.247655    0.442438
    165          0           0       -0.996202    2.228001    0.047139
    166          0           0       -1.068582    2.252568    0.541262
    167          0           0       -0.981726    2.223088   -0.051685
    168          0           0       -1.083058    2.257482    0.640087
    169          0           0       -0.967250    2.218174   -0.150510
    170          0           0       -1.097534    2.262395    0.738912
    171          0           0       -0.952774    2.213261   -0.249335
    172          0           0       -1.025154    2.237828    0.244788
    173          0           0       -1.038918    2.342621    0.338751
    174          0           0       -1.009966    2.332794    0.141102
    175          0           0       -1.053394    2.347534    0.437576
    176          0           0       -0.995490    2.327880    0.042278
    177          0           0       -1.067870    2.352448    0.536401
    178          0           0       -0.981014    2.322967   -0.056547
    179          0           0       -1.082346    2.357361    0.635225
    180          0           0       -0.966538    2.318053   -0.155372
    181          0           0       -1.096822    2.362275    0.734050
    182          0           0       -0.952062    2.313140   -0.254196
    183          0           0       -1.024442    2.337707    0.239927
    184          0           0       -1.038206    2.442500    0.333890
    185          0           0       -1.009254    2.432673    0.136241
    186          0           0       -1.052682    2.447413    0.432714
    187          0           0       -0.994778    2.427759    0.037416
    188          0           0       -1.067158    2.452327    0.531539
    189          0           0       -0.980302    2.422846   -0.061409
    190          0           0       -1.081634    2.457240    0.630364
    191          0           0       -0.965826    2.417932   -0.160233
    192          0           0       -1.096110    2.462154    0.729188
    193          0           0       -0.951350    2.413019   -0.259058
    194          0           0       -1.023730    2.437586    0.235065
    195          0           0       -1.037494    2.542379    0.329028
    196          0           0       -1.008542    2.532552    0.131379
    197          0           0       -1.051970    2.547293    0.427853
    198          0           0       -0.994066    2.527639    0.032554
    199          0           0       -1.066445    2.552206    0.526677
    200          0           0       -0.979590    2.522725   -0.066270
    201          0           0       -1.080921    2.557120    0.625502
    202          0           0       -0.965114    2.517812   -0.165095
    203          0           0       -1.095397    2.562033    0.724327
    204          0           0       -0.950638    2.512898   -0.263919
    205          0           0       -1.023018    2.537466    0.230204
    206          0           0       -1.036781    2.642258    0.324167
    207          0           0       -1.007830    2.632431    0.126517
    208          0           0       -1.051257    2.647172    0.422991
    209          0           0       -0.993354    2.627518    0.027693
    210          0           0       -1.065733    2.652085    0.521816
    211          0           0       -0.978878    2.622604   -0.071132
    212          0           0       -1.080209    2.656999    0.620640
    213          0           0       -0.964402    2.617691   -0.169956
    214          0           0       -1.094685    2.661912    0.719465
    215          0           0       -0.949926    2.612777   -0.268781
    216          0           0       -1.022305    2.637345    0.225342
    217          0           0       -1.036069    2.742138    0.319305
    218          0           0       -1.007117    2.732311    0.121656
    219          0           0       -1.050545    2.747051    0.418130
    220          0           0       -0.992641    2.727397    0.022831
    221          0           0       -1.065021    2.751965    0.516954
    222          0           0       -0.978165    2.722484   -0.075993
    223          0           0       -1.079497    2.756878    0.615779
    224          0           0       -0.963690    2.717570   -0.174818
    225          0           0       -1.093973    2.761792    0.714603
    226          0           0       -0.949214    2.712657   -0.273643
    227          0           0       -1.021593    2.737224    0.220480
    228          0           0       -1.035357    2.842017    0.314443
    229          0           0       -1.006405    2.832190    0.116794
    230          0           0       -1.049833    2.846930    0.413268
    231          0           0       -0.991929    2.827276    0.017970
    232          0           0       -1.064309    2.851844    0.512093
    233          0           0       -0.977453    2.822363   -0.080855
    234          0           0       -1.078785    2.856757    0.610917
    235          0           0       -0.962977    2.817449   -0.179680
    236          0           0       -1.093261    2.861671    0.709742
 ---------------------------------------------------------------------
 Rotational constants (GHZ):      0.4529074      0.2836956      0.1879557
 Standard basis: 6-311+G(d,p) (5D, 7F)
 Warning:  center  37 has no basis functions!
 Warning:  center  38 has no basis functions!
 Warning:  center  39 has no basis functions!
 Warning:  center  40 has no basis functions!
 Warning:  center  41 has no basis functions!
 Warning:  center  42 has no basis functions!
 Warning:  center  43 has no basis functions!
 Warning:  center  44 has no basis functions!
 Warning:  center  45 has no basis functions!
 Warning:  center  46 has no basis functions!
 Warning:  center  47 has no basis functions!
 Warning:  center  48 has no basis functions!
 Warning:  center  49 has no basis functions!
 Warning:  center  50 has no basis functions!
 Warning:  center  51 has no basis functions!
 Warning:  center  52 has no basis functions!
 Warning:  center  53 has no basis functions!
 Warning:  center  54 has no basis functions!
 Warning:  center  55 has no basis functions!
 Warning:  center  56 has no basis functions!
 Warning:  center  57 has no basis functions!
 Warning:  center  58 has no basis functions!
 Warning:  center  59 has no basis functions!
 Warning:  center  60 has no basis functions!
 Warning:  center  61 has no basis functions!
 Warning:  center  62 has no basis functions!
 Warning:  center  63 has no basis functions!
 Warning:  center  64 has no basis functions!
 Warning:  center  65 has no basis functions!
 Warning:  center  66 has no basis functions!
 Warning:  center  67 has no basis functions!
 Warning:  center  68 has no basis functions!
 Warning:  center  69 has no basis functions!
 Warning:  center  70 has no basis functions!
 Warning:  center  71 has no basis functions!
 Warning:  center  72 has no basis functions!
 Warning:  center  73 has no basis functions!
 Warning:  center  74 has no basis functions!
 Warning:  center  75 has no basis functions!
 Warning:  center  76 has no basis functions!
 Warning:  center  77 has no basis functions!
 Warning:  center  78 has no basis functions!
 Warning:  center  79 has no basis functions!
 Warning:  center  80 has no basis functions!
 Warning:  center  81 has no basis functions!
 Warning:  center  82 has no basis functions!
 Warning:  center  83 has no basis functions!
 Warning:  center  84 has no basis functions!
 Warning:  center  85 has no basis functions!
 Warning:  center  86 has no basis functions!
 Warning:  center  87 has no basis functions!
 Warning:  center  88 has no basis functions!
 Warning:  center  89 has no basis functions!
 Warning:  center  90 has no basis functions!
 Warning:  center  91 has no basis functions!
 Warning:  center  92 has no basis functions!
 Warning:  center  93 has no basis functions!
 Warning:  center  94 has no basis functions!
 Warning:  center  95 has no basis functions!
 Warning:  center  96 has no basis functions!
 Warning:  center  97 has no basis functions!
 Warning:  center  98 has no basis functions!
 Warning:  center  99 has no basis functions!
 Warning:  center 100 has no basis functions!
 Warning:  center 101 has no basis functions!
 Warning:  center 102 has no basis functions!
 Warning:  center 103 has no basis functions!
 Warning:  center 104 has no basis functions!
 Warning:  center 105 has no basis functions!
 Warning:  center 106 has no basis functions!
 Warning:  center 107 has no basis functions!
 Warning:  center 108 has no basis functions!
 Warning:  center 109 has no basis functions!
 Warning:  center 110 has no basis functions!
 Warning:  center 111 has no basis functions!
 Warning:  center 112 has no basis functions!
 Warning:  center 113 has no basis functions!
 Warning:  center 114 has no basis functions!
 Warning:  center 115 has no basis functions!
 Warning:  center 116 has no basis functions!
 Warning:  center 117 has no basis functions!
 Warning:  center 118 has no basis functions!
 Warning:  center 119 has no basis functions!
 Warning:  center 120 has no basis functions!
 Warning:  center 121 has no basis functions!
 Warning:  center 122 has no basis functions!
 Warning:  center 123 has no basis functions!
 Warning:  center 124 has no basis functions!
 Warning:  center 125 has no basis functions!
 Warning:  center 126 has no basis functions!
 Warning:  center 127 has no basis functions!
 Warning:  center 128 has no basis functions!
 Warning:  center 129 has no basis functions!
 Warning:  center 130 has no basis functions!
 Warning:  center 131 has no basis functions!
 Warning:  center 132 has no basis functions!
 Warning:  center 133 has no basis functions!
 Warning:  center 134 has no basis functions!
 Warning:  center 135 has no basis functions!
 Warning:  center 136 has no basis functions!
 Warning:  center 137 has no basis functions!
 Warning:  center 138 has no basis functions!
 Warning:  center 139 has no basis functions!
 Warning:  center 140 has no basis functions!
 Warning:  center 141 has no basis functions!
 Warning:  center 142 has no basis functions!
 Warning:  center 143 has no basis functions!
 Warning:  center 144 has no basis functions!
 Warning:  center 145 has no basis functions!
 Warning:  center 146 has no basis functions!
 Warning:  center 147 has no basis functions!
 Warning:  center 148 has no basis functions!
 Warning:  center 149 has no basis functions!
 Warning:  center 150 has no basis functions!
 Warning:  center 151 has no basis functions!
 Warning:  center 152 has no basis functions!
 Warning:  center 153 has no basis functions!
 Warning:  center 154 has no basis functions!
 Warning:  center 155 has no basis functions!
 Warning:  center 156 has no basis functions!
 Warning:  center 157 has no basis functions!
 Warning:  center 158 has no basis functions!
 Warning:  center 159 has no basis functions!
 Warning:  center 160 has no basis functions!
 Warning:  center 161 has no basis functions!
 Warning:  center 162 has no basis functions!
 Warning:  center 163 has no basis functions!
 Warning:  center 164 has no basis functions!
 Warning:  center 165 has no basis functions!
 Warning:  center 166 has no basis functions!
 Warning:  center 167 has no basis functions!
 Warning:  center 168 has no basis functions!
 Warning:  center 169 has no basis functions!
 Warning:  center 170 has no basis functions!
 Warning:  center 171 has no basis functions!
 Warning:  center 172 has no basis functions!
 Warning:  center 173 has no basis functions!
 Warning:  center 174 has no basis functions!
 Warning:  center 175 has no basis functions!
 Warning:  center 176 has no basis functions!
 Warning:  center 177 has no basis functions!
 Warning:  center 178 has no basis functions!
 Warning:  center 179 has no basis functions!
 Warning:  center 180 has no basis functions!
 Warning:  center 181 has no basis functions!
 Warning:  center 182 has no basis functions!
 Warning:  center 183 has no basis functions!
 Warning:  center 184 has no basis functions!
 Warning:  center 185 has no basis functions!
 Warning:  center 186 has no basis functions!
 Warning:  center 187 has no basis functions!
 Warning:  center 188 has no basis functions!
 Warning:  center 189 has no basis functions!
 Warning:  center 190 has no basis functions!
 Warning:  center 191 has no basis functions!
 Warning:  center 192 has no basis functions!
 Warning:  center 193 has no basis functions!
 Warning:  center 194 has no basis functions!
 Warning:  center 195 has no basis functions!
 Warning:  center 196 has no basis functions!
 Warning:  center 197 has no basis functions!
 Warning:  center 198 has no basis functions!
 Warning:  center 199 has no basis functions!
 Warning:  center 200 has no basis functions!
 Warning:  center 201 has no basis functions!
 Warning:  center 202 has no basis functions!
 Warning:  center 203 has no basis functions!
 Warning:  center 204 has no basis functions!
 Warning:  center 205 has no basis functions!
 Warning:  center 206 has no basis functions!
 Warning:  center 207 has no basis functions!
 Warning:  center 208 has no basis functions!
 Warning:  center 209 has no basis functions!
 Warning:  center 210 has no basis functions!
 Warning:  center 211 has no basis functions!
 Warning:  center 212 has no basis functions!
 Warning:  center 213 has no basis functions!
 Warning:  center 214 has no basis functions!
 Warning:  center 215 has no basis functions!
 Warning:  center 216 has no basis functions!
 Warning:  center 217 has no basis functions!
 Warning:  center 218 has no basis functions!
 Warning:  center 219 has no basis functions!
 Warning:  center 220 has no basis functions!
 Warning:  center 221 has no basis functions!
 Warning:  center 222 has no basis functions!
 Warning:  center 223 has no basis functions!
 Warning:  center 224 has no basis functions!
 Warning:  center 225 has no basis functions!
 Warning:  center 226 has no basis functions!
 Warning:  center 227 has no basis functions!
 Warning:  center 228 has no basis functions!
 Warning:  center 229 has no basis functions!
 Warning:  center 230 has no basis functions!
 Warning:  center 231 has no basis functions!
 Warning:  center 232 has no basis functions!
 Warning:  center 233 has no basis functions!
 Warning:  center 234 has no basis functions!
 Warning:  center 235 has no basis functions!
 Warning:  center 236 has no basis functions!
   568 basis functions,   904 primitive gaussians,   590 cartesian basis functions
    73 alpha electrons       73 beta electrons
       nuclear repulsion energy      1610.9176155625 Hartrees.
 NAtoms=  236 NActive=  236 NUniq=  236 SFac= 1.00D+00 NAtFMM=   60 NAOKFM=T Big=T
 Integral buffers will be    131072 words long.
 Raffenetti 2 integral format.
 Two-electron integral symmetry is turned off.
 One-electron integrals computed using PRISM.
 NBasis=   568 RedAO= T EigKep=  1.78D-06  NBF=   568
 NBsUse=   556 1.00D-06 EigRej=  9.09D-07 NBFU=   556
 ExpMin= 4.38D-02 ExpMax= 4.56D+03 ExpMxC= 6.82D+02 IAcc=2 IRadAn=         4 AccDes= 0.00D+00
 Harris functional with IExCor=  402 and IRadAn=       4 diagonalized for initial guess.
 HarFok:  IExCor=  402 AccDes= 0.00D+00 IRadAn=         4 IDoV= 1 UseB2=F ITyADJ=14
 ICtDFT=  3500011 ScaDFX=  1.000000  1.000000  1.000000  1.000000
 FoFCou: FMM=F IPFlag=           0 FMFlag=      100000 FMFlg1=        2001
         NFxFlg=           0 DoJE=T BraDBF=F KetDBF=T FulRan=T
         wScrn=  0.000000 ICntrl=     500 IOpCl=  0 I1Cent=   200000004 NGrid=           0
         NMat0=    1 NMatS0=      1 NMatT0=    0 NMatD0=    1 NMtDS0=    0 NMtDT0=    0
 Symmetry not used in FoFCou.
 Requested convergence on RMS density matrix=1.00D-08 within 128 cycles.
 Requested convergence on MAX density matrix=1.00D-06.
 Requested convergence on             energy=1.00D-06.
 No special actions if energy rises.
 SCF Done:  E(RB3LYP) =  -847.003289847     A.U. after   15 cycles
            NFock= 15  Conv=0.76D-08     -V/T= 2.0040
 DoSCS=F DFT=T ScalE2(SS,OS)=  1.000000  1.000000
 Range of M.O.s used for correlation:     1   556
 NBasis=   568 NAE=    73 NBE=    73 NFC=     0 NFV=     0
 NROrb=    556 NOA=    73 NOB=    73 NVA=   483 NVB=   483

 **** Warning!!: The largest alpha MO coefficient is  0.10971036D+03

          Differentiating once with respect to magnetic field using GIAOs.
          Electric field/nuclear overlap derivatives assumed to be zero.
 FoFCou: FMM=F IPFlag=           0 FMFlag=      100000 FMFlg1=        2001
         NFxFlg=           0 DoJE=F BraDBF=F KetDBF=T FulRan=T
         wScrn=  0.000000 ICntrl=    6100 IOpCl=  0 I1Cent=           7 NGrid=         236
         NMat0=    1 NMatS0=      1 NMatT0=    0 NMatD0=    1 NMtDS0=    0 NMtDT0=    0
 Symmetry not used in FoFCou.
 FoFJK:  IHMeth= 1 ICntrl=    6127 DoSepK=F KAlg= 0 I1Cent=   0 FoldK=F
 IRaf=         1 NMat=   1 IRICut=       1 DoRegI=T DoRafI=F ISym2E= 0.
          There are     3 degrees of freedom in the 1st order CPHF.  IDoFFX=0 NUNeed=     3.
      3 vectors produced by pass  0 Test12= 1.18D-12 3.33D-08 XBig12= 2.07D+03 9.18D+00.
 AX will form     3 AO Fock derivatives at one time.
      3 vectors produced by pass  1 Test12= 1.18D-12 3.33D-08 XBig12= 3.56D+00 8.03D-01.
      3 vectors produced by pass  2 Test12= 1.18D-12 3.33D-08 XBig12= 2.10D-02 6.92D-02.
      3 vectors produced by pass  3 Test12= 1.18D-12 3.33D-08 XBig12= 5.45D-05 1.89D-03.
      3 vectors produced by pass  4 Test12= 1.18D-12 3.33D-08 XBig12= 1.20D-07 7.79D-05.
      3 vectors produced by pass  5 Test12= 1.18D-12 3.33D-08 XBig12= 4.02D-10 4.73D-06.
      3 vectors produced by pass  6 Test12= 1.18D-12 3.33D-08 XBig12= 1.32D-12 2.61D-07.
 InvSVY:  IOpt=1 It=  1 EMax= 1.42D-14
 Solved reduced A of dimension    21 with     3 vectors.
 Calculating GIAO nuclear magnetic shielding tensors.
 SCF GIAO Magnetic shielding tensor (ppm):
      1  C    Isotropic =    53.8139   Anisotropy =   178.0260
   XX=   -41.4327   YX=   -32.3458   ZX=    10.0287
   XY=   -28.3572   YY=    59.0527   ZY=    55.1899
   XZ=    13.1759   YZ=    58.7550   ZZ=   143.8218
   Eigenvalues:   -53.8775    42.8214   172.4979
      2  H    Isotropic =    24.3095   Anisotropy =     4.8536
   XX=    25.5771   YX=    -1.0289   ZX=     0.5661
   XY=    -0.7431   YY=    26.1829   ZY=    -2.3306
   XZ=    -0.1707   YZ=    -2.4411   ZZ=    21.1687
   Eigenvalues:    20.2108    25.1725    27.5453
      3  C    Isotropic =    51.4055   Anisotropy =   157.8639
   XX=   -31.5399   YX=    38.5015   ZX=   -17.9316
   XY=    34.3519   YY=    49.9437   ZY=    49.6392
   XZ=    -9.8383   YZ=    44.6006   ZZ=   135.8127
   Eigenvalues:   -50.5747    48.1432   156.6481
      4  H    Isotropic =    23.8290   Anisotropy =     7.1838
   XX=    25.3635   YX=     1.8486   ZX=    -0.3559
   XY=     1.9656   YY=    26.4581   ZY=    -2.4103
   XZ=    -1.2941   YZ=    -2.6614   ZZ=    19.6654
   Eigenvalues:    18.8176    24.0511    28.6182
      5  C    Isotropic =    46.0697   Anisotropy =   207.6751
   XX=   -19.2123   YX=    -4.8852   ZX=    -1.6475
   XY=     2.8938   YY=    -2.9860   ZY=    66.5656
   XZ=     2.5356   YZ=    67.9144   ZZ=   160.4073
   Eigenvalues:   -27.2455   -19.0652   184.5197
      6  C    Isotropic =    47.5218   Anisotropy =   196.9389
   XX=   -28.1552   YX=    -2.7889   ZX=    12.0660
   XY=   -14.3886   YY=    21.2063   ZY=    74.2521
   XZ=   -18.6356   YZ=    61.1113   ZZ=   149.5144
   Eigenvalues:   -30.2925    -5.9564   178.8144
      7  C    Isotropic =    49.3915   Anisotropy =   179.8333
   XX=   -12.5211   YX=    28.7048   ZX=   -24.6745
   XY=    31.5123   YY=    29.7000   ZY=    77.7459
   XZ=   -40.0095   YZ=    65.3072   ZZ=   130.9956
   Eigenvalues:   -52.1299    31.0240   169.2804
      8  H    Isotropic =    23.1586   Anisotropy =    13.5525
   XX=    28.5711   YX=     1.5482   ZX=    -3.6986
   XY=     3.2466   YY=    22.7592   ZY=    -2.1157
   XZ=    -8.3753   YZ=    -1.0821   ZZ=    18.1456
   Eigenvalues:    15.3521    21.9301    32.1936
      9  C    Isotropic =    55.1460   Anisotropy =   174.7426
   XX=    46.7071   YX=    -2.6162   ZX=    -2.8420
   XY=     0.6223   YY=    -1.6258   ZY=    92.8272
   XZ=     0.5159   YZ=    95.6598   ZZ=   120.3568
   Eigenvalues:   -52.8932    46.6901   171.6411
     10  H    Isotropic =    24.6278   Anisotropy =     7.1815
   XX=    29.1040   YX=     0.1399   ZX=    -0.3694
   XY=     0.3642   YY=    23.4778   ZY=    -1.0805
   XZ=    -2.4493   YZ=    -2.9465   ZZ=    21.3016
   Eigenvalues:    19.9703    24.4977    29.4155
     11  C    Isotropic =    51.5607   Anisotropy =   151.2142
   XX=     2.1639   YX=    40.9287   ZX=   -26.0048
   XY=    49.9131   YY=    12.2331   ZY=    42.1342
   XZ=   -15.6145   YZ=    38.6614   ZZ=   140.2851
   Eigenvalues:   -48.1951    50.5071   152.3701
     12  H    Isotropic =    23.8537   Anisotropy =     7.3815
   XX=    25.9672   YX=     2.3738   ZX=    -0.2390
   XY=     2.4320   YY=    26.3975   ZY=    -1.8291
   XZ=     0.3529   YZ=    -1.7731   ZZ=    19.1964
   Eigenvalues:    18.7149    24.0714    28.7747
     13  C    Isotropic =    52.8653   Anisotropy =   147.4265
   XX=    51.2944   YX=    19.9221   ZX=   -13.4678
   XY=    11.5478   YY=   -34.0176   ZY=    42.5079
   XZ=    -9.2241   YZ=    40.0716   ZZ=   141.3192
   Eigenvalues:   -46.5152    53.9616   151.1497
     14  H    Isotropic =    24.0156   Anisotropy =     7.3485
   XX=    28.6644   YX=     0.6281   ZX=     1.0808
   XY=     0.5926   YY=    24.4325   ZY=    -1.0823
   XZ=     1.6846   YZ=    -0.3842   ZZ=    18.9500
   Eigenvalues:    18.6430    24.4892    28.9146
     15  C    Isotropic =    46.2221   Anisotropy =   203.9048
   XX=   -27.2215   YX=    -0.0442   ZX=   -28.9124
   XY=     4.6427   YY=   -10.5571   ZY=    28.3830
   XZ=   -10.2704   YZ=    26.7376   ZZ=   176.4448
   Eigenvalues:   -30.5512   -12.9411   182.1586
     16  C    Isotropic =    51.9375   Anisotropy =   188.2004
   XX=   -19.4441   YX=     5.5046   ZX=    15.7858
   XY=    -8.3874   YY=     2.4863   ZY=    22.9264
   XZ=   -50.6243   YZ=    23.3340   ZZ=   172.7704
   Eigenvalues:   -21.0294    -0.5625   177.4045
     17  C    Isotropic =    51.9482   Anisotropy =   149.1264
   XX=    50.7296   YX=   -23.9353   ZX=   -18.4207
   XY=   -16.7271   YY=   -41.8764   ZY=    17.8662
   XZ=   -14.3278   YZ=    11.4871   ZZ=   146.9915
   Eigenvalues:   -46.7796    51.2584   151.3658
     18  H    Isotropic =    24.0122   Anisotropy =     7.5163
   XX=    28.5811   YX=    -0.0866   ZX=     1.5071
   XY=    -0.2466   YY=    24.3342   ZY=    -0.7657
   XZ=     2.5088   YZ=    -1.5208   ZZ=    19.1214
   Eigenvalues:    18.5094    24.5041    29.0231
     19  C    Isotropic =    51.7356   Anisotropy =   148.5924
   XX=     2.4559   YX=   -45.6913   ZX=   -31.2531
   XY=   -53.4448   YY=     7.4698   ZY=    -1.8888
   XZ=   -23.5601   YZ=    -1.2765   ZZ=   145.2810
   Eigenvalues:   -46.9894    51.3989   150.7972
     20  H    Isotropic =    23.9071   Anisotropy =     7.6651
   XX=    25.5796   YX=    -2.0226   ZX=     1.4905
   XY=    -1.9998   YY=    27.3706   ZY=    -0.5164
   XZ=     2.7276   YZ=    -1.1179   ZZ=    18.7711
   Eigenvalues:    18.1643    24.5398    29.0172
     21  C    Isotropic =    45.9767   Anisotropy =   203.9316
   XX=   -16.2108   YX=    13.1802   ZX=   -44.5913
   XY=     6.5714   YY=   -20.6329   ZY=     0.0949
   XZ=   -28.8984   YZ=   -13.0883   ZZ=   174.7736
   Eigenvalues:   -30.5796   -13.4215   181.9311
     22  C    Isotropic =    52.0450   Anisotropy =   188.1157
   XX=    -0.0787   YX=     2.5023   ZX=   -16.3451
   XY=    18.9327   YY=   -14.4798   ZY=   -34.4335
   XZ=   -50.6032   YZ=    19.9104   ZZ=   170.6934
   Eigenvalues:   -20.7705    -0.5500   177.4554
     23  C    Isotropic =    53.2392   Anisotropy =   146.7412
   XX=   -22.0674   YX=   -32.0012   ZX=   -49.4857
   XY=   -23.2043   YY=    44.3661   ZY=   -15.6400
   XZ=   -43.8090   YZ=   -20.2525   ZZ=   137.4189
   Eigenvalues:   -45.6776    54.3286   151.0667
     24  H    Isotropic =    23.8249   Anisotropy =     7.5289
   XX=    25.1073   YX=    -1.7330   ZX=     1.5380
   XY=    -1.5944   YY=    28.0047   ZY=     0.0879
   XZ=     1.2557   YZ=    -0.8283   ZZ=    18.3628
   Eigenvalues:    18.0848    24.5458    28.8442
     25  C    Isotropic =    51.4969   Anisotropy =   150.1066
   XX=   -28.4915   YX=    33.9684   ZX=   -52.3137
   XY=    22.0311   YY=    46.6072   ZY=    -3.8075
   XZ=   -44.5594   YZ=   -10.6355   ZZ=   136.3748
   Eigenvalues:   -48.3857    51.3083   151.5679
     26  H    Isotropic =    23.7431   Anisotropy =     7.4052
   XX=    24.0663   YX=     1.1141   ZX=     1.9989
   XY=     0.9693   YY=    28.1000   ZY=     1.6568
   XZ=     2.0795   YZ=     0.8886   ZZ=    19.0630
   Eigenvalues:    18.2615    24.2880    28.6799
     27  C    Isotropic =    45.8108   Anisotropy =   207.2710
   XX=    -2.7702   YX=    13.7697   ZX=   -61.4651
   XY=     6.5593   YY=   -12.0335   ZY=   -41.6456
   XZ=   -62.6381   YZ=   -44.9232   ZZ=   152.2361
   Eigenvalues:   -28.0803   -18.4787   183.9915
     28  C    Isotropic =    47.8398   Anisotropy =   197.2870
   XX=    19.6900   YX=    14.4398   ZX=   -60.5682
   XY=    28.5650   YY=   -19.3566   ZY=   -56.7015
   XZ=   -63.1331   YZ=   -24.4782   ZZ=   143.1859
   Eigenvalues:   -30.5979    -5.2472   179.3644
     29  C    Isotropic =    49.3441   Anisotropy =   179.7793
   XX=    -3.4110   YX=    38.3775   ZX=   -80.8875
   XY=    36.1252   YY=    25.9805   ZY=   -23.7573
   XZ=   -78.1065   YZ=    -3.9802   ZZ=   125.4627
   Eigenvalues:   -51.6645    30.4997   169.1970
     30  H    Isotropic =    23.1387   Anisotropy =    13.3222
   XX=    22.4354   YX=    -0.7013   ZX=    -0.2375
   XY=    -2.1539   YY=    28.3546   ZY=     4.5555
   XZ=    -3.4181   YZ=     8.3231   ZZ=    18.6259
   Eigenvalues:    15.2751    22.1208    32.0201
     31  C    Isotropic =    55.4410   Anisotropy =   174.9390
   XX=    17.1871   YX=   -14.0890   ZX=   -84.0024
   XY=   -17.9030   YY=    37.4745   ZY=   -50.3662
   XZ=   -84.6557   YZ=   -54.8325   ZZ=   111.6615
   Eigenvalues:   -51.9248    46.1808   172.0670
     32  H    Isotropic =    24.5337   Anisotropy =     7.2554
   XX=    24.6185   YX=    -2.5264   ZX=     0.7632
   XY=    -2.7385   YY=    27.4630   ZY=     1.0335
   XZ=     1.1913   YZ=     3.7573   ZZ=    21.5194
   Eigenvalues:    19.8987    24.3316    29.3706
     33  C    Isotropic =    53.1814   Anisotropy =   179.0596
   XX=    60.9231   YX=    35.2256   ZX=   -42.9515
   XY=    32.0226   YY=   -38.1801   ZY=   -45.5652
   XZ=   -44.2248   YZ=   -50.7831   ZZ=   136.8014
   Eigenvalues:   -55.1197    42.1095   172.5545
     34  H    Isotropic =    24.2825   Anisotropy =     5.1861
   XX=    26.7643   YX=    -0.0934   ZX=     2.5955
   XY=    -0.2993   YY=    24.8157   ZY=     0.8589
   XZ=     2.3715   YZ=     1.4580   ZZ=    21.2676
   Eigenvalues:    20.0339    25.0737    27.7399
     35  C    Isotropic =    51.5295   Anisotropy =   155.1748
   XX=    -0.5131   YX=    52.5760   ZX=   -52.1551
   XY=    55.6135   YY=    25.1843   ZY=   -14.2643
   XZ=   -45.7255   YZ=   -17.1625   ZZ=   129.9171
   Eigenvalues:   -48.3147    47.9237   154.9793
     36  H    Isotropic =    23.8384   Anisotropy =     7.3073
   XX=    24.2302   YX=     1.4459   ZX=     2.1759
   XY=     1.2147   YY=    27.1572   ZY=     2.0665
   XZ=     1.6853   YZ=     2.7775   ZZ=    20.1277
   Eigenvalues:    18.9464    23.8588    28.7099
     37  Bq   Isotropic =    23.5279   Anisotropy =    18.6038
   XX=    11.4628   YX=    -8.7295   ZX=     2.9369
   XY=    -8.5817   YY=    24.0560   ZY=     7.2655
   XZ=     0.1178   YZ=    -0.9741   ZZ=    35.0648
   Eigenvalues:     6.7790    27.8743    35.9304
     38  Bq   Isotropic =    19.8457   Anisotropy =    17.3476
   XX=    13.9253   YX=    -1.1327   ZX=    -4.2122
   XY=     4.7692   YY=    15.0070   ZY=     3.5001
   XZ=    -0.7997   YZ=     2.4036   ZZ=    30.6050
   Eigenvalues:    11.8050    16.3215    31.4108
     39  Bq   Isotropic =    22.3429   Anisotropy =    17.1047
   XX=    11.4538   YX=    -7.1472   ZX=     1.1354
   XY=    -7.3837   YY=    22.0047   ZY=     6.7433
   XZ=     0.9939   YZ=    -3.8846   ZZ=    33.5702
   Eigenvalues:     7.6519    25.6308    33.7461
     40  Bq   Isotropic =    25.8570   Anisotropy =    30.2071
   XX=    14.2991   YX=   -12.0986   ZX=     2.4013
   XY=    -9.4887   YY=    25.6799   ZY=     4.0922
   XZ=    -8.1189   YZ=    17.2445   ZZ=    37.5919
   Eigenvalues:     7.4217    24.1543    45.9951
     41  Bq   Isotropic =    23.7004   Anisotropy =    25.3800
   XX=    15.2387   YX=    -6.9220   ZX=     0.6413
   XY=    -4.0298   YY=    23.3192   ZY=     2.4399
   XZ=   -10.0717   YZ=    17.0738   ZZ=    32.5433
   Eigenvalues:    12.4708    18.0100    40.6204
     42  Bq   Isotropic =    22.9422   Anisotropy =    23.9638
   XX=    12.9058   YX=    -7.7287   ZX=     3.3844
   XY=    -6.3117   YY=    25.0492   ZY=     3.5367
   XZ=    -8.9895   YZ=    14.2104   ZZ=    30.8715
   Eigenvalues:     9.6178    20.2907    38.9180
     43  Bq   Isotropic =    23.2632   Anisotropy =    23.8291
   XX=    15.5595   YX=    -5.5089   ZX=    -1.0433
   XY=    -1.8242   YY=    21.4837   ZY=     2.4219
   XZ=    -8.9205   YZ=    15.1577   ZZ=    32.7465
   Eigenvalues:    13.7478    16.8926    39.1493
     44  Bq   Isotropic =    22.0514   Anisotropy =    20.8039
   XX=    11.4228   YX=    -7.1492   ZX=     3.5108
   XY=    -6.2530   YY=    24.8121   ZY=     4.1957
   XZ=    -7.1550   YZ=     9.5599   ZZ=    29.9194
   Eigenvalues:     8.5969    21.6367    35.9207
     45  Bq   Isotropic =    22.2344   Anisotropy =    21.7834
   XX=    15.1802   YX=    -3.7231   ZX=    -2.3532
   XY=     0.6444   YY=    19.1823   ZY=     2.8510
   XZ=    -6.8852   YZ=    11.9631   ZZ=    32.3405
   Eigenvalues:    13.9717    15.9748    36.7567
     46  Bq   Isotropic =    21.0724   Anisotropy =    16.9907
   XX=    10.2090   YX=    -6.1964   ZX=     2.6178
   XY=    -5.6805   YY=    23.8796   ZY=     4.6565
   XZ=    -5.0656   YZ=     4.1122   ZZ=    29.1287
   Eigenvalues:     7.9821    22.8356    32.3996
     47  Bq   Isotropic =    20.7140   Anisotropy =    20.0643
   XX=    14.1627   YX=    -1.8985   ZX=    -3.1131
   XY=     2.9741   YY=    16.5959   ZY=     3.6152
   XZ=    -4.4009   YZ=     8.4083   ZZ=    31.3835
   Eigenvalues:    12.2339    15.8179    34.0902
     48  Bq   Isotropic =    20.1294   Anisotropy =    14.0127
   XX=     9.5438   YX=    -5.1191   ZX=     1.0599
   XY=    -4.9115   YY=    22.3672   ZY=     4.8462
   XZ=    -3.1351   YZ=    -0.6819   ZZ=    28.4772
   Eigenvalues:     7.8108    23.1062    29.4712
     49  Bq   Isotropic =    18.8741   Anisotropy =    19.0670
   XX=    12.6666   YX=    -0.3104   ZX=    -3.3550
   XY=     4.8777   YY=    13.9201   ZY=     4.5257
   XZ=    -1.9050   YZ=     5.1847   ZZ=    30.0357
   Eigenvalues:     9.6287    15.4083    31.5854
     50  Bq   Isotropic =    19.2413   Anisotropy =    13.1336
   XX=     9.4648   YX=    -4.0960   ZX=    -0.5739
   XY=    -4.1888   YY=    20.4183   ZY=     4.8088
   XZ=    -1.5701   YZ=    -3.7036   ZZ=    27.8406
   Eigenvalues:     8.0389    21.6879    27.9970
     51  Bq   Isotropic =    23.5542   Anisotropy =    25.5705
   XX=    14.2857   YX=    -7.6919   ZX=     2.2927
   XY=    -5.5918   YY=    24.5410   ZY=     2.8711
   XZ=   -10.0786   YZ=    16.8705   ZZ=    31.8359
   Eigenvalues:    10.9706    19.0908    40.6012
     52  Bq   Isotropic =    21.0499   Anisotropy =    22.1656
   XX=    13.9515   YX=    -3.3934   ZX=     0.6748
   XY=    -1.1140   YY=    21.6468   ZY=     2.2091
   XZ=   -11.1548   YZ=    16.5021   ZZ=    27.5514
   Eigenvalues:    11.9881    15.3346    35.8269
     53  Bq   Isotropic =    19.7389   Anisotropy =    19.6314
   XX=    11.6819   YX=    -3.4887   ZX=     2.4624
   XY=    -2.5094   YY=    23.1442   ZY=     1.9828
   XZ=   -11.1113   YZ=    13.5121   ZZ=    24.3905
   Eigenvalues:    10.3090    16.0812    32.8265
     54  Bq   Isotropic =    20.9135   Anisotropy =    21.8786
   XX=    14.1411   YX=    -2.6539   ZX=    -0.6403
   XY=     0.3511   YY=    19.9097   ZY=     2.7575
   XZ=    -9.7611   YZ=    15.2366   ZZ=    28.6897
   Eigenvalues:    11.7675    15.4738    35.4992
     55  Bq   Isotropic =    18.6475   Anisotropy =    16.6769
   XX=    10.1338   YX=    -2.9333   ZX=     2.2691
   XY=    -2.3994   YY=    22.7894   ZY=     2.2188
   XZ=    -9.7622   YZ=     9.3951   ZZ=    23.0192
   Eigenvalues:     9.0221    17.1549    29.7654
     56  Bq   Isotropic =    20.2029   Anisotropy =    21.1716
   XX=    13.6387   YX=    -1.6201   ZX=    -1.7695
   XY=     2.0419   YY=    17.7274   ZY=     3.5459
   XZ=    -7.7029   YZ=    12.8213   ZZ=    29.2426
   Eigenvalues:    10.8000    15.4914    34.3173
     57  Bq   Isotropic =    17.5947   Anisotropy =    13.1878
   XX=     8.8637   YX=    -2.2206   ZX=     1.2745
   XY=    -1.9935   YY=    21.7970   ZY=     2.5694
   XZ=    -7.8727   YZ=     4.5850   ZZ=    22.1235
   Eigenvalues:     7.9692    18.4283    26.3866
     58  Bq   Isotropic =    19.0182   Anisotropy =    20.5326
   XX=    12.5677   YX=    -0.5070   ZX=    -2.5302
   XY=     3.6805   YY=    15.3029   ZY=     4.4613
   XZ=    -5.3357   YZ=     9.9561   ZZ=    29.1841
   Eigenvalues:     9.2074    15.1406    32.7067
     59  Bq   Isotropic =    16.7596   Anisotropy =    10.1312
   XX=     8.2055   YX=    -1.5542   ZX=    -0.1820
   XY=    -1.5478   YY=    20.3295   ZY=     2.9459
   XZ=    -5.7593   YZ=     0.2536   ZZ=    21.7437
   Eigenvalues:     7.4702    19.2948    23.5137
     60  Bq   Isotropic =    17.5179   Anisotropy =    20.2054
   XX=    11.1144   YX=     0.4931   ZX=    -2.8939
   XY=     5.0515   YY=    12.8315   ZY=     5.3699
   XZ=    -2.9999   YZ=     7.2054   ZZ=    28.6078
   Eigenvalues:     7.2058    14.3598    30.9882
     61  Bq   Isotropic =    16.1767   Anisotropy =     9.2322
   XX=     8.2170   YX=    -1.0658   ZX=    -1.5822
   XY=    -1.2526   YY=    18.5496   ZY=     3.2870
   XZ=    -3.6707   YZ=    -2.6367   ZZ=    21.7634
   Eigenvalues:     7.6188    18.5798    22.3315
     62  Bq   Isotropic =    20.6157   Anisotropy =    21.5082
   XX=    13.0723   YX=    -3.6810   ZX=     1.8399
   XY=    -2.1052   YY=    22.7614   ZY=     1.9560
   XZ=   -11.6261   YZ=    16.0040   ZZ=    26.0133
   Eigenvalues:    11.4283    15.4642    34.9545
     63  Bq   Isotropic =    18.3329   Anisotropy =    19.5349
   XX=    12.3724   YX=    -0.6440   ZX=     0.3228
   XY=     1.0725   YY=    19.5560   ZY=     2.1419
   XZ=   -11.8816   YZ=    15.5382   ZZ=    23.0703
   Eigenvalues:     8.0634    15.5792    31.3562
     64  Bq   Isotropic =    16.7479   Anisotropy =    16.2357
   XX=    10.6001   YX=    -0.1717   ZX=     1.5484
   XY=     0.3148   YY=    20.7539   ZY=     1.0454
   XZ=   -12.4558   YZ=    12.7471   ZZ=    18.8897
   Eigenvalues:     7.0168    15.6553    27.5717
     65  Bq   Isotropic =    18.4356   Anisotropy =    20.1828
   XX=    12.4172   YX=    -0.4216   ZX=    -0.7102
   XY=     1.9920   YY=    18.0312   ZY=     3.0554
   XZ=   -10.3872   YZ=    14.7564   ZZ=    24.8586
   Eigenvalues:     7.9989    15.4172    31.8908
     66  Bq   Isotropic =    15.6284   Anisotropy =    13.5798
   XX=     9.3413   YX=     0.3739   ZX=     1.2625
   XY=     0.4525   YY=    20.3434   ZY=     0.9806
   XZ=   -11.4255   YZ=     9.3107   ZZ=    17.2006
   Eigenvalues:     6.2941    15.9096    24.6817
     67  Bq   Isotropic =    18.0228   Anisotropy =    20.4726
   XX=    11.8652   YX=     0.0357   ZX=    -1.6556
   XY=     3.0968   YY=    16.0913   ZY=     4.0748
   XZ=    -8.3795   YZ=    13.0011   ZZ=    26.1119
   Eigenvalues:     7.4096    14.9876    31.6712
     68  Bq   Isotropic =    14.6316   Anisotropy =    10.6162
   XX=     8.3325   YX=     0.8950   ZX=     0.3623
   XY=     0.7231   YY=    19.3838   ZY=     1.2240
   XZ=    -9.6776   YZ=     5.3053   ZZ=    16.1785
   Eigenvalues:     5.8236    16.3621    21.7091
     69  Bq   Isotropic =    17.1758   Anisotropy =    20.6595
   XX=    10.8422   YX=     0.5962   ZX=    -2.3462
   XY=     4.1981   YY=    13.9317   ZY=     5.0840
   XZ=    -6.1543   YZ=    10.7836   ZZ=    26.7535
   Eigenvalues:     6.3309    14.2477    30.9488
     70  Bq   Isotropic =    13.9495   Anisotropy =     7.7516
   XX=     7.8689   YX=     1.2203   ZX=    -0.8520
   XY=     0.9172   YY=    18.0498   ZY=     1.6908
   XZ=    -7.4478   YZ=     1.6275   ZZ=    15.9298
   Eigenvalues:     5.8937    16.8376    19.1172
     71  Bq   Isotropic =    16.0267   Anisotropy =    20.8756
   XX=     9.5206   YX=     1.1288   ZX=    -2.7296
   XY=     5.1389   YY=    11.7347   ZY=     5.9819
   XZ=    -3.9818   YZ=     8.5419   ZZ=    26.8246
   Eigenvalues:     4.9178    13.2185    29.9437
     72  Bq   Isotropic =    13.6237   Anisotropy =     6.1002
   XX=     7.9917   YX=     1.2604   ZX=    -1.9481
   XY=     0.8869   YY=    16.5027   ZY=     2.2642
   XZ=    -4.9996   YZ=    -0.9498   ZZ=    16.3768
   Eigenvalues:     6.5862    16.5945    17.6905
     73  Bq   Isotropic =    17.7268   Anisotropy =    18.2602
   XX=    11.7164   YX=    -0.5535   ZX=     1.1736
   XY=     0.4950   YY=    20.4958   ZY=     1.4443
   XZ=   -12.6146   YZ=    14.9173   ZZ=    20.9682
   Eigenvalues:     7.6834    15.5967    29.9003
     74  Bq   Isotropic =    15.9438   Anisotropy =    17.5495
   XX=    11.0282   YX=     1.1616   ZX=    -0.2145
   XY=     2.3800   YY=    17.2800   ZY=     2.2698
   XZ=   -12.2072   YZ=    14.4162   ZZ=    19.5232
   Eigenvalues:     4.7991    15.3888    27.6435
     75  Bq   Isotropic =    14.3362   Anisotropy =    13.7618
   XX=    10.0441   YX=     1.9196   ZX=     0.7265
   XY=     1.9548   YY=    18.1832   ZY=     0.6947
   XZ=   -13.0294   YZ=    12.0088   ZZ=    14.7814
   Eigenvalues:     3.7892    15.7088    23.5107
     76  Bq   Isotropic =    16.1904   Anisotropy =    18.8442
   XX=    10.8619   YX=     1.0597   ZX=    -1.0389
   XY=     2.9619   YY=    16.0154   ZY=     3.3627
   XZ=   -10.7348   YZ=    13.9718   ZZ=    21.6938
   Eigenvalues:     4.9283    14.8896    28.7531
     77  Bq   Isotropic =    13.3116   Anisotropy =    11.4422
   XX=     9.2529   YX=     2.3908   ZX=     0.5009
   XY=     2.0586   YY=    17.7741   ZY=     0.4315
   XZ=   -12.1572   YZ=     9.2852   ZZ=    12.9079
   Eigenvalues:     3.4021    15.5930    20.9398
     78  Bq   Isotropic =    16.0018   Anisotropy =    19.8286
   XX=    10.2365   YX=     1.1365   ZX=    -1.8167
   XY=     3.6844   YY=    14.3771   ZY=     4.4817
   XZ=    -8.8450   YZ=    12.7437   ZZ=    23.3919
   Eigenvalues:     4.6387    14.1458    29.2209
     79  Bq   Isotropic =    12.4509   Anisotropy =     9.1826
   XX=     8.6419   YX=     2.7128   ZX=    -0.1770
   XY=     2.1965   YY=    16.9193   ZY=     0.5644
   XZ=   -10.4776   YZ=     6.1220   ZZ=    11.7915
   Eigenvalues:     3.4798    15.3002    18.5726
     80  Bq   Isotropic =    15.4360   Anisotropy =    20.6054
   XX=     9.2583   YX=     1.3186   ZX=    -2.4070
   XY=     4.4203   YY=    12.5355   ZY=     5.5126
   XZ=    -6.7901   YZ=    11.0910   ZZ=    24.5140
   Eigenvalues:     3.9560    13.1790    29.1729
     81  Bq   Isotropic =    11.9315   Anisotropy =     7.1866
   XX=     8.4261   YX=     2.7490   ZX=    -1.0638
   XY=     2.2017   YY=    15.7819   ZY=     1.0245
   XZ=    -8.1711   YZ=     3.1712   ZZ=    11.5865
   Eigenvalues:     4.2209    14.8510    16.7226
     82  Bq   Isotropic =    14.5944   Anisotropy =    21.2306
   XX=     8.0684   YX=     1.5208   ZX=    -2.7543
   XY=     5.0571   YY=    10.6507   ZY=     6.3736
   XZ=    -4.7913   YZ=     9.3383   ZZ=    25.0641
   Eigenvalues:     3.0011    12.0340    28.7481
     83  Bq   Isotropic =    11.7947   Anisotropy =     5.1919
   XX=     8.6177   YX=     2.4499   ZX=    -1.8214
   XY=     1.9608   YY=    14.5056   ZY=     1.6811
   XZ=    -5.5021   YZ=     1.0145   ZZ=    12.2607
   Eigenvalues:     5.5994    14.5286    15.2560
     84  Bq   Isotropic =    15.2844   Anisotropy =    15.8527
   XX=    10.7175   YX=     1.4662   ZX=     0.4463
   XY=     2.0368   YY=    18.0272   ZY=     1.3374
   XZ=   -13.0273   YZ=    13.7901   ZZ=    17.1086
   Eigenvalues:     4.3493    15.6511    25.8529
     85  Bq   Isotropic =    14.0642   Anisotropy =    16.2150
   XX=    10.0730   YX=     2.0325   ZX=    -0.7623
   XY=     2.8526   YY=    15.0765   ZY=     2.5750
   XZ=   -12.1553   YZ=    13.2814   ZZ=    17.0431
   Eigenvalues:     2.6750    14.6434    24.8742
     86  Bq   Isotropic =    12.6082   Anisotropy =    12.1106
   XX=     9.9570   YX=     2.7582   ZX=     0.0864
   XY=     2.4743   YY=    15.7606   ZY=     0.8083
   XZ=   -12.9485   YZ=    11.3206   ZZ=    12.1068
   Eigenvalues:     1.8854    15.2572    20.6819
     87  Bq   Isotropic =    14.3650   Anisotropy =    17.9164
   XX=     9.6554   YX=     1.7969   ZX=    -1.4455
   XY=     3.2816   YY=    14.0588   ZY=     3.7016
   XZ=   -10.7973   YZ=    13.0649   ZZ=    19.3808
   Eigenvalues:     2.8327    13.9530    26.3092
     88  Bq   Isotropic =    11.7434   Anisotropy =     9.9823
   XX=     9.6559   YX=     3.0609   ZX=     0.0042
   XY=     2.4761   YY=    15.4085   ZY=     0.4166
   XZ=   -12.1110   YZ=     9.2615   ZZ=    10.1659
   Eigenvalues:     1.7340    15.0980    18.3983
     89  Bq   Isotropic =    14.3157   Anisotropy =    19.3448
   XX=     8.9198   YX=     1.6789   ZX=    -2.0885
   XY=     3.8029   YY=    12.7195   ZY=     4.8093
   XZ=    -9.0779   YZ=    12.2455   ZZ=    21.3079
   Eigenvalues:     2.6773    13.0576    27.2123
     90  Bq   Isotropic =    11.0497   Anisotropy =     8.1786
   XX=     9.4412   YX=     3.1504   ZX=    -0.4009
   XY=     2.4717   YY=    14.7103   ZY=     0.4290
   XZ=   -10.4399   YZ=     6.8863   ZZ=     8.9977
   Eigenvalues:     2.1216    14.5254    16.5021
     91  Bq   Isotropic =    13.9529   Anisotropy =    20.5102
   XX=     7.9512   YX=     1.6463   ZX=    -2.5794
   XY=     4.3299   YY=    11.1968   ZY=     5.7923
   XZ=    -7.2174   YZ=    11.0642   ZZ=    22.7107
   Eigenvalues:     2.2281    12.0043    27.6264
     92  Bq   Isotropic =    10.6776   Anisotropy =     6.7303
   XX=     9.4445   YX=     2.9330   ZX=    -0.9475
   XY=     2.3363   YY=    13.8038   ZY=     0.7998
   XZ=    -8.0827   YZ=     4.6472   ZZ=     8.7845
   Eigenvalues:     3.2299    13.6384    15.1645
     93  Bq   Isotropic =    13.3498   Anisotropy =    21.4183
   XX=     6.8572   YX=     1.6494   ZX=    -2.8705
   XY=     4.7837   YY=     9.6231   ZY=     6.5835
   XZ=    -5.4028   YZ=     9.7506   ZZ=    23.5693
   Eigenvalues:     1.5753    10.8455    27.6287
     94  Bq   Isotropic =    10.6644   Anisotropy =     5.0570
   XX=     9.6526   YX=     2.3974   ZX=    -1.3873
   XY=     1.9847   YY=    12.8058   ZY=     1.4136
   XZ=    -5.2984   YZ=     2.9537   ZZ=     9.5348
   Eigenvalues:     5.0212    12.9362    14.0357
     95  Bq   Isotropic =    13.4419   Anisotropy =    14.2529
   XX=    10.1499   YX=     2.3757   ZX=    -0.1984
   XY=     2.5802   YY=    15.6607   ZY=     1.5640
   XZ=   -12.9318   YZ=    12.7135   ZZ=    14.5151
   Eigenvalues:     2.2923    15.0896    22.9439
     96  Bq   Isotropic =    12.7289   Anisotropy =    15.5187
   XX=     9.4483   YX=     2.1068   ZX=    -1.1883
   XY=     2.6537   YY=    13.1598   ZY=     3.0007
   XZ=   -11.7958   YZ=    12.2019   ZZ=    15.5785
   Eigenvalues:     1.6526    13.4594    23.0746
     97  Bq   Isotropic =    11.5025   Anisotropy =    11.3574
   XX=    10.0846   YX=     2.5342   ZX=    -0.3053
   XY=     2.1075   YY=    13.7422   ZY=     1.2251
   XZ=   -12.3850   YZ=    10.6598   ZZ=    10.6808
   Eigenvalues:     1.2503    14.1831    19.0741
     98  Bq   Isotropic =    13.0204   Anisotropy =    17.4183
   XX=     8.7942   YX=     1.8943   ZX=    -1.7932
   XY=     3.0696   YY=    12.3337   ZY=     4.0628
   XZ=   -10.6101   YZ=    12.1452   ZZ=    17.9333
   Eigenvalues:     1.7009    12.7277    24.6326
     99  Bq   Isotropic =    10.8065   Anisotropy =     9.3325
   XX=    10.1831   YX=     2.5875   ZX=    -0.2185
   XY=     1.9561   YY=    13.4957   ZY=     0.7459
   XZ=   -11.5043   YZ=     9.1718   ZZ=     8.7407
   Eigenvalues:     1.2910    14.1003    17.0282
    100  Bq   Isotropic =    13.0374   Anisotropy =    19.0884
   XX=     7.9389   YX=     1.7340   ZX=    -2.3455
   XY=     3.5291   YY=    11.2450   ZY=     5.0794
   XZ=    -9.0933   YZ=    11.6441   ZZ=    19.9282
   Eigenvalues:     1.5321    11.8171    25.7630
    101  Bq   Isotropic =    10.2674   Anisotropy =     7.5351
   XX=    10.2738   YX=     2.4135   ZX=    -0.3666
   XY=     1.8021   YY=    12.9864   ZY=     0.6268
   XZ=    -9.8041   YZ=     7.4833   ZZ=     7.5422
   Eigenvalues:     1.8202    13.6913    15.2908
    102  Bq   Isotropic =    12.8009   Anisotropy =    20.4782
   XX=     6.9526   YX=     1.6222   ZX=    -2.7597
   XY=     3.9710   YY=     9.9998   ZY=     5.9606
   XZ=    -7.4412   YZ=    10.8504   ZZ=    21.4503
   Eigenvalues:     1.1652    10.7845    26.4530
    103  Bq   Isotropic =    10.0095   Anisotropy =     6.0559
   XX=    10.4246   YX=     1.9671   ZX=    -0.6253
   XY=     1.5609   YY=    12.3211   ZY=     0.8487
   XZ=    -7.4144   YZ=     5.8920   ZZ=     7.2827
   Eigenvalues:     3.0028    12.9789    14.0467
    104  Bq   Isotropic =    12.3618   Anisotropy =    21.5581
   XX=     5.9163   YX=     1.5372   ZX=    -2.9996
   XY=     4.3409   YY=     8.7022   ZY=     6.6531
   XZ=    -5.8161   YZ=     9.9181   ZZ=    22.4671
   Eigenvalues:     0.6671     9.6845    26.7339
    105  Bq   Isotropic =    10.0675   Anisotropy =     4.9046
   XX=    10.6092   YX=     1.2744   ZX=    -0.8199
   XY=     1.1711   YY=    11.5873   ZY=     1.3302
   XZ=    -4.5865   YZ=     4.6642   ZZ=     8.0061
   Eigenvalues:     4.8004    12.0649    13.3373
    106  Bq   Isotropic =    12.1921   Anisotropy =    13.4638
   XX=     9.8690   YX=     2.3426   ZX=    -0.6518
   XY=     2.3288   YY=    13.6404   ZY=     2.0121
   XZ=   -12.4463   YZ=    11.7096   ZZ=    13.0670
   Eigenvalues:     1.4494    13.9590    21.1680
    107  Bq   Isotropic =    11.8928   Anisotropy =    15.3502
   XX=     9.0213   YX=     1.6041   ZX=    -1.4111
   XY=     1.9999   YY=    11.6682   ZY=     3.4746
   XZ=   -11.2241   YZ=    11.1902   ZZ=    14.9888
   Eigenvalues:     1.5491    12.0029    22.1263
    108  Bq   Isotropic =    10.8918   Anisotropy =    11.4323
   XX=    10.1628   YX=     1.5673   ZX=    -0.4191
   XY=     1.1577   YY=    12.2770   ZY=     1.7907
   XZ=   -11.5255   YZ=     9.9755   ZZ=    10.2356
   Eigenvalues:     1.6029    12.5591    18.5134
    109  Bq   Isotropic =    12.1412   Anisotropy =    17.2995
   XX=     8.1948   YX=     1.5188   ZX=    -1.9936
   XY=     2.4916   YY=    10.9576   ZY=     4.4161
   XZ=   -10.2345   YZ=    11.2647   ZZ=    17.2711
   Eigenvalues:     1.3985    11.3508    23.6742
    110  Bq   Isotropic =    10.3312   Anisotropy =     9.7204
   XX=    10.5065   YX=     1.3259   ZX=    -0.1790
   XY=     0.8268   YY=    12.1745   ZY=     1.2459
   XZ=   -10.5620   YZ=     8.9486   ZZ=     8.3127
   Eigenvalues:     1.7771    12.4051    16.8115
    111  Bq   Isotropic =    12.1713   Anisotropy =    19.0695
   XX=     7.2444   YX=     1.4210   ZX=    -2.5035
   XY=     2.9807   YY=    10.0450   ZY=     5.2947
   XZ=    -8.9297   YZ=    11.0250   ZZ=    19.2244
   Eigenvalues:     1.1072    10.5224    24.8843
    112  Bq   Isotropic =     9.9042   Anisotropy =     8.2817
   XX=    10.7658   YX=     0.8744   ZX=    -0.1313
   XY=     0.5229   YY=    11.8710   ZY=     0.9885
   XZ=    -8.8136   YZ=     7.8343   ZZ=     7.0759
   Eigenvalues:     2.3069    11.9805    15.4254
    113  Bq   Isotropic =    11.9964   Anisotropy =    20.5644
   XX=     6.2347   YX=     1.3263   ZX=    -2.8756
   XY=     3.4216   YY=     9.0096   ZY=     6.0412
   XZ=    -7.4858   YZ=    10.5559   ZZ=    20.7448
   Eigenvalues:     0.7028     9.5804    25.7060
    114  Bq   Isotropic =     9.7180   Anisotropy =     7.1210
   XX=    10.9753   YX=     0.2181   ZX=    -0.1988
   XY=     0.1998   YY=    11.4432   ZY=     1.0275
   XZ=    -6.4020   YZ=     6.8163   ZZ=     6.7354
   Eigenvalues:     3.3267    11.3620    14.4653
    115  Bq   Isotropic =    11.6526   Anisotropy =    21.7280
   XX=     5.2303   YX=     1.2347   ZX=    -3.0846
   XY=     3.7775   YY=     7.9296   ZY=     6.6165
   XZ=    -6.0474   YZ=     9.9526   ZZ=    21.7978
   Eigenvalues:     0.2374     8.5824    26.1379
    116  Bq   Isotropic =     9.8105   Anisotropy =     6.2026
   XX=    11.1117   YX=    -0.5808   ZX=    -0.2571
   XY=    -0.1839   YY=    10.9515   ZY=     1.3244
   XZ=    -3.5717   YZ=     6.0451   ZZ=     7.3684
   Eigenvalues:     4.7357    10.7503    13.9456
    117  Bq   Isotropic =    11.4516   Anisotropy =    13.3485
   XX=     9.6795   YX=     1.6394   ZX=    -0.8524
   XY=     1.5473   YY=    12.1159   ZY=     2.5646
   XZ=   -11.7104   YZ=    10.7545   ZZ=    12.5593
   Eigenvalues:     1.5841    12.4200    20.3506
    118  Bq   Isotropic =    11.4883   Anisotropy =    15.5015
   XX=     8.6773   YX=     0.7779   ZX=    -1.3999
   XY=     1.1145   YY=    10.6629   ZY=     3.9303
   XZ=   -10.5407   YZ=    10.2282   ZZ=    15.1246
   Eigenvalues:     2.1427    10.4995    21.8226
    119  Bq   Isotropic =    10.6612   Anisotropy =    11.8686
   XX=    10.0214   YX=     0.2260   ZX=    -0.2639
   XY=    -0.0700   YY=    11.4218   ZY=     2.3857
   XZ=   -10.5436   YZ=     9.2070   ZZ=    10.5405
   Eigenvalues:     2.6614    10.7487    18.5736
    120  Bq   Isotropic =    11.6800   Anisotropy =    17.4479
   XX=     7.7688   YX=     0.8650   ZX=    -2.0055
   XY=     1.7225   YY=     9.9862   ZY=     4.7264
   XZ=    -9.7409   YZ=    10.4401   ZZ=    17.2850
   Eigenvalues:     1.7423     9.9857    23.3119
    121  Bq   Isotropic =    10.1824   Anisotropy =    10.5004
   XX=    10.4339   YX=    -0.3133   ZX=     0.0895
   XY=    -0.5834   YY=    11.4944   ZY=     1.7888
   XZ=    -9.4863   YZ=     8.5321   ZZ=     8.6189
   Eigenvalues:     2.9049    10.4595    17.1826
    122  Bq   Isotropic =    11.6868   Anisotropy =    19.2492
   XX=     6.7706   YX=     0.8819   ZX=    -2.5185
   XY=     2.2870   YY=     9.1658   ZY=     5.4473
   XZ=    -8.6354   YZ=    10.4377   ZZ=    19.1241
   Eigenvalues:     1.2575     9.2833    24.5197
    123  Bq   Isotropic =     9.8121   Anisotropy =     9.5058
   XX=    10.7112   YX=    -1.0336   ZX=     0.2472
   XY=    -1.0287   YY=    11.4069   ZY=     1.3944
   XZ=    -7.6832   YZ=     7.8907   ZZ=     7.3180
   Eigenvalues:     3.3109     9.9760    16.1493
    124  Bq   Isotropic =    11.5216   Anisotropy =    20.7793
   XX=     5.7497   YX=     0.8574   ZX=    -2.8858
   XY=     2.7720   YY=     8.2608   ZY=     6.0462
   XZ=    -7.3851   YZ=    10.2543   ZZ=    20.5541
   Eigenvalues:     0.7309     8.4594    25.3744
    125  Bq   Isotropic =     9.6547   Anisotropy =     8.7858
[...]
   132  Bq   0.000000
   133  Bq   0.000000
   134  Bq   0.000000
   135  Bq   0.000000
   136  Bq   0.000000
   137  Bq   0.000000
   138  Bq   0.000000
   139  Bq   0.000000
   140  Bq   0.000000
   141  Bq   0.000000
   142  Bq   0.000000
   143  Bq   0.000000
   144  Bq   0.000000
   145  Bq   0.000000
   146  Bq   0.000000
   147  Bq   0.000000
   148  Bq   0.000000
   149  Bq   0.000000
   150  Bq   0.000000
   151  Bq   0.000000
   152  Bq   0.000000
   153  Bq   0.000000
   154  Bq   0.000000
   155  Bq   0.000000
   156  Bq   0.000000
   157  Bq   0.000000
   158  Bq   0.000000
   159  Bq   0.000000
   160  Bq   0.000000
   161  Bq   0.000000
   162  Bq   0.000000
   163  Bq   0.000000
   164  Bq   0.000000
   165  Bq   0.000000
   166  Bq   0.000000
   167  Bq   0.000000
   168  Bq   0.000000
   169  Bq   0.000000
   170  Bq   0.000000
   171  Bq   0.000000
   172  Bq   0.000000
   173  Bq   0.000000
   174  Bq   0.000000
   175  Bq   0.000000
   176  Bq   0.000000
   177  Bq   0.000000
   178  Bq   0.000000
   179  Bq   0.000000
   180  Bq   0.000000
   181  Bq   0.000000
   182  Bq   0.000000
   183  Bq   0.000000
   184  Bq   0.000000
   185  Bq   0.000000
   186  Bq   0.000000
   187  Bq   0.000000
   188  Bq   0.000000
   189  Bq   0.000000
   190  Bq   0.000000
   191  Bq   0.000000
   192  Bq   0.000000
   193  Bq   0.000000
   194  Bq   0.000000
   195  Bq   0.000000
   196  Bq   0.000000
   197  Bq   0.000000
   198  Bq   0.000000
   199  Bq   0.000000
   200  Bq   0.000000
   201  Bq   0.000000
   202  Bq   0.000000
   203  Bq   0.000000
   204  Bq   0.000000
   205  Bq   0.000000
   206  Bq   0.000000
   207  Bq   0.000000
   208  Bq   0.000000
   209  Bq   0.000000
   210  Bq   0.000000
   211  Bq   0.000000
   212  Bq   0.000000
   213  Bq   0.000000
   214  Bq   0.000000
   215  Bq   0.000000
   216  Bq   0.000000
   217  Bq   0.000000
   218  Bq   0.000000
   219  Bq   0.000000
   220  Bq   0.000000
   221  Bq   0.000000
   222  Bq   0.000000
   223  Bq   0.000000
   224  Bq   0.000000
   225  Bq   0.000000
   226  Bq   0.000000
   227  Bq   0.000000
   228  Bq   0.000000
   229  Bq   0.000000
   230  Bq   0.000000
   231  Bq   0.000000
   232  Bq   0.000000
   233  Bq   0.000000
   234  Bq   0.000000
   235  Bq   0.000000
   236  Bq   0.000000
 Sum of Mulliken charges =   0.00000
 Mulliken charges with hydrogens summed into heavy atoms:
               1
     1  C   -0.255498
     3  C    0.169409
     5  C    0.448258
     6  C    0.064351
     7  C   -0.333926
     9  C   -0.139521
    11  C   -0.205988
    13  C   -0.119315
    15  C    0.653397
    16  C    0.034822
    17  C   -0.317410
    19  C   -0.316854
    21  C    0.651066
    22  C    0.037784
    23  C   -0.117289
    25  C   -0.205316
    27  C    0.448331
    28  C    0.061983
    29  C   -0.333381
    31  C   -0.139505
    33  C   -0.255977
    35  C    0.170579
    37  Bq   0.000000
    38  Bq   0.000000
    39  Bq   0.000000
    40  Bq   0.000000
    41  Bq   0.000000
    42  Bq   0.000000
    43  Bq   0.000000
    44  Bq   0.000000
    45  Bq   0.000000
    46  Bq   0.000000
    47  Bq   0.000000
    48  Bq   0.000000
    49  Bq   0.000000
    50  Bq   0.000000
    51  Bq   0.000000
    52  Bq   0.000000
    53  Bq   0.000000
    54  Bq   0.000000
    55  Bq   0.000000
    56  Bq   0.000000
    57  Bq   0.000000
    58  Bq   0.000000
    59  Bq   0.000000
    60  Bq   0.000000
    61  Bq   0.000000
    62  Bq   0.000000
    63  Bq   0.000000
    64  Bq   0.000000
    65  Bq   0.000000
    66  Bq   0.000000
    67  Bq   0.000000
    68  Bq   0.000000
    69  Bq   0.000000
    70  Bq   0.000000
    71  Bq   0.000000
    72  Bq   0.000000
    73  Bq   0.000000
    74  Bq   0.000000
    75  Bq   0.000000
    76  Bq   0.000000
    77  Bq   0.000000
    78  Bq   0.000000
    79  Bq   0.000000
    80  Bq   0.000000
    81  Bq   0.000000
    82  Bq   0.000000
    83  Bq   0.000000
    84  Bq   0.000000
    85  Bq   0.000000
    86  Bq   0.000000
    87  Bq   0.000000
    88  Bq   0.000000
    89  Bq   0.000000
    90  Bq   0.000000
    91  Bq   0.000000
    92  Bq   0.000000
    93  Bq   0.000000
    94  Bq   0.000000
    95  Bq   0.000000
    96  Bq   0.000000
    97  Bq   0.000000
    98  Bq   0.000000
    99  Bq   0.000000
   100  Bq   0.000000
   101  Bq   0.000000
   102  Bq   0.000000
   103  Bq   0.000000
   104  Bq   0.000000
   105  Bq   0.000000
   106  Bq   0.000000
   107  Bq   0.000000
   108  Bq   0.000000
   109  Bq   0.000000
   110  Bq   0.000000
   111  Bq   0.000000
   112  Bq   0.000000
   113  Bq   0.000000
   114  Bq   0.000000
   115  Bq   0.000000
   116  Bq   0.000000
   117  Bq   0.000000
   118  Bq   0.000000
   119  Bq   0.000000
   120  Bq   0.000000
   121  Bq   0.000000
   122  Bq   0.000000
   123  Bq   0.000000
   124  Bq   0.000000
   125  Bq   0.000000
   126  Bq   0.000000
   127  Bq   0.000000
   128  Bq   0.000000
   129  Bq   0.000000
   130  Bq   0.000000
   131  Bq   0.000000
   132  Bq   0.000000
   133  Bq   0.000000
   134  Bq   0.000000
   135  Bq   0.000000
   136  Bq   0.000000
   137  Bq   0.000000
   138  Bq   0.000000
   139  Bq   0.000000
   140  Bq   0.000000
   141  Bq   0.000000
   142  Bq   0.000000
   143  Bq   0.000000
   144  Bq   0.000000
   145  Bq   0.000000
   146  Bq   0.000000
   147  Bq   0.000000
   148  Bq   0.000000
   149  Bq   0.000000
   150  Bq   0.000000
   151  Bq   0.000000
   152  Bq   0.000000
   153  Bq   0.000000
   154  Bq   0.000000
   155  Bq   0.000000
   156  Bq   0.000000
   157  Bq   0.000000
   158  Bq   0.000000
   159  Bq   0.000000
   160  Bq   0.000000
   161  Bq   0.000000
   162  Bq   0.000000
   163  Bq   0.000000
   164  Bq   0.000000
   165  Bq   0.000000
   166  Bq   0.000000
   167  Bq   0.000000
   168  Bq   0.000000
   169  Bq   0.000000
   170  Bq   0.000000
   171  Bq   0.000000
   172  Bq   0.000000
   173  Bq   0.000000
   174  Bq   0.000000
   175  Bq   0.000000
   176  Bq   0.000000
   177  Bq   0.000000
   178  Bq   0.000000
   179  Bq   0.000000
   180  Bq   0.000000
   181  Bq   0.000000
   182  Bq   0.000000
   183  Bq   0.000000
   184  Bq   0.000000
   185  Bq   0.000000
   186  Bq   0.000000
   187  Bq   0.000000
   188  Bq   0.000000
   189  Bq   0.000000
   190  Bq   0.000000
   191  Bq   0.000000
   192  Bq   0.000000
   193  Bq   0.000000
   194  Bq   0.000000
   195  Bq   0.000000
   196  Bq   0.000000
   197  Bq   0.000000
   198  Bq   0.000000
   199  Bq   0.000000
   200  Bq   0.000000
   201  Bq   0.000000
   202  Bq   0.000000
   203  Bq   0.000000
   204  Bq   0.000000
   205  Bq   0.000000
   206  Bq   0.000000
   207  Bq   0.000000
   208  Bq   0.000000
   209  Bq   0.000000
   210  Bq   0.000000
   211  Bq   0.000000
   212  Bq   0.000000
   213  Bq   0.000000
   214  Bq   0.000000
   215  Bq   0.000000
   216  Bq   0.000000
   217  Bq   0.000000
   218  Bq   0.000000
   219  Bq   0.000000
   220  Bq   0.000000
   221  Bq   0.000000
   222  Bq   0.000000
   223  Bq   0.000000
   224  Bq   0.000000
   225  Bq   0.000000
   226  Bq   0.000000
   227  Bq   0.000000
   228  Bq   0.000000
   229  Bq   0.000000
   230  Bq   0.000000
   231  Bq   0.000000
   232  Bq   0.000000
   233  Bq   0.000000
   234  Bq   0.000000
   235  Bq   0.000000
   236  Bq   0.000000
 Electronic spatial extent (au):  <R**2>=           5736.9264
 Charge=              0.0000 electrons
 Dipole moment (field-independent basis, Debye):
    X=              0.0475    Y=              0.0856    Z=              0.0029  Tot=              0.0979
 Quadrupole moment (field-independent basis, Debye-Ang):
   XX=           -113.7056   YY=           -113.9456   ZZ=           -133.2669
   XY=             -0.3834   XZ=              3.2102   YZ=             -1.1839
 Traceless Quadrupole moment (field-independent basis, Debye-Ang):
   XX=              6.6005   YY=              6.3604   ZZ=            -12.9609
   XY=             -0.3834   XZ=              3.2102   YZ=             -1.1839
 Octapole moment (field-independent basis, Debye-Ang**2):
  XXX=            -16.4668  YYY=            -16.1860  ZZZ=             -1.7007  XYY=              2.5576
  XXY=             -6.5650  XXZ=             13.6547  XZZ=             -8.9478  YZZ=            -17.7168
  YYZ=            -13.2941  XYZ=              8.8036
 Hexadecapole moment (field-independent basis, Debye-Ang**3):
 XXXX=          -3951.1638 YYYY=          -3112.2161 ZZZZ=           -504.8311 XXXY=            340.6935
 XXXZ=            156.4968 YYYX=            335.5625 YYYZ=            -87.0893 ZZZX=            120.2262
 ZZZY=           -108.7373 XXYY=          -1176.4844 XXZZ=           -856.7291 YYZZ=           -665.7275
 XXYZ=            -68.9016 YYXZ=             48.1602 ZZXY=            153.0375
 N-N= 1.610917615562D+03 E-N=-5.186891130729D+03  KE= 8.436329774449D+02
 1\1\GINC-THARO\SP\RB3LYP\6-311+G(d,p)\C22H14\YANNICK\22-Aug-2020\0\\# 
 rb3lyp/6-311+g** NMR geom=connectivity\\Title\\0,1\C,0,-4.0500558,-0.5
 771862,0.8136712\H,0,-5.0263804,-1.0082727,1.002476\C,0,-3.9381552,0.6
 617804,0.2400876\H,0,-4.8252424,1.233889,-0.0111295\C,0,-2.676841,1.24
 33246,0.0057578\C,0,-1.4974121,0.5051527,0.2848253\C,0,-1.6508332,-0.7
 338728,0.9404026\H,0,-0.7713646,-1.2730967,1.2633753\C,0,-2.8898548,-1
 .2624035,1.1994307\H,0,-2.9683706,-2.2124563,1.7152676\C,0,-2.5773185,
 2.5963696,-0.419293\H,0,-3.4870728,3.1412239,-0.6474055\C,0,-1.3741895
 ,3.2147896,-0.436403\H,0,-1.2997315,4.2742019,-0.6578144\C,0,-0.171948
 8,2.499409,-0.1734588\C,0,-0.2043917,1.1018437,0.0192689\C,0,1.0513491
 ,3.204256,-0.0676222\H,0,1.0427344,4.2819499,-0.1896997\C,0,2.1942091,
 2.5487446,0.2579577\H,0,3.1168527,3.0912848,0.4334727\C,0,2.2216473,1.
 1336562,0.293499\C,0,1.0486931,0.3945528,0.0302412\C,0,3.4483363,0.461
 4633,0.5573939\H,0,4.3095794,1.0606054,0.8334846\C,0,3.5427346,-0.8855
 926,0.4749463\H,0,4.4731467,-1.3939704,0.7038822\C,0,2.4490052,-1.6474
 447,-0.0196319\C,0,1.2150704,-1.0057258,-0.3013573\C,0,0.2531113,-1.74
 3444,-1.0216591\H,0,-0.6541356,-1.2535051,-1.3462847\C,0,0.4494193,-3.
 0628597,-1.3413779\H,0,-0.3083162,-3.5944309,-1.905406\C,0,1.6251726,-
 3.7207967,-0.9552541\H,0,1.7670048,-4.7687404,-1.1927019\C,0,2.6109872
 ,-3.0144177,-0.318305\H,0,3.5525612,-3.4902813,-0.0646367\Bq,0,-0.9757
 958187,1.0196234787,-0.0921707589\Bq,0,-1.1060793961,1.0638448445,0.79
 72507724\Bq,0,-0.9613198656,1.0147099936,-0.1909953735\Bq,0,-1.0336996
 309,1.0392774191,0.3031276994\Bq,0,-1.04746345,1.1440701195,0.39709070
 93\Bq,0,-1.0185115439,1.1342431494,0.1994414801\Bq,0,-1.061939403,1.14
 89836046,0.4959153238\Bq,0,-1.0040355908,1.1293296643,0.1006168655\Bq,
 0,-1.076415356,1.1538970897,0.5947399384\Bq,0,-0.9895596378,1.12441617
 92,0.0017922509\Bq,0,-1.0908913091,1.1588105748,0.693564553\Bq,0,-0.97
 50836847,1.1195026941,-0.0970323637\Bq,0,-1.1053672621,1.1637240599,0.
 7923891676\Bq,0,-0.9606077317,1.114589209,-0.1958569782\Bq,0,-1.032987
 4969,1.1391566344,0.2982660947\Bq,0,-1.046751316,1.2439493349,0.392229
 1045\Bq,0,-1.0177994099,1.2341223647,0.1945798753\Bq,0,-1.0612272691,1
 .24886282,0.4910537191\Bq,0,-1.0033234569,1.2292088797,0.0957552607\Bq
 ,0,-1.0757032221,1.2537763051,0.5898783337\Bq,0,-0.9888475038,1.224295
 3946,-0.0030693538\Bq,0,-1.0901791751,1.2586897901,0.6887029482\Bq,0,-
 0.9743715508,1.2193819095,-0.1018939684\Bq,0,-1.1046551282,1.263603275
 2,0.7875275628\Bq,0,-0.9598955977,1.2144684244,-0.200718583\Bq,0,-1.03
 2275363,1.2390358498,0.2934044899\Bq,0,-1.0460391821,1.3438285503,0.38
 73674997\Bq,0,-1.017087276,1.3340015801,0.1897182706\Bq,0,-1.060515135
 1,1.3487420354,0.4861921143\Bq,0,-1.0026113229,1.329088095,0.090893656
 \Bq,0,-1.0749910882,1.3536555204,0.5850167289\Bq,0,-0.9881353699,1.324
 1746099,-0.0079309586\Bq,0,-1.0894670412,1.3585690055,0.6838413435\Bq,
 0,-0.9736594169,1.3192611249,-0.1067555732\Bq,0,-1.1039429942,1.363482
 4906,0.7826659581\Bq,0,-0.9591834638,1.3143476398,-0.2055801878\Bq,0,-
 1.031563229,1.3389150652,0.2885428851\Bq,0,-1.0453270481,1.4437077657,
 0.382505895\Bq,0,-1.016375142,1.4338807955,0.1848566658\Bq,0,-1.059803
 0012,1.4486212507,0.4813305095\Bq,0,-1.001899189,1.4289673104,0.086032
 0512\Bq,0,-1.0742789542,1.4535347358,0.5801551241\Bq,0,-0.987423236,1.
 4240538253,-0.0127925634\Bq,0,-1.0887549073,1.4584482209,0.6789797387\
 Bq,0,-0.9729472829,1.4191403402,-0.111617178\Bq,0,-1.1032308603,1.4633
 61706,0.7778043533\Bq,0,-0.9584713299,1.4142268552,-0.2104417925\Bq,0,
 -1.0308510951,1.4387942806,0.2836812804\Bq,0,-1.0446149142,1.543586981
 ,0.3776442902\Bq,0,-1.0156630081,1.5337600109,0.179995061\Bq,0,-1.0590
 908672,1.5485004661,0.4764689048\Bq,0,-1.0011870551,1.5288465258,0.081
 1704464\Bq,0,-1.0735668203,1.5534139512,0.5752935194\Bq,0,-0.986711102
 ,1.5239330407,-0.0176541681\Bq,0,-1.0880427733,1.5583274363,0.67411813
 39\Bq,0,-0.972235149,1.5190195556,-0.1164787827\Bq,0,-1.1025187264,1.5
 632409214,0.7729427485\Bq,0,-0.9577591959,1.5141060705,-0.2153033973\B
 q,0,-1.0301389611,1.5386734959,0.2788196756\Bq,0,-1.0439027802,1.64346
 61964,0.3727826854\Bq,0,-1.0149508742,1.6336392262,0.1751334563\Bq,0,-
 1.0583787333,1.6483796815,0.4716073\Bq,0,-1.0004749211,1.6287257412,0.
 0763088417\Bq,0,-1.0728546863,1.6532931666,0.5704319146\Bq,0,-0.985998
 9681,1.6238122561,-0.0225157729\Bq,0,-1.0873306394,1.6582066517,0.6692
 565292\Bq,0,-0.971523015,1.618898771,-0.1213403875\Bq,0,-1.1018065924,
 1.6631201367,0.7680811438\Bq,0,-0.957047062,1.6139852859,-0.2201650021
 \Bq,0,-1.0294268272,1.6385527113,0.2739580708\Bq,0,-1.0431906463,1.743
 3454118,0.3679210807\Bq,0,-1.0142387402,1.7335184416,0.1702718515\Bq,0
 ,-1.0576665993,1.7482588969,0.4667456952\Bq,0,-0.9997627872,1.72860495
 65,0.0714472369\Bq,0,-1.0721425524,1.7531723819,0.5655703098\Bq,0,-0.9
 852868341,1.7236914715,-0.0273773777\Bq,0,-1.0866185054,1.758085867,0.
 6643949244\Bq,0,-0.9708108811,1.7187779864,-0.1262019923\Bq,0,-1.10109
 44585,1.7629993521,0.763219539\Bq,0,-0.956334928,1.7138645013,-0.22502
 66068\Bq,0,-1.0287146933,1.7384319267,0.2690964661\Bq,0,-1.0424785124,
 1.8432246272,0.3630594759\Bq,0,-1.0135266063,1.833397657,0.1654102467\
 Bq,0,-1.0569544654,1.8481381122,0.4618840905\Bq,0,-0.9990506532,1.8284
 841719,0.0665856321\Bq,0,-1.0714304185,1.8530515973,0.5607087051\Bq,0,
 -0.9845747002,1.8235706868,-0.0322389824\Bq,0,-1.0859063715,1.85796508
 24,0.6595333196\Bq,0,-0.9700987471,1.8186572017,-0.131063597\Bq,0,-1.1
 003823245,1.8628785675,0.7583579342\Bq,0,-0.9556227941,1.8137437167,-0
 .2298882116\Bq,0,-1.0280025593,1.8383111421,0.2642348613\Bq,0,-1.04176
 63784,1.9431038425,0.3581978711\Bq,0,-1.0128144723,1.9332768724,0.1605
 48642\Bq,0,-1.0562423315,1.9480173276,0.4570224857\Bq,0,-0.9983385193,
 1.9283633873,0.0617240274\Bq,0,-1.0707182845,1.9529308127,0.5558471003
 \Bq,0,-0.9838625662,1.9234499022,-0.0371005872\Bq,0,-1.0851942376,1.95
 78442978,0.6546717149\Bq,0,-0.9693866132,1.9185364171,-0.1359252018\Bq
 ,0,-1.0996701906,1.9627577829,0.7534963295\Bq,0,-0.9549106602,1.913622
 932,-0.2347498164\Bq,0,-1.0272904254,1.9381903575,0.2593732565\Bq,0,-1
 .0410542445,2.0429830579,0.3533362664\Bq,0,-1.0121023384,2.0331560878,
 0.1556870372\Bq,0,-1.0555301975,2.047896543,0.4521608809\Bq,0,-0.99762
 63853,2.0282426027,0.0568624226\Bq,0,-1.0700061506,2.0528100281,0.5509
 854955\Bq,0,-0.9831504323,2.0233291176,-0.041962192\Bq,0,-1.0844821036
 ,2.0577235132,0.6498101101\Bq,0,-0.9686744793,2.0184156325,-0.14078680
 66\Bq,0,-1.0989580567,2.0626369982,0.7486347247\Bq,0,-0.9541985262,2.0
 135021474,-0.2396114211\Bq,0,-1.0265782914,2.0380695728,0.2545116518\B
 q,0,-1.0403421105,2.1428622733,0.3484746616\Bq,0,-1.0113902044,2.13303
 53031,0.1508254324\Bq,0,-1.0548180636,2.1477757584,0.4472992762\Bq,0,-
 0.9969142514,2.128121818,0.0520008178\Bq,0,-1.0692940166,2.1526892435,
 0.5461238908\Bq,0,-0.9824382984,2.123208333,-0.0468237967\Bq,0,-1.0837
 699697,2.1576027285,0.6449485053\Bq,0,-0.9679623453,2.1182948479,-0.14
 56484113\Bq,0,-1.0982459227,2.1625162136,0.7437731199\Bq,0,-0.95348639
 23,2.1133813628,-0.2444730259\Bq,0,-1.0258661575,2.1379487882,0.249650
 047\Bq,0,-1.0396299766,2.2427414887,0.3436130568\Bq,0,-1.0106780705,2.
 2329145185,0.1459638277\Bq,0,-1.0541059296,2.2476549738,0.4424376714\B
 q,0,-0.9962021175,2.2280010334,0.0471392131\Bq,0,-1.0685818827,2.25256
 84588,0.541262286\Bq,0,-0.9817261644,2.2230875483,-0.0516854015\Bq,0,-
 1.0830578357,2.2574819439,0.6400869006\Bq,0,-0.9672502114,2.2181740633
 ,-0.1505100161\Bq,0,-1.0975337888,2.262395429,0.7389115152\Bq,0,-0.952
 7742583,2.2132605782,-0.2493346307\Bq,0,-1.0251540236,2.2378280036,0.2
 447884422\Bq,0,-1.0389178427,2.342620704,0.3387514521\Bq,0,-1.00996593
 66,2.3327937339,0.1411022229\Bq,0,-1.0533937957,2.3475341891,0.4375760
 666\Bq,0,-0.9954899835,2.3278802488,0.0422776083\Bq,0,-1.0678697487,2.
 3524476742,0.5364006812\Bq,0,-0.9810140305,2.3229667637,-0.0565470063\
 Bq,0,-1.0823457018,2.3573611593,0.6352252958\Bq,0,-0.9665380774,2.3180
 532786,-0.1553716209\Bq,0,-1.0968216548,2.3622746444,0.7340499104\Bq,0
 ,-0.9520621244,2.3131397936,-0.2541962354\Bq,0,-1.0244418896,2.3377072
 19,0.2399268375\Bq,0,-1.0382057087,2.4424999194,0.3338898473\Bq,0,-1.0
 092538026,2.4326729493,0.1362406181\Bq,0,-1.0526816618,2.4474134045,0.
 4327144619\Bq,0,-0.9947778496,2.4277594642,0.0374160035\Bq,0,-1.067157
 6148,2.4523268896,0.5315390765\Bq,0,-0.9803018965,2.4228459791,-0.0614
 08611\Bq,0,-1.0816335678,2.4572403747,0.6303636911\Bq,0,-0.9658259435,
 2.417932494,-0.1602332256\Bq,0,-1.0961095209,2.4621538598,0.7291883056
 \Bq,0,-0.9513499904,2.4130190089,-0.2590578402\Bq,0,-1.0237297557,2.43
 75864343,0.2350652327\Bq,0,-1.0374935748,2.5423791348,0.3290282425\Bq,
 0,-1.0085416687,2.5325521646,0.1313790134\Bq,0,-1.0519695278,2.5472926
 199,0.4278528571\Bq,0,-0.9940657156,2.5276386796,0.0325543988\Bq,0,-1.
 0664454809,2.552206105,0.5266774717\Bq,0,-0.9795897626,2.5227251945,-0
 .0662702158\Bq,0,-1.0809214339,2.55711959,0.6255020863\Bq,0,-0.9651138
 096,2.5178117094,-0.1650948304\Bq,0,-1.0953973869,2.5620330751,0.72432
 67009\Bq,0,-0.9506378565,2.5128982243,-0.263919445\Bq,0,-1.0230176217,
 2.5374656497,0.2302036279\Bq,0,-1.0367814408,2.6422583502,0.3241666378
 \Bq,0,-1.0078295347,2.63243138,0.1265174086\Bq,0,-1.0512573939,2.64717
 18353,0.4229912523\Bq,0,-0.9933535817,2.6275178949,0.027692794\Bq,0,-1
 .0657333469,2.6520853203,0.5218158669\Bq,0,-0.9788776287,2.6226044098,
 -0.0711318206\Bq,0,-1.0802093,2.6569988054,0.6206404815\Bq,0,-0.964401
 6756,2.6176909248,-0.1699564352\Bq,0,-1.094685253,2.6619122905,0.71946
 50961\Bq,0,-0.9499257226,2.6127774397,-0.2687810497\Bq,0,-1.0223054878
 ,2.6373448651,0.2253420232\Bq,0,-1.0360693069,2.7421375656,0.319305033
 \Bq,0,-1.0071174008,2.7323105954,0.1216558038\Bq,0,-1.0505452599,2.747
 0510506,0.4181296476\Bq,0,-0.9926414478,2.7273971103,0.0228311892\Bq,0
 ,-1.065021213,2.7519645357,0.5169542622\Bq,0,-0.9781654947,2.722483625
 2,-0.0759934253\Bq,0,-1.079497166,2.7568780208,0.6157788768\Bq,0,-0.96
 36895417,2.7175701401,-0.1748180399\Bq,0,-1.0939731191,2.7617915059,0.
 7146034913\Bq,0,-0.9492135886,2.7126566551,-0.2736426545\Bq,0,-1.02159
 33538,2.7372240805,0.2204804184\Bq,0,-1.0353571729,2.8420167809,0.3144
 434282\Bq,0,-1.0064052669,2.8321898108,0.1167941991\Bq,0,-1.049833126,
 2.846930266,0.4132680428\Bq,0,-0.9919293138,2.8272763257,0.0179695845\
 Bq,0,-1.064309079,2.8518437511,0.5120926574\Bq,0,-0.9774533608,2.82236
 28406,-0.0808550301\Bq,0,-1.0787850321,2.8567572362,0.610917272\Bq,0,-
 0.9629774077,2.8174493555,-0.1796796447\Bq,0,-1.0932609851,2.861670721
 3,0.7097418866\\Version=ES64L-G09RevD.01\HF=-847.0032898\RMSD=7.595e-0
 9\Dipole=0.0186808,0.0336671,0.0011595\Quadrupole=4.9072795,4.7288219,
 -9.6361014,-0.2850201,2.3867064,-0.880172\PG=C01 [X(C22H14)]\\@


 OLD AGE AND TREACHERY WILL ALWAYS PREVAIL OVER YOUTH AND SKILL.
 Job cpu time:       0 days  2 hours 43 minutes 43.1 seconds.
 File lengths (MBytes):  RWF=    184 Int=      0 D2E=      0 Chk=     19 Scr=      1
 Normal termination of Gaussian 09 at Sat Aug 22 04:49:27 2020.
