 Entering Gaussian System, Link 0=g09
 Input=input_cycle_01_batch_15600.com
 Output=input_cycle_01_batch_15600.log
 Initial command:
 /share/programs/GAUSSIAN/64/g09/l1.exe "/scratch/yannick.29949/Gau-2150830.inp" -scrdir="/scratch/yannick.29949/"
 Entering Link 1 = /share/programs/GAUSSIAN/64/g09/l1.exe PID=   2150831.
  
 Copyright (c) 1988,1990,1992,1993,1995,1998,2003,2009,2013,
            Gaussian, Inc.  All Rights Reserved.
  
 This is part of the Gaussian(R) 09 program.  It is based on
 the Gaussian(R) 03 system (copyright 2003, Gaussian, Inc.),
 the Gaussian(R) 98 system (copyright 1998, Gaussian, Inc.),
 the Gaussian(R) 94 system (copyright 1995, Gaussian, Inc.),
 the Gaussian 92(TM) system (copyright 1992, Gaussian, Inc.),
 the Gaussian 90(TM) system (copyright 1990, Gaussian, Inc.),
 the Gaussian 88(TM) system (copyright 1988, Gaussian, Inc.),
 the Gaussian 86(TM) system (copyright 1986, Carnegie Mellon
 University), and the Gaussian 82(TM) system (copyright 1983,
 Carnegie Mellon University). Gaussian is a federally registered
 trademark of Gaussian, Inc.
  
 This software contains proprietary and confidential information,
 including trade secrets, belonging to Gaussian, Inc.
  
 This software is provided under written license and may be
 used, copied, transmitted, or stored only in accord with that
 written license.
  
 The following legend is applicable only to US Government
 contracts under FAR:
  
                    RESTRICTED RIGHTS LEGEND
  
 Use, reproduction and disclosure by the US Government is
 subject to restrictions as set forth in subparagraphs (a)
 and (c) of the Commercial Computer Software - Restricted
 Rights clause in FAR 52.227-19.
  
 Gaussian, Inc.
 340 Quinnipiac St., Bldg. 40, Wallingford CT 06492
  
  
 ---------------------------------------------------------------
 Warning -- This program may not be used in any manner that
 competes with the business of Gaussian, Inc. or will provide
 assistance to any competitor of Gaussian, Inc.  The licensee
 of this program is prohibited from giving any competitor of
 Gaussian, Inc. access to this program.  By using this program,
 the user acknowledges that Gaussian, Inc. is engaged in the
 business of creating and licensing software in the field of
 computational chemistry and represents and warrants to the
 licensee that it is not a competitor of Gaussian, Inc. and that
 it will not use this program in any manner prohibited above.
 ---------------------------------------------------------------
  

 Cite this work as:
 Gaussian 09, Revision D.01,
 M. J. Frisch, G. W. Trucks, H. B. Schlegel, G. E. Scuseria, 
 M. A. Robb, J. R. Cheeseman, G. Scalmani, V. Barone, B. Mennucci, 
 G. A. Petersson, H. Nakatsuji, M. Caricato, X. Li, H. P. Hratchian, 
 A. F. Izmaylov, J. Bloino, G. Zheng, J. L. Sonnenberg, M. Hada, 
 M. Ehara, K. Toyota, R. Fukuda, J. Hasegawa, M. Ishida, T. Nakajima, 
 Y. Honda, O. Kitao, H. Nakai, T. Vreven, J. A. Montgomery, Jr., 
 J. E. Peralta, F. Ogliaro, M. Bearpark, J. J. Heyd, E. Brothers, 
 K. N. Kudin, V. N. Staroverov, T. Keith, R. Kobayashi, J. Normand, 
 K. Raghavachari, A. Rendell, J. C. Burant, S. S. Iyengar, J. Tomasi, 
 M. Cossi, N. Rega, J. M. Millam, M. Klene, J. E. Knox, J. B. Cross, 
 V. Bakken, C. Adamo, J. Jaramillo, R. Gomperts, R. E. Stratmann, 
 O. Yazyev, A. J. Austin, R. Cammi, C. Pomelli, J. W. Ochterski, 
 R. L. Martin, K. Morokuma, V. G. Zakrzewski, G. A. Voth, 
 P. Salvador, J. J. Dannenberg, S. Dapprich, A. D. Daniels, 
 O. Farkas, J. B. Foresman, J. V. Ortiz, J. Cioslowski, 
 and D. J. Fox, Gaussian, Inc., Wallingford CT, 2013.
 
 ******************************************
 Gaussian 09:  ES64L-G09RevD.01 24-Apr-2013
                21-Aug-2020 
 ******************************************
 %nproc=8
 Will use up to    8 processors via shared memory.
 %mem=1000MB
 ----------------------------------------
 # rb3lyp/6-311+g** NMR geom=connectivity
 ----------------------------------------
 1/38=1,57=2/1;
 2/12=2,17=6,18=5,40=1/2;
 3/5=4,6=6,7=111,11=2,16=1,25=1,30=1,74=-5,116=1/1,2,8,3;
 4//1;
 5/5=2,38=5/2;
 8/6=1,10=90,11=11/1;
 10/13=100,45=16/2;
 6/7=2,8=2,9=2,10=2,28=1/1;
 99/9=1/99;
 -----
 Title
 -----
 Symbolic Z-matrix:
 Charge =  0 Multiplicity = 1
 C                    -4.05006  -0.57719   0.81367 
 H                    -5.02638  -1.00827   1.00248 
 C                    -3.93816   0.66178   0.24009 
 H                    -4.82524   1.23389  -0.01113 
 C                    -2.67684   1.24332   0.00576 
 C                    -1.49741   0.50515   0.28483 
 C                    -1.65083  -0.73387   0.9404 
 H                    -0.77136  -1.2731    1.26338 
 C                    -2.88985  -1.2624    1.19943 
 H                    -2.96837  -2.21246   1.71527 
 C                    -2.57732   2.59637  -0.41929 
 H                    -3.48707   3.14122  -0.64741 
 C                    -1.37419   3.21479  -0.4364 
 H                    -1.29973   4.2742   -0.65781 
 C                    -0.17195   2.49941  -0.17346 
 C                    -0.20439   1.10184   0.01927 
 C                     1.05135   3.20426  -0.06762 
 H                     1.04273   4.28195  -0.1897 
 C                     2.19421   2.54874   0.25796 
 H                     3.11685   3.09128   0.43347 
 C                     2.22165   1.13366   0.2935 
 C                     1.04869   0.39455   0.03024 
 C                     3.44834   0.46146   0.55739 
 H                     4.30958   1.06061   0.83348 
 C                     3.54273  -0.88559   0.47495 
 H                     4.47315  -1.39397   0.70388 
 C                     2.44901  -1.64744  -0.01963 
 C                     1.21507  -1.00573  -0.30136 
 C                     0.25311  -1.74344  -1.02166 
 H                    -0.65414  -1.25351  -1.34628 
 C                     0.44942  -3.06286  -1.34138 
 H                    -0.30832  -3.59443  -1.90541 
 C                     1.62517  -3.7208   -0.95525 
 H                     1.767    -4.76874  -1.1927 
 C                     2.61099  -3.01442  -0.31831 
 H                     3.55256  -3.49028  -0.06464 
 Bq                    1.28034  -0.92996   0.1619 
 Bq                    1.16076  -1.0098    0.42519 
 Bq                    1.3202   -0.90334   0.07414 
 Bq                    1.12089  -1.03642   0.51296 
 Bq                    1.36006  -0.87673  -0.01363 
 Bq                    1.08103  -1.06303   0.60072 
 Bq                    1.39993  -0.85011  -0.10139 
 Bq                    1.04117  -1.08965   0.68849 
 Bq                    1.43979  -0.82349  -0.18916 
 Bq                    1.24048  -0.95657   0.24966 
 Bq                    1.18961  -0.88679   0.36166 
 Bq                    1.26933  -0.83356   0.18613 
 Bq                    1.14975  -0.91341   0.44943 
 Bq                    1.3092   -0.80695   0.09837 
 Bq                    1.10989  -0.94003   0.53719 
 Bq                    1.34906  -0.78033   0.0106 
 Bq                    1.07003  -0.96664   0.62496 
 Bq                    1.38892  -0.75372  -0.07716 
 Bq                    1.03016  -0.99326   0.71272 
 Bq                    1.42878  -0.7271   -0.16493 
 Bq                    1.22947  -0.86018   0.2739 
 Bq                    1.1786   -0.7904    0.3859 
 Bq                    1.25833  -0.73717   0.21037 
 Bq                    1.13874  -0.81702   0.47366 
 Bq                    1.29819  -0.71055   0.1226 
 Bq                    1.09888  -0.84363   0.56143 
 Bq                    1.33805  -0.68394   0.03484 
 Bq                    1.05902  -0.87025   0.64919 
 Bq                    1.37791  -0.65732  -0.05293 
 Bq                    1.01916  -0.89686   0.73695 
 Bq                    1.41778  -0.63071  -0.14069 
 Bq                    1.21847  -0.76379   0.29813 
 Bq                    1.1676   -0.69401   0.41013 
 Bq                    1.24732  -0.64078   0.2346 
 Bq                    1.12774  -0.72062   0.49789 
 Bq                    1.28718  -0.61416   0.14684 
 Bq                    1.08787  -0.74724   0.58566 
 Bq                    1.32705  -0.58755   0.05907 
 Bq                    1.04801  -0.77386   0.67342 
 Bq                    1.36691  -0.56093  -0.02869 
 Bq                    1.00815  -0.80047   0.76119 
 Bq                    1.40677  -0.53431  -0.11646 
 Bq                    1.20746  -0.66739   0.32236 
 Bq                    1.15659  -0.59762   0.43436 
 Bq                    1.23632  -0.54438   0.25883 
 Bq                    1.11673  -0.62423   0.52213 
 Bq                    1.27618  -0.51777   0.17107 
 Bq                    1.07687  -0.65085   0.60989 
 Bq                    1.31604  -0.49115   0.0833 
 Bq                    1.03701  -0.67746   0.69766 
 Bq                    1.3559   -0.46454  -0.00446 
 Bq                    0.99714  -0.70408   0.78542 
 Bq                    1.39576  -0.43792  -0.09223 
 Bq                    1.19645  -0.571     0.3466 
 Bq                    1.14559  -0.50122   0.4586 
 Bq                    1.22531  -0.44799   0.28307 
 Bq                    1.10572  -0.52784   0.54636 
 Bq                    1.26517  -0.42138   0.1953 
 Bq                    1.06586  -0.55445   0.63413 
 Bq                    1.30503  -0.39476   0.10754 
 Bq                    1.026    -0.58107   0.72189 
 Bq                    1.34489  -0.36814   0.01977 
 Bq                    0.98614  -0.60769   0.80965 
 Bq                    1.38476  -0.34153  -0.06799 
 Bq                    1.18545  -0.47461   0.37083 
 Bq                    1.13458  -0.40483   0.48283 
 Bq                    1.2143   -0.3516    0.3073 
 Bq                    1.09472  -0.43145   0.57059 
 Bq                    1.25416  -0.32498   0.21953 
 Bq                    1.05486  -0.45806   0.65836 
 Bq                    1.29403  -0.29837   0.13177 
 Bq                    1.01499  -0.48468   0.74612 
 Bq                    1.33389  -0.27175   0.04401 
 Bq                    0.97513  -0.51129   0.83389 
 Bq                    1.37375  -0.24514  -0.04376 
 Bq                    1.17444  -0.37821   0.39506 
 Bq                    1.12357  -0.30844   0.50706 
 Bq                    1.2033   -0.25521   0.33153 
 Bq                    1.08371  -0.33505   0.59483 
 Bq                    1.24316  -0.22859   0.24377 
 Bq                    1.04385  -0.36167   0.68259 
 Bq                    1.28302  -0.20197   0.156 
 Bq                    1.00399  -0.38828   0.77036 
 Bq                    1.32288  -0.17536   0.06824 
 Bq                    0.96413  -0.4149    0.85812 
 Bq                    1.36274  -0.14874  -0.01953 
 Bq                    1.16343  -0.28182   0.4193 
 Bq                    1.11257  -0.21204   0.5313 
 Bq                    1.19229  -0.15881   0.35577 
 Bq                    1.0727   -0.23866   0.61906 
 Bq                    1.23215  -0.1322    0.268 
 Bq                    1.03284  -0.26528   0.70683 
 Bq                    1.27201  -0.10558   0.18024 
 Bq                    0.99298  -0.29189   0.79459 
 Bq                    1.31187  -0.07897   0.09247 
 Bq                    0.95312  -0.31851   0.88235 
 Bq                    1.35174  -0.05235   0.00471 
 Bq                    1.15243  -0.18543   0.44353 
 Bq                    1.10156  -0.11565   0.55553 
 Bq                    1.18128  -0.06242   0.38 
 Bq                    1.0617   -0.14227   0.64329 
 Bq                    1.22114  -0.0358    0.29223 
 Bq                    1.02184  -0.16888   0.73106 
 Bq                    1.26101  -0.00919   0.20447 
 Bq                    0.98197  -0.1955    0.81882 
 Bq                    1.30087   0.01743   0.11671 
 Bq                    0.94211  -0.22211   0.90659 
 Bq                    1.34073   0.04404   0.02894 
 Bq                    1.14142  -0.08904   0.46776 
 Bq                    1.74293  -4.9353   -0.61478 
 Bq                    1.82266  -4.88207  -0.79031 
 Bq                    1.70307  -4.96192  -0.52702 
 Bq                    1.86252  -4.85545  -0.87807 
 Bq                    1.66321  -4.98853  -0.43925 
 Bq                    1.90238  -4.82884  -0.96584 
 Bq                    1.62335  -5.01515  -0.35149 
 Bq                    1.94224  -4.80222  -1.0536 
 Bq                    1.58349  -5.04176  -0.26372 
 Bq                    1.9821   -4.77561  -1.14137 
 Bq                    1.78279  -4.90868  -0.70255 
 Bq                    1.73193  -4.83891  -0.59055 
 Bq                    1.81165  -4.78568  -0.76608 
 Bq                    1.69206  -4.86552  -0.50278 
 Bq                    1.85151  -4.75906  -0.85384 
 Bq                    1.6522   -4.89214  -0.41502 
 Bq                    1.89137  -4.73244  -0.94161 
 Bq                    1.61234  -4.91875  -0.32725 
 Bq                    1.93123  -4.70583  -1.02937 
 Bq                    1.57248  -4.94537  -0.23949 
 Bq                    1.9711   -4.67921  -1.11714 
 Bq                    1.77179  -4.81229  -0.67831 
 Bq                    1.72092  -4.74251  -0.56631 
 Bq                    1.80064  -4.68928  -0.74184 
 Bq                    1.68106  -4.76913  -0.47855 
 Bq                    1.8405   -4.66267  -0.82961 
 Bq                    1.6412   -4.79575  -0.39078 
 Bq                    1.88037  -4.63605  -0.91737 
 Bq                    1.60133  -4.82236  -0.30302 
 Bq                    1.92023  -4.60944  -1.00514 
 Bq                    1.56147  -4.84898  -0.21525 
 Bq                    1.96009  -4.58282  -1.0929 
 Bq                    1.76078  -4.7159   -0.65408 
 Bq                    1.70991  -4.64612  -0.54208 
 Bq                    1.78964  -4.59289  -0.71761 
 Bq                    1.67005  -4.67274  -0.45432 
 Bq                    1.8295   -4.56627  -0.80537 
 Bq                    1.63019  -4.69935  -0.36655 
 Bq                    1.86936  -4.53966  -0.89314 
 Bq                    1.59033  -4.72597  -0.27879 
 Bq                    1.90922  -4.51304  -0.9809 
 Bq                    1.55047  -4.75258  -0.19102 
 Bq                    1.94908  -4.48643  -1.06867 
 Bq                    1.74977  -4.61951  -0.62985 
 Bq                    1.69891  -4.54973  -0.51785 
 Bq                    1.77863  -4.4965   -0.69338 
 Bq                    1.65904  -4.57634  -0.43008 
 Bq                    1.81849  -4.46988  -0.78114 
 Bq                    1.61918  -4.60296  -0.34232 
 Bq                    1.85835  -4.44327  -0.86891 
 Bq                    1.57932  -4.62957  -0.25455 
 Bq                    1.89822  -4.41665  -0.95667 
 Bq                    1.53946  -4.65619  -0.16679 
 Bq                    1.93808  -4.39003  -1.04444 
 Bq                    1.73877  -4.52311  -0.60561 
 Bq                    1.6879   -4.45333  -0.49361 
 Bq                    1.76762  -4.4001   -0.66914 
 Bq                    1.64804  -4.47995  -0.40585 
 Bq                    1.80749  -4.37349  -0.75691 
 Bq                    1.60818  -4.50657  -0.31808 
 Bq                    1.84735  -4.34687  -0.84467 
 Bq                    1.56831  -4.53318  -0.23032 
 Bq                    1.88721  -4.32026  -0.93244 
 Bq                    1.52845  -4.5598   -0.14256 
 Bq                    1.92707  -4.29364  -1.0202 
 Bq                    1.72776  -4.42672  -0.58138 
 Bq                    1.67689  -4.35694  -0.46938 
 Bq                    1.75662  -4.30371  -0.64491 
 Bq                    1.63703  -4.38356  -0.38162 
 Bq                    1.79648  -4.2771   -0.73267 
 Bq                    1.59717  -4.41017  -0.29385 
 Bq                    1.83634  -4.25048  -0.82044 
 Bq                    1.55731  -4.43679  -0.20609 
 Bq                    1.8762   -4.22386  -0.9082 
 Bq                    1.51745  -4.4634   -0.11832 
 Bq                    1.91606  -4.19725  -0.99597 
 Bq                    1.71676  -4.33033  -0.55715 
 Bq                    1.66589  -4.26055  -0.44515 
 Bq                    1.74561  -4.20732  -0.62068 
 Bq                    1.62603  -4.28716  -0.35738 
 Bq                    1.78547  -4.1807   -0.70844 
 Bq                    1.58616  -4.31378  -0.26962 
 Bq                    1.82533  -4.15409  -0.79621 
 Bq                    1.5463   -4.3404   -0.18185 
 Bq                    1.8652   -4.12747  -0.88397 
 Bq                    1.50644  -4.36701  -0.09409 
 Bq                    1.90506  -4.10086  -0.97174 
 Bq                    1.70575  -4.23393  -0.53291 
 Bq                    1.65488  -4.16416  -0.42091 
 Bq                    1.7346   -4.11092  -0.59644 
 Bq                    1.61502  -4.19077  -0.33315 
 
 Symmetry turned off:
 Cannot cope with ghost atoms or with translation vectors.
 Stoichiometry    C22H14
 Framework group  C1[X(C22H14)]
 NUMDOF-- NAT=    36 NAtoms=   236
 Deg. of freedom     0
 Full point group                 C1      NOp   1
                          Input orientation:                          
 ---------------------------------------------------------------------
 Center     Atomic      Atomic             Coordinates (Angstroms)
 Number     Number       Type             X           Y           Z
 ---------------------------------------------------------------------
      1          6           0       -4.050056   -0.577186    0.813671
      2          1           0       -5.026380   -1.008273    1.002476
      3          6           0       -3.938155    0.661780    0.240088
      4          1           0       -4.825242    1.233889   -0.011130
      5          6           0       -2.676841    1.243325    0.005758
      6          6           0       -1.497412    0.505153    0.284825
      7          6           0       -1.650833   -0.733873    0.940403
      8          1           0       -0.771365   -1.273097    1.263375
      9          6           0       -2.889855   -1.262404    1.199431
     10          1           0       -2.968371   -2.212456    1.715268
     11          6           0       -2.577319    2.596370   -0.419293
     12          1           0       -3.487073    3.141224   -0.647406
     13          6           0       -1.374190    3.214790   -0.436403
     14          1           0       -1.299732    4.274202   -0.657814
     15          6           0       -0.171949    2.499409   -0.173459
     16          6           0       -0.204392    1.101844    0.019269
     17          6           0        1.051349    3.204256   -0.067622
     18          1           0        1.042734    4.281950   -0.189700
     19          6           0        2.194209    2.548745    0.257958
     20          1           0        3.116853    3.091285    0.433473
     21          6           0        2.221647    1.133656    0.293499
     22          6           0        1.048693    0.394553    0.030241
     23          6           0        3.448336    0.461463    0.557394
     24          1           0        4.309579    1.060605    0.833485
     25          6           0        3.542735   -0.885593    0.474946
     26          1           0        4.473147   -1.393970    0.703882
     27          6           0        2.449005   -1.647445   -0.019632
     28          6           0        1.215070   -1.005726   -0.301357
     29          6           0        0.253111   -1.743444   -1.021659
     30          1           0       -0.654136   -1.253505   -1.346285
     31          6           0        0.449419   -3.062860   -1.341378
     32          1           0       -0.308316   -3.594431   -1.905406
     33          6           0        1.625173   -3.720797   -0.955254
     34          1           0        1.767005   -4.768740   -1.192702
     35          6           0        2.610987   -3.014418   -0.318305
     36          1           0        3.552561   -3.490281   -0.064637
     37          0           0        1.280341   -0.929956    0.161900
     38          0           0        1.160756   -1.009803    0.425194
     39          0           0        1.320203   -0.903341    0.074135
     40          0           0        1.120894   -1.036419    0.512959
     41          0           0        1.360065   -0.876725   -0.013629
     42          0           0        1.081033   -1.063035    0.600724
     43          0           0        1.399927   -0.850109   -0.101394
     44          0           0        1.041171   -1.089650    0.688488
     45          0           0        1.439789   -0.823494   -0.189159
     46          0           0        1.240480   -0.956572    0.249665
     47          0           0        1.189611   -0.886795    0.361663
     48          0           0        1.269335   -0.833563    0.186133
     49          0           0        1.149750   -0.913410    0.449428
     50          0           0        1.309197   -0.806948    0.098369
     51          0           0        1.109888   -0.940026    0.537192
     52          0           0        1.349059   -0.780332    0.010604
     53          0           0        1.070026   -0.966642    0.624957
     54          0           0        1.388920   -0.753716   -0.077161
     55          0           0        1.030164   -0.993257    0.712722
     56          0           0        1.428782   -0.727101   -0.164926
     57          0           0        1.229473   -0.860179    0.273898
     58          0           0        1.178605   -0.790402    0.385896
     59          0           0        1.258329   -0.737170    0.210367
     60          0           0        1.138743   -0.817017    0.473661
     61          0           0        1.298190   -0.710555    0.122602
     62          0           0        1.098881   -0.843633    0.561426
     63          0           0        1.338052   -0.683939    0.034837
     64          0           0        1.059020   -0.870249    0.649190
     65          0           0        1.377914   -0.657323   -0.052928
     66          0           0        1.019158   -0.896864    0.736955
     67          0           0        1.417776   -0.630708   -0.140692
     68          0           0        1.218467   -0.763786    0.298131
     69          0           0        1.167599   -0.694009    0.410129
     70          0           0        1.247322   -0.640777    0.234600
     71          0           0        1.127737   -0.720624    0.497894
     72          0           0        1.287184   -0.614162    0.146835
     73          0           0        1.087875   -0.747240    0.585659
     74          0           0        1.327046   -0.587546    0.059070
     75          0           0        1.048013   -0.773856    0.673424
     76          0           0        1.366907   -0.560930   -0.028694
     77          0           0        1.008151   -0.800471    0.761188
     78          0           0        1.406769   -0.534315   -0.116459
     79          0           0        1.207460   -0.667393    0.322365
     80          0           0        1.156592   -0.597616    0.434363
     81          0           0        1.236316   -0.544384    0.258833
     82          0           0        1.116730   -0.624231    0.522127
     83          0           0        1.276177   -0.517769    0.171068
     84          0           0        1.076869   -0.650847    0.609892
     85          0           0        1.316039   -0.491153    0.083304
     86          0           0        1.037007   -0.677463    0.697657
     87          0           0        1.355901   -0.464537   -0.004461
     88          0           0        0.997145   -0.704078    0.785421
     89          0           0        1.395763   -0.437922   -0.092226
     90          0           0        1.196454   -0.571000    0.346598
     91          0           0        1.145586   -0.501223    0.458596
     92          0           0        1.225309   -0.447991    0.283066
     93          0           0        1.105724   -0.527838    0.546361
     94          0           0        1.265171   -0.421376    0.195302
     95          0           0        1.065862   -0.554454    0.634125
     96          0           0        1.305033   -0.394760    0.107537
     97          0           0        1.026000   -0.581070    0.721890
     98          0           0        1.344894   -0.368144    0.019772
     99          0           0        0.986139   -0.607685    0.809655
    100          0           0        1.384756   -0.341529   -0.067993
    101          0           0        1.185447   -0.474607    0.370831
    102          0           0        1.134579   -0.404830    0.482829
    103          0           0        1.214303   -0.351598    0.307300
    104          0           0        1.094717   -0.431445    0.570594
    105          0           0        1.254164   -0.324983    0.219535
    106          0           0        1.054856   -0.458061    0.658359
    107          0           0        1.294026   -0.298367    0.131770
    108          0           0        1.014994   -0.484677    0.746123
    109          0           0        1.333888   -0.271751    0.044005
    110          0           0        0.975132   -0.511292    0.833888
    111          0           0        1.373750   -0.245136   -0.043759
    112          0           0        1.174441   -0.378214    0.395064
    113          0           0        1.123573   -0.308437    0.507062
    114          0           0        1.203296   -0.255205    0.331533
    115          0           0        1.083711   -0.335052    0.594827
    116          0           0        1.243158   -0.228590    0.243768
    117          0           0        1.043849   -0.361668    0.682592
    118          0           0        1.283020   -0.201974    0.156003
    119          0           0        1.003987   -0.388284    0.770357
    120          0           0        1.322881   -0.175358    0.068239
    121          0           0        0.964126   -0.414899    0.858121
    122          0           0        1.362743   -0.148743   -0.019526
    123          0           0        1.163434   -0.281821    0.419298
    124          0           0        1.112566   -0.212044    0.531296
    125          0           0        1.192290   -0.158812    0.355766
    126          0           0        1.072704   -0.238659    0.619060
    127          0           0        1.232151   -0.132197    0.268001
    128          0           0        1.032843   -0.265275    0.706825
    129          0           0        1.272013   -0.105581    0.180237
    130          0           0        0.992981   -0.291891    0.794590
    131          0           0        1.311875   -0.078965    0.092472
    132          0           0        0.953119   -0.318506    0.882354
    133          0           0        1.351737   -0.052350    0.004707
    134          0           0        1.152428   -0.185428    0.443531
    135          0           0        1.101560   -0.115651    0.555529
    136          0           0        1.181283   -0.062419    0.379999
    137          0           0        1.061698   -0.142266    0.643294
    138          0           0        1.221145   -0.035804    0.292235
    139          0           0        1.021836   -0.168882    0.731058
    140          0           0        1.261007   -0.009188    0.204470
    141          0           0        0.981974   -0.195498    0.818823
    142          0           0        1.300868    0.017427    0.116705
    143          0           0        0.942113   -0.222113    0.906588
    144          0           0        1.340730    0.044043    0.028940
    145          0           0        1.141421   -0.089035    0.467764
    146          0           0        1.742932   -4.935300   -0.614780
    147          0           0        1.822656   -4.882069   -0.790310
    148          0           0        1.703070   -4.961916   -0.527016
    149          0           0        1.862517   -4.855453   -0.878074
    150          0           0        1.663209   -4.988531   -0.439251
    151          0           0        1.902379   -4.828837   -0.965839
    152          0           0        1.623347   -5.015147   -0.351486
    153          0           0        1.942241   -4.802222   -1.053604
    154          0           0        1.583485   -5.041763   -0.263721
    155          0           0        1.982103   -4.775606   -1.141369
    156          0           0        1.782794   -4.908684   -0.702545
    157          0           0        1.731926   -4.838907   -0.590547
    158          0           0        1.811649   -4.785676   -0.766076
    159          0           0        1.692064   -4.865523   -0.502782
    160          0           0        1.851511   -4.759060   -0.853841
    161          0           0        1.652202   -4.892138   -0.415018
    162          0           0        1.891373   -4.732444   -0.941606
    163          0           0        1.612340   -4.918754   -0.327253
    164          0           0        1.931235   -4.705829   -1.029371
    165          0           0        1.572479   -4.945370   -0.239488
    166          0           0        1.971096   -4.679213   -1.117135
    167          0           0        1.771787   -4.812291   -0.678312
    168          0           0        1.720919   -4.742514   -0.566314
    169          0           0        1.800643   -4.689283   -0.741843
    170          0           0        1.681057   -4.769130   -0.478549
    171          0           0        1.840505   -4.662667   -0.829608
    172          0           0        1.641196   -4.795745   -0.390784
    173          0           0        1.880366   -4.636051   -0.917373
    174          0           0        1.601334   -4.822361   -0.303020
    175          0           0        1.920228   -4.609436   -1.005137
    176          0           0        1.561472   -4.848977   -0.215255
    177          0           0        1.960090   -4.582820   -1.092902
    178          0           0        1.760781   -4.715898   -0.654079
    179          0           0        1.709913   -4.646121   -0.542081
    180          0           0        1.789636   -4.592890   -0.717610
    181          0           0        1.670051   -4.672737   -0.454316
    182          0           0        1.829498   -4.566274   -0.805375
    183          0           0        1.630189   -4.699352   -0.366551
    184          0           0        1.869360   -4.539658   -0.893139
    185          0           0        1.590327   -4.725968   -0.278786
    186          0           0        1.909222   -4.513043   -0.980904
    187          0           0        1.550466   -4.752584   -0.191022
    188          0           0        1.949083   -4.486427   -1.068669
    189          0           0        1.749775   -4.619505   -0.629845
    190          0           0        1.698906   -4.549728   -0.517847
    191          0           0        1.778630   -4.496497   -0.693377
    192          0           0        1.659045   -4.576344   -0.430083
    193          0           0        1.818492   -4.469881   -0.781141
    194          0           0        1.619183   -4.602959   -0.342318
    195          0           0        1.858353   -4.443265   -0.868906
    196          0           0        1.579321   -4.629575   -0.254553
    197          0           0        1.898215   -4.416650   -0.956671
    198          0           0        1.539459   -4.656191   -0.166788
    199          0           0        1.938077   -4.390034   -1.044436
    200          0           0        1.738768   -4.523112   -0.605612
    201          0           0        1.687900   -4.453335   -0.493614
    202          0           0        1.767623   -4.400104   -0.669143
    203          0           0        1.648038   -4.479951   -0.405849
    204          0           0        1.807485   -4.373488   -0.756908
    205          0           0        1.608176   -4.506566   -0.318085
    206          0           0        1.847347   -4.346872   -0.844673
    207          0           0        1.568315   -4.533182   -0.230320
    208          0           0        1.887209   -4.320257   -0.932438
    209          0           0        1.528453   -4.559798   -0.142555
    210          0           0        1.927070   -4.293641   -1.020202
    211          0           0        1.727762   -4.426719   -0.581379
    212          0           0        1.676893   -4.356942   -0.469381
    213          0           0        1.756617   -4.303711   -0.644910
    214          0           0        1.637032   -4.383558   -0.381616
    215          0           0        1.796479   -4.277095   -0.732675
    216          0           0        1.597170   -4.410173   -0.293851
    217          0           0        1.836340   -4.250479   -0.820440
    218          0           0        1.557308   -4.436789   -0.206087
    219          0           0        1.876202   -4.223864   -0.908204
    220          0           0        1.517446   -4.463405   -0.118322
    221          0           0        1.916064   -4.197248   -0.995969
    222          0           0        1.716755   -4.330326   -0.557146
    223          0           0        1.665887   -4.260549   -0.445148
    224          0           0        1.745610   -4.207318   -0.620677
    225          0           0        1.626025   -4.287165   -0.357383
    226          0           0        1.785472   -4.180702   -0.708442
    227          0           0        1.586163   -4.313780   -0.269618
    228          0           0        1.825334   -4.154086   -0.796206
    229          0           0        1.546302   -4.340396   -0.181853
    230          0           0        1.865196   -4.127471   -0.883971
    231          0           0        1.506440   -4.367012   -0.094089
    232          0           0        1.905057   -4.100855   -0.971736
    233          0           0        1.705749   -4.233933   -0.532912
    234          0           0        1.654880   -4.164156   -0.420914
    235          0           0        1.734604   -4.110925   -0.596444
    236          0           0        1.615019   -4.190772   -0.333150
 ---------------------------------------------------------------------
 Rotational constants (GHZ):      0.4529074      0.2836956      0.1879557
 Standard basis: 6-311+G(d,p) (5D, 7F)
 Warning:  center  37 has no basis functions!
 Warning:  center  38 has no basis functions!
 Warning:  center  39 has no basis functions!
 Warning:  center  40 has no basis functions!
 Warning:  center  41 has no basis functions!
 Warning:  center  42 has no basis functions!
 Warning:  center  43 has no basis functions!
 Warning:  center  44 has no basis functions!
 Warning:  center  45 has no basis functions!
 Warning:  center  46 has no basis functions!
 Warning:  center  47 has no basis functions!
 Warning:  center  48 has no basis functions!
 Warning:  center  49 has no basis functions!
 Warning:  center  50 has no basis functions!
 Warning:  center  51 has no basis functions!
 Warning:  center  52 has no basis functions!
 Warning:  center  53 has no basis functions!
 Warning:  center  54 has no basis functions!
 Warning:  center  55 has no basis functions!
 Warning:  center  56 has no basis functions!
 Warning:  center  57 has no basis functions!
 Warning:  center  58 has no basis functions!
 Warning:  center  59 has no basis functions!
 Warning:  center  60 has no basis functions!
 Warning:  center  61 has no basis functions!
 Warning:  center  62 has no basis functions!
 Warning:  center  63 has no basis functions!
 Warning:  center  64 has no basis functions!
 Warning:  center  65 has no basis functions!
 Warning:  center  66 has no basis functions!
 Warning:  center  67 has no basis functions!
 Warning:  center  68 has no basis functions!
 Warning:  center  69 has no basis functions!
 Warning:  center  70 has no basis functions!
 Warning:  center  71 has no basis functions!
 Warning:  center  72 has no basis functions!
 Warning:  center  73 has no basis functions!
 Warning:  center  74 has no basis functions!
 Warning:  center  75 has no basis functions!
 Warning:  center  76 has no basis functions!
 Warning:  center  77 has no basis functions!
 Warning:  center  78 has no basis functions!
 Warning:  center  79 has no basis functions!
 Warning:  center  80 has no basis functions!
 Warning:  center  81 has no basis functions!
 Warning:  center  82 has no basis functions!
 Warning:  center  83 has no basis functions!
 Warning:  center  84 has no basis functions!
 Warning:  center  85 has no basis functions!
 Warning:  center  86 has no basis functions!
 Warning:  center  87 has no basis functions!
 Warning:  center  88 has no basis functions!
 Warning:  center  89 has no basis functions!
 Warning:  center  90 has no basis functions!
 Warning:  center  91 has no basis functions!
 Warning:  center  92 has no basis functions!
 Warning:  center  93 has no basis functions!
 Warning:  center  94 has no basis functions!
 Warning:  center  95 has no basis functions!
 Warning:  center  96 has no basis functions!
 Warning:  center  97 has no basis functions!
 Warning:  center  98 has no basis functions!
 Warning:  center  99 has no basis functions!
 Warning:  center 100 has no basis functions!
 Warning:  center 101 has no basis functions!
 Warning:  center 102 has no basis functions!
 Warning:  center 103 has no basis functions!
 Warning:  center 104 has no basis functions!
 Warning:  center 105 has no basis functions!
 Warning:  center 106 has no basis functions!
 Warning:  center 107 has no basis functions!
 Warning:  center 108 has no basis functions!
 Warning:  center 109 has no basis functions!
 Warning:  center 110 has no basis functions!
 Warning:  center 111 has no basis functions!
 Warning:  center 112 has no basis functions!
 Warning:  center 113 has no basis functions!
 Warning:  center 114 has no basis functions!
 Warning:  center 115 has no basis functions!
 Warning:  center 116 has no basis functions!
 Warning:  center 117 has no basis functions!
 Warning:  center 118 has no basis functions!
 Warning:  center 119 has no basis functions!
 Warning:  center 120 has no basis functions!
 Warning:  center 121 has no basis functions!
 Warning:  center 122 has no basis functions!
 Warning:  center 123 has no basis functions!
 Warning:  center 124 has no basis functions!
 Warning:  center 125 has no basis functions!
 Warning:  center 126 has no basis functions!
 Warning:  center 127 has no basis functions!
 Warning:  center 128 has no basis functions!
 Warning:  center 129 has no basis functions!
 Warning:  center 130 has no basis functions!
 Warning:  center 131 has no basis functions!
 Warning:  center 132 has no basis functions!
 Warning:  center 133 has no basis functions!
 Warning:  center 134 has no basis functions!
 Warning:  center 135 has no basis functions!
 Warning:  center 136 has no basis functions!
 Warning:  center 137 has no basis functions!
 Warning:  center 138 has no basis functions!
 Warning:  center 139 has no basis functions!
 Warning:  center 140 has no basis functions!
 Warning:  center 141 has no basis functions!
 Warning:  center 142 has no basis functions!
 Warning:  center 143 has no basis functions!
 Warning:  center 144 has no basis functions!
 Warning:  center 145 has no basis functions!
 Warning:  center 146 has no basis functions!
 Warning:  center 147 has no basis functions!
 Warning:  center 148 has no basis functions!
 Warning:  center 149 has no basis functions!
 Warning:  center 150 has no basis functions!
 Warning:  center 151 has no basis functions!
 Warning:  center 152 has no basis functions!
 Warning:  center 153 has no basis functions!
 Warning:  center 154 has no basis functions!
 Warning:  center 155 has no basis functions!
 Warning:  center 156 has no basis functions!
 Warning:  center 157 has no basis functions!
 Warning:  center 158 has no basis functions!
 Warning:  center 159 has no basis functions!
 Warning:  center 160 has no basis functions!
 Warning:  center 161 has no basis functions!
 Warning:  center 162 has no basis functions!
 Warning:  center 163 has no basis functions!
 Warning:  center 164 has no basis functions!
 Warning:  center 165 has no basis functions!
 Warning:  center 166 has no basis functions!
 Warning:  center 167 has no basis functions!
 Warning:  center 168 has no basis functions!
 Warning:  center 169 has no basis functions!
 Warning:  center 170 has no basis functions!
 Warning:  center 171 has no basis functions!
 Warning:  center 172 has no basis functions!
 Warning:  center 173 has no basis functions!
 Warning:  center 174 has no basis functions!
 Warning:  center 175 has no basis functions!
 Warning:  center 176 has no basis functions!
 Warning:  center 177 has no basis functions!
 Warning:  center 178 has no basis functions!
 Warning:  center 179 has no basis functions!
 Warning:  center 180 has no basis functions!
 Warning:  center 181 has no basis functions!
 Warning:  center 182 has no basis functions!
 Warning:  center 183 has no basis functions!
 Warning:  center 184 has no basis functions!
 Warning:  center 185 has no basis functions!
 Warning:  center 186 has no basis functions!
 Warning:  center 187 has no basis functions!
 Warning:  center 188 has no basis functions!
 Warning:  center 189 has no basis functions!
 Warning:  center 190 has no basis functions!
 Warning:  center 191 has no basis functions!
 Warning:  center 192 has no basis functions!
 Warning:  center 193 has no basis functions!
 Warning:  center 194 has no basis functions!
 Warning:  center 195 has no basis functions!
 Warning:  center 196 has no basis functions!
 Warning:  center 197 has no basis functions!
 Warning:  center 198 has no basis functions!
 Warning:  center 199 has no basis functions!
 Warning:  center 200 has no basis functions!
 Warning:  center 201 has no basis functions!
 Warning:  center 202 has no basis functions!
 Warning:  center 203 has no basis functions!
 Warning:  center 204 has no basis functions!
 Warning:  center 205 has no basis functions!
 Warning:  center 206 has no basis functions!
 Warning:  center 207 has no basis functions!
 Warning:  center 208 has no basis functions!
 Warning:  center 209 has no basis functions!
 Warning:  center 210 has no basis functions!
 Warning:  center 211 has no basis functions!
 Warning:  center 212 has no basis functions!
 Warning:  center 213 has no basis functions!
 Warning:  center 214 has no basis functions!
 Warning:  center 215 has no basis functions!
 Warning:  center 216 has no basis functions!
 Warning:  center 217 has no basis functions!
 Warning:  center 218 has no basis functions!
 Warning:  center 219 has no basis functions!
 Warning:  center 220 has no basis functions!
 Warning:  center 221 has no basis functions!
 Warning:  center 222 has no basis functions!
 Warning:  center 223 has no basis functions!
 Warning:  center 224 has no basis functions!
 Warning:  center 225 has no basis functions!
 Warning:  center 226 has no basis functions!
 Warning:  center 227 has no basis functions!
 Warning:  center 228 has no basis functions!
 Warning:  center 229 has no basis functions!
 Warning:  center 230 has no basis functions!
 Warning:  center 231 has no basis functions!
 Warning:  center 232 has no basis functions!
 Warning:  center 233 has no basis functions!
 Warning:  center 234 has no basis functions!
 Warning:  center 235 has no basis functions!
 Warning:  center 236 has no basis functions!
   568 basis functions,   904 primitive gaussians,   590 cartesian basis functions
    73 alpha electrons       73 beta electrons
       nuclear repulsion energy      1610.9176155625 Hartrees.
 NAtoms=  236 NActive=  236 NUniq=  236 SFac= 1.00D+00 NAtFMM=   60 NAOKFM=T Big=T
 Integral buffers will be    131072 words long.
 Raffenetti 2 integral format.
 Two-electron integral symmetry is turned off.
 One-electron integrals computed using PRISM.
 NBasis=   568 RedAO= T EigKep=  1.78D-06  NBF=   568
 NBsUse=   556 1.00D-06 EigRej=  9.09D-07 NBFU=   556
 ExpMin= 4.38D-02 ExpMax= 4.56D+03 ExpMxC= 6.82D+02 IAcc=2 IRadAn=         4 AccDes= 0.00D+00
 Harris functional with IExCor=  402 and IRadAn=       4 diagonalized for initial guess.
 HarFok:  IExCor=  402 AccDes= 0.00D+00 IRadAn=         4 IDoV= 1 UseB2=F ITyADJ=14
 ICtDFT=  3500011 ScaDFX=  1.000000  1.000000  1.000000  1.000000
 FoFCou: FMM=F IPFlag=           0 FMFlag=      100000 FMFlg1=        2001
         NFxFlg=           0 DoJE=T BraDBF=F KetDBF=T FulRan=T
         wScrn=  0.000000 ICntrl=     500 IOpCl=  0 I1Cent=   200000004 NGrid=           0
         NMat0=    1 NMatS0=      1 NMatT0=    0 NMatD0=    1 NMtDS0=    0 NMtDT0=    0
 Symmetry not used in FoFCou.
 Requested convergence on RMS density matrix=1.00D-08 within 128 cycles.
 Requested convergence on MAX density matrix=1.00D-06.
 Requested convergence on             energy=1.00D-06.
 No special actions if energy rises.
 SCF Done:  E(RB3LYP) =  -847.003289848     A.U. after   15 cycles
            NFock= 15  Conv=0.75D-08     -V/T= 2.0040
 DoSCS=F DFT=T ScalE2(SS,OS)=  1.000000  1.000000
 Range of M.O.s used for correlation:     1   556
 NBasis=   568 NAE=    73 NBE=    73 NFC=     0 NFV=     0
 NROrb=    556 NOA=    73 NOB=    73 NVA=   483 NVB=   483

 **** Warning!!: The largest alpha MO coefficient is  0.10971036D+03

          Differentiating once with respect to magnetic field using GIAOs.
          Electric field/nuclear overlap derivatives assumed to be zero.
 FoFCou: FMM=F IPFlag=           0 FMFlag=      100000 FMFlg1=        2001
         NFxFlg=           0 DoJE=F BraDBF=F KetDBF=T FulRan=T
         wScrn=  0.000000 ICntrl=    6100 IOpCl=  0 I1Cent=           7 NGrid=         236
         NMat0=    1 NMatS0=      1 NMatT0=    0 NMatD0=    1 NMtDS0=    0 NMtDT0=    0
 Symmetry not used in FoFCou.
 FoFJK:  IHMeth= 1 ICntrl=    6127 DoSepK=F KAlg= 0 I1Cent=   0 FoldK=F
 IRaf=         1 NMat=   1 IRICut=       1 DoRegI=T DoRafI=F ISym2E= 0.
          There are     3 degrees of freedom in the 1st order CPHF.  IDoFFX=0 NUNeed=     3.
      3 vectors produced by pass  0 Test12= 1.18D-12 3.33D-08 XBig12= 2.07D+03 9.18D+00.
 AX will form     3 AO Fock derivatives at one time.
      3 vectors produced by pass  1 Test12= 1.18D-12 3.33D-08 XBig12= 3.56D+00 8.03D-01.
      3 vectors produced by pass  2 Test12= 1.18D-12 3.33D-08 XBig12= 2.10D-02 6.92D-02.
      3 vectors produced by pass  3 Test12= 1.18D-12 3.33D-08 XBig12= 5.45D-05 1.89D-03.
      3 vectors produced by pass  4 Test12= 1.18D-12 3.33D-08 XBig12= 1.20D-07 7.79D-05.
      3 vectors produced by pass  5 Test12= 1.18D-12 3.33D-08 XBig12= 4.02D-10 4.73D-06.
      3 vectors produced by pass  6 Test12= 1.18D-12 3.33D-08 XBig12= 1.32D-12 2.61D-07.
 InvSVY:  IOpt=1 It=  1 EMax= 3.55D-15
 Solved reduced A of dimension    21 with     3 vectors.
 Calculating GIAO nuclear magnetic shielding tensors.
 SCF GIAO Magnetic shielding tensor (ppm):
      1  C    Isotropic =    53.8139   Anisotropy =   178.0260
   XX=   -41.4327   YX=   -32.3458   ZX=    10.0287
   XY=   -28.3572   YY=    59.0527   ZY=    55.1899
   XZ=    13.1759   YZ=    58.7550   ZZ=   143.8218
   Eigenvalues:   -53.8775    42.8214   172.4979
      2  H    Isotropic =    24.3095   Anisotropy =     4.8536
   XX=    25.5771   YX=    -1.0289   ZX=     0.5661
   XY=    -0.7431   YY=    26.1829   ZY=    -2.3306
   XZ=    -0.1707   YZ=    -2.4411   ZZ=    21.1687
   Eigenvalues:    20.2108    25.1725    27.5453
      3  C    Isotropic =    51.4055   Anisotropy =   157.8639
   XX=   -31.5399   YX=    38.5015   ZX=   -17.9316
   XY=    34.3519   YY=    49.9437   ZY=    49.6392
   XZ=    -9.8383   YZ=    44.6006   ZZ=   135.8127
   Eigenvalues:   -50.5747    48.1432   156.6481
      4  H    Isotropic =    23.8290   Anisotropy =     7.1838
   XX=    25.3635   YX=     1.8486   ZX=    -0.3559
   XY=     1.9656   YY=    26.4581   ZY=    -2.4103
   XZ=    -1.2941   YZ=    -2.6614   ZZ=    19.6654
   Eigenvalues:    18.8176    24.0511    28.6182
      5  C    Isotropic =    46.0697   Anisotropy =   207.6751
   XX=   -19.2123   YX=    -4.8852   ZX=    -1.6475
   XY=     2.8938   YY=    -2.9860   ZY=    66.5656
   XZ=     2.5356   YZ=    67.9144   ZZ=   160.4073
   Eigenvalues:   -27.2455   -19.0652   184.5197
      6  C    Isotropic =    47.5218   Anisotropy =   196.9389
   XX=   -28.1552   YX=    -2.7889   ZX=    12.0660
   XY=   -14.3886   YY=    21.2063   ZY=    74.2521
   XZ=   -18.6356   YZ=    61.1113   ZZ=   149.5144
   Eigenvalues:   -30.2925    -5.9564   178.8144
      7  C    Isotropic =    49.3915   Anisotropy =   179.8333
   XX=   -12.5211   YX=    28.7048   ZX=   -24.6745
   XY=    31.5123   YY=    29.7000   ZY=    77.7459
   XZ=   -40.0095   YZ=    65.3072   ZZ=   130.9956
   Eigenvalues:   -52.1299    31.0240   169.2804
      8  H    Isotropic =    23.1586   Anisotropy =    13.5525
   XX=    28.5711   YX=     1.5482   ZX=    -3.6986
   XY=     3.2466   YY=    22.7592   ZY=    -2.1157
   XZ=    -8.3753   YZ=    -1.0821   ZZ=    18.1456
   Eigenvalues:    15.3521    21.9301    32.1936
      9  C    Isotropic =    55.1460   Anisotropy =   174.7426
   XX=    46.7071   YX=    -2.6162   ZX=    -2.8420
   XY=     0.6223   YY=    -1.6258   ZY=    92.8272
   XZ=     0.5159   YZ=    95.6598   ZZ=   120.3568
   Eigenvalues:   -52.8932    46.6901   171.6411
     10  H    Isotropic =    24.6278   Anisotropy =     7.1815
   XX=    29.1040   YX=     0.1399   ZX=    -0.3694
   XY=     0.3642   YY=    23.4778   ZY=    -1.0805
   XZ=    -2.4493   YZ=    -2.9465   ZZ=    21.3016
   Eigenvalues:    19.9703    24.4977    29.4155
     11  C    Isotropic =    51.5607   Anisotropy =   151.2142
   XX=     2.1639   YX=    40.9287   ZX=   -26.0048
   XY=    49.9131   YY=    12.2331   ZY=    42.1342
   XZ=   -15.6145   YZ=    38.6614   ZZ=   140.2851
   Eigenvalues:   -48.1951    50.5071   152.3701
     12  H    Isotropic =    23.8537   Anisotropy =     7.3815
   XX=    25.9672   YX=     2.3738   ZX=    -0.2390
   XY=     2.4320   YY=    26.3975   ZY=    -1.8291
   XZ=     0.3529   YZ=    -1.7731   ZZ=    19.1964
   Eigenvalues:    18.7149    24.0714    28.7747
     13  C    Isotropic =    52.8653   Anisotropy =   147.4265
   XX=    51.2944   YX=    19.9221   ZX=   -13.4678
   XY=    11.5478   YY=   -34.0176   ZY=    42.5079
   XZ=    -9.2241   YZ=    40.0716   ZZ=   141.3192
   Eigenvalues:   -46.5152    53.9616   151.1497
     14  H    Isotropic =    24.0156   Anisotropy =     7.3485
   XX=    28.6644   YX=     0.6281   ZX=     1.0808
   XY=     0.5926   YY=    24.4325   ZY=    -1.0823
   XZ=     1.6846   YZ=    -0.3842   ZZ=    18.9500
   Eigenvalues:    18.6430    24.4892    28.9146
     15  C    Isotropic =    46.2221   Anisotropy =   203.9048
   XX=   -27.2215   YX=    -0.0442   ZX=   -28.9124
   XY=     4.6427   YY=   -10.5571   ZY=    28.3830
   XZ=   -10.2704   YZ=    26.7376   ZZ=   176.4448
   Eigenvalues:   -30.5512   -12.9411   182.1586
     16  C    Isotropic =    51.9375   Anisotropy =   188.2004
   XX=   -19.4441   YX=     5.5046   ZX=    15.7858
   XY=    -8.3874   YY=     2.4863   ZY=    22.9264
   XZ=   -50.6243   YZ=    23.3340   ZZ=   172.7704
   Eigenvalues:   -21.0294    -0.5625   177.4045
     17  C    Isotropic =    51.9482   Anisotropy =   149.1264
   XX=    50.7296   YX=   -23.9353   ZX=   -18.4207
   XY=   -16.7271   YY=   -41.8764   ZY=    17.8662
   XZ=   -14.3278   YZ=    11.4871   ZZ=   146.9915
   Eigenvalues:   -46.7796    51.2584   151.3658
     18  H    Isotropic =    24.0122   Anisotropy =     7.5163
   XX=    28.5811   YX=    -0.0866   ZX=     1.5071
   XY=    -0.2466   YY=    24.3342   ZY=    -0.7657
   XZ=     2.5088   YZ=    -1.5208   ZZ=    19.1214
   Eigenvalues:    18.5094    24.5041    29.0231
     19  C    Isotropic =    51.7356   Anisotropy =   148.5924
   XX=     2.4559   YX=   -45.6913   ZX=   -31.2531
   XY=   -53.4448   YY=     7.4698   ZY=    -1.8888
   XZ=   -23.5601   YZ=    -1.2765   ZZ=   145.2810
   Eigenvalues:   -46.9894    51.3989   150.7972
     20  H    Isotropic =    23.9071   Anisotropy =     7.6651
   XX=    25.5796   YX=    -2.0226   ZX=     1.4905
   XY=    -1.9998   YY=    27.3706   ZY=    -0.5164
   XZ=     2.7276   YZ=    -1.1179   ZZ=    18.7711
   Eigenvalues:    18.1643    24.5398    29.0172
     21  C    Isotropic =    45.9767   Anisotropy =   203.9316
   XX=   -16.2108   YX=    13.1802   ZX=   -44.5913
   XY=     6.5714   YY=   -20.6329   ZY=     0.0949
   XZ=   -28.8984   YZ=   -13.0883   ZZ=   174.7736
   Eigenvalues:   -30.5796   -13.4215   181.9311
     22  C    Isotropic =    52.0450   Anisotropy =   188.1157
   XX=    -0.0787   YX=     2.5023   ZX=   -16.3451
   XY=    18.9327   YY=   -14.4798   ZY=   -34.4335
   XZ=   -50.6032   YZ=    19.9104   ZZ=   170.6934
   Eigenvalues:   -20.7705    -0.5500   177.4554
     23  C    Isotropic =    53.2392   Anisotropy =   146.7412
   XX=   -22.0674   YX=   -32.0012   ZX=   -49.4857
   XY=   -23.2043   YY=    44.3661   ZY=   -15.6400
   XZ=   -43.8090   YZ=   -20.2525   ZZ=   137.4189
   Eigenvalues:   -45.6776    54.3286   151.0667
     24  H    Isotropic =    23.8249   Anisotropy =     7.5289
   XX=    25.1073   YX=    -1.7330   ZX=     1.5380
   XY=    -1.5944   YY=    28.0047   ZY=     0.0879
   XZ=     1.2557   YZ=    -0.8283   ZZ=    18.3628
   Eigenvalues:    18.0848    24.5458    28.8442
     25  C    Isotropic =    51.4969   Anisotropy =   150.1066
   XX=   -28.4915   YX=    33.9684   ZX=   -52.3137
   XY=    22.0311   YY=    46.6072   ZY=    -3.8075
   XZ=   -44.5594   YZ=   -10.6355   ZZ=   136.3748
   Eigenvalues:   -48.3857    51.3083   151.5679
     26  H    Isotropic =    23.7431   Anisotropy =     7.4052
   XX=    24.0663   YX=     1.1141   ZX=     1.9989
   XY=     0.9693   YY=    28.1000   ZY=     1.6568
   XZ=     2.0795   YZ=     0.8886   ZZ=    19.0630
   Eigenvalues:    18.2615    24.2880    28.6799
     27  C    Isotropic =    45.8108   Anisotropy =   207.2710
   XX=    -2.7702   YX=    13.7697   ZX=   -61.4651
   XY=     6.5593   YY=   -12.0335   ZY=   -41.6456
   XZ=   -62.6381   YZ=   -44.9232   ZZ=   152.2361
   Eigenvalues:   -28.0803   -18.4787   183.9915
     28  C    Isotropic =    47.8398   Anisotropy =   197.2870
   XX=    19.6900   YX=    14.4398   ZX=   -60.5682
   XY=    28.5650   YY=   -19.3566   ZY=   -56.7015
   XZ=   -63.1331   YZ=   -24.4782   ZZ=   143.1859
   Eigenvalues:   -30.5979    -5.2472   179.3644
     29  C    Isotropic =    49.3441   Anisotropy =   179.7793
   XX=    -3.4110   YX=    38.3775   ZX=   -80.8875
   XY=    36.1252   YY=    25.9805   ZY=   -23.7573
   XZ=   -78.1065   YZ=    -3.9802   ZZ=   125.4627
   Eigenvalues:   -51.6645    30.4997   169.1970
     30  H    Isotropic =    23.1387   Anisotropy =    13.3222
   XX=    22.4354   YX=    -0.7013   ZX=    -0.2375
   XY=    -2.1539   YY=    28.3546   ZY=     4.5555
   XZ=    -3.4181   YZ=     8.3231   ZZ=    18.6259
   Eigenvalues:    15.2751    22.1208    32.0201
     31  C    Isotropic =    55.4410   Anisotropy =   174.9390
   XX=    17.1871   YX=   -14.0890   ZX=   -84.0024
   XY=   -17.9030   YY=    37.4745   ZY=   -50.3662
   XZ=   -84.6557   YZ=   -54.8325   ZZ=   111.6615
   Eigenvalues:   -51.9248    46.1808   172.0670
     32  H    Isotropic =    24.5337   Anisotropy =     7.2554
   XX=    24.6185   YX=    -2.5264   ZX=     0.7632
   XY=    -2.7385   YY=    27.4630   ZY=     1.0335
   XZ=     1.1913   YZ=     3.7573   ZZ=    21.5194
   Eigenvalues:    19.8987    24.3316    29.3706
     33  C    Isotropic =    53.1814   Anisotropy =   179.0596
   XX=    60.9231   YX=    35.2256   ZX=   -42.9515
   XY=    32.0226   YY=   -38.1801   ZY=   -45.5652
   XZ=   -44.2248   YZ=   -50.7831   ZZ=   136.8014
   Eigenvalues:   -55.1197    42.1095   172.5545
     34  H    Isotropic =    24.2825   Anisotropy =     5.1861
   XX=    26.7643   YX=    -0.0934   ZX=     2.5955
   XY=    -0.2993   YY=    24.8157   ZY=     0.8589
   XZ=     2.3715   YZ=     1.4580   ZZ=    21.2676
   Eigenvalues:    20.0339    25.0737    27.7399
     35  C    Isotropic =    51.5295   Anisotropy =   155.1748
   XX=    -0.5131   YX=    52.5760   ZX=   -52.1551
   XY=    55.6135   YY=    25.1843   ZY=   -14.2643
   XZ=   -45.7255   YZ=   -17.1625   ZZ=   129.9171
   Eigenvalues:   -48.3147    47.9237   154.9793
     36  H    Isotropic =    23.8384   Anisotropy =     7.3073
   XX=    24.2302   YX=     1.4459   ZX=     2.1759
   XY=     1.2147   YY=    27.1572   ZY=     2.0665
   XZ=     1.6853   YZ=     2.7775   ZZ=    20.1277
   Eigenvalues:    18.9464    23.8588    28.7099
     37  Bq   Isotropic =    17.8068   Anisotropy =    37.4327
   XX=    14.5202   YX=    -5.9398   ZX=   -27.8457
   XY=    -4.3695   YY=    13.2458   ZY=   -24.8832
   XZ=    -9.3849   YZ=    -5.4266   ZZ=    25.6543
   Eigenvalues:    -8.1725    18.8309    42.7619
     38  Bq   Isotropic =    20.9972   Anisotropy =    25.0190
   XX=    20.2067   YX=    -3.9325   ZX=   -13.0267
   XY=    -0.7611   YY=    16.3995   ZY=   -11.0099
   XZ=   -14.0739   YZ=    -0.7221   ZZ=    26.3855
   Eigenvalues:     6.3110    19.0040    37.6765
     39  Bq   Isotropic =     8.7980   Anisotropy =    49.7074
   XX=     2.8427   YX=    -8.6015   ZX=   -35.0581
   XY=    -7.0757   YY=     1.4074   ZY=   -31.2538
   XZ=   -11.0007   YZ=    -9.1296   ZZ=    22.1439
   Eigenvalues:   -25.3777     9.8355    41.9363
     40  Bq   Isotropic =    18.3153   Anisotropy =    25.1937
   XX=    17.7915   YX=    -3.7704   ZX=   -10.9704
   XY=    -0.2135   YY=    12.9712   ZY=    -8.9816
   XZ=   -15.9048   YZ=    -0.7437   ZZ=    24.1832
   Eigenvalues:     4.6032    15.2317    35.1111
     41  Bq   Isotropic =    -3.5478   Anisotropy =    63.4933
   XX=   -13.3580   YX=   -12.6834   ZX=   -39.5777
   XY=   -10.6462   YY=   -15.5468   ZY=   -34.9727
   XZ=   -15.1166   YZ=   -13.0081   ZZ=    18.2612
   Eigenvalues:   -46.4746    -2.9500    38.7810
     42  Bq   Isotropic =    15.4151   Anisotropy =    25.5210
   XX=    15.1405   YX=    -3.5757   ZX=    -9.6786
   XY=     0.1938   YY=     9.4788   ZY=    -7.7111
   XZ=   -17.1224   YZ=    -1.0704   ZZ=    21.6260
   Eigenvalues:     2.2661    11.5501    32.4291
     43  Bq   Isotropic =   -13.8133   Anisotropy =    72.7407
   XX=   -27.1979   YX=   -16.7469   ZX=   -37.7275
   XY=   -13.9379   YY=   -30.0924   ZY=   -32.8681
   XZ=   -21.2072   YZ=   -15.9487   ZZ=    15.8505
   Eigenvalues:   -62.5101   -13.6103    34.6805
     44  Bq   Isotropic =    12.7049   Anisotropy =    25.6007
   XX=    12.6903   YX=    -3.3344   ZX=    -8.8299
   XY=     0.5017   YY=     6.3762   ZY=    -6.9097
   XZ=   -17.7078   YZ=    -1.5203   ZZ=    19.0483
   Eigenvalues:    -0.0136     8.3564    29.7721
     45  Bq   Isotropic =   -15.3329   Anisotropy =    73.3158
   XX=   -30.8046   YX=   -18.9630   ZX=   -29.6551
   XY=   -15.8331   YY=   -33.0852   ZY=   -25.2071
   XZ=   -27.6188   YZ=   -17.1220   ZZ=    17.8910
   Eigenvalues:   -64.4320   -15.1111    33.5443
     46  Bq   Isotropic =    22.1067   Anisotropy =    29.5625
   XX=    20.2438   YX=    -4.6571   ZX=   -21.2025
   XY=    -2.6313   YY=    18.4650   ZY=   -18.8046
   XZ=    -9.9984   YZ=    -2.7656   ZZ=    27.6113
   Eigenvalues:     1.9970    22.5080    41.8150
     47  Bq   Isotropic =    21.5624   Anisotropy =    23.3427
   XX=    21.0204   YX=    -5.2425   ZX=   -13.8559
   XY=    -1.9459   YY=    17.0094   ZY=   -16.1937
   XZ=    -8.9467   YZ=    -2.4970   ZZ=    26.6575
   Eigenvalues:     5.2899    22.2732    37.1242
     48  Bq   Isotropic =    19.1802   Anisotropy =    32.8894
   XX=    18.2287   YX=    -7.7546   ZX=   -22.0999
   XY=    -5.4034   YY=    12.7680   ZY=   -27.2699
   XZ=    -4.3119   YZ=    -7.4199   ZZ=    26.5439
   Eigenvalues:    -6.1383    22.5725    41.1064
     49  Bq   Isotropic =    19.7208   Anisotropy =    22.7502
   XX=    19.2895   YX=    -4.7289   ZX=   -11.3867
   XY=    -1.0353   YY=    14.8859   ZY=   -12.4579
   XZ=   -11.9098   YZ=    -1.5216   ZZ=    24.9871
   Eigenvalues:     5.3574    18.9174    34.8876
     50  Bq   Isotropic =    13.4452   Anisotropy =    41.9304
   XX=    11.8709   YX=   -10.5390   ZX=   -26.8814
   XY=    -8.5283   YY=     3.7786   ZY=   -32.8016
   XZ=    -4.8244   YZ=   -11.0984   ZZ=    24.6860
   Eigenvalues:   -19.2157    18.1524    41.3987
     51  Bq   Isotropic =    17.1242   Anisotropy =    23.2442
   XX=    16.8440   YX=    -4.3489   ZX=    -9.7923
   XY=    -0.3987   YY=    11.8266   ZY=    -9.8991
   XZ=   -14.3416   YZ=    -1.2348   ZZ=    22.7022
   Eigenvalues:     3.7399    15.0124    32.6204
     52  Bq   Isotropic =     5.6492   Anisotropy =    51.1997
   XX=     3.0371   YX=   -14.3673   ZX=   -29.7401
   XY=   -12.5896   YY=    -8.6868   ZY=   -35.1823
   XZ=    -8.3242   YZ=   -14.4971   ZZ=    22.5971
   Eigenvalues:   -34.5882    11.7534    39.7823
     53  Bq   Isotropic =    14.3925   Anisotropy =    23.8590
   XX=    14.3156   YX=    -3.9993   ZX=    -8.7732
   XY=     0.0647   YY=     8.6681   ZY=    -8.2154
   XZ=   -16.0093   YZ=    -1.3622   ZZ=    20.1937
   Eigenvalues:     1.5599    11.3191    30.2985
     54  Bq   Isotropic =    -0.7648   Anisotropy =    57.3002
   XX=    -4.5626   YX=   -18.0932   ZX=   -28.4412
   XY=   -16.6270   YY=   -19.5226   ZY=   -31.9720
   XZ=   -14.3697   YZ=   -16.4288   ZZ=    21.7908
   Eigenvalues:   -46.1005     6.3708    37.4353
     55  Bq   Isotropic =    11.8589   Anisotropy =    24.1820
   XX=    12.0281   YX=    -3.6466   ZX=    -8.0929
   XY=     0.4138   YY=     5.8226   ZY=    -7.1223
   XZ=   -16.9198   YZ=    -1.6993   ZZ=    17.7261
   Eigenvalues:    -0.5605     8.1570    27.9803
     56  Bq   Isotropic =    -1.8305   Anisotropy =    57.8816
   XX=    -6.6465   YX=   -20.0558   ZX=   -22.7659
   XY=   -19.1786   YY=   -22.6825   ZY=   -23.5252
   XZ=   -20.8574   YZ=   -16.0974   ZZ=    23.8374
   Eigenvalues:   -47.4821     5.2333    36.7572
     57  Bq   Isotropic =    21.7226   Anisotropy =    26.4462
   XX=    21.0514   YX=    -6.1214   ZX=   -17.4541
   XY=    -3.3079   YY=    16.8467   ZY=   -21.2551
   XZ=    -6.0726   YZ=    -4.4324   ZZ=    27.2697
   Eigenvalues:     1.9560    23.8585    39.3534
     58  Bq   Isotropic =    20.7526   Anisotropy =    21.4519
   XX=    20.8983   YX=    -5.5626   ZX=   -11.3588
   XY=    -1.9868   YY=    14.8608   ZY=   -16.2636
   XZ=    -6.4928   YZ=    -3.4843   ZZ=    26.4987
   Eigenvalues:     5.1228    22.0812    35.0539
     59  Bq   Isotropic =    20.9884   Anisotropy =    29.0568
   XX=    21.9843   YX=    -7.7506   ZX=   -16.5849
   XY=    -5.1756   YY=    12.0349   ZY=   -25.7449
   XZ=    -0.4386   YZ=    -8.1445   ZZ=    28.9459
   Eigenvalues:    -2.5591    25.1646    40.3596
     60  Bq   Isotropic =    18.6344   Anisotropy =    21.0464
   XX=    18.6412   YX=    -5.0118   ZX=    -9.6813
   XY=    -1.0853   YY=    13.0478   ZY=   -12.6835
   XZ=   -10.0204   YZ=    -2.3755   ZZ=    24.2141
   Eigenvalues:     4.7962    18.4416    32.6653
     61  Bq   Isotropic =    18.2152   Anisotropy =    35.3037
   XX=    19.8683   YX=    -9.8365   ZX=   -19.3394
   XY=    -7.8080   YY=     5.8588   ZY=   -29.7729
   XZ=    -0.1913   YZ=   -11.2086   ZZ=    28.9187
   Eigenvalues:   -11.2333    24.1279    41.7511
     62  Bq   Isotropic =    16.0438   Anisotropy =    21.6813
   XX=    16.0693   YX=    -4.5754   ZX=    -8.5665
   XY=    -0.4402   YY=    10.4350   ZY=   -10.0949
   XZ=   -12.9165   YZ=    -1.9241   ZZ=    21.6271
   Eigenvalues:     3.1241    14.5093    30.4980
     63  Bq   Isotropic =    14.1926   Anisotropy =    40.9448
   XX=    16.5035   YX=   -12.5090   ZX=   -20.7780
   XY=   -11.0506   YY=    -2.4720   ZY=   -30.9074
   XZ=    -3.0533   YZ=   -13.7255   ZZ=    28.5464
   Eigenvalues:   -21.0075    22.0963    41.4891
     64  Bq   Isotropic =    13.4312   Anisotropy =    22.4431
   XX=    13.5916   YX=    -4.1722   ZX=    -7.8368
   XY=     0.0392   YY=     7.6874   ZY=    -8.3167
   XZ=   -14.9519   YZ=    -1.9072   ZZ=    19.0146
   Eigenvalues:     1.0072    10.8931    28.3932
     65  Bq   Isotropic =    10.8296   Anisotropy =    44.3935
   XX=    13.5940   YX=   -15.0097   ZX=   -19.7276
   XY=   -14.2145   YY=    -9.7363   ZY=   -27.6129
   XZ=    -8.7022   YZ=   -14.6973   ZZ=    28.6311
   Eigenvalues:   -28.0500    20.1135    40.4253
     66  Bq   Isotropic =    11.0471   Anisotropy =    22.9151
   XX=    11.4197   YX=    -3.7740   ZX=    -7.3367
   XY=     0.4084   YY=     5.1630   ZY=    -7.1257
   XZ=   -16.1391   YZ=    -2.1359   ZZ=    16.5585
   Eigenvalues:    -1.0172     7.8346    26.3238
     67  Bq   Isotropic =    10.1635   Anisotropy =    45.0622
   XX=    12.9291   YX=   -16.2076   ZX=   -16.0809
   XY=   -16.2128   YY=   -12.2674   ZY=   -20.3196
   XZ=   -15.2698   YZ=   -13.6204   ZZ=    29.8288
   Eigenvalues:   -28.6975    18.9831    40.2050
     68  Bq   Isotropic =    21.7557   Anisotropy =    24.0456
   XX=    22.2303   YX=    -6.3935   ZX=   -13.7089
   XY=    -3.2864   YY=    14.8814   ZY=   -20.7985
   XZ=    -2.9510   YZ=    -5.4215   ZZ=    28.1555
   Eigenvalues:     2.9621    24.5189    37.7861
     69  Bq   Isotropic =    20.1954   Anisotropy =    19.9502
   XX=    20.9655   YX=    -5.2955   ZX=    -9.1457
   XY=    -1.7526   YY=    12.7826   ZY=   -14.7500
   XZ=    -4.7494   YZ=    -4.0337   ZZ=    26.8382
   Eigenvalues:     5.4177    21.6731    33.4956
     70  Bq   Isotropic =    22.5862   Anisotropy =    25.5020
   XX=    24.9006   YX=    -6.6012   ZX=   -12.1107
   XY=    -4.1833   YY=    11.3235   ZY=   -21.8210
   XZ=     2.0093   YZ=    -7.6571   ZZ=    31.5346
   Eigenvalues:     1.3899    26.7812    39.5876
     71  Bq   Isotropic =    17.7849   Anisotropy =    19.7769
   XX=    18.2347   YX=    -4.8883   ZX=    -8.1187
   XY=    -0.9718   YY=    11.2303   ZY=   -11.8113
   XZ=    -8.5914   YZ=    -3.0736   ZZ=    23.8896
   Eigenvalues:     4.5878    17.7973    30.9695
     72  Bq   Isotropic =    21.9587   Anisotropy =    29.5708
   XX=    25.5101   YX=    -7.7093   ZX=   -13.4791
   XY=    -5.9495   YY=     7.5265   ZY=   -24.4076
   XZ=     2.6689   YZ=    -9.7993   ZZ=    32.8394
   Eigenvalues:    -3.6002    27.8037    41.6725
     73  Bq   Isotropic =    15.1494   Anisotropy =    20.4897
   XX=    15.5022   YX=    -4.5154   ZX=    -7.4157
   XY=    -0.3757   YY=     9.0347   ZY=    -9.5827
   XZ=   -11.7764   YZ=    -2.6386   ZZ=    20.9113
   Eigenvalues:     2.7680    13.8711    28.8092
     74  Bq   Isotropic =    20.4437   Anisotropy =    32.7231
   XX=    25.3720   YX=    -9.0401   ZX=   -13.9719
   XY=    -7.9515   YY=     2.4895   ZY=   -24.7469
   XZ=     0.2572   YZ=   -11.3524   ZZ=    33.4694
   Eigenvalues:    -9.0709    28.1427    42.2591
     75  Bq   Isotropic =    12.6057   Anisotropy =    21.3085
   XX=    13.0212   YX=    -4.1369   ZX=    -6.9437
   XY=     0.0915   YY=     6.6895   ZY=    -7.9900
   XZ=   -14.0610   YZ=    -2.5765   ZZ=    18.1064
   Eigenvalues:     0.6379    10.3678    26.8114
     76  Bq   Isotropic =    18.9927   Anisotropy =    34.5501
   XX=    25.1096   YX=   -10.1743   ZX=   -13.0291
   XY=    -9.7723   YY=    -1.8629   ZY=   -22.0107
   XZ=    -5.0028   YZ=   -11.6539   ZZ=    33.7312
   Eigenvalues:   -12.7966    27.7485    42.0261
     77  Bq   Isotropic =    10.3326   Anisotropy =    21.8513
   XX=    10.9168   YX=    -3.7452   ZX=    -6.6081
   XY=     0.4671   YY=     4.4902   ZY=    -6.8879
   XZ=   -15.4463   YZ=    -2.7397   ZZ=    15.5908
   Eigenvalues:    -1.3513     7.4489    24.9001
     78  Bq   Isotropic =    18.5976   Anisotropy =    35.5748
   XX=    25.2847   YX=   -10.5038   ZX=   -10.6748
   XY=   -10.8213   YY=    -3.4523   ZY=   -16.6063
   XZ=   -11.5395   YZ=   -10.4729   ZZ=    33.9604
   Eigenvalues:   -12.8052    26.2838    42.3142
     79  Bq   Isotropic =    21.9416   Anisotropy =    21.8808
   XX=    23.3194   YX=    -5.8248   ZX=   -10.5250
   XY=    -2.7950   YY=    13.0250   ZY=   -18.2627
   XZ=    -0.8711   YZ=    -5.5989   ZZ=    29.4803
   Eigenvalues:     4.5033    24.7927    36.5288
     80  Bq   Isotropic =    19.7980   Anisotropy =    18.6832
   XX=    21.0879   YX=    -4.6584   ZX=    -7.3781
   XY=    -1.3488   YY=    11.0060   ZY=   -12.2185
   XZ=    -3.7358   YZ=    -4.1454   ZZ=    27.3001
   Eigenvalues:     5.9471    21.1935    32.2535
     81  Bq   Isotropic =    23.6448   Anisotropy =    22.3974
   XX=    26.7448   YX=    -4.8622   ZX=    -8.8693
   XY=    -2.8134   YY=    10.5774   ZY=   -16.8961
   XZ=     3.2046   YZ=    -6.3586   ZZ=    33.6121
   Eigenvalues:     4.7514    27.6065    38.5764
     82  Bq   Isotropic =    17.1538   Anisotropy =    18.7947
   XX=    18.0137   YX=    -4.4939   ZX=    -6.8094
   XY=    -0.7533   YY=     9.6601   ZY=   -10.1396
   XZ=    -7.6813   YZ=    -3.5415   ZZ=    23.7876
   Eigenvalues:     4.6539    17.1239    29.6836
     83  Bq   Isotropic =    24.3299   Anisotropy =    24.9833
   XX=    28.8103   YX=    -4.9791   ZX=    -9.3892
   XY=    -3.6424   YY=     8.4786   ZY=   -18.4489
   XZ=     4.0233   YZ=    -7.5676   ZZ=    35.7009
   Eigenvalues:     2.3179    29.6864    40.9855
     84  Bq   Isotropic =    14.4616   Anisotropy =    19.5829
   XX=    15.1365   YX=    -4.2556   ZX=    -6.4113
   XY=    -0.2415   YY=     7.8090   ZY=    -8.5031
   XZ=   -10.9889   YZ=    -3.2829   ZZ=    20.4392
   Eigenvalues:     2.6550    13.2129    27.5169
     85  Bq   Isotropic =    24.2514   Anisotropy =    26.7343
   XX=    30.2561   YX=    -5.0839   ZX=    -9.3013
   XY=    -4.4188   YY=     5.7266   ZY=   -18.5223
   XZ=     1.8600   YZ=    -8.3255   ZZ=    36.7714
   Eigenvalues:    -0.3561    31.0360    42.0742
     86  Bq   Isotropic =    11.9524   Anisotropy =    20.4218
   XX=    12.6245   YX=    -3.9503   ZX=    -6.1391
   XY=     0.1966   YY=     5.8071   ZY=    -7.2931
   XZ=   -13.3975   YZ=    -3.2804   ZZ=    17.4257
   Eigenvalues:     0.4587     9.8316    25.5669
     87  Bq   Isotropic =    23.8469   Anisotropy =    27.9776
   XX=    31.1949   YX=    -5.0265   ZX=    -8.3571
   XY=    -4.9596   YY=     3.4494   ZY=   -16.6977
   XZ=    -3.1331   YZ=    -8.2602   ZZ=    36.8964
   Eigenvalues:    -1.9990    31.0411    42.4986
     88  Bq   Isotropic =     9.7544   Anisotropy =    20.9903
   XX=    10.5487   YX=    -3.5986   ZX=    -5.9369
   XY=     0.5708   YY=     3.8924   ZY=    -6.4277
   XZ=   -14.8906   YZ=    -3.4366   ZZ=    14.8219
   Eigenvalues:    -1.5478     7.0630    23.7479
     89  Bq   Isotropic =    23.6137   Anisotropy =    29.5219
   XX=    31.6863   YX=    -4.5852   ZX=    -6.6647
   XY=    -5.0628   YY=     2.7839   ZY=   -13.2465
   XZ=    -9.5940   YZ=    -7.2810   ZZ=    36.3709
   Eigenvalues:    -1.5594    29.1055    43.2950
     90  Bq   Isotropic =    22.0724   Anisotropy =    19.9260
   XX=    24.0976   YX=    -4.7672   ZX=    -8.1066
   XY=    -2.0365   YY=    11.4240   ZY=   -14.6007
   XZ=     0.2273   YZ=    -5.1209   ZZ=    30.6957
   Eigenvalues:     6.0546    24.8062    35.3564
     91  Bq   Isotropic =    19.4748   Anisotropy =    17.6842
   XX=    21.1869   YX=    -3.8293   ZX=    -6.0870
   XY=    -0.8525   YY=     9.5951   ZY=    -9.1469
   XZ=    -3.3782   YZ=    -3.9262   ZZ=    27.6423
   Eigenvalues:     6.5102    20.6499    31.2643
     92  Bq   Isotropic =    24.0696   Anisotropy =    20.1701
   XX=    27.6025   YX=    -2.8615   ZX=    -6.7681
   XY=    -1.2736   YY=     9.6114   ZY=   -11.7687
   XZ=     3.4163   YZ=    -4.6132   ZZ=    34.9950
   Eigenvalues:     6.9056    27.7869    37.5164
     93  Bq   Isotropic =    16.6979   Anisotropy =    18.0316
   XX=    17.9229   YX=    -3.9496   ZX=    -5.7870
   XY=    -0.4745   YY=     8.4482   ZY=    -7.9789
   XZ=    -7.2738   YZ=    -3.8038   ZZ=    23.7227
   Eigenvalues:     4.9150    16.4598    28.7190
     94  Bq   Isotropic =    25.3803   Anisotropy =    22.0184
   XX=    30.2009   YX=    -2.0232   ZX=    -6.8235
   XY=    -1.1769   YY=     8.4303   ZY=   -12.7064
   XZ=     4.2202   YZ=    -4.9889   ZZ=    37.5097
   Eigenvalues:     5.8031    30.2786    40.0593
     95  Bq   Isotropic =    13.9705   Anisotropy =    18.8821
   XX=    14.9482   YX=    -3.8774   ZX=    -5.5793
   XY=    -0.0658   YY=     6.8722   ZY=    -7.0428
   XZ=   -10.5648   YZ=    -3.8359   ZZ=    20.0910
   Eigenvalues:     2.7582    12.5947    26.5585
     96  Bq   Isotropic =    25.9543   Anisotropy =    23.3148
   XX=    32.1388   YX=    -1.0204   ZX=    -6.3792
   XY=    -0.8129   YY=     6.9746   ZY=   -12.9266
   XZ=     2.1241   YZ=    -5.1499   ZZ=    38.7495
   Eigenvalues:     4.5093    31.8561    41.4975
     97  Bq   Isotropic =    11.4817   Anisotropy =    19.7285
   XX=    12.4005   YX=    -3.6677   ZX=    -5.4418
   XY=     0.3345   YY=     5.1352   ZY=    -6.3311
   XZ=   -12.9805   YZ=    -3.9784   ZZ=    16.9093
   Eigenvalues:     0.4617     9.3493    24.6340
     98  Bq   Isotropic =    26.0104   Anisotropy =    24.7042
   XX=    33.3478   YX=     0.0664   ZX=    -5.3229
   XY=    -0.2030   YY=     5.9870   ZY=   -12.2003
   XZ=    -2.7579   YZ=    -4.9285   ZZ=    38.6965
   Eigenvalues:     3.8437    31.7077    42.4799
     99  Bq   Isotropic =     9.3317   Anisotropy =    20.3061
   XX=    10.3273   YX=    -3.3729   ZX=    -5.3368
   XY=     0.7039   YY=     3.4387   ZY=    -5.8008
   XZ=   -14.4911   YZ=    -4.1817   ZZ=    14.2290
   Eigenvalues:    -1.6066     6.7325    22.8691
    100  Bq   Isotropic =    25.8566   Anisotropy =    26.7005
   XX=    33.7557   YX=     1.1608   ZX=    -3.8195
   XY=     0.5536   YY=     6.1272   ZY=   -10.5913
   XZ=    -9.1747   YZ=    -4.2745   ZZ=    37.6869
   Eigenvalues:     4.4522    29.4606    43.6569
    101  Bq   Isotropic =    22.0307   Anisotropy =    18.4160
   XX=    24.5094   YX=    -3.4719   ZX=    -6.4522
   XY=    -1.1425   YY=    10.0368   ZY=   -10.4751
   XZ=     0.5085   YZ=    -4.2139   ZZ=    31.5459
   Eigenvalues:     7.2136    24.5705    34.3080
    102  Bq   Isotropic =    19.1737   Anisotropy =    17.0437
   XX=    21.2231   YX=    -2.9328   ZX=    -5.2409
   XY=    -0.3148   YY=     8.5609   ZY=    -5.8472
   XZ=    -3.5924   YZ=    -3.5120   ZZ=    27.7369
   Eigenvalues:     6.9891    19.9957    30.5361
    103  Bq   Isotropic =    23.8570   Anisotropy =    19.2180
   XX=    27.5911   YX=    -0.7598   ZX=    -5.6593
   XY=     0.3559   YY=     8.2880   ZY=    -6.6990
   XZ=     2.8362   YZ=    -2.6375   ZZ=    35.6918
   Eigenvalues:     7.5054    27.3966    36.6690
    104  Bq   Isotropic =    16.3830   Anisotropy =    17.4764
   XX=    17.9227   YX=    -3.3468   ZX=    -5.0394
   XY=    -0.1673   YY=     7.6485   ZY=    -5.5851
   XZ=    -7.3231   YZ=    -3.9399   ZZ=    23.5776
   Eigenvalues:     5.3249    15.7901    28.0339
    105  Bq   Isotropic =    25.2229   Anisotropy =    21.1265
   XX=    30.0117   YX=     1.0408   ZX=    -5.5344
   XY=     1.3972   YY=     7.2190   ZY=    -7.3035
   XZ=     3.4868   YZ=    -2.2575   ZZ=    38.4379
   Eigenvalues:     6.4562    29.9052    39.3072
    106  Bq   Isotropic =    13.6617   Anisotropy =    18.3407
   XX=    14.9120   YX=    -3.4450   ZX=    -4.9161
   XY=     0.1322   YY=     6.2908   ZY=    -5.3895
   XZ=   -10.4815   YZ=    -4.3306   ZZ=    19.7823
   Eigenvalues:     3.0553    12.0409    25.8889
    107  Bq   Isotropic =    25.8376   Anisotropy =    22.7450
   XX=    31.6260   YX=     3.1303   ZX=    -4.8745
   XY=     2.8974   YY=     6.1300   ZY=    -7.9440
   XZ=     1.2828   YZ=    -1.9491   ZZ=    39.7569
   Eigenvalues:     5.1353    31.3767    41.0010
    108  Bq   Isotropic =    11.1934   Anisotropy =    19.1854
   XX=    12.3389   YX=    -3.3342   ZX=    -4.8517
   XY=     0.4921   YY=     4.7334   ZY=    -5.2305
   XZ=   -12.7995   YZ=    -4.6722   ZZ=    16.5080
   Eigenvalues:     0.6297     8.9668    23.9837
    109  Bq   Isotropic =    25.9124   Anisotropy =    24.5962
   XX=    32.4005   YX=     5.1895   ZX=    -3.5866
   XY=     4.6262   YY=     5.7347   ZY=    -8.4577
   XZ=    -3.6612   YZ=    -1.6942   ZZ=    39.6020
   Eigenvalues:     4.3104    31.1169    42.3099
    110  Bq   Isotropic =     9.0722   Anisotropy =    19.7721
   XX=    10.2516   YX=    -3.1000   ZX=    -4.8101
   XY=     0.8551   YY=     3.1731   ZY=    -5.0857
   XZ=   -14.2438   YZ=    -4.9587   ZZ=    13.7918
   Eigenvalues:    -1.5392     6.5021    22.2536
    111  Bq   Isotropic =    25.7657   Anisotropy =    26.8943
   XX=    32.3688   YX=     6.8559   ZX=    -1.8814
   XY=     6.1991   YY=     6.5657   ZY=    -8.6406
   XZ=   -10.1082   YZ=    -1.4279   ZZ=    38.3625
   Eigenvalues:     4.6251    28.9767    43.6952
    112  Bq   Isotropic =    21.7654   Anisotropy =    17.5997
   XX=    24.5564   YX=    -2.0939   ZX=    -5.4884
   XY=    -0.1854   YY=     8.8019   ZY=    -6.2101
   XZ=     0.1100   YZ=    -3.0675   ZZ=    31.9381
   Eigenvalues:     7.7464    24.0514    33.4986
    113  Bq   Isotropic =    18.8894   Anisotropy =    16.8111
   XX=    21.1823   YX=    -2.0571   ZX=    -4.7878
   XY=     0.2264   YY=     7.9591   ZY=    -2.5399
   XZ=    -4.3158   YZ=    -3.0502   ZZ=    27.5268
   Eigenvalues:     7.3838    19.1876    30.0967
    114  Bq   Isotropic =    23.0111   Anisotropy =    19.7254
   XX=    26.7211   YX=     1.3462   ZX=    -5.4474
   XY=     2.0362   YY=     6.6346   ZY=    -1.6950
   XZ=     1.5195   YZ=    -0.5646   ZZ=    35.6777
   Eigenvalues:     6.4613    26.4107    36.1614
    115  Bq   Isotropic =    16.2051   Anisotropy =    17.1290
   XX=    17.9954   YX=    -2.7503   ZX=    -4.5330
   XY=     0.1459   YY=     7.3144   ZY=    -3.1807
   XZ=    -7.7749   YZ=    -4.0585   ZZ=    23.3054
   Eigenvalues:     5.8910    15.0998    27.6244
    116  Bq   Isotropic =    23.8718   Anisotropy =    22.4891
   XX=    28.2597   YX=     4.1733   ZX=    -5.4087
   XY=     4.0991   YY=     4.8525   ZY=    -2.0672
   XZ=     1.8585   YZ=     0.5690   ZZ=    38.5033
   Eigenvalues:     4.1375    28.6134    38.8645
    117  Bq   Isotropic =    13.5341   Anisotropy =    17.9393
   XX=    15.0116   YX=    -3.0038   ZX=    -4.4022
   XY=     0.3405   YY=     6.1081   ZY=    -3.7295
   XZ=   -10.6957   YZ=    -4.8329   ZZ=    19.4827
   Eigenvalues:     3.5328    11.5760    25.4937
    118  Bq   Isotropic =    23.9216   Anisotropy =    25.0854
   XX=    28.7172   YX=     7.4314   ZX=    -4.6634
   XY=     6.8419   YY=     3.1936   ZY=    -3.2741
   XZ=    -0.6532   YZ=     1.3173   ZZ=    39.8539
   Eigenvalues:     1.3317    29.7878    40.6452
    119  Bq   Isotropic =    11.0890   Anisotropy =    18.7741
   XX=    12.4268   YX=    -2.9813   ZX=    -4.3594
   XY=     0.6621   YY=     4.6316   ZY=    -4.1285
   XZ=   -12.8228   YZ=    -5.3914   ZZ=    16.2085
   Eigenvalues:     0.9364     8.7254    23.6050
    120  Bq   Isotropic =    23.5680   Anisotropy =    27.5900
   XX=    28.3041   YX=    10.5082   ZX=    -3.0216
   XY=     9.7831   YY=     2.7023   ZY=    -5.1789
   XZ=    -5.8519   YZ=     1.5554   ZZ=    39.6976
   Eigenvalues:    -0.8323    29.5750    41.9613
    121  Bq   Isotropic =     8.9785   Anisotropy =    19.3776
   XX=    10.3124   YX=    -2.8032   ZX=    -4.3538
   XY=     1.0180   YY=     3.1131   ZY=    -4.3742
   XZ=   -14.1269   YZ=    -5.7721   ZZ=    13.5101
   Eigenvalues:    -1.3682     6.4069    21.8969
    122  Bq   Isotropic =    23.3423   Anisotropy =    30.0560
   XX=    27.4188   YX=    12.6938   ZX=    -0.7281
   XY=    12.1924   YY=     4.1221   ZY=    -7.2339
   XZ=   -12.4097   YZ=     1.3846   ZZ=    38.4859
   Eigenvalues:    -1.2741    27.9214    43.3796
    123  Bq   Isotropic =    21.2738   Anisotropy =    17.5998
   XX=    24.2348   YX=    -0.7384   ZX=    -5.1415
   XY=     0.7850   YY=     7.7656   ZY=    -1.9577
   XZ=    -0.9043   YZ=    -1.8437   ZZ=    31.8209
   Eigenvalues:     7.6135    23.2008    33.0070
    124  Bq   Isotropic =    18.6734   Anisotropy =    16.9400
   XX=    21.0746   YX=    -1.2765   ZX=    -4.6703
   XY=     0.7335   YY=     7.9247   ZY=     0.5041
   XZ=    -5.4945   YZ=    -2.7147   ZZ=    27.0209
   Eigenvalues:     7.8342    18.2192    29.9667
    125  Bq   Isotropic =    21.5633   Anisotropy =    21.5223
[...]
   135  Bq   0.000000
   136  Bq   0.000000
   137  Bq   0.000000
   138  Bq   0.000000
   139  Bq   0.000000
   140  Bq   0.000000
   141  Bq   0.000000
   142  Bq   0.000000
   143  Bq   0.000000
   144  Bq   0.000000
   145  Bq   0.000000
   146  Bq   0.000000
   147  Bq   0.000000
   148  Bq   0.000000
   149  Bq   0.000000
   150  Bq   0.000000
   151  Bq   0.000000
   152  Bq   0.000000
   153  Bq   0.000000
   154  Bq   0.000000
   155  Bq   0.000000
   156  Bq   0.000000
   157  Bq   0.000000
   158  Bq   0.000000
   159  Bq   0.000000
   160  Bq   0.000000
   161  Bq   0.000000
   162  Bq   0.000000
   163  Bq   0.000000
   164  Bq   0.000000
   165  Bq   0.000000
   166  Bq   0.000000
   167  Bq   0.000000
   168  Bq   0.000000
   169  Bq   0.000000
   170  Bq   0.000000
   171  Bq   0.000000
   172  Bq   0.000000
   173  Bq   0.000000
   174  Bq   0.000000
   175  Bq   0.000000
   176  Bq   0.000000
   177  Bq   0.000000
   178  Bq   0.000000
   179  Bq   0.000000
   180  Bq   0.000000
   181  Bq   0.000000
   182  Bq   0.000000
   183  Bq   0.000000
   184  Bq   0.000000
   185  Bq   0.000000
   186  Bq   0.000000
   187  Bq   0.000000
   188  Bq   0.000000
   189  Bq   0.000000
   190  Bq   0.000000
   191  Bq   0.000000
   192  Bq   0.000000
   193  Bq   0.000000
   194  Bq   0.000000
   195  Bq   0.000000
   196  Bq   0.000000
   197  Bq   0.000000
   198  Bq   0.000000
   199  Bq   0.000000
   200  Bq   0.000000
   201  Bq   0.000000
   202  Bq   0.000000
   203  Bq   0.000000
   204  Bq   0.000000
   205  Bq   0.000000
   206  Bq   0.000000
   207  Bq   0.000000
   208  Bq   0.000000
   209  Bq   0.000000
   210  Bq   0.000000
   211  Bq   0.000000
   212  Bq   0.000000
   213  Bq   0.000000
   214  Bq   0.000000
   215  Bq   0.000000
   216  Bq   0.000000
   217  Bq   0.000000
   218  Bq   0.000000
   219  Bq   0.000000
   220  Bq   0.000000
   221  Bq   0.000000
   222  Bq   0.000000
   223  Bq   0.000000
   224  Bq   0.000000
   225  Bq   0.000000
   226  Bq   0.000000
   227  Bq   0.000000
   228  Bq   0.000000
   229  Bq   0.000000
   230  Bq   0.000000
   231  Bq   0.000000
   232  Bq   0.000000
   233  Bq   0.000000
   234  Bq   0.000000
   235  Bq   0.000000
   236  Bq   0.000000
 Sum of Mulliken charges =   0.00000
 Mulliken charges with hydrogens summed into heavy atoms:
               1
     1  C   -0.255498
     3  C    0.169409
     5  C    0.448258
     6  C    0.064351
     7  C   -0.333926
     9  C   -0.139521
    11  C   -0.205988
    13  C   -0.119315
    15  C    0.653397
    16  C    0.034822
    17  C   -0.317410
    19  C   -0.316854
    21  C    0.651066
    22  C    0.037784
    23  C   -0.117289
    25  C   -0.205316
    27  C    0.448331
    28  C    0.061983
    29  C   -0.333381
    31  C   -0.139505
    33  C   -0.379734
    35  C    0.170579
    37  Bq   0.000000
    38  Bq   0.000000
    39  Bq   0.000000
    40  Bq   0.000000
    41  Bq   0.000000
    42  Bq   0.000000
    43  Bq   0.000000
    44  Bq   0.000000
    45  Bq   0.000000
    46  Bq   0.000000
    47  Bq   0.000000
    48  Bq   0.000000
    49  Bq   0.000000
    50  Bq   0.000000
    51  Bq   0.000000
    52  Bq   0.000000
    53  Bq   0.000000
    54  Bq   0.000000
    55  Bq   0.000000
    56  Bq   0.000000
    57  Bq   0.000000
    58  Bq   0.000000
    59  Bq   0.000000
    60  Bq   0.000000
    61  Bq   0.000000
    62  Bq   0.000000
    63  Bq   0.000000
    64  Bq   0.000000
    65  Bq   0.000000
    66  Bq   0.000000
    67  Bq   0.000000
    68  Bq   0.000000
    69  Bq   0.000000
    70  Bq   0.000000
    71  Bq   0.000000
    72  Bq   0.000000
    73  Bq   0.000000
    74  Bq   0.000000
    75  Bq   0.000000
    76  Bq   0.000000
    77  Bq   0.000000
    78  Bq   0.000000
    79  Bq   0.000000
    80  Bq   0.000000
    81  Bq   0.000000
    82  Bq   0.000000
    83  Bq   0.000000
    84  Bq   0.000000
    85  Bq   0.000000
    86  Bq   0.000000
    87  Bq   0.000000
    88  Bq   0.000000
    89  Bq   0.000000
    90  Bq   0.000000
    91  Bq   0.000000
    92  Bq   0.000000
    93  Bq   0.000000
    94  Bq   0.000000
    95  Bq   0.000000
    96  Bq   0.000000
    97  Bq   0.000000
    98  Bq   0.000000
    99  Bq   0.000000
   100  Bq   0.000000
   101  Bq   0.000000
   102  Bq   0.000000
   103  Bq   0.000000
   104  Bq   0.000000
   105  Bq   0.000000
   106  Bq   0.000000
   107  Bq   0.000000
   108  Bq   0.000000
   109  Bq   0.000000
   110  Bq   0.000000
   111  Bq   0.000000
   112  Bq   0.000000
   113  Bq   0.000000
   114  Bq   0.000000
   115  Bq   0.000000
   116  Bq   0.000000
   117  Bq   0.000000
   118  Bq   0.000000
   119  Bq   0.000000
   120  Bq   0.000000
   121  Bq   0.000000
   122  Bq   0.000000
   123  Bq   0.000000
   124  Bq   0.000000
   125  Bq   0.000000
   126  Bq   0.000000
   127  Bq   0.000000
   128  Bq   0.000000
   129  Bq   0.000000
   130  Bq   0.000000
   131  Bq   0.000000
   132  Bq   0.000000
   133  Bq   0.000000
   134  Bq   0.000000
   135  Bq   0.000000
   136  Bq   0.000000
   137  Bq   0.000000
   138  Bq   0.000000
   139  Bq   0.000000
   140  Bq   0.000000
   141  Bq   0.000000
   142  Bq   0.000000
   143  Bq   0.000000
   144  Bq   0.000000
   145  Bq   0.000000
   146  Bq   0.000000
   147  Bq   0.000000
   148  Bq   0.000000
   149  Bq   0.000000
   150  Bq   0.000000
   151  Bq   0.000000
   152  Bq   0.000000
   153  Bq   0.000000
   154  Bq   0.000000
   155  Bq   0.123756
   156  Bq   0.000000
   157  Bq   0.000000
   158  Bq   0.000000
   159  Bq   0.000000
   160  Bq   0.000000
   161  Bq   0.000000
   162  Bq   0.000000
   163  Bq   0.000000
   164  Bq   0.000000
   165  Bq   0.000000
   166  Bq   0.000000
   167  Bq   0.000000
   168  Bq   0.000000
   169  Bq   0.000000
   170  Bq   0.000000
   171  Bq   0.000000
   172  Bq   0.000000
   173  Bq   0.000000
   174  Bq   0.000000
   175  Bq   0.000000
   176  Bq   0.000000
   177  Bq   0.000000
   178  Bq   0.000000
   179  Bq   0.000000
   180  Bq   0.000000
   181  Bq   0.000000
   182  Bq   0.000000
   183  Bq   0.000000
   184  Bq   0.000000
   185  Bq   0.000000
   186  Bq   0.000000
   187  Bq   0.000000
   188  Bq   0.000000
   189  Bq   0.000000
   190  Bq   0.000000
   191  Bq   0.000000
   192  Bq   0.000000
   193  Bq   0.000000
   194  Bq   0.000000
   195  Bq   0.000000
   196  Bq   0.000000
   197  Bq   0.000000
   198  Bq   0.000000
   199  Bq   0.000000
   200  Bq   0.000000
   201  Bq   0.000000
   202  Bq   0.000000
   203  Bq   0.000000
   204  Bq   0.000000
   205  Bq   0.000000
   206  Bq   0.000000
   207  Bq   0.000000
   208  Bq   0.000000
   209  Bq   0.000000
   210  Bq   0.000000
   211  Bq   0.000000
   212  Bq   0.000000
   213  Bq   0.000000
   214  Bq   0.000000
   215  Bq   0.000000
   216  Bq   0.000000
   217  Bq   0.000000
   218  Bq   0.000000
   219  Bq   0.000000
   220  Bq   0.000000
   221  Bq   0.000000
   222  Bq   0.000000
   223  Bq   0.000000
   224  Bq   0.000000
   225  Bq   0.000000
   226  Bq   0.000000
   227  Bq   0.000000
   228  Bq   0.000000
   229  Bq   0.000000
   230  Bq   0.000000
   231  Bq   0.000000
   232  Bq   0.000000
   233  Bq   0.000000
   234  Bq   0.000000
   235  Bq   0.000000
   236  Bq   0.000000
 Electronic spatial extent (au):  <R**2>=           5736.9264
 Charge=              0.0000 electrons
 Dipole moment (field-independent basis, Debye):
    X=              0.0475    Y=              0.0856    Z=              0.0029  Tot=              0.0979
 Quadrupole moment (field-independent basis, Debye-Ang):
   XX=           -113.7056   YY=           -113.9456   ZZ=           -133.2669
   XY=             -0.3834   XZ=              3.2102   YZ=             -1.1839
 Traceless Quadrupole moment (field-independent basis, Debye-Ang):
   XX=              6.6005   YY=              6.3604   ZZ=            -12.9609
   XY=             -0.3834   XZ=              3.2102   YZ=             -1.1839
 Octapole moment (field-independent basis, Debye-Ang**2):
  XXX=            -16.4668  YYY=            -16.1860  ZZZ=             -1.7007  XYY=              2.5576
  XXY=             -6.5650  XXZ=             13.6547  XZZ=             -8.9478  YZZ=            -17.7168
  YYZ=            -13.2941  XYZ=              8.8036
 Hexadecapole moment (field-independent basis, Debye-Ang**3):
 XXXX=          -3951.1638 YYYY=          -3112.2161 ZZZZ=           -504.8311 XXXY=            340.6935
 XXXZ=            156.4968 YYYX=            335.5625 YYYZ=            -87.0893 ZZZX=            120.2262
 ZZZY=           -108.7373 XXYY=          -1176.4844 XXZZ=           -856.7291 YYZZ=           -665.7275
 XXYZ=            -68.9016 YYXZ=             48.1602 ZZXY=            153.0375
 N-N= 1.610917615562D+03 E-N=-5.186891130729D+03  KE= 8.436329774448D+02
 1\1\GINC-PLANA\SP\RB3LYP\6-311+G(d,p)\C22H14\YANNICK\21-Aug-2020\0\\# 
 rb3lyp/6-311+g** NMR geom=connectivity\\Title\\0,1\C,0,-4.0500558,-0.5
 771862,0.8136712\H,0,-5.0263804,-1.0082727,1.002476\C,0,-3.9381552,0.6
 617804,0.2400876\H,0,-4.8252424,1.233889,-0.0111295\C,0,-2.676841,1.24
 33246,0.0057578\C,0,-1.4974121,0.5051527,0.2848253\C,0,-1.6508332,-0.7
 338728,0.9404026\H,0,-0.7713646,-1.2730967,1.2633753\C,0,-2.8898548,-1
 .2624035,1.1994307\H,0,-2.9683706,-2.2124563,1.7152676\C,0,-2.5773185,
 2.5963696,-0.419293\H,0,-3.4870728,3.1412239,-0.6474055\C,0,-1.3741895
 ,3.2147896,-0.436403\H,0,-1.2997315,4.2742019,-0.6578144\C,0,-0.171948
 8,2.499409,-0.1734588\C,0,-0.2043917,1.1018437,0.0192689\C,0,1.0513491
 ,3.204256,-0.0676222\H,0,1.0427344,4.2819499,-0.1896997\C,0,2.1942091,
 2.5487446,0.2579577\H,0,3.1168527,3.0912848,0.4334727\C,0,2.2216473,1.
 1336562,0.293499\C,0,1.0486931,0.3945528,0.0302412\C,0,3.4483363,0.461
 4633,0.5573939\H,0,4.3095794,1.0606054,0.8334846\C,0,3.5427346,-0.8855
 926,0.4749463\H,0,4.4731467,-1.3939704,0.7038822\C,0,2.4490052,-1.6474
 447,-0.0196319\C,0,1.2150704,-1.0057258,-0.3013573\C,0,0.2531113,-1.74
 3444,-1.0216591\H,0,-0.6541356,-1.2535051,-1.3462847\C,0,0.4494193,-3.
 0628597,-1.3413779\H,0,-0.3083162,-3.5944309,-1.905406\C,0,1.6251726,-
 3.7207967,-0.9552541\H,0,1.7670048,-4.7687404,-1.1927019\C,0,2.6109872
 ,-3.0144177,-0.318305\H,0,3.5525612,-3.4902813,-0.0646367\Bq,0,1.28034
 14509,-0.9299563144,0.1619001314\Bq,0,1.1607561595,-1.0098032677,0.425
 1943056\Bq,0,1.3202032146,-0.9033406633,0.0741354067\Bq,0,1.1208943957
 ,-1.0364189188,0.5129590303\Bq,0,1.3600649784,-0.8767250122,-0.0136293
 18\Bq,0,1.0810326319,-1.0630345699,0.600723755\Bq,0,1.3999267422,-0.85
 0109361,-0.1013940427\Bq,0,1.0411708681,-1.089650221,0.6884884797\Bq,0
 ,1.439788506,-0.8234937099,-0.1891587674\Bq,0,1.2404796871,-0.95657196
 55,0.2496648561\Bq,0,1.1896114499,-0.8867946339,0.3616628313\Bq,0,1.26
 93349775,-0.8335633317,0.1861333819\Bq,0,1.1497496861,-0.913410285,0.4
 49427556\Bq,0,1.3091967413,-0.8069476805,0.0983686572\Bq,0,1.109887922
 3,-0.9400259361,0.5371922807\Bq,0,1.3490585051,-0.7803320294,0.0106039
 325\Bq,0,1.0700261585,-0.9666415872,0.6249570055\Bq,0,1.3889202688,-0.
 7537163783,-0.0771607922\Bq,0,1.0301643948,-0.9932572383,0.7127217302\
 Bq,0,1.4287820326,-0.7271007272,-0.164925517\Bq,0,1.2294732137,-0.8601
 789828,0.2738981066\Bq,0,1.1786049765,-0.7904016512,0.3858960818\Bq,0,
 1.2583285041,-0.7371703489,0.2103666324\Bq,0,1.1387432128,-0.817017302
 3,0.4736608065\Bq,0,1.2981902679,-0.7105546978,0.1226019076\Bq,0,1.098
 881449,-0.8436329534,0.5614255312\Bq,0,1.3380520317,-0.6839390467,0.03
 48371829\Bq,0,1.0590196852,-0.8702486045,0.6491902559\Bq,0,1.377913795
 5,-0.6573233956,-0.0529275418\Bq,0,1.0191579214,-0.8968642556,0.736954
 9806\Bq,0,1.4177755593,-0.6307077445,-0.1406922665\Bq,0,1.2184667403,-
 0.763786,0.2981313571\Bq,0,1.1675985032,-0.6940086684,0.4101293322\Bq,
 0,1.2473220307,-0.6407773662,0.2345998828\Bq,0,1.1277367394,-0.7206243
 196,0.4978940569\Bq,0,1.2871837945,-0.6141617151,0.1468351581\Bq,0,1.0
 878749756,-0.7472399707,0.5856587817\Bq,0,1.3270455583,-0.587546064,0.
 0590704334\Bq,0,1.0480132118,-0.7738556218,0.6734235064\Bq,0,1.3669073
 221,-0.5609304129,-0.0286942913\Bq,0,1.008151448,-0.8004712729,0.76118
 82311\Bq,0,1.4067690859,-0.5343147618,-0.116459016\Bq,0,1.207460267,-0
 .6673930173,0.3223646075\Bq,0,1.1565920298,-0.5976156857,0.4343625827\
 Bq,0,1.2363155574,-0.5443843835,0.2588331333\Bq,0,1.116730266,-0.62423
 13368,0.5221273074\Bq,0,1.2761773212,-0.5177687324,0.1710684086\Bq,0,1
 .0768685022,-0.6508469879,0.6098920321\Bq,0,1.3160390849,-0.4911530813
 ,0.0833036838\Bq,0,1.0370067384,-0.6774626391,0.6976567568\Bq,0,1.3559
 008487,-0.4645374302,-0.0044610409\Bq,0,0.9971449746,-0.7040782902,0.7
 854214815\Bq,0,1.3957626125,-0.4379217791,-0.0922257656\Bq,0,1.1964537
 936,-0.5710000346,0.346597858\Bq,0,1.1455855564,-0.501222703,0.4585958
 332\Bq,0,1.225309084,-0.4479914008,0.2830663837\Bq,0,1.1057237926,-0.5
 278383541,0.5463605579\Bq,0,1.2651708478,-0.4213757497,0.195301659\Bq,
 0,1.0658620288,-0.5544540052,0.6341252826\Bq,0,1.3050326116,-0.3947600
 986,0.1075369343\Bq,0,1.0260002651,-0.5810696563,0.7218900073\Bq,0,1.3
 448943754,-0.3681444475,0.0197722096\Bq,0,0.9861385013,-0.6076853074,0
 .809654732\Bq,0,1.3847561391,-0.3415287964,-0.0679925151\Bq,0,1.185447
 3202,-0.4746070519,0.3708311084\Bq,0,1.134579083,-0.4048297203,0.48282
 90836\Bq,0,1.2143026106,-0.3515984181,0.3072996342\Bq,0,1.0947173193,-
 0.4314453714,0.5705938083\Bq,0,1.2541643744,-0.324982767,0.2195349095\
 Bq,0,1.0548555555,-0.4580610225,0.658358533\Bq,0,1.2940261382,-0.29836
 71159,0.1317701848\Bq,0,1.0149937917,-0.4846766736,0.7461232577\Bq,0,1
 .333887902,-0.2717514648,0.04400546\Bq,0,0.9751320279,-0.5112923247,0.
 8338879825\Bq,0,1.3737496658,-0.2451358137,-0.0437592647\Bq,0,1.174440
 8468,-0.3782140692,0.3950643589\Bq,0,1.1235726097,-0.3084367376,0.5070
 623341\Bq,0,1.2032961373,-0.2552054354,0.3315328846\Bq,0,1.0837108459,
 -0.3350523887,0.5948270588\Bq,0,1.243157901,-0.2285897843,0.2437681599
 \Bq,0,1.0438490821,-0.3616680398,0.6825917835\Bq,0,1.2830196648,-0.201
 9741332,0.1560034352\Bq,0,1.0039873183,-0.3882836909,0.7703565082\Bq,0
 ,1.3228814286,-0.1753584821,0.0682387105\Bq,0,0.9641255545,-0.41489934
 2,0.8581212329\Bq,0,1.3627431924,-0.148742831,-0.0195260142\Bq,0,1.163
 4343735,-0.2818210865,0.4192976094\Bq,0,1.1125661363,-0.2120437549,0.5
 312955845\Bq,0,1.1922896639,-0.1588124527,0.3557661351\Bq,0,1.07270437
 25,-0.238659406,0.6190603092\Bq,0,1.2321514277,-0.1321968016,0.2680014
 104\Bq,0,1.0328426087,-0.2652750571,0.706825034\Bq,0,1.2720131915,-0.1
 055811505,0.1802366857\Bq,0,0.9929808449,-0.2918907082,0.7945897587\Bq
 ,0,1.3118749552,-0.0789654993,0.092471961\Bq,0,0.9531190812,-0.3185063
 593,0.8823544834\Bq,0,1.351736719,-0.0523498482,0.0047072362\Bq,0,1.15
 24279001,-0.1854281038,0.4435308598\Bq,0,1.1015596629,-0.1156507722,0.
 555528835\Bq,0,1.1812831905,-0.06241947,0.3799993856\Bq,0,1.0616978991
 ,-0.1422664233,0.6432935597\Bq,0,1.2211449543,-0.0358038189,0.29223466
 08\Bq,0,1.0218361354,-0.1688820744,0.7310582844\Bq,0,1.2610067181,-0.0
 091881677,0.2044699361\Bq,0,0.9819743716,-0.1954977255,0.8188230091\Bq
 ,0,1.3008684819,0.0174274834,0.1167052114\Bq,0,0.9421126078,-0.2221133
 766,0.9065877338\Bq,0,1.3407302457,0.0440431345,0.0289404867\Bq,0,1.14
 14214267,-0.0890351211,0.4677641103\Bq,0,1.7429322049,-4.9352999078,-0
 .6147803003\Bq,0,1.8226557324,-4.8820686056,-0.7903097497\Bq,0,1.70307
 04411,-4.9619155589,-0.5270155756\Bq,0,1.8625174962,-4.8554529545,-0.8
 780744744\Bq,0,1.6632086773,-4.98853121,-0.4392508509\Bq,0,1.90237926,
 -4.8288373034,-0.9658391991\Bq,0,1.6233469135,-5.0151468611,-0.3514861
 262\Bq,0,1.9422410238,-4.8022216522,-1.0536039239\Bq,0,1.5834851497,-5
 .0417625122,-0.2637214014\Bq,0,1.9821027876,-4.7756060011,-1.141368648
 6\Bq,0,1.7827939686,-4.9086842567,-0.702545025\Bq,0,1.7319257315,-4.83
 89069251,-0.5905470498\Bq,0,1.8116492591,-4.7856756229,-0.7660764993\B
 q,0,1.6920639677,-4.8655225762,-0.5027823251\Bq,0,1.8515110228,-4.7590
 599717,-0.853841224\Bq,0,1.6522022039,-4.8921382273,-0.4150176004\Bq,0
 ,1.8913727866,-4.7324443206,-0.9416059487\Bq,0,1.6123404401,-4.9187538
 784,-0.3272528757\Bq,0,1.9312345504,-4.7058286695,-1.0293706734\Bq,0,1
 .5724786763,-4.9453695295,-0.239488151\Bq,0,1.9710963142,-4.6792130184
 ,-1.1171353981\Bq,0,1.7717874953,-4.812291274,-0.6783117745\Bq,0,1.720
 9192581,-4.7425139424,-0.5663137994\Bq,0,1.8006427857,-4.6892826401,-0
 .7418432488\Bq,0,1.6810574943,-4.7691295935,-0.4785490747\Bq,0,1.84050
 45495,-4.662666989,-0.8296079735\Bq,0,1.6411957305,-4.7957452446,-0.39
 07843499\Bq,0,1.8803663133,-4.6360513379,-0.9173726982\Bq,0,1.60133396
 67,-4.8223608957,-0.3030196252\Bq,0,1.920228077,-4.6094356868,-1.00513
 74229\Bq,0,1.561472203,-4.8489765468,-0.2152549005\Bq,0,1.9600898408,-
 4.5828200357,-1.0929021476\Bq,0,1.7607810219,-4.7158982912,-0.65407852
 41\Bq,0,1.7099127847,-4.6461209596,-0.5420805489\Bq,0,1.7896363123,-4.
 5928896574,-0.7176099983\Bq,0,1.6700510209,-4.6727366108,-0.4543158242
 \Bq,0,1.8294980761,-4.5662740063,-0.8053747231\Bq,0,1.6301892572,-4.69
 93522619,-0.3665510995\Bq,0,1.8693598399,-4.5396583552,-0.8931394478\B
 q,0,1.5903274934,-4.725967913,-0.2787863748\Bq,0,1.9092216037,-4.51304
 27041,-0.9809041725\Bq,0,1.5504657296,-4.7525835641,-0.1910216501\Bq,0
 ,1.9490833675,-4.486427053,-1.0686688972\Bq,0,1.7497745485,-4.61950530
 85,-0.6298452736\Bq,0,1.6989063114,-4.5497279769,-0.5178472985\Bq,0,1.
 7786298389,-4.4964966747,-0.6933767479\Bq,0,1.6590445476,-4.576343628,
 -0.4300825737\Bq,0,1.8184916027,-4.4698810236,-0.7811414726\Bq,0,1.619
 1827838,-4.6029592791,-0.342317849\Bq,0,1.8583533665,-4.4432653725,-0.
 8689061973\Bq,0,1.57932102,-4.6295749303,-0.2545531243\Bq,0,1.89821513
 03,-4.4166497214,-0.956670922\Bq,0,1.5394592562,-4.6561905814,-0.16678
 83996\Bq,0,1.9380768941,-4.3900340703,-1.0444356467\Bq,0,1.7387680752,
 -4.5231123258,-0.6056120232\Bq,0,1.687899838,-4.4533349942,-0.49361404
 8\Bq,0,1.7676233656,-4.400103692,-0.6691434974\Bq,0,1.6480380742,-4.47
 99506453,-0.4058493233\Bq,0,1.8074851294,-4.3734880409,-0.7569082221\B
 q,0,1.6081763104,-4.5065662964,-0.3180845986\Bq,0,1.8473468931,-4.3468
 723898,-0.8446729468\Bq,0,1.5683145466,-4.5331819475,-0.2303198739\Bq,
 0,1.8872086569,-4.3202567387,-0.9324376716\Bq,0,1.5284527828,-4.559797
 5986,-0.1425551491\Bq,0,1.9270704207,-4.2936410876,-1.0202023963\Bq,0,
 1.7277616018,-4.4267193431,-0.5813787727\Bq,0,1.6768933646,-4.35694201
 15,-0.4693807975\Bq,0,1.7566168922,-4.3037107093,-0.644910247\Bq,0,1.6
 370316008,-4.3835576626,-0.3816160728\Bq,0,1.796478656,-4.2770950582,-
 0.7326749717\Bq,0,1.597169837,-4.4101733137,-0.2938513481\Bq,0,1.83634
 04198,-4.2504794071,-0.8204396964\Bq,0,1.5573080733,-4.4367889648,-0.2
 060866234\Bq,0,1.8762021836,-4.223863756,-0.9082044211\Bq,0,1.51744630
 95,-4.4634046159,-0.1183218987\Bq,0,1.9160639473,-4.1972481049,-0.9959
 691458\Bq,0,1.7167551284,-4.3303263604,-0.5571455223\Bq,0,1.6658868912
 ,-4.2605490288,-0.4451475471\Bq,0,1.7456104188,-4.2073177266,-0.620676
 9965\Bq,0,1.6260251275,-4.2871646799,-0.3573828224\Bq,0,1.7854721826,-
 4.1807020755,-0.7084417212\Bq,0,1.5861633637,-4.313780331,-0.269618097
 7\Bq,0,1.8253339464,-4.1540864244,-0.7962064459\Bq,0,1.5463015999,-4.3
 403959821,-0.1818533729\Bq,0,1.8651957102,-4.1274707733,-0.8839711706\
 Bq,0,1.5064398361,-4.3670116332,-0.0940886482\Bq,0,1.905057474,-4.1008
 551222,-0.9717358954\Bq,0,1.705748655,-4.2339333777,-0.5329122718\Bq,0
 ,1.6548804179,-4.1641560461,-0.4209142966\Bq,0,1.7346039454,-4.1109247
 439,-0.5964437461\Bq,0,1.6150186541,-4.1907716972,-0.3331495719\\Versi
 on=ES64L-G09RevD.01\HF=-847.0032898\RMSD=7.505e-09\Dipole=0.0186808,0.
 0336671,0.0011595\Quadrupole=4.9072795,4.7288219,-9.6361014,-0.2850201
 ,2.3867064,-0.880172\PG=C01 [X(C22H14)]\\@


 SOME PEOPLE TRY TO PULL THE WOOL OVER YOUR EYES
 USING THE WRONG YARN.
 Job cpu time:       0 days  3 hours 40 minutes 11.3 seconds.
 File lengths (MBytes):  RWF=    184 Int=      0 D2E=      0 Chk=     19 Scr=      1
 Normal termination of Gaussian 09 at Fri Aug 21 15:44:36 2020.
