 Entering Gaussian System, Link 0=g09
 Input=input_cycle_05_batch_16600.com
 Output=input_cycle_05_batch_16600.log
 Initial command:
 /share/programs/GAUSSIAN/64/g09/l1.exe "/scratch/yannick.30768/Gau-2940422.inp" -scrdir="/scratch/yannick.30768/"
 Entering Link 1 = /share/programs/GAUSSIAN/64/g09/l1.exe PID=   2940423.
  
 Copyright (c) 1988,1990,1992,1993,1995,1998,2003,2009,2013,
            Gaussian, Inc.  All Rights Reserved.
  
 This is part of the Gaussian(R) 09 program.  It is based on
 the Gaussian(R) 03 system (copyright 2003, Gaussian, Inc.),
 the Gaussian(R) 98 system (copyright 1998, Gaussian, Inc.),
 the Gaussian(R) 94 system (copyright 1995, Gaussian, Inc.),
 the Gaussian 92(TM) system (copyright 1992, Gaussian, Inc.),
 the Gaussian 90(TM) system (copyright 1990, Gaussian, Inc.),
 the Gaussian 88(TM) system (copyright 1988, Gaussian, Inc.),
 the Gaussian 86(TM) system (copyright 1986, Carnegie Mellon
 University), and the Gaussian 82(TM) system (copyright 1983,
 Carnegie Mellon University). Gaussian is a federally registered
 trademark of Gaussian, Inc.
  
 This software contains proprietary and confidential information,
 including trade secrets, belonging to Gaussian, Inc.
  
 This software is provided under written license and may be
 used, copied, transmitted, or stored only in accord with that
 written license.
  
 The following legend is applicable only to US Government
 contracts under FAR:
  
                    RESTRICTED RIGHTS LEGEND
  
 Use, reproduction and disclosure by the US Government is
 subject to restrictions as set forth in subparagraphs (a)
 and (c) of the Commercial Computer Software - Restricted
 Rights clause in FAR 52.227-19.
  
 Gaussian, Inc.
 340 Quinnipiac St., Bldg. 40, Wallingford CT 06492
  
  
 ---------------------------------------------------------------
 Warning -- This program may not be used in any manner that
 competes with the business of Gaussian, Inc. or will provide
 assistance to any competitor of Gaussian, Inc.  The licensee
 of this program is prohibited from giving any competitor of
 Gaussian, Inc. access to this program.  By using this program,
 the user acknowledges that Gaussian, Inc. is engaged in the
 business of creating and licensing software in the field of
 computational chemistry and represents and warrants to the
 licensee that it is not a competitor of Gaussian, Inc. and that
 it will not use this program in any manner prohibited above.
 ---------------------------------------------------------------
  

 Cite this work as:
 Gaussian 09, Revision D.01,
 M. J. Frisch, G. W. Trucks, H. B. Schlegel, G. E. Scuseria, 
 M. A. Robb, J. R. Cheeseman, G. Scalmani, V. Barone, B. Mennucci, 
 G. A. Petersson, H. Nakatsuji, M. Caricato, X. Li, H. P. Hratchian, 
 A. F. Izmaylov, J. Bloino, G. Zheng, J. L. Sonnenberg, M. Hada, 
 M. Ehara, K. Toyota, R. Fukuda, J. Hasegawa, M. Ishida, T. Nakajima, 
 Y. Honda, O. Kitao, H. Nakai, T. Vreven, J. A. Montgomery, Jr., 
 J. E. Peralta, F. Ogliaro, M. Bearpark, J. J. Heyd, E. Brothers, 
 K. N. Kudin, V. N. Staroverov, T. Keith, R. Kobayashi, J. Normand, 
 K. Raghavachari, A. Rendell, J. C. Burant, S. S. Iyengar, J. Tomasi, 
 M. Cossi, N. Rega, J. M. Millam, M. Klene, J. E. Knox, J. B. Cross, 
 V. Bakken, C. Adamo, J. Jaramillo, R. Gomperts, R. E. Stratmann, 
 O. Yazyev, A. J. Austin, R. Cammi, C. Pomelli, J. W. Ochterski, 
 R. L. Martin, K. Morokuma, V. G. Zakrzewski, G. A. Voth, 
 P. Salvador, J. J. Dannenberg, S. Dapprich, A. D. Daniels, 
 O. Farkas, J. B. Foresman, J. V. Ortiz, J. Cioslowski, 
 and D. J. Fox, Gaussian, Inc., Wallingford CT, 2013.
 
 ******************************************
 Gaussian 09:  ES64L-G09RevD.01 24-Apr-2013
                23-Aug-2020 
 ******************************************
 %nproc=8
 Will use up to    8 processors via shared memory.
 %mem=1000MB
 ----------------------------------------
 # rb3lyp/6-311+g** NMR geom=connectivity
 ----------------------------------------
 1/38=1,57=2/1;
 2/12=2,17=6,18=5,40=1/2;
 3/5=4,6=6,7=111,11=2,16=1,25=1,30=1,74=-5,116=1/1,2,8,3;
 4//1;
 5/5=2,38=5/2;
 8/6=1,10=90,11=11/1;
 10/13=100,45=16/2;
 6/7=2,8=2,9=2,10=2,28=1/1;
 99/9=1/99;
 -----
 Title
 -----
 Symbolic Z-matrix:
 Charge =  0 Multiplicity = 1
 C                    -4.05006  -0.57719   0.81367 
 H                    -5.02638  -1.00827   1.00248 
 C                    -3.93816   0.66178   0.24009 
 H                    -4.82524   1.23389  -0.01113 
 C                    -2.67684   1.24332   0.00576 
 C                    -1.49741   0.50515   0.28483 
 C                    -1.65083  -0.73387   0.9404 
 H                    -0.77136  -1.2731    1.26338 
 C                    -2.88985  -1.2624    1.19943 
 H                    -2.96837  -2.21246   1.71527 
 C                    -2.57732   2.59637  -0.41929 
 H                    -3.48707   3.14122  -0.64741 
 C                    -1.37419   3.21479  -0.4364 
 H                    -1.29973   4.2742   -0.65781 
 C                    -0.17195   2.49941  -0.17346 
 C                    -0.20439   1.10184   0.01927 
 C                     1.05135   3.20426  -0.06762 
 H                     1.04273   4.28195  -0.1897 
 C                     2.19421   2.54874   0.25796 
 H                     3.11685   3.09128   0.43347 
 C                     2.22165   1.13366   0.2935 
 C                     1.04869   0.39455   0.03024 
 C                     3.44834   0.46146   0.55739 
 H                     4.30958   1.06061   0.83348 
 C                     3.54273  -0.88559   0.47495 
 H                     4.47315  -1.39397   0.70388 
 C                     2.44901  -1.64744  -0.01963 
 C                     1.21507  -1.00573  -0.30136 
 C                     0.25311  -1.74344  -1.02166 
 H                    -0.65414  -1.25351  -1.34628 
 C                     0.44942  -3.06286  -1.34138 
 H                    -0.30832  -3.59443  -1.90541 
 C                     1.62517  -3.7208   -0.95525 
 H                     1.767    -4.76874  -1.1927 
 C                     2.61099  -3.01442  -0.31831 
 H                     3.55256  -3.49028  -0.06464 
 Bq                   -2.38513   0.68395   0.90516 
 Bq                   -2.38442   0.59699   0.72506 
 Bq                   -2.38549   0.72744   0.99521 
 Bq                   -2.38407   0.5535    0.63501 
 Bq                   -2.38584   0.77092   1.08526 
 Bq                   -2.38372   0.51002   0.54496 
 Bq                   -2.38619   0.8144    1.17531 
 Bq                   -2.38336   0.46654   0.45491 
 Bq                   -2.38655   0.85788   1.26536 
 Bq                   -2.38301   0.42306   0.36486 
 Bq                   -2.38478   0.64047   0.81511 
 Bq                   -2.38496   0.774     0.86168 
 Bq                   -2.38425   0.68704   0.68158 
 Bq                   -2.38531   0.81749   0.95173 
 Bq                   -2.3839    0.64356   0.59153 
 Bq                   -2.38567   0.86097   1.04178 
 Bq                   -2.38354   0.60007   0.50148 
 Bq                   -2.38602   0.90445   1.13183 
 Bq                   -2.38319   0.55659   0.41142 
 Bq                   -2.38638   0.94793   1.22188 
 Bq                   -2.38284   0.51311   0.32137 
 Bq                   -2.38461   0.73052   0.77163 
 Bq                   -2.38479   0.86406   0.8182 
 Bq                   -2.38408   0.77709   0.63809 
 Bq                   -2.38514   0.90754   0.90825 
 Bq                   -2.38373   0.73361   0.54804 
 Bq                   -2.3855    0.95102   0.9983 
 Bq                   -2.38337   0.69012   0.45799 
 Bq                   -2.38585   0.9945    1.08835 
 Bq                   -2.38302   0.64664   0.36794 
 Bq                   -2.38621   1.03799   1.1784 
 Bq                   -2.38267   0.60316   0.27789 
 Bq                   -2.38444   0.82057   0.72815 
 Bq                   -2.38462   0.95411   0.77471 
 Bq                   -2.38391   0.86714   0.59461 
 Bq                   -2.38497   0.99759   0.86476 
 Bq                   -2.38356   0.82366   0.50456 
 Bq                   -2.38533   1.04107   0.95481 
 Bq                   -2.3832    0.78018   0.41451 
 Bq                   -2.38568   1.08455   1.04487 
 Bq                   -2.38285   0.73669   0.32446 
 Bq                   -2.38603   1.12804   1.13492 
 Bq                   -2.38249   0.69321   0.23441 
 Bq                   -2.38426   0.91062   0.68466 
 Bq                   -2.38445   1.04416   0.73123 
 Bq                   -2.38374   0.95719   0.55113 
 Bq                   -2.3848    1.08764   0.82128 
 Bq                   -2.38339   0.91371   0.46108 
 Bq                   -2.38516   1.13112   0.91133 
 Bq                   -2.38303   0.87023   0.37103 
 Bq                   -2.38551   1.17461   1.00138 
 Bq                   -2.38268   0.82674   0.28098 
 Bq                   -2.38586   1.21809   1.09143 
 Bq                   -2.38232   0.78326   0.19093 
 Bq                   -2.38409   1.00068   0.64118 
 Bq                   -2.38428   1.13421   0.68775 
 Bq                   -2.38357   1.04724   0.50765 
 Bq                   -2.38463   1.17769   0.7778 
 Bq                   -2.38321   1.00376   0.4176 
 Bq                   -2.38498   1.22117   0.86785 
 Bq                   -2.38286   0.96028   0.32755 
 Bq                   -2.38534   1.26466   0.9579 
 Bq                   -2.38251   0.9168    0.2375 
 Bq                   -2.38569   1.30814   1.04795 
 Bq                   -2.38215   0.87331   0.14744 
 Bq                   -2.38392   1.09073   0.5977 
 Bq                   -2.38411   1.22426   0.64427 
 Bq                   -2.3834    1.1373    0.46416 
 Bq                   -2.38446   1.26774   0.73432 
 Bq                   -2.38304   1.09381   0.37411 
 Bq                   -2.38481   1.31123   0.82437 
 Bq                   -2.38269   1.05033   0.28406 
 Bq                   -2.38517   1.35471   0.91442 
 Bq                   -2.38234   1.00685   0.19401 
 Bq                   -2.38552   1.39819   1.00447 
 Bq                   -2.38198   0.96336   0.10396 
 Bq                   -2.38375   1.18078   0.55422 
 Bq                   -2.38393   1.31431   0.60078 
 Bq                   -2.38323   1.22735   0.42068 
 Bq                   -2.38429   1.35779   0.69083 
 Bq                   -2.38287   1.18386   0.33063 
 Bq                   -2.38464   1.40128   0.78089 
 Bq                   -2.38252   1.14038   0.24058 
 Bq                   -2.385     1.44476   0.87094 
 Bq                   -2.38216   1.0969    0.15053 
 Bq                   -2.38535   1.48824   0.96099 
 Bq                   -2.38181   1.05342   0.06048 
 Bq                   -2.38358   1.27083   0.51073 
 Bq                   -2.38376   1.40436   0.5573 
 Bq                   -2.38306   1.3174    0.3772 
 Bq                   -2.38412   1.44785   0.64735 
 Bq                   -2.3827    1.27392   0.28715 
 Bq                   -2.38447   1.49133   0.7374 
 Bq                   -2.38235   1.23043   0.1971 
 Bq                   -2.38483   1.53481   0.82745 
 Bq                   -2.38199   1.18695   0.10705 
 Bq                   -2.38518   1.57829   0.9175 
 Bq                   -2.38164   1.14347   0.017 
 Bq                   -2.38341   1.36088   0.46725 
 Bq                   -2.38359   1.49441   0.51382 
 Bq                   -2.38288   1.40745   0.33372 
 Bq                   -2.38395   1.5379    0.60387 
 Bq                   -2.38253   1.36397   0.24367 
 Bq                   -2.3843    1.58138   0.69392 
 Bq                   -2.38218   1.32048   0.15362 
 Bq                   -2.38465   1.62486   0.78397 
 Bq                   -2.38182   1.277     0.06357 
 Bq                   -2.38501   1.66835   0.87402 
 Bq                   -2.38147   1.23352  -0.02649 
 Bq                   -2.38324   1.45093   0.42377 
 Bq                   -2.38342   1.58447   0.47034 
 Bq                   -2.38271   1.4975    0.29024 
 Bq                   -2.38378   1.62795   0.56039 
 Bq                   -2.38236   1.45402   0.20018 
 Bq                   -2.38413   1.67143   0.65044 
 Bq                   -2.38201   1.41054   0.11013 
 Bq                   -2.38448   1.71491   0.74049 
 Bq                   -2.38165   1.36705   0.02008 
 Bq                   -2.38484   1.7584    0.83054 
 Bq                   -2.3813    1.32357  -0.06997 
 Bq                   -2.38307   1.54098   0.38029 
 Bq                   -2.38325   1.67452   0.42685 
 Bq                   -2.38254   1.58755   0.24675 
 Bq                   -2.3836    1.718     0.51691 
 Bq                   -2.38219   1.54407   0.1567 
 Bq                   -2.38396   1.76148   0.60696 
 Bq                   -2.38183   1.50059   0.06665 
 Bq                   -2.38431   1.80497   0.69701 
 Bq                   -2.38148   1.4571   -0.0234 
 Bq                   -2.38467   1.84845   0.78706 
 Bq                   -2.38113   1.41362  -0.11345 
 Bq                   -2.3829    1.63104   0.3368 
 Bq                   -2.38308   1.76457   0.38337 
 Bq                   -2.38237   1.6776    0.20327 
 Bq                   -2.38343   1.80805   0.47342 
 Bq                   -2.38202   1.63412   0.11322 
 Bq                   -2.38379   1.85153   0.56347 
 Bq                   -2.38166   1.59064   0.02317 
 Bq                   -2.38414   1.89502   0.65352 
 Bq                   -2.38131   1.54716  -0.06688 
 Bq                   -2.3845    1.9385    0.74357 
 Bq                   -2.38096   1.50367  -0.15693 
 Bq                   -2.38273   1.72109   0.29332 
 Bq                   -2.38291   1.85462   0.33989 
 Bq                   -2.3822    1.76766   0.15979 
 Bq                   -2.38326   1.8981    0.42994 
 Bq                   -2.38185   1.72417   0.06974 
 Bq                   -2.38362   1.94159   0.51999 
 Bq                   -2.38149   1.68069  -0.02031 
 Bq                   -2.38397   1.98507   0.61004 
 Bq                   -2.38114   1.63721  -0.11036 
 Bq                   -2.38432   2.02855   0.70009 
 Bq                   -2.38078   1.59372  -0.20041 
 Bq                   -2.38255   1.81114   0.24984 
 Bq                   -2.38274   1.94467   0.29641 
 Bq                   -2.38203   1.85771   0.11631 
 Bq                   -2.38309   1.98815   0.38646 
 Bq                   -2.38168   1.81422   0.02626 
 Bq                   -2.38345   2.03164   0.47651 
 Bq                   -2.38132   1.77074  -0.0638 
 Bq                   -2.3838    2.07512   0.56656 
 Bq                   -2.38097   1.72726  -0.15385 
 Bq                   -2.38415   2.1186    0.65661 
 Bq                   -2.38061   1.68378  -0.2439 
 Bq                   -2.38238   1.90119   0.20636 
 Bq                   -2.38257   2.03472   0.25292 
 Bq                   -2.38186   1.94776   0.07282 
 Bq                   -2.38292   2.07821   0.34298 
 Bq                   -2.38151   1.90428  -0.01723 
 Bq                   -2.38328   2.12169   0.43303 
 Bq                   -2.38115   1.86079  -0.10728 
 Bq                   -2.38363   2.16517   0.52308 
 Bq                   -2.3808    1.81731  -0.19733 
 Bq                   -2.38398   2.20865   0.61313 
 Bq                   -2.38044   1.77383  -0.28738 
 Bq                   -2.38221   1.99124   0.16287 
 Bq                   -2.3824    2.12477   0.20944 
 Bq                   -2.38169   2.03781   0.02934 
 Bq                   -2.38275   2.16826   0.29949 
 Bq                   -2.38133   1.99433  -0.06071 
 Bq                   -2.3831    2.21174   0.38954 
 Bq                   -2.38098   1.95084  -0.15076 
 Bq                   -2.38346   2.25522   0.47959 
 Bq                   -2.38063   1.90736  -0.24081 
 Bq                   -2.38381   2.29871   0.56965 
 Bq                   -2.38027   1.86388  -0.33086 
 Bq                   -2.38204   2.08129   0.11939 
 Bq                   -2.38223   2.21483   0.16596 
 Bq                   -2.38152   2.12786  -0.01414 
 Bq                   -2.38258   2.25831   0.25601 
 Bq                   -2.38116   2.08438  -0.10419 
 Bq                   -2.38293   2.30179   0.34606 
 Bq                   -2.38081   2.0409   -0.19424 
 Bq                   -2.38329   2.34527   0.43611 
 Bq                   -2.38046   1.99741  -0.28429 
 Bq                   -2.38364   2.38876   0.52616 
 Bq                   -2.3801    1.95393  -0.37434 
 Bq                   -2.38187   2.17134   0.07591 
 Bq                   -2.38205   2.30488   0.12248 
 Bq                   -2.38135   2.21791  -0.05762 
 
 Symmetry turned off:
 Cannot cope with ghost atoms or with translation vectors.
 Stoichiometry    C22H14
 Framework group  C1[X(C22H14)]
 NUMDOF-- NAT=    36 NAtoms=   236
 Deg. of freedom     0
 Full point group                 C1      NOp   1
                          Input orientation:                          
 ---------------------------------------------------------------------
 Center     Atomic      Atomic             Coordinates (Angstroms)
 Number     Number       Type             X           Y           Z
 ---------------------------------------------------------------------
      1          6           0       -4.050056   -0.577186    0.813671
      2          1           0       -5.026380   -1.008273    1.002476
      3          6           0       -3.938155    0.661780    0.240088
      4          1           0       -4.825242    1.233889   -0.011130
      5          6           0       -2.676841    1.243325    0.005758
      6          6           0       -1.497412    0.505153    0.284825
      7          6           0       -1.650833   -0.733873    0.940403
      8          1           0       -0.771365   -1.273097    1.263375
      9          6           0       -2.889855   -1.262404    1.199431
     10          1           0       -2.968371   -2.212456    1.715268
     11          6           0       -2.577319    2.596370   -0.419293
     12          1           0       -3.487073    3.141224   -0.647406
     13          6           0       -1.374190    3.214790   -0.436403
     14          1           0       -1.299732    4.274202   -0.657814
     15          6           0       -0.171949    2.499409   -0.173459
     16          6           0       -0.204392    1.101844    0.019269
     17          6           0        1.051349    3.204256   -0.067622
     18          1           0        1.042734    4.281950   -0.189700
     19          6           0        2.194209    2.548745    0.257958
     20          1           0        3.116853    3.091285    0.433473
     21          6           0        2.221647    1.133656    0.293499
     22          6           0        1.048693    0.394553    0.030241
     23          6           0        3.448336    0.461463    0.557394
     24          1           0        4.309579    1.060605    0.833485
     25          6           0        3.542735   -0.885593    0.474946
     26          1           0        4.473147   -1.393970    0.703882
     27          6           0        2.449005   -1.647445   -0.019632
     28          6           0        1.215070   -1.005726   -0.301357
     29          6           0        0.253111   -1.743444   -1.021659
     30          1           0       -0.654136   -1.253505   -1.346285
     31          6           0        0.449419   -3.062860   -1.341378
     32          1           0       -0.308316   -3.594431   -1.905406
     33          6           0        1.625173   -3.720797   -0.955254
     34          1           0        1.767005   -4.768740   -1.192702
     35          6           0        2.610987   -3.014418   -0.318305
     36          1           0        3.552561   -3.490281   -0.064637
     37          0           0       -2.385131    0.683952    0.905161
     38          0           0       -2.384423    0.596987    0.725059
     39          0           0       -2.385485    0.727435    0.995211
     40          0           0       -2.384069    0.553504    0.635008
     41          0           0       -2.385839    0.770918    1.085262
     42          0           0       -2.383715    0.510022    0.544958
     43          0           0       -2.386193    0.814401    1.175313
     44          0           0       -2.383361    0.466539    0.454907
     45          0           0       -2.386547    0.857883    1.265363
     46          0           0       -2.383007    0.423056    0.364856
     47          0           0       -2.384777    0.640470    0.815110
     48          0           0       -2.384960    0.774004    0.861678
     49          0           0       -2.384252    0.687038    0.681577
     50          0           0       -2.385314    0.817487    0.951729
     51          0           0       -2.383898    0.643556    0.591526
     52          0           0       -2.385668    0.860969    1.041780
     53          0           0       -2.383544    0.600073    0.501475
     54          0           0       -2.386022    0.904452    1.131830
     55          0           0       -2.383190    0.556590    0.411425
     56          0           0       -2.386376    0.947935    1.221881
     57          0           0       -2.382836    0.513108    0.321374
     58          0           0       -2.384606    0.730521    0.771627
     59          0           0       -2.384789    0.864055    0.818196
     60          0           0       -2.384081    0.777090    0.638094
     61          0           0       -2.385143    0.907538    0.908246
     62          0           0       -2.383727    0.733607    0.548044
     63          0           0       -2.385497    0.951021    0.998297
     64          0           0       -2.383373    0.690124    0.457993
     65          0           0       -2.385851    0.994503    1.088348
     66          0           0       -2.383019    0.646642    0.367942
     67          0           0       -2.386205    1.037986    1.178399
     68          0           0       -2.382665    0.603159    0.277892
     69          0           0       -2.384435    0.820573    0.728145
     70          0           0       -2.384618    0.954107    0.774713
     71          0           0       -2.383910    0.867141    0.594612
     72          0           0       -2.384972    0.997589    0.864764
     73          0           0       -2.383556    0.823658    0.504561
     74          0           0       -2.385326    1.041072    0.954815
     75          0           0       -2.383202    0.780176    0.414511
     76          0           0       -2.385680    1.084555    1.044866
     77          0           0       -2.382848    0.736693    0.324460
     78          0           0       -2.386034    1.128038    1.134916
     79          0           0       -2.382494    0.693210    0.234409
     80          0           0       -2.384264    0.910624    0.684663
     81          0           0       -2.384447    1.044158    0.731231
     82          0           0       -2.383739    0.957193    0.551130
     83          0           0       -2.384801    1.087641    0.821282
     84          0           0       -2.383385    0.913710    0.461079
     85          0           0       -2.385155    1.131123    0.911332
     86          0           0       -2.383031    0.870227    0.371028
     87          0           0       -2.385509    1.174606    1.001383
     88          0           0       -2.382677    0.826744    0.280978
     89          0           0       -2.385863    1.218089    1.091434
     90          0           0       -2.382323    0.783262    0.190927
     91          0           0       -2.384093    1.000675    0.641180
     92          0           0       -2.384276    1.134209    0.687749
     93          0           0       -2.383568    1.047244    0.507647
     94          0           0       -2.384630    1.177692    0.777799
     95          0           0       -2.383214    1.003761    0.417597
     96          0           0       -2.384984    1.221175    0.867850
     97          0           0       -2.382860    0.960279    0.327546
     98          0           0       -2.385338    1.264658    0.957901
     99          0           0       -2.382506    0.916796    0.237495
    100          0           0       -2.385692    1.308140    1.047951
    101          0           0       -2.382152    0.873313    0.147444
    102          0           0       -2.383922    1.090727    0.597698
    103          0           0       -2.384105    1.224261    0.644266
    104          0           0       -2.383398    1.137295    0.464165
    105          0           0       -2.384459    1.267744    0.734317
    106          0           0       -2.383044    1.093813    0.374114
    107          0           0       -2.384813    1.311226    0.824368
    108          0           0       -2.382690    1.050330    0.284063
    109          0           0       -2.385167    1.354709    0.914418
    110          0           0       -2.382336    1.006847    0.194013
    111          0           0       -2.385521    1.398192    1.004469
    112          0           0       -2.381982    0.963365    0.103962
    113          0           0       -2.383751    1.180778    0.554216
    114          0           0       -2.383935    1.314312    0.600784
    115          0           0       -2.383227    1.227347    0.420682
    116          0           0       -2.384289    1.357795    0.690835
    117          0           0       -2.382873    1.183864    0.330632
    118          0           0       -2.384643    1.401278    0.780885
    119          0           0       -2.382519    1.140381    0.240581
    120          0           0       -2.384997    1.444760    0.870936
    121          0           0       -2.382165    1.096899    0.150530
    122          0           0       -2.385351    1.488243    0.960987
    123          0           0       -2.381811    1.053416    0.060480
    124          0           0       -2.383581    1.270829    0.510733
    125          0           0       -2.383764    1.404364    0.557302
    126          0           0       -2.383056    1.317398    0.377200
    127          0           0       -2.384118    1.447846    0.647352
    128          0           0       -2.382702    1.273915    0.287149
    129          0           0       -2.384472    1.491329    0.737403
    130          0           0       -2.382348    1.230433    0.197099
    131          0           0       -2.384826    1.534812    0.827454
    132          0           0       -2.381994    1.186950    0.107048
    133          0           0       -2.385180    1.578294    0.917504
    134          0           0       -2.381640    1.143467    0.016997
    135          0           0       -2.383410    1.360881    0.467251
    136          0           0       -2.383593    1.494415    0.513819
    137          0           0       -2.382885    1.407450    0.333718
    138          0           0       -2.383947    1.537898    0.603870
    139          0           0       -2.382531    1.363967    0.243667
    140          0           0       -2.384301    1.581380    0.693921
    141          0           0       -2.382177    1.320484    0.153616
    142          0           0       -2.384655    1.624863    0.783971
    143          0           0       -2.381823    1.277001    0.063566
    144          0           0       -2.385009    1.668346    0.874022
    145          0           0       -2.381469    1.233519   -0.026485
    146          0           0       -2.383239    1.450932    0.423768
    147          0           0       -2.383422    1.584466    0.470337
    148          0           0       -2.382714    1.497501    0.290235
    149          0           0       -2.383776    1.627949    0.560387
    150          0           0       -2.382360    1.454018    0.200185
    151          0           0       -2.384130    1.671432    0.650438
    152          0           0       -2.382006    1.410536    0.110134
    153          0           0       -2.384484    1.714915    0.740489
    154          0           0       -2.381652    1.367053    0.020083
    155          0           0       -2.384838    1.758397    0.830540
    156          0           0       -2.381298    1.323570   -0.069967
    157          0           0       -2.383068    1.540984    0.380286
    158          0           0       -2.383251    1.674518    0.426854
    159          0           0       -2.382543    1.587552    0.246753
    160          0           0       -2.383605    1.718001    0.516905
    161          0           0       -2.382189    1.544070    0.156702
    162          0           0       -2.383959    1.761483    0.606956
    163          0           0       -2.381835    1.500587    0.066652
    164          0           0       -2.384313    1.804966    0.697006
    165          0           0       -2.381481    1.457104   -0.023399
    166          0           0       -2.384667    1.848449    0.787057
    167          0           0       -2.381127    1.413621   -0.113450
    168          0           0       -2.382897    1.631035    0.336804
    169          0           0       -2.383080    1.764569    0.383372
    170          0           0       -2.382372    1.677604    0.203271
    171          0           0       -2.383434    1.808052    0.473423
    172          0           0       -2.382018    1.634121    0.113220
    173          0           0       -2.383788    1.851535    0.563473
    174          0           0       -2.381664    1.590638    0.023169
    175          0           0       -2.384142    1.895017    0.653524
    176          0           0       -2.381310    1.547156   -0.066881
    177          0           0       -2.384496    1.938500    0.743575
    178          0           0       -2.380956    1.503673   -0.156932
    179          0           0       -2.382726    1.721086    0.293321
    180          0           0       -2.382909    1.854621    0.339890
    181          0           0       -2.382201    1.767655    0.159788
    182          0           0       -2.383263    1.898103    0.429940
    183          0           0       -2.381847    1.724172    0.069738
    184          0           0       -2.383617    1.941586    0.519991
    185          0           0       -2.381493    1.680690   -0.020313
    186          0           0       -2.383971    1.985069    0.610042
    187          0           0       -2.381139    1.637207   -0.110364
    188          0           0       -2.384325    2.028551    0.700092
    189          0           0       -2.380785    1.593724   -0.200415
    190          0           0       -2.382555    1.811138    0.249839
    191          0           0       -2.382738    1.944672    0.296407
    192          0           0       -2.382030    1.857707    0.116306
    193          0           0       -2.383092    1.988155    0.386458
    194          0           0       -2.381676    1.814224    0.026255
    195          0           0       -2.383446    2.031637    0.476509
    196          0           0       -2.381322    1.770741   -0.063796
    197          0           0       -2.383800    2.075120    0.566559
    198          0           0       -2.380968    1.727258   -0.153846
    199          0           0       -2.384154    2.118603    0.656610
    200          0           0       -2.380614    1.683776   -0.243897
    201          0           0       -2.382384    1.901189    0.206357
    202          0           0       -2.382567    2.034723    0.252925
    203          0           0       -2.381859    1.947758    0.072823
    204          0           0       -2.382921    2.078206    0.342976
    205          0           0       -2.381505    1.904275   -0.017227
    206          0           0       -2.383275    2.121689    0.433026
    207          0           0       -2.381151    1.860792   -0.107278
    208          0           0       -2.383629    2.165172    0.523077
    209          0           0       -2.380797    1.817310   -0.197329
    210          0           0       -2.383983    2.208654    0.613128
    211          0           0       -2.380443    1.773827   -0.287379
    212          0           0       -2.382213    1.991241    0.162874
    213          0           0       -2.382396    2.124775    0.209442
    214          0           0       -2.381688    2.037809    0.029341
    215          0           0       -2.382750    2.168257    0.299493
    216          0           0       -2.381334    1.994327   -0.060710
    217          0           0       -2.383104    2.211740    0.389544
    218          0           0       -2.380980    1.950844   -0.150760
    219          0           0       -2.383458    2.255223    0.479595
    220          0           0       -2.380626    1.907361   -0.240811
    221          0           0       -2.383812    2.298706    0.569645
    222          0           0       -2.380272    1.863878   -0.330862
    223          0           0       -2.382042    2.081292    0.119392
    224          0           0       -2.382225    2.214826    0.165960
    225          0           0       -2.381517    2.127861   -0.014141
    226          0           0       -2.382579    2.258309    0.256011
    227          0           0       -2.381163    2.084378   -0.104192
    228          0           0       -2.382933    2.301792    0.346061
    229          0           0       -2.380809    2.040895   -0.194243
    230          0           0       -2.383287    2.345274    0.436112
    231          0           0       -2.380455    1.997413   -0.284293
    232          0           0       -2.383641    2.388757    0.526163
    233          0           0       -2.380101    1.953930   -0.374344
    234          0           0       -2.381871    2.171343    0.075909
    235          0           0       -2.382054    2.304878    0.122478
    236          0           0       -2.381346    2.217912   -0.057624
 ---------------------------------------------------------------------
 Rotational constants (GHZ):      0.4529074      0.2836956      0.1879557
 Standard basis: 6-311+G(d,p) (5D, 7F)
 Warning:  center  37 has no basis functions!
 Warning:  center  38 has no basis functions!
 Warning:  center  39 has no basis functions!
 Warning:  center  40 has no basis functions!
 Warning:  center  41 has no basis functions!
 Warning:  center  42 has no basis functions!
 Warning:  center  43 has no basis functions!
 Warning:  center  44 has no basis functions!
 Warning:  center  45 has no basis functions!
 Warning:  center  46 has no basis functions!
 Warning:  center  47 has no basis functions!
 Warning:  center  48 has no basis functions!
 Warning:  center  49 has no basis functions!
 Warning:  center  50 has no basis functions!
 Warning:  center  51 has no basis functions!
 Warning:  center  52 has no basis functions!
 Warning:  center  53 has no basis functions!
 Warning:  center  54 has no basis functions!
 Warning:  center  55 has no basis functions!
 Warning:  center  56 has no basis functions!
 Warning:  center  57 has no basis functions!
 Warning:  center  58 has no basis functions!
 Warning:  center  59 has no basis functions!
 Warning:  center  60 has no basis functions!
 Warning:  center  61 has no basis functions!
 Warning:  center  62 has no basis functions!
 Warning:  center  63 has no basis functions!
 Warning:  center  64 has no basis functions!
 Warning:  center  65 has no basis functions!
 Warning:  center  66 has no basis functions!
 Warning:  center  67 has no basis functions!
 Warning:  center  68 has no basis functions!
 Warning:  center  69 has no basis functions!
 Warning:  center  70 has no basis functions!
 Warning:  center  71 has no basis functions!
 Warning:  center  72 has no basis functions!
 Warning:  center  73 has no basis functions!
 Warning:  center  74 has no basis functions!
 Warning:  center  75 has no basis functions!
 Warning:  center  76 has no basis functions!
 Warning:  center  77 has no basis functions!
 Warning:  center  78 has no basis functions!
 Warning:  center  79 has no basis functions!
 Warning:  center  80 has no basis functions!
 Warning:  center  81 has no basis functions!
 Warning:  center  82 has no basis functions!
 Warning:  center  83 has no basis functions!
 Warning:  center  84 has no basis functions!
 Warning:  center  85 has no basis functions!
 Warning:  center  86 has no basis functions!
 Warning:  center  87 has no basis functions!
 Warning:  center  88 has no basis functions!
 Warning:  center  89 has no basis functions!
 Warning:  center  90 has no basis functions!
 Warning:  center  91 has no basis functions!
 Warning:  center  92 has no basis functions!
 Warning:  center  93 has no basis functions!
 Warning:  center  94 has no basis functions!
 Warning:  center  95 has no basis functions!
 Warning:  center  96 has no basis functions!
 Warning:  center  97 has no basis functions!
 Warning:  center  98 has no basis functions!
 Warning:  center  99 has no basis functions!
 Warning:  center 100 has no basis functions!
 Warning:  center 101 has no basis functions!
 Warning:  center 102 has no basis functions!
 Warning:  center 103 has no basis functions!
 Warning:  center 104 has no basis functions!
 Warning:  center 105 has no basis functions!
 Warning:  center 106 has no basis functions!
 Warning:  center 107 has no basis functions!
 Warning:  center 108 has no basis functions!
 Warning:  center 109 has no basis functions!
 Warning:  center 110 has no basis functions!
 Warning:  center 111 has no basis functions!
 Warning:  center 112 has no basis functions!
 Warning:  center 113 has no basis functions!
 Warning:  center 114 has no basis functions!
 Warning:  center 115 has no basis functions!
 Warning:  center 116 has no basis functions!
 Warning:  center 117 has no basis functions!
 Warning:  center 118 has no basis functions!
 Warning:  center 119 has no basis functions!
 Warning:  center 120 has no basis functions!
 Warning:  center 121 has no basis functions!
 Warning:  center 122 has no basis functions!
 Warning:  center 123 has no basis functions!
 Warning:  center 124 has no basis functions!
 Warning:  center 125 has no basis functions!
 Warning:  center 126 has no basis functions!
 Warning:  center 127 has no basis functions!
 Warning:  center 128 has no basis functions!
 Warning:  center 129 has no basis functions!
 Warning:  center 130 has no basis functions!
 Warning:  center 131 has no basis functions!
 Warning:  center 132 has no basis functions!
 Warning:  center 133 has no basis functions!
 Warning:  center 134 has no basis functions!
 Warning:  center 135 has no basis functions!
 Warning:  center 136 has no basis functions!
 Warning:  center 137 has no basis functions!
 Warning:  center 138 has no basis functions!
 Warning:  center 139 has no basis functions!
 Warning:  center 140 has no basis functions!
 Warning:  center 141 has no basis functions!
 Warning:  center 142 has no basis functions!
 Warning:  center 143 has no basis functions!
 Warning:  center 144 has no basis functions!
 Warning:  center 145 has no basis functions!
 Warning:  center 146 has no basis functions!
 Warning:  center 147 has no basis functions!
 Warning:  center 148 has no basis functions!
 Warning:  center 149 has no basis functions!
 Warning:  center 150 has no basis functions!
 Warning:  center 151 has no basis functions!
 Warning:  center 152 has no basis functions!
 Warning:  center 153 has no basis functions!
 Warning:  center 154 has no basis functions!
 Warning:  center 155 has no basis functions!
 Warning:  center 156 has no basis functions!
 Warning:  center 157 has no basis functions!
 Warning:  center 158 has no basis functions!
 Warning:  center 159 has no basis functions!
 Warning:  center 160 has no basis functions!
 Warning:  center 161 has no basis functions!
 Warning:  center 162 has no basis functions!
 Warning:  center 163 has no basis functions!
 Warning:  center 164 has no basis functions!
 Warning:  center 165 has no basis functions!
 Warning:  center 166 has no basis functions!
 Warning:  center 167 has no basis functions!
 Warning:  center 168 has no basis functions!
 Warning:  center 169 has no basis functions!
 Warning:  center 170 has no basis functions!
 Warning:  center 171 has no basis functions!
 Warning:  center 172 has no basis functions!
 Warning:  center 173 has no basis functions!
 Warning:  center 174 has no basis functions!
 Warning:  center 175 has no basis functions!
 Warning:  center 176 has no basis functions!
 Warning:  center 177 has no basis functions!
 Warning:  center 178 has no basis functions!
 Warning:  center 179 has no basis functions!
 Warning:  center 180 has no basis functions!
 Warning:  center 181 has no basis functions!
 Warning:  center 182 has no basis functions!
 Warning:  center 183 has no basis functions!
 Warning:  center 184 has no basis functions!
 Warning:  center 185 has no basis functions!
 Warning:  center 186 has no basis functions!
 Warning:  center 187 has no basis functions!
 Warning:  center 188 has no basis functions!
 Warning:  center 189 has no basis functions!
 Warning:  center 190 has no basis functions!
 Warning:  center 191 has no basis functions!
 Warning:  center 192 has no basis functions!
 Warning:  center 193 has no basis functions!
 Warning:  center 194 has no basis functions!
 Warning:  center 195 has no basis functions!
 Warning:  center 196 has no basis functions!
 Warning:  center 197 has no basis functions!
 Warning:  center 198 has no basis functions!
 Warning:  center 199 has no basis functions!
 Warning:  center 200 has no basis functions!
 Warning:  center 201 has no basis functions!
 Warning:  center 202 has no basis functions!
 Warning:  center 203 has no basis functions!
 Warning:  center 204 has no basis functions!
 Warning:  center 205 has no basis functions!
 Warning:  center 206 has no basis functions!
 Warning:  center 207 has no basis functions!
 Warning:  center 208 has no basis functions!
 Warning:  center 209 has no basis functions!
 Warning:  center 210 has no basis functions!
 Warning:  center 211 has no basis functions!
 Warning:  center 212 has no basis functions!
 Warning:  center 213 has no basis functions!
 Warning:  center 214 has no basis functions!
 Warning:  center 215 has no basis functions!
 Warning:  center 216 has no basis functions!
 Warning:  center 217 has no basis functions!
 Warning:  center 218 has no basis functions!
 Warning:  center 219 has no basis functions!
 Warning:  center 220 has no basis functions!
 Warning:  center 221 has no basis functions!
 Warning:  center 222 has no basis functions!
 Warning:  center 223 has no basis functions!
 Warning:  center 224 has no basis functions!
 Warning:  center 225 has no basis functions!
 Warning:  center 226 has no basis functions!
 Warning:  center 227 has no basis functions!
 Warning:  center 228 has no basis functions!
 Warning:  center 229 has no basis functions!
 Warning:  center 230 has no basis functions!
 Warning:  center 231 has no basis functions!
 Warning:  center 232 has no basis functions!
 Warning:  center 233 has no basis functions!
 Warning:  center 234 has no basis functions!
 Warning:  center 235 has no basis functions!
 Warning:  center 236 has no basis functions!
   568 basis functions,   904 primitive gaussians,   590 cartesian basis functions
    73 alpha electrons       73 beta electrons
       nuclear repulsion energy      1610.9176155625 Hartrees.
 NAtoms=  236 NActive=  236 NUniq=  236 SFac= 1.00D+00 NAtFMM=   60 NAOKFM=T Big=T
 Integral buffers will be    131072 words long.
 Raffenetti 2 integral format.
 Two-electron integral symmetry is turned off.
 One-electron integrals computed using PRISM.
 NBasis=   568 RedAO= T EigKep=  1.78D-06  NBF=   568
 NBsUse=   556 1.00D-06 EigRej=  9.09D-07 NBFU=   556
 ExpMin= 4.38D-02 ExpMax= 4.56D+03 ExpMxC= 6.82D+02 IAcc=2 IRadAn=         4 AccDes= 0.00D+00
 Harris functional with IExCor=  402 and IRadAn=       4 diagonalized for initial guess.
 HarFok:  IExCor=  402 AccDes= 0.00D+00 IRadAn=         4 IDoV= 1 UseB2=F ITyADJ=14
 ICtDFT=  3500011 ScaDFX=  1.000000  1.000000  1.000000  1.000000
 FoFCou: FMM=F IPFlag=           0 FMFlag=      100000 FMFlg1=        2001
         NFxFlg=           0 DoJE=T BraDBF=F KetDBF=T FulRan=T
         wScrn=  0.000000 ICntrl=     500 IOpCl=  0 I1Cent=   200000004 NGrid=           0
         NMat0=    1 NMatS0=      1 NMatT0=    0 NMatD0=    1 NMtDS0=    0 NMtDT0=    0
 Symmetry not used in FoFCou.
 Requested convergence on RMS density matrix=1.00D-08 within 128 cycles.
 Requested convergence on MAX density matrix=1.00D-06.
 Requested convergence on             energy=1.00D-06.
 No special actions if energy rises.
 SCF Done:  E(RB3LYP) =  -847.003289847     A.U. after   15 cycles
            NFock= 15  Conv=0.75D-08     -V/T= 2.0040
 DoSCS=F DFT=T ScalE2(SS,OS)=  1.000000  1.000000
 Range of M.O.s used for correlation:     1   556
 NBasis=   568 NAE=    73 NBE=    73 NFC=     0 NFV=     0
 NROrb=    556 NOA=    73 NOB=    73 NVA=   483 NVB=   483

 **** Warning!!: The largest alpha MO coefficient is  0.10971035D+03

          Differentiating once with respect to magnetic field using GIAOs.
          Electric field/nuclear overlap derivatives assumed to be zero.
 FoFCou: FMM=F IPFlag=           0 FMFlag=      100000 FMFlg1=        2001
         NFxFlg=           0 DoJE=F BraDBF=F KetDBF=T FulRan=T
         wScrn=  0.000000 ICntrl=    6100 IOpCl=  0 I1Cent=           7 NGrid=         236
         NMat0=    1 NMatS0=      1 NMatT0=    0 NMatD0=    1 NMtDS0=    0 NMtDT0=    0
 Symmetry not used in FoFCou.
 FoFJK:  IHMeth= 1 ICntrl=    6127 DoSepK=F KAlg= 0 I1Cent=   0 FoldK=F
 IRaf=         1 NMat=   1 IRICut=       1 DoRegI=T DoRafI=F ISym2E= 0.
          There are     3 degrees of freedom in the 1st order CPHF.  IDoFFX=0 NUNeed=     3.
      3 vectors produced by pass  0 Test12= 1.18D-12 3.33D-08 XBig12= 2.07D+03 9.18D+00.
 AX will form     3 AO Fock derivatives at one time.
      3 vectors produced by pass  1 Test12= 1.18D-12 3.33D-08 XBig12= 3.56D+00 8.03D-01.
      3 vectors produced by pass  2 Test12= 1.18D-12 3.33D-08 XBig12= 2.10D-02 6.92D-02.
      3 vectors produced by pass  3 Test12= 1.18D-12 3.33D-08 XBig12= 5.45D-05 1.89D-03.
      3 vectors produced by pass  4 Test12= 1.18D-12 3.33D-08 XBig12= 1.20D-07 7.79D-05.
      3 vectors produced by pass  5 Test12= 1.18D-12 3.33D-08 XBig12= 4.02D-10 4.73D-06.
      3 vectors produced by pass  6 Test12= 1.18D-12 3.33D-08 XBig12= 1.32D-12 2.61D-07.
 InvSVY:  IOpt=1 It=  1 EMax= 2.13D-14
 Solved reduced A of dimension    21 with     3 vectors.
 Calculating GIAO nuclear magnetic shielding tensors.
 SCF GIAO Magnetic shielding tensor (ppm):
      1  C    Isotropic =    53.8139   Anisotropy =   178.0260
   XX=   -41.4327   YX=   -32.3458   ZX=    10.0287
   XY=   -28.3572   YY=    59.0527   ZY=    55.1899
   XZ=    13.1759   YZ=    58.7550   ZZ=   143.8218
   Eigenvalues:   -53.8775    42.8214   172.4979
      2  H    Isotropic =    24.3095   Anisotropy =     4.8536
   XX=    25.5771   YX=    -1.0289   ZX=     0.5661
   XY=    -0.7431   YY=    26.1829   ZY=    -2.3306
   XZ=    -0.1707   YZ=    -2.4411   ZZ=    21.1687
   Eigenvalues:    20.2108    25.1725    27.5453
      3  C    Isotropic =    51.4055   Anisotropy =   157.8639
   XX=   -31.5399   YX=    38.5015   ZX=   -17.9316
   XY=    34.3519   YY=    49.9437   ZY=    49.6392
   XZ=    -9.8383   YZ=    44.6006   ZZ=   135.8127
   Eigenvalues:   -50.5747    48.1432   156.6481
      4  H    Isotropic =    23.8290   Anisotropy =     7.1838
   XX=    25.3635   YX=     1.8486   ZX=    -0.3559
   XY=     1.9656   YY=    26.4581   ZY=    -2.4103
   XZ=    -1.2941   YZ=    -2.6614   ZZ=    19.6654
   Eigenvalues:    18.8176    24.0511    28.6182
      5  C    Isotropic =    46.0697   Anisotropy =   207.6751
   XX=   -19.2123   YX=    -4.8852   ZX=    -1.6475
   XY=     2.8938   YY=    -2.9860   ZY=    66.5656
   XZ=     2.5356   YZ=    67.9144   ZZ=   160.4073
   Eigenvalues:   -27.2455   -19.0652   184.5197
      6  C    Isotropic =    47.5218   Anisotropy =   196.9389
   XX=   -28.1552   YX=    -2.7889   ZX=    12.0660
   XY=   -14.3886   YY=    21.2063   ZY=    74.2521
   XZ=   -18.6356   YZ=    61.1113   ZZ=   149.5144
   Eigenvalues:   -30.2925    -5.9564   178.8144
      7  C    Isotropic =    49.3915   Anisotropy =   179.8333
   XX=   -12.5211   YX=    28.7048   ZX=   -24.6745
   XY=    31.5123   YY=    29.7000   ZY=    77.7459
   XZ=   -40.0095   YZ=    65.3072   ZZ=   130.9956
   Eigenvalues:   -52.1299    31.0240   169.2804
      8  H    Isotropic =    23.1586   Anisotropy =    13.5525
   XX=    28.5711   YX=     1.5482   ZX=    -3.6986
   XY=     3.2466   YY=    22.7592   ZY=    -2.1157
   XZ=    -8.3753   YZ=    -1.0821   ZZ=    18.1456
   Eigenvalues:    15.3521    21.9301    32.1936
      9  C    Isotropic =    55.1460   Anisotropy =   174.7426
   XX=    46.7071   YX=    -2.6162   ZX=    -2.8420
   XY=     0.6223   YY=    -1.6258   ZY=    92.8272
   XZ=     0.5159   YZ=    95.6598   ZZ=   120.3568
   Eigenvalues:   -52.8932    46.6901   171.6411
     10  H    Isotropic =    24.6278   Anisotropy =     7.1815
   XX=    29.1040   YX=     0.1399   ZX=    -0.3694
   XY=     0.3642   YY=    23.4778   ZY=    -1.0805
   XZ=    -2.4493   YZ=    -2.9465   ZZ=    21.3016
   Eigenvalues:    19.9703    24.4977    29.4155
     11  C    Isotropic =    51.5607   Anisotropy =   151.2142
   XX=     2.1639   YX=    40.9287   ZX=   -26.0048
   XY=    49.9131   YY=    12.2331   ZY=    42.1342
   XZ=   -15.6145   YZ=    38.6614   ZZ=   140.2851
   Eigenvalues:   -48.1951    50.5071   152.3701
     12  H    Isotropic =    23.8537   Anisotropy =     7.3815
   XX=    25.9672   YX=     2.3738   ZX=    -0.2390
   XY=     2.4320   YY=    26.3975   ZY=    -1.8291
   XZ=     0.3529   YZ=    -1.7731   ZZ=    19.1964
   Eigenvalues:    18.7149    24.0714    28.7747
     13  C    Isotropic =    52.8653   Anisotropy =   147.4265
   XX=    51.2944   YX=    19.9221   ZX=   -13.4678
   XY=    11.5478   YY=   -34.0176   ZY=    42.5079
   XZ=    -9.2241   YZ=    40.0716   ZZ=   141.3192
   Eigenvalues:   -46.5152    53.9616   151.1497
     14  H    Isotropic =    24.0156   Anisotropy =     7.3485
   XX=    28.6644   YX=     0.6281   ZX=     1.0808
   XY=     0.5926   YY=    24.4325   ZY=    -1.0823
   XZ=     1.6846   YZ=    -0.3842   ZZ=    18.9500
   Eigenvalues:    18.6430    24.4892    28.9146
     15  C    Isotropic =    46.2221   Anisotropy =   203.9048
   XX=   -27.2215   YX=    -0.0442   ZX=   -28.9124
   XY=     4.6427   YY=   -10.5571   ZY=    28.3830
   XZ=   -10.2704   YZ=    26.7376   ZZ=   176.4448
   Eigenvalues:   -30.5512   -12.9411   182.1586
     16  C    Isotropic =    51.9375   Anisotropy =   188.2004
   XX=   -19.4441   YX=     5.5046   ZX=    15.7858
   XY=    -8.3874   YY=     2.4863   ZY=    22.9264
   XZ=   -50.6243   YZ=    23.3340   ZZ=   172.7704
   Eigenvalues:   -21.0294    -0.5625   177.4045
     17  C    Isotropic =    51.9482   Anisotropy =   149.1264
   XX=    50.7296   YX=   -23.9353   ZX=   -18.4207
   XY=   -16.7271   YY=   -41.8764   ZY=    17.8662
   XZ=   -14.3278   YZ=    11.4871   ZZ=   146.9915
   Eigenvalues:   -46.7796    51.2584   151.3658
     18  H    Isotropic =    24.0122   Anisotropy =     7.5163
   XX=    28.5811   YX=    -0.0866   ZX=     1.5071
   XY=    -0.2466   YY=    24.3342   ZY=    -0.7657
   XZ=     2.5088   YZ=    -1.5208   ZZ=    19.1214
   Eigenvalues:    18.5094    24.5041    29.0231
     19  C    Isotropic =    51.7356   Anisotropy =   148.5924
   XX=     2.4559   YX=   -45.6913   ZX=   -31.2531
   XY=   -53.4448   YY=     7.4698   ZY=    -1.8888
   XZ=   -23.5601   YZ=    -1.2765   ZZ=   145.2810
   Eigenvalues:   -46.9894    51.3989   150.7972
     20  H    Isotropic =    23.9071   Anisotropy =     7.6651
   XX=    25.5796   YX=    -2.0226   ZX=     1.4905
   XY=    -1.9998   YY=    27.3706   ZY=    -0.5164
   XZ=     2.7276   YZ=    -1.1179   ZZ=    18.7711
   Eigenvalues:    18.1643    24.5398    29.0172
     21  C    Isotropic =    45.9767   Anisotropy =   203.9316
   XX=   -16.2108   YX=    13.1802   ZX=   -44.5913
   XY=     6.5714   YY=   -20.6329   ZY=     0.0949
   XZ=   -28.8984   YZ=   -13.0883   ZZ=   174.7736
   Eigenvalues:   -30.5796   -13.4215   181.9311
     22  C    Isotropic =    52.0450   Anisotropy =   188.1157
   XX=    -0.0787   YX=     2.5023   ZX=   -16.3451
   XY=    18.9327   YY=   -14.4798   ZY=   -34.4335
   XZ=   -50.6032   YZ=    19.9104   ZZ=   170.6934
   Eigenvalues:   -20.7705    -0.5500   177.4554
     23  C    Isotropic =    53.2392   Anisotropy =   146.7412
   XX=   -22.0674   YX=   -32.0012   ZX=   -49.4857
   XY=   -23.2043   YY=    44.3661   ZY=   -15.6400
   XZ=   -43.8090   YZ=   -20.2525   ZZ=   137.4189
   Eigenvalues:   -45.6776    54.3286   151.0667
     24  H    Isotropic =    23.8249   Anisotropy =     7.5289
   XX=    25.1073   YX=    -1.7330   ZX=     1.5380
   XY=    -1.5944   YY=    28.0047   ZY=     0.0879
   XZ=     1.2557   YZ=    -0.8283   ZZ=    18.3628
   Eigenvalues:    18.0848    24.5458    28.8442
     25  C    Isotropic =    51.4969   Anisotropy =   150.1066
   XX=   -28.4915   YX=    33.9684   ZX=   -52.3137
   XY=    22.0311   YY=    46.6072   ZY=    -3.8075
   XZ=   -44.5594   YZ=   -10.6355   ZZ=   136.3748
   Eigenvalues:   -48.3857    51.3083   151.5679
     26  H    Isotropic =    23.7431   Anisotropy =     7.4052
   XX=    24.0663   YX=     1.1141   ZX=     1.9989
   XY=     0.9693   YY=    28.1000   ZY=     1.6568
   XZ=     2.0795   YZ=     0.8886   ZZ=    19.0630
   Eigenvalues:    18.2615    24.2880    28.6799
     27  C    Isotropic =    45.8108   Anisotropy =   207.2710
   XX=    -2.7702   YX=    13.7697   ZX=   -61.4651
   XY=     6.5593   YY=   -12.0335   ZY=   -41.6456
   XZ=   -62.6381   YZ=   -44.9232   ZZ=   152.2361
   Eigenvalues:   -28.0803   -18.4787   183.9915
     28  C    Isotropic =    47.8398   Anisotropy =   197.2870
   XX=    19.6900   YX=    14.4398   ZX=   -60.5682
   XY=    28.5650   YY=   -19.3566   ZY=   -56.7015
   XZ=   -63.1331   YZ=   -24.4782   ZZ=   143.1859
   Eigenvalues:   -30.5979    -5.2472   179.3644
     29  C    Isotropic =    49.3441   Anisotropy =   179.7793
   XX=    -3.4110   YX=    38.3775   ZX=   -80.8875
   XY=    36.1252   YY=    25.9805   ZY=   -23.7573
   XZ=   -78.1065   YZ=    -3.9802   ZZ=   125.4627
   Eigenvalues:   -51.6645    30.4997   169.1970
     30  H    Isotropic =    23.1387   Anisotropy =    13.3222
   XX=    22.4354   YX=    -0.7013   ZX=    -0.2375
   XY=    -2.1539   YY=    28.3546   ZY=     4.5555
   XZ=    -3.4181   YZ=     8.3231   ZZ=    18.6259
   Eigenvalues:    15.2751    22.1208    32.0201
     31  C    Isotropic =    55.4410   Anisotropy =   174.9390
   XX=    17.1871   YX=   -14.0890   ZX=   -84.0024
   XY=   -17.9030   YY=    37.4745   ZY=   -50.3662
   XZ=   -84.6557   YZ=   -54.8325   ZZ=   111.6615
   Eigenvalues:   -51.9248    46.1808   172.0670
     32  H    Isotropic =    24.5337   Anisotropy =     7.2554
   XX=    24.6185   YX=    -2.5264   ZX=     0.7632
   XY=    -2.7385   YY=    27.4630   ZY=     1.0335
   XZ=     1.1913   YZ=     3.7573   ZZ=    21.5194
   Eigenvalues:    19.8987    24.3316    29.3706
     33  C    Isotropic =    53.1814   Anisotropy =   179.0596
   XX=    60.9231   YX=    35.2256   ZX=   -42.9515
   XY=    32.0226   YY=   -38.1801   ZY=   -45.5652
   XZ=   -44.2248   YZ=   -50.7831   ZZ=   136.8014
   Eigenvalues:   -55.1197    42.1095   172.5545
     34  H    Isotropic =    24.2825   Anisotropy =     5.1861
   XX=    26.7643   YX=    -0.0934   ZX=     2.5955
   XY=    -0.2993   YY=    24.8157   ZY=     0.8589
   XZ=     2.3715   YZ=     1.4580   ZZ=    21.2676
   Eigenvalues:    20.0339    25.0737    27.7399
     35  C    Isotropic =    51.5295   Anisotropy =   155.1748
   XX=    -0.5131   YX=    52.5760   ZX=   -52.1551
   XY=    55.6135   YY=    25.1843   ZY=   -14.2643
   XZ=   -45.7255   YZ=   -17.1625   ZZ=   129.9171
   Eigenvalues:   -48.3147    47.9237   154.9793
     36  H    Isotropic =    23.8384   Anisotropy =     7.3073
   XX=    24.2302   YX=     1.4459   ZX=     2.1759
   XY=     1.2147   YY=    27.1572   ZY=     2.0665
   XZ=     1.6853   YZ=     2.7775   ZZ=    20.1277
   Eigenvalues:    18.9464    23.8588    28.7099
     37  Bq   Isotropic =    18.8914   Anisotropy =    29.4467
   XX=     8.7814   YX=    -0.1365   ZX=    -1.2742
   XY=    -2.2098   YY=    12.7953   ZY=    11.1425
   XZ=   -10.2580   YZ=     3.7971   ZZ=    35.0975
   Eigenvalues:     7.5287    10.6230    38.5225
     38  Bq   Isotropic =    19.3785   Anisotropy =    25.1768
   XX=    10.6295   YX=     0.8622   ZX=    -0.4131
   XY=    -2.4724   YY=    14.5651   ZY=    10.5491
   XZ=   -12.2611   YZ=     0.9809   ZZ=    32.9409
   Eigenvalues:     8.8462    13.1262    36.1630
     39  Bq   Isotropic =    18.0475   Anisotropy =    30.8657
   XX=     7.4702   YX=    -0.6209   ZX=    -1.6763
   XY=    -1.9208   YY=    11.6074   ZY=    11.0963
   XZ=    -9.0381   YZ=     5.3370   ZZ=    35.0648
   Eigenvalues:     6.4421     9.0756    38.6246
     40  Bq   Isotropic =    18.9589   Anisotropy =    22.5740
   XX=    10.9949   YX=     1.1778   ZX=    -0.1667
   XY=    -2.3578   YY=    15.0467   ZY=     9.7326
   XZ=   -12.6390   YZ=     0.2094   ZZ=    30.8351
   Eigenvalues:     8.9686    13.8998    34.0083
     41  Bq   Isotropic =    16.9493   Anisotropy =    31.7300
   XX=     6.0870   YX=    -1.0030   ZX=    -1.9828
   XY=    -1.5778   YY=    10.3526   ZY=    10.9277
   XZ=    -7.8782   YZ=     6.7077   ZZ=    34.4082
   Eigenvalues:     5.2373     7.5079    38.1026
     42  Bq   Isotropic =    18.2339   Anisotropy =    19.8854
   XX=    11.0420   YX=     1.2560   ZX=    -0.2004
   XY=    -2.0278   YY=    15.3315   ZY=     8.5260
   XZ=   -12.3530   YZ=     0.1739   ZZ=    28.3280
   Eigenvalues:     8.8347    14.3761    31.4908
     43  Bq   Isotropic =    15.7191   Anisotropy =    32.0521
   XX=     4.7550   YX=    -1.2569   ZX=    -2.1831
   XY=    -1.2113   YY=     9.1253   ZY=    10.6850
   XZ=    -6.8626   YZ=     7.8059   ZZ=    33.2769
   Eigenvalues:     4.0376     6.0325    37.0871
     44  Bq   Isotropic =    17.4283   Anisotropy =    17.3177
   XX=    10.9468   YX=     1.0796   ZX=    -0.5633
   XY=    -1.4767   YY=    15.5669   ZY=     7.0395
   XZ=   -11.3302   YZ=     0.9847   ZZ=    25.7713
   Eigenvalues:     8.6436    14.6679    28.9734
     45  Bq   Isotropic =    14.4561   Anisotropy =    31.8892
   XX=     3.5565   YX=    -1.3856   ZX=    -2.2888
   XY=    -0.8461   YY=     7.9888   ZY=    10.3942
   XZ=    -6.0276   YZ=     8.5934   ZZ=    31.8229
   Eigenvalues:     2.9259     4.7267    35.7155
     46  Bq   Isotropic =    16.7761   Anisotropy =    15.1467
   XX=    10.9098   YX=     0.7081   ZX=    -1.1850
   XY=    -0.7527   YY=    15.8899   ZY=     5.5282
   XZ=    -9.6495   YZ=     2.5940   ZZ=    23.5285
   Eigenvalues:     8.6028    14.8515    26.8739
     47  Bq   Isotropic =    19.3607   Anisotropy =    27.5166
   XX=     9.8758   YX=     0.3891   ZX=    -0.8232
   XY=    -2.4080   YY=    13.8091   ZY=    10.9915
   XZ=   -11.3964   YZ=     2.2650   ZZ=    34.3972
   Eigenvalues:     8.3626    12.0144    37.7051
     48  Bq   Isotropic =    21.2328   Anisotropy =    31.7173
   XX=    10.7820   YX=     0.7257   ZX=    -1.8861
   XY=    -1.2090   YY=    14.5420   ZY=    12.7755
   XZ=   -10.3940   YZ=     4.8188   ZZ=    38.3743
   Eigenvalues:     8.7301    12.5906    42.3777
     49  Bq   Isotropic =    22.4114   Anisotropy =    28.6919
   XX=    13.3122   YX=     2.3786   ZX=    -1.4391
   XY=    -0.7094   YY=    16.3440   ZY=    13.1507
   XZ=   -12.5457   YZ=     2.2438   ZZ=    37.5781
   Eigenvalues:     9.8062    15.8887    41.5393
     50  Bq   Isotropic =    19.9781   Anisotropy =    32.6515
   XX=     9.1034   YX=    -0.0036   ZX=    -2.0824
   XY=    -1.2193   YY=    13.1559   ZY=    12.2816
   XZ=    -9.1851   YZ=     6.3275   ZZ=    37.6750
   Eigenvalues:     7.5765    10.6120    41.7457
     51  Bq   Isotropic =    22.2016   Anisotropy =    26.7674
   XX=    13.9280   YX=     3.0579   ZX=    -1.3341
   XY=    -0.1812   YY=    16.6117   ZY=    12.6791
   XZ=   -13.0919   YZ=     1.7486   ZZ=    36.0650
   Eigenvalues:     9.6389    16.9194    40.0465
     52  Bq   Isotropic =    18.4813   Anisotropy =    33.1267
   XX=     7.3769   YX=    -0.5716   ZX=    -2.2149
   XY=    -1.1133   YY=    11.6524   ZY=    11.7449
   XZ=    -8.0698   YZ=     7.6834   ZZ=    36.4145
   Eigenvalues:     6.2161     8.6619    40.5658
     53  Bq   Isotropic =    21.5885   Anisotropy =    24.6740
   XX=    14.1448   YX=     3.4657   ZX=    -1.4267
   XY=     0.5229   YY=    16.5919   ZY=    11.5773
   XZ=   -13.0132   YZ=     2.0994   ZZ=    34.0287
   Eigenvalues:     9.1804    17.5472    38.0378
     54  Bq   Isotropic =    16.8938   Anisotropy =    33.1420
   XX=     5.7448   YX=    -0.9609   ZX=    -2.2816
   XY=    -0.9266   YY=    10.1727   ZY=    11.2178
   XZ=    -7.1137   YZ=     8.7649   ZZ=    34.7640
   Eigenvalues:     4.8158     6.8772    38.9885
     55  Bq   Isotropic =    20.8283   Anisotropy =    22.4954
   XX=    14.1475   YX=     3.5321   ZX=    -1.7588
   XY=     1.3497   YY=    16.5523   ZY=     9.8918
   XZ=   -12.1982   YZ=     3.3542   ZZ=    31.7852
   Eigenvalues:     8.7118    17.9480    35.8253
     56  Bq   Isotropic =    15.3303   Anisotropy =    32.7387
   XX=     4.2976   YX=    -1.1854   ZX=    -2.2934
   XY=    -0.6928   YY=     8.8101   ZY=    10.7167
   XZ=    -6.3382   YZ=     9.5257   ZZ=    32.8833
   Eigenvalues:     3.4995     5.3354    37.1561
     57  Bq   Isotropic =    20.1914   Anisotropy =    20.3939
   XX=    14.1521   YX=     3.2735   ZX=    -2.2750
   XY=     2.1972   YY=    16.7485   ZY=     7.9103
   XZ=   -10.6813   YZ=     5.3703   ZZ=    29.6736
   Eigenvalues:     8.4919    18.2949    33.7873
     58  Bq   Isotropic =    22.0839   Anisotropy =    30.3710
   XX=    12.2380   YX=     1.5555   ZX=    -1.6522
   XY=    -1.0480   YY=    15.6477   ZY=    13.1199
   XZ=   -11.5744   YZ=     3.3650   ZZ=    38.3659
   Eigenvalues:     9.5092    14.4113    42.3312
     59  Bq   Isotropic =    23.8003   Anisotropy =    34.2402
   XX=    13.0169   YX=     1.5380   ZX=    -2.9051
   XY=    -0.0538   YY=    16.7284   ZY=    14.6916
   XZ=   -10.4733   YZ=     6.4630   ZZ=    41.6555
   Eigenvalues:     9.3983    15.3754    46.6270
     60  Bq   Isotropic =    25.7241   Anisotropy =    33.0775
   XX=    16.3298   YX=     3.9119   ZX=    -3.1102
   XY=     1.4158   YY=    18.3386   ZY=    16.4752
   XZ=   -12.7685   YZ=     4.4092   ZZ=    42.5039
   Eigenvalues:     9.5368    19.8597    47.7758
     61  Bq   Isotropic =    22.0825   Anisotropy =    34.5192
   XX=    10.9108   YX=     0.5693   ZX=    -2.7766
   XY=    -0.4159   YY=    15.1283   ZY=    13.6155
   XZ=    -9.2876   YZ=     7.8173   ZZ=    40.2082
   Eigenvalues:     8.3633    12.7888    45.0952
     62  Bq   Isotropic =    25.7023   Anisotropy =    32.2521
   XX=    17.2192   YX=     5.0443   ZX=    -3.1935
   XY=     2.5155   YY=    18.0942   ZY=    16.5859
   XZ=   -13.4891   YZ=     4.3291   ZZ=    41.7933
   Eigenvalues:     8.5582    21.3449    47.2037
     63  Bq   Isotropic =    20.1360   Anisotropy =    34.5057
   XX=     8.7880   YX=    -0.1689   ZX=    -2.6396
   XY=    -0.5778   YY=    13.3251   ZY=    12.6300
   XZ=    -8.2322   YZ=     9.0496   ZZ=    38.2950
   Eigenvalues:     6.9712    10.2971    43.1398
     64  Bq   Isotropic =    25.1576   Anisotropy =    31.1627
   XX=    17.6183   YX=     5.9028   ZX=    -3.2908
   XY=     3.7627   YY=    17.3767   ZY=    15.7403
   XZ=   -13.6228   YZ=     5.1718   ZZ=    40.4778
   Eigenvalues:     7.2505    22.2896    45.9327
     65  Bq   Isotropic =    18.1486   Anisotropy =    34.1624
   XX=     6.8140   YX=    -0.6761   ZX=    -2.5026
   XY=    -0.5898   YY=    11.5303   ZY=    11.7758
   XZ=    -7.3505   YZ=    10.0205   ZZ=    36.1016
   Eigenvalues:     5.4535     8.0688    40.9236
     66  Bq   Isotropic =    24.4115   Anisotropy =    29.6717
   XX=    17.7444   YX=     6.3421   ZX=    -3.4263
   XY=     5.0058   YY=    16.6720   ZY=    13.8502
   XZ=   -13.0118   YZ=     6.9025   ZZ=    38.8180
   Eigenvalues:     6.1606    22.8813    44.1926
     67  Bq   Isotropic =    16.2520   Anisotropy =    33.4967
   XX=     5.0878   YX=    -0.9820   ZX=    -2.3726
   XY=    -0.5004   YY=     9.8797   ZY=    11.0444
   XZ=    -6.6470   YZ=    10.6767   ZZ=    33.7883
   Eigenvalues:     3.9851     6.1876    38.5831
     68  Bq   Isotropic =    23.8031   Anisotropy =    27.7587
   XX=    17.8448   YX=     6.3038   ZX=    -3.5924
   XY=     6.0473   YY=    16.4748   ZY=    11.2245
   XZ=   -11.6426   YZ=     9.2486   ZZ=    37.0898
   Eigenvalues:     5.7767    23.3237    42.3089
     69  Bq   Isotropic =    25.0737   Anisotropy =    33.7389
   XX=    14.8920   YX=     2.6885   ZX=    -3.0171
   XY=     0.5507   YY=    17.8697   ZY=    15.7283
   XZ=   -11.6894   YZ=     5.2234   ZZ=    42.4593
   Eigenvalues:     9.8385    17.8162    47.5662
     70  Bq   Isotropic =    26.3424   Anisotropy =    36.7979
   XX=    15.1178   YX=     2.1419   ZX=    -4.3436
   XY=     1.1051   YY=    19.3559   ZY=    16.5929
   XZ=   -10.4487   YZ=     8.6267   ZZ=    44.5535
   Eigenvalues:     9.8094    18.3434    50.8743
     71  Bq   Isotropic =    28.8702   Anisotropy =    38.2086
   XX=    18.9002   YX=     5.2212   ZX=    -5.5098
   XY=     3.6843   YY=    20.5619   ZY=    20.2212
   XZ=   -12.8508   YZ=     7.3838   ZZ=    47.1485
   Eigenvalues:     8.4370    23.8310    54.3426
     72  Bq   Isotropic =    24.1683   Anisotropy =    36.2646
   XX=    12.6423   YX=     0.9844   ZX=    -3.7527
   XY=     0.3791   YY=    17.5028   ZY=    14.8452
   XZ=    -9.3128   YZ=     9.7069   ZZ=    42.3599
   Eigenvalues:     8.9857    15.1746    48.3447
     73  Bq   Isotropic =    28.8679   Anisotropy =    39.0232
   XX=    19.7885   YX=     6.8849   ZX=    -5.8529
   XY=     5.5063   YY=    19.4415   ZY=    21.2072
   XZ=   -13.7381   YZ=     7.8664   ZZ=    47.3737
   Eigenvalues:     6.1169    25.6035    54.8834
     74  Bq   Isotropic =    21.7669   Anisotropy =    35.6920
   XX=    10.1496   YX=     0.1285   ZX=    -3.2438
   XY=    -0.0478   YY=    15.3346   ZY=    13.3829
   XZ=    -8.3441   YZ=    10.7139   ZZ=    39.8164
   Eigenvalues:     7.5993    12.1398    45.5616
     75  Bq   Isotropic =    28.1912   Anisotropy =    39.4878
   XX=    20.0805   YX=     8.3351   ZX=    -5.8835
   XY=     7.4805   YY=    17.5064   ZY=    20.8312
   XZ=   -14.0760   YZ=     9.3033   ZZ=    46.9868
   Eigenvalues:     3.3669    26.6904    54.5165
     76  Bq   Isotropic =    19.3734   Anisotropy =    34.9718
   XX=     7.8461   YX=    -0.4521   ZX=    -2.8336
   XY=    -0.2518   YY=    13.1585   ZY=    12.2074
   XZ=    -7.5603   YZ=    11.4903   ZZ=    37.1155
   Eigenvalues:     5.9855     9.4467    42.6879
     77  Bq   Isotropic =    27.3102   Anisotropy =    39.0917
   XX=    20.1390   YX=     9.3173   ZX=    -5.5824
   XY=     9.3003   YY=    15.6028   ZY=    18.7546
   XZ=   -13.6506   YZ=    11.5087   ZZ=    46.1887
   Eigenvalues:     1.1970    27.3622    53.3713
     78  Bq   Isotropic =    17.1400   Anisotropy =    34.0527
   XX=     5.8474   YX=    -0.8061   ZX=    -2.5172
   XY=    -0.3018   YY=    11.1620   ZY=    11.2657
   XZ=    -6.9474   YZ=    11.9746   ZZ=    34.4108
   Eigenvalues:     4.3855     7.1928    39.8419
     79  Bq   Isotropic =    26.7173   Anisotropy =    37.5089
   XX=    20.3420   YX=     9.6433   ZX=    -5.0428
   XY=    10.6070   YY=    14.6580   ZY=    15.2766
   XZ=   -12.3963   YZ=    14.0326   ZZ=    45.1518
   Eigenvalues:     0.5290    27.8996    51.7232
     80  Bq   Isotropic =    27.9973   Anisotropy =    37.4244
   XX=    17.2963   YX=     3.5833   ZX=    -4.9629
   XY=     2.1978   YY=    20.4971   ZY=    18.4971
   XZ=   -11.6782   YZ=     7.7392   ZZ=    46.1985
   Eigenvalues:     9.7057    21.3393    52.9469
     81  Bq   Isotropic =    28.5468   Anisotropy =    39.0675
   XX=    16.6335   YX=     2.3688   ZX=    -6.1679
   XY=     2.0761   YY=    22.3306   ZY=    17.9864
   XZ=   -10.2540   YZ=    11.0652   ZZ=    46.6762
   Eigenvalues:    10.1183    20.9303    54.5917
     82  Bq   Isotropic =    31.2503   Anisotropy =    43.7346
   XX=    19.9451   YX=     6.0081   ZX=    -8.6919
   XY=     5.7677   YY=    22.9783   ZY=    23.7106
   XZ=   -12.6764   YZ=    10.8410   ZZ=    50.8274
   Eigenvalues:     6.6997    26.6444    60.4067
     83  Bq   Isotropic =    26.0058   Anisotropy =    37.6254
   XX=    14.0067   YX=     1.1302   ZX=    -4.9656
   XY=     1.0351   YY=    20.1669   ZY=    15.5987
   XZ=    -9.2165   YZ=    11.7923   ZZ=    43.8437
   Eigenvalues:     9.5574    17.3705    51.0894
     84  Bq   Isotropic =    30.8720   Anisotropy =    46.8137
   XX=    20.0647   YX=     8.2528   ZX=    -9.4165
   XY=     8.4271   YY=    20.6020   ZY=    25.8666
   XZ=   -13.7014   YZ=    12.0002   ZZ=    51.9491
   Eigenvalues:     2.4461    28.0887    62.0811
     85  Bq   Isotropic =    23.2045   Anisotropy =    36.4856
   XX=    11.2713   YX=     0.2511   ZX=    -3.9862
   XY=     0.3916   YY=    17.5682   ZY=    13.7359
   XZ=    -8.3778   YZ=    12.5088   ZZ=    40.7740
   Eigenvalues:     8.1770    13.9082    47.5282
     86  Bq   Isotropic =    29.6081   Anisotropy =    49.5240
   XX=    19.4309   YX=    10.4585   ZX=    -9.3081
   XY=    11.3173   YY=    16.8526   ZY=    26.2360
   XZ=   -14.2181   YZ=    14.1046   ZZ=    52.5407
   Eigenvalues:    -2.4662    28.6664    62.6241
     87  Bq   Isotropic =    20.4447   Anisotropy =    35.4227
   XX=     8.7148   YX=    -0.3307   ZX=    -3.2432
   XY=     0.0334   YY=    14.9573   ZY=    12.3254
   XZ=    -7.7267   YZ=    13.0384   ZZ=    37.6621
   Eigenvalues:     6.4572    10.8172    44.0598
     88  Bq   Isotropic =    28.2454   Anisotropy =    50.7618
   XX=    18.8346   YX=    12.2175   ZX=    -8.2459
   XY=    13.8990   YY=    13.1207   ZY=    24.0583
   XZ=   -13.9468   YZ=    16.7478   ZZ=    52.7809
   Eigenvalues:    -6.3009    28.9505    62.0866
     89  Bq   Isotropic =    17.9067   Anisotropy =    34.3000
   XX=     6.4924   YX=    -0.6827   ZX=    -2.7064
   XY=    -0.1306   YY=    12.5754   ZY=    11.2510
   XZ=    -7.2296   YZ=    13.3107   ZZ=    34.6524
   Eigenvalues:     4.7217     8.2251    40.7734
     90  Bq   Isotropic =    27.6131   Anisotropy =    49.6851
   XX=    19.0587   YX=    13.1165   ZX=    -6.5003
   XY=    15.5473   YY=    11.0503   ZY=    19.5536
   XZ=   -12.7649   YZ=    19.2396   ZZ=    52.7301
   Eigenvalues:    -7.4076    29.5103    60.7365
     91  Bq   Isotropic =    30.4247   Anisotropy =    41.0655
   XX=    18.7473   YX=     4.0028   ZX=    -7.4893
   XY=     3.6302   YY=    23.4684   ZY=    20.8192
   XZ=   -11.4497   YZ=    10.6255   ZZ=    49.0583
   Eigenvalues:     9.3006    24.1717    57.8016
     92  Bq   Isotropic =    30.0862   Anisotropy =    40.6076
   XX=    17.1558   YX=     2.0408   ZX=    -8.2565
   XY=     2.6361   YY=    25.3740   ZY=    18.2430
   XZ=    -9.7946   YZ=    13.4038   ZZ=    47.7287
   Eigenvalues:    10.3876    22.7130    57.1579
     93  Bq   Isotropic =    32.2172   Anisotropy =    48.9479
   XX=    18.3735   YX=     5.8438   ZX=   -12.5761
   XY=     7.1718   YY=    25.3759   ZY=    25.8530
   XZ=   -12.0532   YZ=    14.1946   ZZ=    52.9022
   Eigenvalues:     4.5222    27.2803    64.8491
     94  Bq   Isotropic =    27.3601   Anisotropy =    38.2937
   XX=    14.7504   YX=     0.9072   ZX=    -6.3127
   XY=     1.4166   YY=    22.8645   ZY=    15.4494
   XZ=    -8.9386   YZ=    13.7831   ZZ=    44.4655
   Eigenvalues:    10.0968    19.0943    52.8892
     95  Bq   Isotropic =    30.7997   Anisotropy =    54.8819
   XX=    16.3442   YX=     8.5956   ZX=   -13.8561
   XY=    10.6509   YY=    21.4357   ZY=    29.3514
   XZ=   -13.1304   YZ=    16.0420   ZZ=    54.6191
   Eigenvalues:    -2.2527    27.2642    67.3876
     96  Bq   Isotropic =    24.2814   Anisotropy =    36.6808
   XX=    11.9910   YX=     0.1458   ZX=    -4.7906
   XY=     0.6603   YY=    19.8101   ZY=    13.4105
   XZ=    -8.2970   YZ=    14.2112   ZZ=    41.0430
   Eigenvalues:     8.7037    15.4052    48.7353
     97  Bq   Isotropic =    28.1639   Anisotropy =    60.5999
   XX=    13.2376   YX=    11.6579   ZX=   -13.5407
   XY=    14.5640   YY=    15.3239   ZY=    30.7651
   XZ=   -13.7490   YZ=    18.8135   ZZ=    55.9302
   Eigenvalues:   -10.1410    26.0688    68.5638
     98  Bq   Isotropic =    21.2449   Anisotropy =    35.3813
   XX=     9.3143   YX=    -0.3395   ZX=    -3.6802
   XY=     0.2186   YY=    16.7560   ZY=    11.9501
   XZ=    -7.8282   YZ=    14.4936   ZZ=    37.6644
   Eigenvalues:     6.8628    12.0396    44.8324
     99  Bq   Isotropic =    25.6965   Anisotropy =    64.1113
   XX=    10.8141   YX=    14.4464   ZX=   -11.2893
   XY=    18.0618   YY=     9.1818   ZY=    28.7079
   XZ=   -13.5770   YZ=    21.8271   ZZ=    57.0935
   Eigenvalues:   -16.3411    24.9932    68.4374
    100  Bq   Isotropic =    18.4705   Anisotropy =    34.1523
   XX=     6.9527   YX=    -0.6262   ZX=    -2.9089
   XY=    -0.0150   YY=    13.9906   ZY=    10.8840
   XZ=    -7.4811   YZ=    14.5544   ZZ=    34.4682
   Eigenvalues:     4.9878     9.1851    41.2387
    101  Bq   Isotropic =    24.9168   Anisotropy =    63.7347
   XX=    10.8511   YX=    16.2046   ZX=    -7.6670
   XY=    20.1199   YY=     5.7392   ZY=    23.1919
   XZ=   -12.4473   YZ=    24.0803   ZZ=    58.1601
   Eigenvalues:   -18.0309    25.3747    67.4066
    102  Bq   Isotropic =    31.8976   Anisotropy =    44.0737
   XX=    18.5757   YX=     3.6558   ZX=   -10.4786
   XY=     4.5007   YY=    26.5173   ZY=    21.8256
   XZ=   -10.8641   YZ=    13.4062   ZZ=    50.5999
   Eigenvalues:     8.7548    25.6580    61.2801
    103  Bq   Isotropic =    30.7039   Anisotropy =    40.9300
   XX=    16.5070   YX=     1.0081   ZX=   -10.3478
   XY=     2.5723   YY=    27.9705   ZY=    16.7879
   XZ=    -8.9442   YZ=    15.2178   ZZ=    47.6341
   Eigenvalues:    10.5995    23.5216    57.9905
    104  Bq   Isotropic =    31.3149   Anisotropy =    52.7867
   XX=    13.6575   YX=     4.1595   ZX=   -16.7567
   XY=     7.2275   YY=    27.2260   ZY=    25.3409
   XZ=   -10.6721   YZ=    16.7167   ZZ=    53.0612
   Eigenvalues:     2.1176    25.3212    66.5061
    105  Bq   Isotropic =    28.0455   Anisotropy =    37.9776
   XX=    14.7583   YX=     0.2534   ZX=    -7.6145
   XY=     1.4152   YY=    25.1807   ZY=    14.0590
   XZ=    -8.4037   YZ=    15.3646   ZZ=    44.1975
   Eigenvalues:    10.5556    20.2170    53.3639
    106  Bq   Isotropic =    28.0121   Anisotropy =    61.9135
   XX=     7.6517   YX=     7.0121   ZX=   -18.7348
   XY=    11.1627   YY=    21.5737   ZY=    30.0259
   XZ=   -11.5667   YZ=    19.1024   ZZ=    54.8109
   Eigenvalues:    -7.6208    22.3694    69.2878
    107  Bq   Isotropic =    24.8674   Anisotropy =    36.1137
   XX=    12.2307   YX=    -0.2080   ZX=    -5.5425
   XY=     0.7039   YY=    21.7470   ZY=    12.2142
   XZ=    -8.0581   YZ=    15.5883   ZZ=    40.6244
   Eigenvalues:     9.1321    16.5268    48.9432
    108  Bq   Isotropic =    22.9348   Anisotropy =    71.2668
   XX=    -0.1400   YX=    10.6946   ZX=   -18.0872
   XY=    15.8496   YY=    12.7874   ZY=    32.6796
   XZ=   -12.0467   YZ=    22.4155   ZZ=    56.1571
   Eigenvalues:   -19.2222    17.5807    70.4460
    109  Bq   Isotropic =    21.6851   Anisotropy =    34.7599
   XX=     9.5903   YX=    -0.4828   ZX=    -4.0759
   XY=     0.2760   YY=    18.3258   ZY=    10.9724
   XZ=    -7.8393   YZ=    15.6842   ZZ=    37.1390
   Eigenvalues:     7.1672    13.0296    44.8583
    110  Bq   Isotropic =    18.4609   Anisotropy =    77.6322
   XX=    -6.1683   YX=    14.5366   ZX=   -14.1029
   XY=    20.1305   YY=     3.9691   ZY=    31.1746
   XZ=   -11.8671   YZ=    25.6973   ZZ=    57.5819
   Eigenvalues:   -28.4468    13.6138    70.2157
    111  Bq   Isotropic =    18.7723   Anisotropy =    33.5649
   XX=     7.1905   YX=    -0.6361   ZX=    -3.0856
   XY=     0.0301   YY=    15.2441   ZY=    10.1008
   XZ=    -7.6863   YZ=    15.5786   ZZ=    33.8823
   Eigenvalues:     5.1607    10.0073    41.1489
    112  Bq   Isotropic =    17.3826   Anisotropy =    78.0978
   XX=    -6.6582   YX=    17.4422   ZX=    -7.8477
   XY=    22.5609   YY=    -0.6757   ZY=    25.1447
   XZ=   -10.9163   YZ=    27.5964   ZZ=    59.4818
   Eigenvalues:   -30.7544    13.4544    69.4478
    113  Bq   Isotropic =    32.0734   Anisotropy =    45.6918
   XX=    16.4874   YX=     2.2293   ZX=   -13.5850
   XY=     4.4146   YY=    29.0718   ZY=    20.6042
   XZ=    -9.7198   YZ=    15.5162   ZZ=    50.6611
   Eigenvalues:     8.1372    25.5484    62.5346
    114  Bq   Isotropic =    30.3244   Anisotropy =    39.7011
   XX=    14.9166   YX=    -0.7530   ZX=   -12.0296
   XY=     1.7791   YY=    29.4456   ZY=    13.4210
   XZ=    -7.5747   YZ=    16.1867   ZZ=    46.6109
   Eigenvalues:    10.6240    23.5574    56.7918
    115  Bq   Isotropic =    28.6046   Anisotropy =    54.1449
   XX=     6.5700   YX=     0.4827   ZX=   -20.3337
   XY=     5.2936   YY=    27.6585   ZY=    21.2538
   XZ=    -8.1596   YZ=    17.8515   ZZ=    51.5854
   Eigenvalues:    -0.5640    21.6766    64.7012
    116  Bq   Isotropic =    27.9903   Anisotropy =    36.5308
   XX=    14.1373   YX=    -0.8043   ZX=    -8.6232
   XY=     1.0020   YY=    26.6181   ZY=    11.3733
   XZ=    -7.5386   YZ=    16.2998   ZZ=    43.2155
   Eigenvalues:    10.8407    20.7860    52.3441
    117  Bq   Isotropic =    22.7068   Anisotropy =    66.2509
   XX=    -4.9040   YX=     2.5098   ZX=   -22.8916
   XY=     8.7428   YY=    20.3134   ZY=    26.4833
   XZ=    -8.3958   YZ=    20.5093   ZZ=    52.7109
   Eigenvalues:   -13.5034    14.7497    66.8741
    118  Bq   Isotropic =    24.9092   Anisotropy =    34.7371
   XX=    12.0369   YX=    -0.7746   ZX=    -6.1011
   XY=     0.5206   YY=    23.0308   ZY=    10.1538
   XZ=    -7.6190   YZ=    16.4653   ZZ=    39.6598
   Eigenvalues:     9.4058    17.2545    48.0673
    119  Bq   Isotropic =    14.2218   Anisotropy =    79.3141
   XX=   -19.3414   YX=     5.8901   ZX=   -21.5706
   XY=    13.2041   YY=     8.9435   ZY=    30.3153
   XZ=    -8.2131   YZ=    24.1557   ZZ=    53.0631
   Eigenvalues:   -29.2244     4.7918    67.0978
    120  Bq   Isotropic =    21.7301   Anisotropy =    33.5589
   XX=     9.5617   YX=    -0.7314   ZX=    -4.3535
   XY=     0.2101   YY=    19.4277   ZY=     9.4170
   XZ=    -7.7352   YZ=    16.4813   ZZ=    36.2010
   Eigenvalues:     7.3390    13.7487    44.1027
    121  Bq   Isotropic =     6.8853   Anisotropy =    88.6266
   XX=   -30.5827   YX=    10.1535   ZX=   -15.2883
   XY=    17.4036   YY=    -2.1992   ZY=    30.0559
   XZ=    -7.8764   YZ=    27.5697   ZZ=    53.4378
   Eigenvalues:   -41.7018    -3.6120    65.9697
    122  Bq   Isotropic =    18.7906   Anisotropy =    32.5576
   XX=     7.2121   YX=    -0.6925   ZX=    -3.1968
   XY=     0.0091   YY=    16.1716   ZY=     8.9258
   XZ=    -7.8290   YZ=    16.2892   ZZ=    32.9882
   Eigenvalues:     5.2230    10.6531    40.4957
    123  Bq   Isotropic =     5.3936   Anisotropy =    89.8707
   XX=   -31.9237   YX=    14.2432   ZX=    -5.9771
   XY=    19.8450   YY=    -7.1751   ZY=    24.8126
   XZ=    -7.6316   YZ=    29.1009   ZZ=    55.2798
   Eigenvalues:   -44.3321    -4.7944    65.3075
    124  Bq   Isotropic =    30.9138   Anisotropy =    45.2718
   XX=    12.9334   YX=    -0.4426   ZX=   -16.1715
   XY=     3.0867   YY=    30.3020   ZY=    16.6722
   XZ=    -7.7961   YZ=    16.5265   ZZ=    49.5060
   Eigenvalues:     7.3150    24.3315    61.0950
    125  Bq   Isotropic =    29.1343   Anisotropy =    37.0274
[...]
   146  Bq   0.000000
   147  Bq   0.000000
   148  Bq   0.000000
   149  Bq   0.000000
   150  Bq   0.000000
   151  Bq   0.000000
   152  Bq   0.000000
   153  Bq   0.000000
   154  Bq   0.000000
   155  Bq   0.000000
   156  Bq   0.000000
   157  Bq   0.000000
   158  Bq   0.000000
   159  Bq   0.000000
   160  Bq   0.000000
   161  Bq   0.000000
   162  Bq   0.000000
   163  Bq   0.000000
   164  Bq   0.000000
   165  Bq   0.000000
   166  Bq   0.000000
   167  Bq   0.000000
   168  Bq   0.000000
   169  Bq   0.000000
   170  Bq   0.000000
   171  Bq   0.000000
   172  Bq   0.000000
   173  Bq   0.000000
   174  Bq   0.000000
   175  Bq   0.000000
   176  Bq   0.000000
   177  Bq   0.000000
   178  Bq   0.000000
   179  Bq   0.000000
   180  Bq   0.000000
   181  Bq   0.000000
   182  Bq   0.000000
   183  Bq   0.000000
   184  Bq   0.000000
   185  Bq   0.000000
   186  Bq   0.000000
   187  Bq   0.000000
   188  Bq   0.000000
   189  Bq   0.000000
   190  Bq   0.000000
   191  Bq   0.000000
   192  Bq   0.000000
   193  Bq   0.000000
   194  Bq   0.000000
   195  Bq   0.000000
   196  Bq   0.000000
   197  Bq   0.000000
   198  Bq   0.000000
   199  Bq   0.000000
   200  Bq   0.000000
   201  Bq   0.000000
   202  Bq   0.000000
   203  Bq   0.000000
   204  Bq   0.000000
   205  Bq   0.000000
   206  Bq   0.000000
   207  Bq   0.000000
   208  Bq   0.000000
   209  Bq   0.000000
   210  Bq   0.000000
   211  Bq   0.000000
   212  Bq   0.000000
   213  Bq   0.000000
   214  Bq   0.000000
   215  Bq   0.000000
   216  Bq   0.000000
   217  Bq   0.000000
   218  Bq   0.000000
   219  Bq   0.000000
   220  Bq   0.000000
   221  Bq   0.000000
   222  Bq   0.000000
   223  Bq   0.000000
   224  Bq   0.000000
   225  Bq   0.000000
   226  Bq   0.000000
   227  Bq   0.000000
   228  Bq   0.000000
   229  Bq   0.000000
   230  Bq   0.000000
   231  Bq   0.000000
   232  Bq   0.000000
   233  Bq   0.000000
   234  Bq   0.000000
   235  Bq   0.000000
   236  Bq   0.000000
 Sum of Mulliken charges =   0.00000
 Mulliken charges with hydrogens summed into heavy atoms:
               1
     1  C   -0.255498
     3  C    0.169409
     5  C    0.448258
     6  C    0.064351
     7  C   -0.333926
     9  C   -0.139521
    11  C   -0.205988
    13  C   -0.119315
    15  C    0.653397
    16  C    0.034822
    17  C   -0.317410
    19  C   -0.316854
    21  C    0.651066
    22  C    0.037784
    23  C   -0.117289
    25  C   -0.205316
    27  C    0.448331
    28  C    0.061983
    29  C   -0.333381
    31  C   -0.139505
    33  C   -0.255977
    35  C    0.170579
    37  Bq   0.000000
    38  Bq   0.000000
    39  Bq   0.000000
    40  Bq   0.000000
    41  Bq   0.000000
    42  Bq   0.000000
    43  Bq   0.000000
    44  Bq   0.000000
    45  Bq   0.000000
    46  Bq   0.000000
    47  Bq   0.000000
    48  Bq   0.000000
    49  Bq   0.000000
    50  Bq   0.000000
    51  Bq   0.000000
    52  Bq   0.000000
    53  Bq   0.000000
    54  Bq   0.000000
    55  Bq   0.000000
    56  Bq   0.000000
    57  Bq   0.000000
    58  Bq   0.000000
    59  Bq   0.000000
    60  Bq   0.000000
    61  Bq   0.000000
    62  Bq   0.000000
    63  Bq   0.000000
    64  Bq   0.000000
    65  Bq   0.000000
    66  Bq   0.000000
    67  Bq   0.000000
    68  Bq   0.000000
    69  Bq   0.000000
    70  Bq   0.000000
    71  Bq   0.000000
    72  Bq   0.000000
    73  Bq   0.000000
    74  Bq   0.000000
    75  Bq   0.000000
    76  Bq   0.000000
    77  Bq   0.000000
    78  Bq   0.000000
    79  Bq   0.000000
    80  Bq   0.000000
    81  Bq   0.000000
    82  Bq   0.000000
    83  Bq   0.000000
    84  Bq   0.000000
    85  Bq   0.000000
    86  Bq   0.000000
    87  Bq   0.000000
    88  Bq   0.000000
    89  Bq   0.000000
    90  Bq   0.000000
    91  Bq   0.000000
    92  Bq   0.000000
    93  Bq   0.000000
    94  Bq   0.000000
    95  Bq   0.000000
    96  Bq   0.000000
    97  Bq   0.000000
    98  Bq   0.000000
    99  Bq   0.000000
   100  Bq   0.000000
   101  Bq   0.000000
   102  Bq   0.000000
   103  Bq   0.000000
   104  Bq   0.000000
   105  Bq   0.000000
   106  Bq   0.000000
   107  Bq   0.000000
   108  Bq   0.000000
   109  Bq   0.000000
   110  Bq   0.000000
   111  Bq   0.000000
   112  Bq   0.000000
   113  Bq   0.000000
   114  Bq   0.000000
   115  Bq   0.000000
   116  Bq   0.000000
   117  Bq   0.000000
   118  Bq   0.000000
   119  Bq   0.000000
   120  Bq   0.000000
   121  Bq   0.000000
   122  Bq   0.000000
   123  Bq   0.000000
   124  Bq   0.000000
   125  Bq   0.000000
   126  Bq   0.000000
   127  Bq   0.000000
   128  Bq   0.000000
   129  Bq   0.000000
   130  Bq   0.000000
   131  Bq   0.000000
   132  Bq   0.000000
   133  Bq   0.000000
   134  Bq   0.000000
   135  Bq   0.000000
   136  Bq   0.000000
   137  Bq   0.000000
   138  Bq   0.000000
   139  Bq   0.000000
   140  Bq   0.000000
   141  Bq   0.000000
   142  Bq   0.000000
   143  Bq   0.000000
   144  Bq   0.000000
   145  Bq   0.000000
   146  Bq   0.000000
   147  Bq   0.000000
   148  Bq   0.000000
   149  Bq   0.000000
   150  Bq   0.000000
   151  Bq   0.000000
   152  Bq   0.000000
   153  Bq   0.000000
   154  Bq   0.000000
   155  Bq   0.000000
   156  Bq   0.000000
   157  Bq   0.000000
   158  Bq   0.000000
   159  Bq   0.000000
   160  Bq   0.000000
   161  Bq   0.000000
   162  Bq   0.000000
   163  Bq   0.000000
   164  Bq   0.000000
   165  Bq   0.000000
   166  Bq   0.000000
   167  Bq   0.000000
   168  Bq   0.000000
   169  Bq   0.000000
   170  Bq   0.000000
   171  Bq   0.000000
   172  Bq   0.000000
   173  Bq   0.000000
   174  Bq   0.000000
   175  Bq   0.000000
   176  Bq   0.000000
   177  Bq   0.000000
   178  Bq   0.000000
   179  Bq   0.000000
   180  Bq   0.000000
   181  Bq   0.000000
   182  Bq   0.000000
   183  Bq   0.000000
   184  Bq   0.000000
   185  Bq   0.000000
   186  Bq   0.000000
   187  Bq   0.000000
   188  Bq   0.000000
   189  Bq   0.000000
   190  Bq   0.000000
   191  Bq   0.000000
   192  Bq   0.000000
   193  Bq   0.000000
   194  Bq   0.000000
   195  Bq   0.000000
   196  Bq   0.000000
   197  Bq   0.000000
   198  Bq   0.000000
   199  Bq   0.000000
   200  Bq   0.000000
   201  Bq   0.000000
   202  Bq   0.000000
   203  Bq   0.000000
   204  Bq   0.000000
   205  Bq   0.000000
   206  Bq   0.000000
   207  Bq   0.000000
   208  Bq   0.000000
   209  Bq   0.000000
   210  Bq   0.000000
   211  Bq   0.000000
   212  Bq   0.000000
   213  Bq   0.000000
   214  Bq   0.000000
   215  Bq   0.000000
   216  Bq   0.000000
   217  Bq   0.000000
   218  Bq   0.000000
   219  Bq   0.000000
   220  Bq   0.000000
   221  Bq   0.000000
   222  Bq   0.000000
   223  Bq   0.000000
   224  Bq   0.000000
   225  Bq   0.000000
   226  Bq   0.000000
   227  Bq   0.000000
   228  Bq   0.000000
   229  Bq   0.000000
   230  Bq   0.000000
   231  Bq   0.000000
   232  Bq   0.000000
   233  Bq   0.000000
   234  Bq   0.000000
   235  Bq   0.000000
   236  Bq   0.000000
 Electronic spatial extent (au):  <R**2>=           5736.9264
 Charge=              0.0000 electrons
 Dipole moment (field-independent basis, Debye):
    X=              0.0475    Y=              0.0856    Z=              0.0029  Tot=              0.0979
 Quadrupole moment (field-independent basis, Debye-Ang):
   XX=           -113.7056   YY=           -113.9456   ZZ=           -133.2669
   XY=             -0.3834   XZ=              3.2102   YZ=             -1.1839
 Traceless Quadrupole moment (field-independent basis, Debye-Ang):
   XX=              6.6005   YY=              6.3604   ZZ=            -12.9609
   XY=             -0.3834   XZ=              3.2102   YZ=             -1.1839
 Octapole moment (field-independent basis, Debye-Ang**2):
  XXX=            -16.4668  YYY=            -16.1860  ZZZ=             -1.7007  XYY=              2.5576
  XXY=             -6.5650  XXZ=             13.6547  XZZ=             -8.9478  YZZ=            -17.7168
  YYZ=            -13.2941  XYZ=              8.8036
 Hexadecapole moment (field-independent basis, Debye-Ang**3):
 XXXX=          -3951.1638 YYYY=          -3112.2161 ZZZZ=           -504.8311 XXXY=            340.6935
 XXXZ=            156.4968 YYYX=            335.5625 YYYZ=            -87.0893 ZZZX=            120.2262
 ZZZY=           -108.7373 XXYY=          -1176.4844 XXZZ=           -856.7291 YYZZ=           -665.7275
 XXYZ=            -68.9016 YYXZ=             48.1602 ZZXY=            153.0375
 N-N= 1.610917615562D+03 E-N=-5.186891130729D+03  KE= 8.436329774448D+02
 1\1\GINC-PLANA\SP\RB3LYP\6-311+G(d,p)\C22H14\YANNICK\23-Aug-2020\0\\# 
 rb3lyp/6-311+g** NMR geom=connectivity\\Title\\0,1\C,0,-4.0500558,-0.5
 771862,0.8136712\H,0,-5.0263804,-1.0082727,1.002476\C,0,-3.9381552,0.6
 617804,0.2400876\H,0,-4.8252424,1.233889,-0.0111295\C,0,-2.676841,1.24
 33246,0.0057578\C,0,-1.4974121,0.5051527,0.2848253\C,0,-1.6508332,-0.7
 338728,0.9404026\H,0,-0.7713646,-1.2730967,1.2633753\C,0,-2.8898548,-1
 .2624035,1.1994307\H,0,-2.9683706,-2.2124563,1.7152676\C,0,-2.5773185,
 2.5963696,-0.419293\H,0,-3.4870728,3.1412239,-0.6474055\C,0,-1.3741895
 ,3.2147896,-0.436403\H,0,-1.2997315,4.2742019,-0.6578144\C,0,-0.171948
 8,2.499409,-0.1734588\C,0,-0.2043917,1.1018437,0.0192689\C,0,1.0513491
 ,3.204256,-0.0676222\H,0,1.0427344,4.2819499,-0.1896997\C,0,2.1942091,
 2.5487446,0.2579577\H,0,3.1168527,3.0912848,0.4334727\C,0,2.2216473,1.
 1336562,0.293499\C,0,1.0486931,0.3945528,0.0302412\C,0,3.4483363,0.461
 4633,0.5573939\H,0,4.3095794,1.0606054,0.8334846\C,0,3.5427346,-0.8855
 926,0.4749463\H,0,4.4731467,-1.3939704,0.7038822\C,0,2.4490052,-1.6474
 447,-0.0196319\C,0,1.2150704,-1.0057258,-0.3013573\C,0,0.2531113,-1.74
 3444,-1.0216591\H,0,-0.6541356,-1.2535051,-1.3462847\C,0,0.4494193,-3.
 0628597,-1.3413779\H,0,-0.3083162,-3.5944309,-1.905406\C,0,1.6251726,-
 3.7207967,-0.9552541\H,0,1.7670048,-4.7687404,-1.1927019\C,0,2.6109872
 ,-3.0144177,-0.318305\H,0,3.5525612,-3.4902813,-0.0646367\Bq,0,-2.3851
 31086,0.6839524654,0.9051605586\Bq,0,-2.3844230949,0.5969870314,0.7250
 591648\Bq,0,-2.3854850816,0.7274351824,0.9952112555\Bq,0,-2.3840690993
 ,0.5535043144,0.6350084679\Bq,0,-2.3858390772,0.7709178994,1.085261952
 3\Bq,0,-2.3837151037,0.5100215974,0.544957771\Bq,0,-2.3861930728,0.814
 4006164,1.1753126492\Bq,0,-2.3833611082,0.4665388804,0.4549070742\Bq,0
 ,-2.3865470683,0.8578833334,1.2653633461\Bq,0,-2.3830071126,0.42305616
 34,0.3648563773\Bq,0,-2.3847770905,0.6404697484,0.8151098617\Bq,0,-2.3
 849601538,0.7740038581,0.8616781775\Bq,0,-2.3842521626,0.687038424,0.6
 815767838\Bq,0,-2.3853141493,0.8174865751,0.9517288744\Bq,0,-2.3838981
 67,0.643555707,0.5915260869\Bq,0,-2.3856681449,0.8609692921,1.04177957
 13\Bq,0,-2.3835441715,0.60007299,0.50147539\Bq,0,-2.3860221405,0.90445
 20091,1.1318302682\Bq,0,-2.3831901759,0.556590273,0.4114246931\Bq,0,-2
 .3863761361,0.9479347261,1.2218809651\Bq,0,-2.3828361803,0.513107556,0
 .3213739962\Bq,0,-2.3846061582,0.730521141,0.7716274807\Bq,0,-2.384789
 2215,0.8640552507,0.8181957965\Bq,0,-2.3840812303,0.7770898167,0.63809
 44027\Bq,0,-2.3851432171,0.9075379677,0.9082464934\Bq,0,-2.3837272348,
 0.7336070997,0.5480437059\Bq,0,-2.3854972126,0.9510206847,0.9982971903
 \Bq,0,-2.3833732392,0.6901243827,0.457993009\Bq,0,-2.3858512082,0.9945
 034017,1.0883478872\Bq,0,-2.3830192436,0.6466416657,0.3679423121\Bq,0,
 -2.3862052038,1.0379861187,1.178398584\Bq,0,-2.382665248,0.6031589487,
 0.2778916152\Bq,0,-2.3844352259,0.8205725337,0.7281450996\Bq,0,-2.3846
 182892,0.9541066434,0.7747134155\Bq,0,-2.3839102981,0.8671412094,0.594
 6120217\Bq,0,-2.3849722848,0.9975893604,0.8647641124\Bq,0,-2.383556302
 5,0.8236584924,0.5045613248\Bq,0,-2.3853262804,1.0410720774,0.95481480
 92\Bq,0,-2.3832023069,0.7801757754,0.4145106279\Bq,0,-2.3856802759,1.0
 845547944,1.0448655061\Bq,0,-2.3828483113,0.7366930584,0.3244599311\Bq
 ,0,-2.3860342715,1.1280375114,1.134916203\Bq,0,-2.3824943158,0.6932103
 414,0.2344092342\Bq,0,-2.3842642936,0.9106239264,0.6846627186\Bq,0,-2.
 3844473569,1.0441580361,0.7312310344\Bq,0,-2.3837393658,0.9571926021,0
 .5511296407\Bq,0,-2.3848013525,1.0876407531,0.8212817313\Bq,0,-2.38338
 53702,0.913709885,0.4610789438\Bq,0,-2.3851553481,1.1311234701,0.91133
 24282\Bq,0,-2.3830313746,0.870227168,0.3710282469\Bq,0,-2.3855093437,1
 .1746061871,1.0013831251\Bq,0,-2.3826773791,0.826744451,0.28097755\Bq,
 0,-2.3858633392,1.2180889041,1.091433822\Bq,0,-2.3823233835,0.78326173
 4,0.1909268531\Bq,0,-2.3840933614,1.0006753191,0.6411803376\Bq,0,-2.38
 42764247,1.1342094287,0.6877486534\Bq,0,-2.3835684335,1.0472439947,0.5
 076472596\Bq,0,-2.3846304202,1.1776921457,0.7777993503\Bq,0,-2.3832144
 379,1.0037612777,0.4175965628\Bq,0,-2.3849844158,1.2211748627,0.867850
 0472\Bq,0,-2.3828604424,0.9602785607,0.3275458659\Bq,0,-2.3853384114,1
 .2646575797,0.9579007441\Bq,0,-2.3825064468,0.9167958437,0.237495169\B
 q,0,-2.385692407,1.3081402968,1.0479514409\Bq,0,-2.3821524512,0.873313
 1267,0.1474444721\Bq,0,-2.3839224291,1.0907267117,0.5976979565\Bq,0,-2
 .3841054924,1.2242608214,0.6442662724\Bq,0,-2.3833975012,1.1372953874,
 0.4641648786\Bq,0,-2.384459488,1.2677435384,0.7343169693\Bq,0,-2.38304
 35057,1.0938126704,0.3741141817\Bq,0,-2.3848134835,1.3112262554,0.8243
 676661\Bq,0,-2.3826895101,1.0503299534,0.2840634848\Bq,0,-2.3851674791
 ,1.3547089724,0.914418363\Bq,0,-2.3823355145,1.0068472364,0.194012788\
 Bq,0,-2.3855214747,1.3981916894,1.0044690599\Bq,0,-2.3819815189,0.9633
 645194,0.1039620911\Bq,0,-2.3837514968,1.1807781044,0.5542155755\Bq,0,
 -2.3839345601,1.3143122141,0.6007838913\Bq,0,-2.383226569,1.2273467801
 ,0.4206824976\Bq,0,-2.3842885557,1.3577949311,0.6908345882\Bq,0,-2.382
 8725734,1.1838640631,0.3306318007\Bq,0,-2.3846425513,1.4012776481,0.78
 08852851\Bq,0,-2.3825185778,1.1403813461,0.2405811038\Bq,0,-2.38499654
 68,1.4447603651,0.870935982\Bq,0,-2.3821645822,1.0968986291,0.15053040
 69\Bq,0,-2.3853505424,1.4882430821,0.9609866789\Bq,0,-2.3818105867,1.0
 53415912,0.06047971\Bq,0,-2.3835805645,1.2708294971,0.5107331945\Bq,0,
 -2.3837636278,1.4043636067,0.5573015103\Bq,0,-2.3830556367,1.317398172
 7,0.3772001165\Bq,0,-2.3841176234,1.4478463237,0.6473522072\Bq,0,-2.38
 27016411,1.2739154557,0.2871494197\Bq,0,-2.384471619,1.4913290408,0.73
 74029041\Bq,0,-2.3823476455,1.2304327387,0.1970987228\Bq,0,-2.38482561
 46,1.5348117578,0.827453601\Bq,0,-2.38199365,1.1869500217,0.1070480259
 \Bq,0,-2.3851796101,1.5782944748,0.9175042978\Bq,0,-2.3816396544,1.143
 4673047,0.016997329\Bq,0,-2.3834096323,1.3608808897,0.4672508134\Bq,0,
 -2.3835926956,1.4944149994,0.5138191293\Bq,0,-2.3828847044,1.407449565
 4,0.3337177355\Bq,0,-2.3839466911,1.5378977164,0.6038698262\Bq,0,-2.38
 25307088,1.3639668484,0.2436670386\Bq,0,-2.3843006867,1.5813804334,0.6
 93920523\Bq,0,-2.3821767133,1.3204841314,0.1536163417\Bq,0,-2.38465468
 23,1.6248631504,0.7839712199\Bq,0,-2.3818227177,1.2770014144,0.0635656
 449\Bq,0,-2.3850086779,1.6683458674,0.8740219168\Bq,0,-2.3814687221,1.
 2335186974,-0.026485052\Bq,0,-2.3832387,1.4509322824,0.4237684324\Bq,0
 ,-2.3834217633,1.5844663921,0.4703367482\Bq,0,-2.3827137721,1.49750095
 81,0.2902353545\Bq,0,-2.3837757589,1.6279491091,0.5603874451\Bq,0,-2.3
 823597766,1.4540182411,0.2001846576\Bq,0,-2.3841297544,1.6714318261,0.
 650438142\Bq,0,-2.382005781,1.4105355241,0.1101339607\Bq,0,-2.38448375
 ,1.7149145431,0.7404888389\Bq,0,-2.3816517854,1.3670528071,0.020083263
 8\Bq,0,-2.3848377456,1.7583972601,0.8305395358\Bq,0,-2.3812977898,1.32
 35700901,-0.0699674331\Bq,0,-2.3830677677,1.5409836751,0.3802860514\Bq
 ,0,-2.383250831,1.6745177848,0.4268543672\Bq,0,-2.3825428399,1.5875523
 507,0.2467529734\Bq,0,-2.3836048266,1.7180005018,0.5169050641\Bq,0,-2.
 3821888443,1.5440696337,0.1567022766\Bq,0,-2.3839588222,1.7614832188,0
 .606955761\Bq,0,-2.3818348487,1.5005869167,0.0666515797\Bq,0,-2.384312
 8177,1.8049659358,0.6970064579\Bq,0,-2.3814808531,1.4571041997,-0.0233
 991172\Bq,0,-2.3846668133,1.8484486528,0.7870571547\Bq,0,-2.3811268576
 ,1.4136214827,-0.1134498141\Bq,0,-2.3828968354,1.6310350678,0.33680367
 03\Bq,0,-2.3830798987,1.7645691774,0.3833719862\Bq,0,-2.3823719076,1.6
 776037434,0.2032705924\Bq,0,-2.3834338943,1.8080518944,0.4734226831\Bq
 ,0,-2.382017912,1.6341210264,0.1132198955\Bq,0,-2.3837878899,1.8515346
 114,0.5634733799\Bq,0,-2.3816639164,1.5906383094,0.0231691986\Bq,0,-2.
 3841418855,1.8950173284,0.6535240768\Bq,0,-2.3813099209,1.5471555924,-
 0.0668814982\Bq,0,-2.384495881,1.9385000454,0.7435747737\Bq,0,-2.38095
 59253,1.5036728754,-0.1569321951\Bq,0,-2.3827259032,1.7210864604,0.293
 3212893\Bq,0,-2.3829089665,1.8546205701,0.3398896051\Bq,0,-2.382200975
 3,1.7676551361,0.1597882114\Bq,0,-2.383262962,1.8981032871,0.429940302
 \Bq,0,-2.3818469797,1.7241724191,0.0697375145\Bq,0,-2.3836169576,1.941
 5860041,0.5199909989\Bq,0,-2.3814929842,1.6806897021,-0.0203131824\Bq,
 0,-2.3839709532,1.9850687211,0.6100416958\Bq,0,-2.3811389886,1.6372069
 851,-0.1103638793\Bq,0,-2.3843249488,2.0285514381,0.7000923927\Bq,0,-2
 .380784993,1.5937242681,-0.2004145761\Bq,0,-2.3825549709,1.8111378531,
 0.2498389083\Bq,0,-2.3827380342,1.9446719628,0.2964072241\Bq,0,-2.3820
 30043,1.8577065288,0.1163058303\Bq,0,-2.3830920298,1.9881546798,0.3864
 57921\Bq,0,-2.3816760475,1.8142238118,0.0262551335\Bq,0,-2.3834460253,
 2.0316373968,0.4765086179\Bq,0,-2.3813220519,1.7707410947,-0.063795563
 4\Bq,0,-2.3838000209,2.0751201138,0.5665593148\Bq,0,-2.3809680563,1.72
 72583777,-0.1538462603\Bq,0,-2.3841540165,2.1186028308,0.6566100116\Bq
 ,0,-2.3806140607,1.6837756607,-0.2438969572\Bq,0,-2.3823840386,1.90118
 92458,0.2063565272\Bq,0,-2.3825671019,2.0347233554,0.2529248431\Bq,0,-
 2.3818591108,1.9477579214,0.0728234493\Bq,0,-2.3829210975,2.0782060724
 ,0.34297554\Bq,0,-2.3815051152,1.9042752044,-0.0172272476\Bq,0,-2.3832
 750931,2.1216887894,0.4330262368\Bq,0,-2.3811511196,1.8607924874,-0.10
 72779444\Bq,0,-2.3836290886,2.1651715065,0.5230769337\Bq,0,-2.38079712
 4,1.8173097704,-0.1973286413\Bq,0,-2.3839830842,2.2086542235,0.6131276
 306\Bq,0,-2.3804431285,1.7738270534,-0.2873793382\Bq,0,-2.3822131063,1
 .9912406384,0.1628741462\Bq,0,-2.3823961696,2.1247747481,0.209442462\B
 q,0,-2.3816881785,2.0378093141,0.0293410683\Bq,0,-2.3827501652,2.16825
 74651,0.2994931589\Bq,0,-2.3813341829,1.9943265971,-0.0607096286\Bq,0,
 -2.3831041608,2.2117401821,0.3895438558\Bq,0,-2.3809801873,1.950843880
 1,-0.1507603255\Bq,0,-2.3834581564,2.2552228991,0.4795945527\Bq,0,-2.3
 806261918,1.9073611631,-0.2408110224\Bq,0,-2.3838121519,2.2987056161,0
 .5696452496\Bq,0,-2.3802721962,1.8638784461,-0.3308617192\Bq,0,-2.3820
 421741,2.0812920311,0.1193917652\Bq,0,-2.3822252374,2.2148261408,0.165
 960081\Bq,0,-2.3815172462,2.1278607068,-0.0141413127\Bq,0,-2.382579232
 9,2.2583088578,0.2560107779\Bq,0,-2.3811632506,2.0843779898,-0.1041920
 096\Bq,0,-2.3829332285,2.3017915748,0.3460614748\Bq,0,-2.3808092551,2.
 0408952728,-0.1942427065\Bq,0,-2.3832872241,2.3452742918,0.4361121717\
 Bq,0,-2.3804552595,1.9974125558,-0.2842934034\Bq,0,-2.3836412197,2.388
 7570088,0.5261628685\Bq,0,-2.3801012639,1.9539298388,-0.3743441003\Bq,
 0,-2.3818712418,2.1713434238,0.0759093841\Bq,0,-2.3820543051,2.3048775
 334,0.1224777\Bq,0,-2.3813463139,2.2179120994,-0.0576236938\\Version=E
 S64L-G09RevD.01\HF=-847.0032898\RMSD=7.529e-09\Dipole=0.0186808,0.0336
 671,0.0011595\Quadrupole=4.9072795,4.7288219,-9.6361014,-0.2850201,2.3
 867064,-0.880172\PG=C01 [X(C22H14)]\\@


 ACTORS ARE SO FORTUNATE.  THEY CAN CHOOSE WHETHER
 THEY WILL APPEAR IN A TRAGEDY OR IN COMEDY,
 WHETHER THEY WILL SUFFER OF MAKE MERRY,
 LAUGH OR SHED TEARS.  BUT IN REAL LIFE IT IS DIFFERENT.
 MOST MEN AND WOMEN ARE FORCED TO PERFORM
 PARTS FOR WHICH THEY HAVE NO QUALIFICATIONS.
 THE WORLD IS A STAGE, BUT THE PLAY IS BADLY CAST.

                                   -- OSCAR WILDE
 Job cpu time:       0 days  3 hours 27 minutes 18.8 seconds.
 File lengths (MBytes):  RWF=    184 Int=      0 D2E=      0 Chk=     19 Scr=      1
 Normal termination of Gaussian 09 at Sun Aug 23 04:20:46 2020.
