 Entering Gaussian System, Link 0=g09
 Input=input_cycle_05_batch_28000.com
 Output=input_cycle_05_batch_28000.log
 Initial command:
 /share/programs/GAUSSIAN/64/g09/l1.exe "/scratch/yannick.30840/Gau-13995.inp" -scrdir="/scratch/yannick.30840/"
 Entering Link 1 = /share/programs/GAUSSIAN/64/g09/l1.exe PID=     13996.
  
 Copyright (c) 1988,1990,1992,1993,1995,1998,2003,2009,2013,
            Gaussian, Inc.  All Rights Reserved.
  
 This is part of the Gaussian(R) 09 program.  It is based on
 the Gaussian(R) 03 system (copyright 2003, Gaussian, Inc.),
 the Gaussian(R) 98 system (copyright 1998, Gaussian, Inc.),
 the Gaussian(R) 94 system (copyright 1995, Gaussian, Inc.),
 the Gaussian 92(TM) system (copyright 1992, Gaussian, Inc.),
 the Gaussian 90(TM) system (copyright 1990, Gaussian, Inc.),
 the Gaussian 88(TM) system (copyright 1988, Gaussian, Inc.),
 the Gaussian 86(TM) system (copyright 1986, Carnegie Mellon
 University), and the Gaussian 82(TM) system (copyright 1983,
 Carnegie Mellon University). Gaussian is a federally registered
 trademark of Gaussian, Inc.
  
 This software contains proprietary and confidential information,
 including trade secrets, belonging to Gaussian, Inc.
  
 This software is provided under written license and may be
 used, copied, transmitted, or stored only in accord with that
 written license.
  
 The following legend is applicable only to US Government
 contracts under FAR:
  
                    RESTRICTED RIGHTS LEGEND
  
 Use, reproduction and disclosure by the US Government is
 subject to restrictions as set forth in subparagraphs (a)
 and (c) of the Commercial Computer Software - Restricted
 Rights clause in FAR 52.227-19.
  
 Gaussian, Inc.
 340 Quinnipiac St., Bldg. 40, Wallingford CT 06492
  
  
 ---------------------------------------------------------------
 Warning -- This program may not be used in any manner that
 competes with the business of Gaussian, Inc. or will provide
 assistance to any competitor of Gaussian, Inc.  The licensee
 of this program is prohibited from giving any competitor of
 Gaussian, Inc. access to this program.  By using this program,
 the user acknowledges that Gaussian, Inc. is engaged in the
 business of creating and licensing software in the field of
 computational chemistry and represents and warrants to the
 licensee that it is not a competitor of Gaussian, Inc. and that
 it will not use this program in any manner prohibited above.
 ---------------------------------------------------------------
  

 Cite this work as:
 Gaussian 09, Revision D.01,
 M. J. Frisch, G. W. Trucks, H. B. Schlegel, G. E. Scuseria, 
 M. A. Robb, J. R. Cheeseman, G. Scalmani, V. Barone, B. Mennucci, 
 G. A. Petersson, H. Nakatsuji, M. Caricato, X. Li, H. P. Hratchian, 
 A. F. Izmaylov, J. Bloino, G. Zheng, J. L. Sonnenberg, M. Hada, 
 M. Ehara, K. Toyota, R. Fukuda, J. Hasegawa, M. Ishida, T. Nakajima, 
 Y. Honda, O. Kitao, H. Nakai, T. Vreven, J. A. Montgomery, Jr., 
 J. E. Peralta, F. Ogliaro, M. Bearpark, J. J. Heyd, E. Brothers, 
 K. N. Kudin, V. N. Staroverov, T. Keith, R. Kobayashi, J. Normand, 
 K. Raghavachari, A. Rendell, J. C. Burant, S. S. Iyengar, J. Tomasi, 
 M. Cossi, N. Rega, J. M. Millam, M. Klene, J. E. Knox, J. B. Cross, 
 V. Bakken, C. Adamo, J. Jaramillo, R. Gomperts, R. E. Stratmann, 
 O. Yazyev, A. J. Austin, R. Cammi, C. Pomelli, J. W. Ochterski, 
 R. L. Martin, K. Morokuma, V. G. Zakrzewski, G. A. Voth, 
 P. Salvador, J. J. Dannenberg, S. Dapprich, A. D. Daniels, 
 O. Farkas, J. B. Foresman, J. V. Ortiz, J. Cioslowski, 
 and D. J. Fox, Gaussian, Inc., Wallingford CT, 2013.
 
 ******************************************
 Gaussian 09:  ES64L-G09RevD.01 24-Apr-2013
                23-Aug-2020 
 ******************************************
 %nproc=8
 Will use up to    8 processors via shared memory.
 %mem=1000MB
 ----------------------------------------
 # rb3lyp/6-311+g** NMR geom=connectivity
 ----------------------------------------
 1/38=1,57=2/1;
 2/12=2,17=6,18=5,40=1/2;
 3/5=4,6=6,7=111,11=2,16=1,25=1,30=1,74=-5,116=1/1,2,8,3;
 4//1;
 5/5=2,38=5/2;
 8/6=1,10=90,11=11/1;
 10/13=100,45=16/2;
 6/7=2,8=2,9=2,10=2,28=1/1;
 99/9=1/99;
 -----
 Title
 -----
 Symbolic Z-matrix:
 Charge =  0 Multiplicity = 1
 C                    -4.05006  -0.57719   0.81367 
 H                    -5.02638  -1.00827   1.00248 
 C                    -3.93816   0.66178   0.24009 
 H                    -4.82524   1.23389  -0.01113 
 C                    -2.67684   1.24332   0.00576 
 C                    -1.49741   0.50515   0.28483 
 C                    -1.65083  -0.73387   0.9404 
 H                    -0.77136  -1.2731    1.26338 
 C                    -2.88985  -1.2624    1.19943 
 H                    -2.96837  -2.21246   1.71527 
 C                    -2.57732   2.59637  -0.41929 
 H                    -3.48707   3.14122  -0.64741 
 C                    -1.37419   3.21479  -0.4364 
 H                    -1.29973   4.2742   -0.65781 
 C                    -0.17195   2.49941  -0.17346 
 C                    -0.20439   1.10184   0.01927 
 C                     1.05135   3.20426  -0.06762 
 H                     1.04273   4.28195  -0.1897 
 C                     2.19421   2.54874   0.25796 
 H                     3.11685   3.09128   0.43347 
 C                     2.22165   1.13366   0.2935 
 C                     1.04869   0.39455   0.03024 
 C                     3.44834   0.46146   0.55739 
 H                     4.30958   1.06061   0.83348 
 C                     3.54273  -0.88559   0.47495 
 H                     4.47315  -1.39397   0.70388 
 C                     2.44901  -1.64744  -0.01963 
 C                     1.21507  -1.00573  -0.30136 
 C                     0.25311  -1.74344  -1.02166 
 H                    -0.65414  -1.25351  -1.34628 
 C                     0.44942  -3.06286  -1.34138 
 H                    -0.30832  -3.59443  -1.90541 
 C                     1.62517  -3.7208   -0.95525 
 H                     1.767    -4.76874  -1.1927 
 C                     2.61099  -3.01442  -0.31831 
 H                     3.55256  -3.49028  -0.06464 
 Bq                   -0.38312   2.21174   0.39741 
 Bq                   -0.381     1.95084  -0.1429 
 Bq                   -0.38347   2.25522   0.48746 
 Bq                   -0.38064   1.90736  -0.23295 
 Bq                   -0.38383   2.29871   0.57751 
 Bq                   -0.38029   1.86388  -0.323 
 Bq                   -0.38206   2.08129   0.12725 
 Bq                   -0.38224   2.21483   0.17382 
 Bq                   -0.38153   2.12786  -0.00628 
 Bq                   -0.38259   2.25831   0.26387 
 Bq                   -0.38118   2.08438  -0.09633 
 Bq                   -0.38295   2.30179   0.35392 
 Bq                   -0.38082   2.0409   -0.18638 
 Bq                   -0.3833    2.34527   0.44397 
 Bq                   -0.38047   1.99741  -0.27643 
 Bq                   -0.38366   2.38876   0.53402 
 Bq                   -0.38012   1.95393  -0.36648 
 Bq                   -0.38189   2.17134   0.08377 
 Bq                   -0.38207   2.30488   0.13034 
 Bq                   -0.38136   2.21791  -0.04976 
 Bq                   -0.38242   2.34836   0.22039 
 Bq                   -0.38101   2.17443  -0.13981 
 Bq                   -0.38278   2.39184   0.31044 
 Bq                   -0.38065   2.13095  -0.22986 
 Bq                   -0.38313   2.43533   0.40049 
 Bq                   -0.3803    2.08746  -0.31991 
 Bq                   -0.38349   2.47881   0.49054 
 Bq                   -0.37995   2.04398  -0.40996 
 Bq                   -0.38172   2.26139   0.04029 
 Bq                   -0.3819    2.39493   0.08686 
 Bq                   -0.38119   2.30796  -0.09324 
 Bq                   -0.38225   2.43841   0.17691 
 Bq                   -0.38084   2.26448  -0.18329 
 Bq                   -0.38261   2.48189   0.26696 
 Bq                   -0.38048   2.221    -0.27335 
 Bq                   -0.38296   2.52538   0.35701 
 Bq                   -0.38013   2.17752  -0.3634 
 Bq                   -0.38331   2.56886   0.44706 
 Bq                   -0.37977   2.13403  -0.45345 
 Bq                   -0.38154   2.35145  -0.00319 
 Bq                   -0.38173   2.48498   0.04338 
 Bq                   -0.38102   2.39801  -0.13673 
 Bq                   -0.38208   2.52846   0.13343 
 Bq                   -0.38067   2.35453  -0.22678 
 Bq                   -0.38244   2.57195   0.22348 
 Bq                   -0.38031   2.31105  -0.31683 
 Bq                   -0.38279   2.61543   0.31353 
 Bq                   -0.37996   2.26757  -0.40688 
 Bq                   -0.38314   2.65891   0.40358 
 Bq                   -0.3796    2.22408  -0.49693 
 Bq                   -0.38137   2.4415   -0.04668 
 Bq                   -0.29028  -2.01759   2.21789 
 Bq                   -0.28957  -2.10455   2.03779 
 Bq                   -0.29063  -1.97411   2.30794 
 Bq                   -0.28921  -2.14804   1.94774 
 Bq                   -0.29098  -1.93062   2.39799 
 Bq                   -0.28886  -2.19152   1.85768 
 Bq                   -0.29134  -1.88714   2.48804 
 Bq                   -0.28851  -2.235     1.76763 
 Bq                   -0.29169  -1.84366   2.57809 
 Bq                   -0.28815  -2.27849   1.67758 
 Bq                   -0.28992  -2.06107   2.12784 
 Bq                   -0.2901   -1.92754   2.1744 
 Bq                   -0.2894   -2.0145    1.9943 
 Bq                   -0.29046  -1.88406   2.26446 
 Bq                   -0.28904  -2.05799   1.90425 
 Bq                   -0.29081  -1.84057   2.35451 
 Bq                   -0.28869  -2.10147   1.8142 
 Bq                   -0.29117  -1.79709   2.44456 
 Bq                   -0.28833  -2.14495   1.72415 
 Bq                   -0.29152  -1.75361   2.53461 
 Bq                   -0.28798  -2.18843   1.6341 
 Bq                   -0.28975  -1.97102   2.08435 
 Bq                   -0.28993  -1.83749   2.13092 
 Bq                   -0.28923  -1.92445   1.95082 
 Bq                   -0.29029  -1.794     2.22097 
 Bq                   -0.28887  -1.96793   1.86077 
 Bq                   -0.29064  -1.75052   2.31102 
 Bq                   -0.28852  -2.01142   1.77072 
 Bq                   -0.291    -1.70704   2.40107 
 Bq                   -0.28816  -2.0549    1.68067 
 Bq                   -0.29135  -1.66356   2.49113 
 Bq                   -0.28781  -2.09838   1.59062 
 Bq                   -0.28958  -1.88097   2.04087 
 Bq                   -0.28976  -1.74744   2.08744 
 Bq                   -0.28905  -1.8344    1.90734 
 Bq                   -0.29012  -1.70395   2.17749 
 Bq                   -0.2887   -1.87788   1.81729 
 Bq                   -0.29047  -1.66047   2.26754 
 Bq                   -0.28835  -1.92137   1.72724 
 Bq                   -0.29082  -1.61699   2.35759 
 Bq                   -0.28799  -1.96485   1.63719 
 Bq                   -0.29118  -1.5735    2.44764 
 Bq                   -0.28764  -2.00833   1.54714 
 Bq                   -0.28941  -1.79092   1.99739 
 Bq                   -0.28959  -1.65738   2.04396 
 Bq                   -0.28888  -1.74435   1.86386 
 Bq                   -0.28995  -1.6139    2.13401 
 Bq                   -0.28853  -1.78783   1.77381 
 Bq                   -0.2903   -1.57042   2.22406 
 Bq                   -0.28818  -1.83131   1.68375 
 Bq                   -0.29065  -1.52694   2.31411 
 Bq                   -0.28782  -1.8748    1.5937 
 Bq                   -0.29101  -1.48345   2.40416 
 Bq                   -0.28747  -1.91828   1.50365 
 Bq                   -0.28924  -1.70087   1.95391 
 Bq                   -0.28942  -1.56733   2.00048 
 Bq                   -0.28871  -1.6543    1.82037 
 Bq                   -0.28977  -1.52385   2.09053 
 Bq                   -0.28836  -1.69778   1.73032 
 Bq                   -0.29013  -1.48037   2.18058 
 Bq                   -0.288    -1.74126   1.64027 
 Bq                   -0.29048  -1.43688   2.27063 
 Bq                   -0.28765  -1.78475   1.55022 
 Bq                   -0.29084  -1.3934    2.36068 
 Bq                   -0.2873   -1.82823   1.46017 
 Bq                   -0.28907  -1.61082   1.91042 
 Bq                   -0.28925  -1.47728   1.95699 
 Bq                   -0.28854  -1.56425   1.77689 
 Bq                   -0.2896   -1.4338    2.04704 
 Bq                   -0.28819  -1.60773   1.68684 
 Bq                   -0.28996  -1.39032   2.13709 
 Bq                   -0.28783  -1.65121   1.59679 
 Bq                   -0.29031  -1.34683   2.22714 
 Bq                   -0.28748  -1.69469   1.50674 
 Bq                   -0.29067  -1.30335   2.3172 
 Bq                   -0.28713  -1.73818   1.41669 
 Bq                   -0.2889   -1.52076   1.86694 
 Bq                   -0.28908  -1.38723   1.91351 
 Bq                   -0.28837  -1.4742    1.73341 
 Bq                   -0.28943  -1.34375   2.00356 
 Bq                   -0.28802  -1.51768   1.64336 
 Bq                   -0.28979  -1.30026   2.09361 
 Bq                   -0.28766  -1.56116   1.55331 
 Bq                   -0.29014  -1.25678   2.18366 
 Bq                   -0.28731  -1.60464   1.46326 
 Bq                   -0.29049  -1.2133    2.27371 
 Bq                   -0.28695  -1.64813   1.37321 
 Bq                   -0.28872  -1.43071   1.82346 
 Bq                   -0.28891  -1.29718   1.87003 
 Bq                   -0.2882   -1.38414   1.68993 
 Bq                   -0.28926  -1.2537    1.96008 
 Bq                   -0.28785  -1.42763   1.59988 
 Bq                   -0.28962  -1.21021   2.05013 
 Bq                   -0.28749  -1.47111   1.50983 
 Bq                   -0.28997  -1.16673   2.14018 
 Bq                   -0.28714  -1.51459   1.41977 
 Bq                   -0.29032  -1.12325   2.23023 
 Bq                   -0.28678  -1.55807   1.32972 
 Bq                   -0.28855  -1.34066   1.77998 
 Bq                   -0.28874  -1.20713   1.82655 
 Bq                   -0.28803  -1.29409   1.64644 
 Bq                   -0.28909  -1.16364   1.9166 
 Bq                   -0.28767  -1.33757   1.55639 
 Bq                   -0.28944  -1.12016   2.00665 
 Bq                   -0.28732  -1.38106   1.46634 
 Bq                   -0.2898   -1.07668   2.0967 
 Bq                   -0.28697  -1.42454   1.37629 
 Bq                   -0.29015  -1.0332    2.18675 
 Bq                   -0.28661  -1.46802   1.28624 
 Bq                   -0.28838  -1.25061   1.7365 
 Bq                   -0.28857  -1.11708   1.78306 
 Bq                   -0.28786  -1.20404   1.60296 
 Bq                   -0.28892  -1.07359   1.87311 
 Bq                   -0.2875   -1.24752   1.51291 
 Bq                   -0.28927  -1.03011   1.96316 
 Bq                   -0.28715  -1.29101   1.42286 
 Bq                   -0.28963  -0.98663   2.05322 
 Bq                   -0.2868   -1.33449   1.33281 
 Bq                   -0.28998  -0.94314   2.14327 
 Bq                   -0.28644  -1.37797   1.24276 
 Bq                   -0.28821  -1.16056   1.69301 
 Bq                   -0.2884   -1.02702   1.73958 
 Bq                   -0.28769  -1.11399   1.55948 
 Bq                   -0.28875  -0.98354   1.82963 
 Bq                   -0.28733  -1.15747   1.46943 
 Bq                   -0.2891   -0.94006   1.91968 
 Bq                   -0.28698  -1.20095   1.37938 
 Bq                   -0.28946  -0.89658   2.00973 
 Bq                   -0.28663  -1.24444   1.28933 
 Bq                   -0.28981  -0.85309   2.09978 
 Bq                   -0.28627  -1.28792   1.19928 
 Bq                   -0.28804  -1.07051   1.64953 
 Bq                   -0.28822  -0.93697   1.6961 
 Bq                   -0.28752  -1.02394   1.516 
 Bq                   -0.28858  -0.89349   1.78615 
 Bq                   -0.28716  -1.06742   1.42595 
 Bq                   -0.28893  -0.85001   1.8762 
 Bq                   -0.28681  -1.1109    1.3359 
 Bq                   -0.28929  -0.80652   1.96625 
 Bq                   -0.28645  -1.15439   1.24585 
 Bq                   -0.28964  -0.76304   2.0563 
 Bq                   -0.2861   -1.19787   1.15579 
 Bq                   -0.28787  -0.98046   1.60605 
 Bq                   -0.28805  -0.84692   1.65262 
 Bq                   -0.28735  -0.93389   1.47251 
 Bq                   -0.28841  -0.80344   1.74267 
 Bq                   -0.28699  -0.97737   1.38246 
 Bq                   -0.28876  -0.75996   1.83272 
 Bq                   -0.28664  -1.02085   1.29241 
 
 Symmetry turned off:
 Cannot cope with ghost atoms or with translation vectors.
 Stoichiometry    C22H14
 Framework group  C1[X(C22H14)]
 NUMDOF-- NAT=    36 NAtoms=   236
 Deg. of freedom     0
 Full point group                 C1      NOp   1
                          Input orientation:                          
 ---------------------------------------------------------------------
 Center     Atomic      Atomic             Coordinates (Angstroms)
 Number     Number       Type             X           Y           Z
 ---------------------------------------------------------------------
      1          6           0       -4.050056   -0.577186    0.813671
      2          1           0       -5.026380   -1.008273    1.002476
      3          6           0       -3.938155    0.661780    0.240088
      4          1           0       -4.825242    1.233889   -0.011130
      5          6           0       -2.676841    1.243325    0.005758
      6          6           0       -1.497412    0.505153    0.284825
      7          6           0       -1.650833   -0.733873    0.940403
      8          1           0       -0.771365   -1.273097    1.263375
      9          6           0       -2.889855   -1.262404    1.199431
     10          1           0       -2.968371   -2.212456    1.715268
     11          6           0       -2.577319    2.596370   -0.419293
     12          1           0       -3.487073    3.141224   -0.647406
     13          6           0       -1.374190    3.214790   -0.436403
     14          1           0       -1.299732    4.274202   -0.657814
     15          6           0       -0.171949    2.499409   -0.173459
     16          6           0       -0.204392    1.101844    0.019269
     17          6           0        1.051349    3.204256   -0.067622
     18          1           0        1.042734    4.281950   -0.189700
     19          6           0        2.194209    2.548745    0.257958
     20          1           0        3.116853    3.091285    0.433473
     21          6           0        2.221647    1.133656    0.293499
     22          6           0        1.048693    0.394553    0.030241
     23          6           0        3.448336    0.461463    0.557394
     24          1           0        4.309579    1.060605    0.833485
     25          6           0        3.542735   -0.885593    0.474946
     26          1           0        4.473147   -1.393970    0.703882
     27          6           0        2.449005   -1.647445   -0.019632
     28          6           0        1.215070   -1.005726   -0.301357
     29          6           0        0.253111   -1.743444   -1.021659
     30          1           0       -0.654136   -1.253505   -1.346285
     31          6           0        0.449419   -3.062860   -1.341378
     32          1           0       -0.308316   -3.594431   -1.905406
     33          6           0        1.625173   -3.720797   -0.955254
     34          1           0        1.767005   -4.768740   -1.192702
     35          6           0        2.610987   -3.014418   -0.318305
     36          1           0        3.552561   -3.490281   -0.064637
     37          0           0       -0.383120    2.211740    0.397406
     38          0           0       -0.380996    1.950844   -0.142898
     39          0           0       -0.383474    2.255223    0.487457
     40          0           0       -0.380642    1.907361   -0.232949
     41          0           0       -0.383828    2.298706    0.577507
     42          0           0       -0.380288    1.863878   -0.323000
     43          0           0       -0.382058    2.081292    0.127254
     44          0           0       -0.382241    2.214826    0.173822
     45          0           0       -0.381533    2.127861   -0.006279
     46          0           0       -0.382595    2.258309    0.263873
     47          0           0       -0.381179    2.084378   -0.096330
     48          0           0       -0.382949    2.301792    0.353924
     49          0           0       -0.380825    2.040895   -0.186381
     50          0           0       -0.383303    2.345274    0.443974
     51          0           0       -0.380471    1.997413   -0.276431
     52          0           0       -0.383657    2.388757    0.534025
     53          0           0       -0.380117    1.953930   -0.366482
     54          0           0       -0.381887    2.171343    0.083771
     55          0           0       -0.382070    2.304878    0.130340
     56          0           0       -0.381362    2.217912   -0.049762
     57          0           0       -0.382424    2.348360    0.220390
     58          0           0       -0.381008    2.174429   -0.139812
     59          0           0       -0.382778    2.391843    0.310441
     60          0           0       -0.380654    2.130947   -0.229863
     61          0           0       -0.383132    2.435326    0.400492
     62          0           0       -0.380300    2.087464   -0.319914
     63          0           0       -0.383486    2.478808    0.490543
     64          0           0       -0.379946    2.043981   -0.409964
     65          0           0       -0.381716    2.261395    0.040289
     66          0           0       -0.381899    2.394929    0.086857
     67          0           0       -0.381191    2.307963   -0.093244
     68          0           0       -0.382253    2.438412    0.176908
     69          0           0       -0.380837    2.264481   -0.183295
     70          0           0       -0.382607    2.481894    0.266959
     71          0           0       -0.380483    2.220998   -0.273345
     72          0           0       -0.382961    2.525377    0.357009
     73          0           0       -0.380129    2.177515   -0.363396
     74          0           0       -0.383315    2.568860    0.447060
     75          0           0       -0.379775    2.134033   -0.453447
     76          0           0       -0.381545    2.351446   -0.003193
     77          0           0       -0.381728    2.484980    0.043375
     78          0           0       -0.381020    2.398015   -0.136726
     79          0           0       -0.382082    2.528463    0.133426
     80          0           0       -0.380666    2.354532   -0.226777
     81          0           0       -0.382436    2.571946    0.223476
     82          0           0       -0.380312    2.311049   -0.316828
     83          0           0       -0.382790    2.615428    0.313527
     84          0           0       -0.379958    2.267567   -0.406878
     85          0           0       -0.383144    2.658911    0.403578
     86          0           0       -0.379604    2.224084   -0.496929
     87          0           0       -0.381374    2.441498   -0.046676
     88          0           0       -0.290275   -2.017589    2.217887
     89          0           0       -0.289567   -2.104555    2.037786
     90          0           0       -0.290629   -1.974107    2.307938
     91          0           0       -0.289213   -2.148037    1.947735
     92          0           0       -0.290983   -1.930624    2.397989
     93          0           0       -0.288859   -2.191520    1.857684
     94          0           0       -0.291337   -1.887141    2.488039
     95          0           0       -0.288505   -2.235003    1.767634
     96          0           0       -0.291691   -1.843658    2.578090
     97          0           0       -0.288151   -2.278486    1.677583
     98          0           0       -0.289921   -2.061072    2.127836
     99          0           0       -0.290104   -1.927538    2.174405
    100          0           0       -0.289396   -2.014503    1.994303
    101          0           0       -0.290458   -1.884055    2.264455
    102          0           0       -0.289042   -2.057986    1.904253
    103          0           0       -0.290812   -1.840572    2.354506
    104          0           0       -0.288688   -2.101469    1.814202
    105          0           0       -0.291166   -1.797090    2.444557
    106          0           0       -0.288334   -2.144952    1.724151
    107          0           0       -0.291520   -1.753607    2.534608
    108          0           0       -0.287980   -2.188434    1.634101
    109          0           0       -0.289750   -1.971021    2.084354
    110          0           0       -0.289933   -1.837487    2.130922
    111          0           0       -0.289225   -1.924452    1.950821
    112          0           0       -0.290287   -1.794004    2.220973
    113          0           0       -0.288871   -1.967935    1.860770
    114          0           0       -0.290641   -1.750521    2.311024
    115          0           0       -0.288517   -2.011417    1.770720
    116          0           0       -0.290995   -1.707038    2.401075
    117          0           0       -0.288163   -2.054900    1.680669
    118          0           0       -0.291349   -1.663556    2.491125
    119          0           0       -0.287809   -2.098383    1.590618
    120          0           0       -0.289579   -1.880969    2.040872
    121          0           0       -0.289762   -1.747435    2.087440
    122          0           0       -0.289054   -1.834401    1.907339
    123          0           0       -0.290116   -1.703952    2.177491
    124          0           0       -0.288700   -1.877883    1.817288
    125          0           0       -0.290470   -1.660470    2.267541
    126          0           0       -0.288347   -1.921366    1.727237
    127          0           0       -0.290824   -1.616987    2.357592
    128          0           0       -0.287993   -1.964849    1.637187
    129          0           0       -0.291178   -1.573504    2.447643
    130          0           0       -0.287639   -2.008331    1.547136
    131          0           0       -0.289408   -1.790918    1.997389
    132          0           0       -0.289592   -1.657384    2.043958
    133          0           0       -0.288884   -1.744349    1.863856
    134          0           0       -0.289946   -1.613901    2.134008
    135          0           0       -0.288530   -1.787832    1.773806
    136          0           0       -0.290300   -1.570418    2.224059
    137          0           0       -0.288176   -1.831315    1.683755
    138          0           0       -0.290654   -1.526936    2.314110
    139          0           0       -0.287822   -1.874797    1.593704
    140          0           0       -0.291008   -1.483453    2.404160
    141          0           0       -0.287468   -1.918280    1.503653
    142          0           0       -0.289238   -1.700866    1.953907
    143          0           0       -0.289421   -1.567332    2.000475
    144          0           0       -0.288713   -1.654298    1.820374
    145          0           0       -0.289775   -1.523850    2.090526
    146          0           0       -0.288359   -1.697781    1.730323
    147          0           0       -0.290129   -1.480367    2.180577
    148          0           0       -0.288005   -1.741263    1.640272
    149          0           0       -0.290483   -1.436884    2.270627
    150          0           0       -0.287651   -1.784746    1.550222
    151          0           0       -0.290837   -1.393401    2.360678
    152          0           0       -0.287297   -1.828229    1.460171
    153          0           0       -0.289067   -1.610815    1.910425
    154          0           0       -0.289250   -1.477281    1.956993
    155          0           0       -0.288542   -1.564246    1.776891
    156          0           0       -0.289604   -1.433798    2.047044
    157          0           0       -0.288188   -1.607729    1.686841
    158          0           0       -0.289958   -1.390316    2.137094
    159          0           0       -0.287834   -1.651212    1.596790
    160          0           0       -0.290312   -1.346833    2.227145
    161          0           0       -0.287480   -1.694695    1.506739
    162          0           0       -0.290666   -1.303350    2.317196
    163          0           0       -0.287126   -1.738177    1.416689
    164          0           0       -0.288896   -1.520764    1.866942
    165          0           0       -0.289079   -1.387230    1.913511
    166          0           0       -0.288371   -1.474195    1.733409
    167          0           0       -0.289433   -1.343747    2.003561
    168          0           0       -0.288017   -1.517678    1.643358
    169          0           0       -0.289787   -1.300264    2.093612
    170          0           0       -0.287663   -1.561160    1.553308
    171          0           0       -0.290141   -1.256781    2.183663
    172          0           0       -0.287309   -1.604643    1.463257
    173          0           0       -0.290495   -1.213299    2.273713
    174          0           0       -0.286955   -1.648126    1.373206
    175          0           0       -0.288725   -1.430712    1.823460
    176          0           0       -0.288908   -1.297178    1.870028
    177          0           0       -0.288200   -1.384144    1.689927
    178          0           0       -0.289262   -1.253695    1.960079
    179          0           0       -0.287846   -1.427626    1.599876
    180          0           0       -0.289616   -1.210213    2.050130
    181          0           0       -0.287492   -1.471109    1.509825
    182          0           0       -0.289970   -1.166730    2.140180
    183          0           0       -0.287138   -1.514592    1.419775
    184          0           0       -0.290324   -1.123247    2.230231
    185          0           0       -0.286784   -1.558074    1.329724
    186          0           0       -0.288554   -1.340661    1.779977
    187          0           0       -0.288737   -1.207127    1.826546
    188          0           0       -0.288029   -1.294092    1.646444
    189          0           0       -0.289091   -1.163644    1.916596
    190          0           0       -0.287675   -1.337575    1.556394
    191          0           0       -0.289445   -1.120161    2.006647
    192          0           0       -0.287321   -1.381058    1.466343
    193          0           0       -0.289799   -1.076679    2.096698
    194          0           0       -0.286967   -1.424540    1.376292
    195          0           0       -0.290153   -1.033196    2.186749
    196          0           0       -0.286613   -1.468023    1.286242
    197          0           0       -0.288383   -1.250609    1.736495
    198          0           0       -0.288566   -1.117075    1.783063
    199          0           0       -0.287858   -1.204041    1.602962
    200          0           0       -0.288920   -1.073593    1.873114
    201          0           0       -0.287504   -1.247524    1.512911
    202          0           0       -0.289274   -1.030110    1.963165
    203          0           0       -0.287150   -1.291006    1.422861
    204          0           0       -0.289628   -0.986627    2.053215
    205          0           0       -0.286796   -1.334489    1.332810
    206          0           0       -0.289982   -0.943145    2.143266
    207          0           0       -0.286442   -1.377972    1.242759
    208          0           0       -0.288212   -1.160558    1.693013
    209          0           0       -0.288395   -1.027024    1.739581
    210          0           0       -0.287687   -1.113989    1.559480
    211          0           0       -0.288749   -0.983541    1.829632
    212          0           0       -0.287333   -1.157472    1.469429
    213          0           0       -0.289103   -0.940059    1.919682
    214          0           0       -0.286979   -1.200955    1.379378
    215          0           0       -0.289457   -0.896576    2.009733
    216          0           0       -0.286625   -1.244438    1.289327
    217          0           0       -0.289811   -0.853093    2.099784
    218          0           0       -0.286271   -1.287920    1.199277
    219          0           0       -0.288041   -1.070507    1.649530
    220          0           0       -0.288224   -0.936973    1.696099
    221          0           0       -0.287516   -1.023938    1.515997
    222          0           0       -0.288578   -0.893490    1.786149
    223          0           0       -0.287162   -1.067421    1.425947
    224          0           0       -0.288932   -0.850007    1.876200
    225          0           0       -0.286808   -1.110903    1.335896
    226          0           0       -0.289286   -0.806524    1.966251
    227          0           0       -0.286454   -1.154386    1.245845
    228          0           0       -0.289640   -0.763042    2.056301
    229          0           0       -0.286100   -1.197869    1.155794
    230          0           0       -0.287870   -0.980455    1.606048
    231          0           0       -0.288053   -0.846921    1.652616
    232          0           0       -0.287345   -0.933887    1.472515
    233          0           0       -0.288407   -0.803438    1.742667
    234          0           0       -0.286991   -0.977369    1.382464
    235          0           0       -0.288761   -0.759956    1.832718
    236          0           0       -0.286637   -1.020852    1.292413
 ---------------------------------------------------------------------
 Rotational constants (GHZ):      0.4529074      0.2836956      0.1879557
 Standard basis: 6-311+G(d,p) (5D, 7F)
 Warning:  center  37 has no basis functions!
 Warning:  center  38 has no basis functions!
 Warning:  center  39 has no basis functions!
 Warning:  center  40 has no basis functions!
 Warning:  center  41 has no basis functions!
 Warning:  center  42 has no basis functions!
 Warning:  center  43 has no basis functions!
 Warning:  center  44 has no basis functions!
 Warning:  center  45 has no basis functions!
 Warning:  center  46 has no basis functions!
 Warning:  center  47 has no basis functions!
 Warning:  center  48 has no basis functions!
 Warning:  center  49 has no basis functions!
 Warning:  center  50 has no basis functions!
 Warning:  center  51 has no basis functions!
 Warning:  center  52 has no basis functions!
 Warning:  center  53 has no basis functions!
 Warning:  center  54 has no basis functions!
 Warning:  center  55 has no basis functions!
 Warning:  center  56 has no basis functions!
 Warning:  center  57 has no basis functions!
 Warning:  center  58 has no basis functions!
 Warning:  center  59 has no basis functions!
 Warning:  center  60 has no basis functions!
 Warning:  center  61 has no basis functions!
 Warning:  center  62 has no basis functions!
 Warning:  center  63 has no basis functions!
 Warning:  center  64 has no basis functions!
 Warning:  center  65 has no basis functions!
 Warning:  center  66 has no basis functions!
 Warning:  center  67 has no basis functions!
 Warning:  center  68 has no basis functions!
 Warning:  center  69 has no basis functions!
 Warning:  center  70 has no basis functions!
 Warning:  center  71 has no basis functions!
 Warning:  center  72 has no basis functions!
 Warning:  center  73 has no basis functions!
 Warning:  center  74 has no basis functions!
 Warning:  center  75 has no basis functions!
 Warning:  center  76 has no basis functions!
 Warning:  center  77 has no basis functions!
 Warning:  center  78 has no basis functions!
 Warning:  center  79 has no basis functions!
 Warning:  center  80 has no basis functions!
 Warning:  center  81 has no basis functions!
 Warning:  center  82 has no basis functions!
 Warning:  center  83 has no basis functions!
 Warning:  center  84 has no basis functions!
 Warning:  center  85 has no basis functions!
 Warning:  center  86 has no basis functions!
 Warning:  center  87 has no basis functions!
 Warning:  center  88 has no basis functions!
 Warning:  center  89 has no basis functions!
 Warning:  center  90 has no basis functions!
 Warning:  center  91 has no basis functions!
 Warning:  center  92 has no basis functions!
 Warning:  center  93 has no basis functions!
 Warning:  center  94 has no basis functions!
 Warning:  center  95 has no basis functions!
 Warning:  center  96 has no basis functions!
 Warning:  center  97 has no basis functions!
 Warning:  center  98 has no basis functions!
 Warning:  center  99 has no basis functions!
 Warning:  center 100 has no basis functions!
 Warning:  center 101 has no basis functions!
 Warning:  center 102 has no basis functions!
 Warning:  center 103 has no basis functions!
 Warning:  center 104 has no basis functions!
 Warning:  center 105 has no basis functions!
 Warning:  center 106 has no basis functions!
 Warning:  center 107 has no basis functions!
 Warning:  center 108 has no basis functions!
 Warning:  center 109 has no basis functions!
 Warning:  center 110 has no basis functions!
 Warning:  center 111 has no basis functions!
 Warning:  center 112 has no basis functions!
 Warning:  center 113 has no basis functions!
 Warning:  center 114 has no basis functions!
 Warning:  center 115 has no basis functions!
 Warning:  center 116 has no basis functions!
 Warning:  center 117 has no basis functions!
 Warning:  center 118 has no basis functions!
 Warning:  center 119 has no basis functions!
 Warning:  center 120 has no basis functions!
 Warning:  center 121 has no basis functions!
 Warning:  center 122 has no basis functions!
 Warning:  center 123 has no basis functions!
 Warning:  center 124 has no basis functions!
 Warning:  center 125 has no basis functions!
 Warning:  center 126 has no basis functions!
 Warning:  center 127 has no basis functions!
 Warning:  center 128 has no basis functions!
 Warning:  center 129 has no basis functions!
 Warning:  center 130 has no basis functions!
 Warning:  center 131 has no basis functions!
 Warning:  center 132 has no basis functions!
 Warning:  center 133 has no basis functions!
 Warning:  center 134 has no basis functions!
 Warning:  center 135 has no basis functions!
 Warning:  center 136 has no basis functions!
 Warning:  center 137 has no basis functions!
 Warning:  center 138 has no basis functions!
 Warning:  center 139 has no basis functions!
 Warning:  center 140 has no basis functions!
 Warning:  center 141 has no basis functions!
 Warning:  center 142 has no basis functions!
 Warning:  center 143 has no basis functions!
 Warning:  center 144 has no basis functions!
 Warning:  center 145 has no basis functions!
 Warning:  center 146 has no basis functions!
 Warning:  center 147 has no basis functions!
 Warning:  center 148 has no basis functions!
 Warning:  center 149 has no basis functions!
 Warning:  center 150 has no basis functions!
 Warning:  center 151 has no basis functions!
 Warning:  center 152 has no basis functions!
 Warning:  center 153 has no basis functions!
 Warning:  center 154 has no basis functions!
 Warning:  center 155 has no basis functions!
 Warning:  center 156 has no basis functions!
 Warning:  center 157 has no basis functions!
 Warning:  center 158 has no basis functions!
 Warning:  center 159 has no basis functions!
 Warning:  center 160 has no basis functions!
 Warning:  center 161 has no basis functions!
 Warning:  center 162 has no basis functions!
 Warning:  center 163 has no basis functions!
 Warning:  center 164 has no basis functions!
 Warning:  center 165 has no basis functions!
 Warning:  center 166 has no basis functions!
 Warning:  center 167 has no basis functions!
 Warning:  center 168 has no basis functions!
 Warning:  center 169 has no basis functions!
 Warning:  center 170 has no basis functions!
 Warning:  center 171 has no basis functions!
 Warning:  center 172 has no basis functions!
 Warning:  center 173 has no basis functions!
 Warning:  center 174 has no basis functions!
 Warning:  center 175 has no basis functions!
 Warning:  center 176 has no basis functions!
 Warning:  center 177 has no basis functions!
 Warning:  center 178 has no basis functions!
 Warning:  center 179 has no basis functions!
 Warning:  center 180 has no basis functions!
 Warning:  center 181 has no basis functions!
 Warning:  center 182 has no basis functions!
 Warning:  center 183 has no basis functions!
 Warning:  center 184 has no basis functions!
 Warning:  center 185 has no basis functions!
 Warning:  center 186 has no basis functions!
 Warning:  center 187 has no basis functions!
 Warning:  center 188 has no basis functions!
 Warning:  center 189 has no basis functions!
 Warning:  center 190 has no basis functions!
 Warning:  center 191 has no basis functions!
 Warning:  center 192 has no basis functions!
 Warning:  center 193 has no basis functions!
 Warning:  center 194 has no basis functions!
 Warning:  center 195 has no basis functions!
 Warning:  center 196 has no basis functions!
 Warning:  center 197 has no basis functions!
 Warning:  center 198 has no basis functions!
 Warning:  center 199 has no basis functions!
 Warning:  center 200 has no basis functions!
 Warning:  center 201 has no basis functions!
 Warning:  center 202 has no basis functions!
 Warning:  center 203 has no basis functions!
 Warning:  center 204 has no basis functions!
 Warning:  center 205 has no basis functions!
 Warning:  center 206 has no basis functions!
 Warning:  center 207 has no basis functions!
 Warning:  center 208 has no basis functions!
 Warning:  center 209 has no basis functions!
 Warning:  center 210 has no basis functions!
 Warning:  center 211 has no basis functions!
 Warning:  center 212 has no basis functions!
 Warning:  center 213 has no basis functions!
 Warning:  center 214 has no basis functions!
 Warning:  center 215 has no basis functions!
 Warning:  center 216 has no basis functions!
 Warning:  center 217 has no basis functions!
 Warning:  center 218 has no basis functions!
 Warning:  center 219 has no basis functions!
 Warning:  center 220 has no basis functions!
 Warning:  center 221 has no basis functions!
 Warning:  center 222 has no basis functions!
 Warning:  center 223 has no basis functions!
 Warning:  center 224 has no basis functions!
 Warning:  center 225 has no basis functions!
 Warning:  center 226 has no basis functions!
 Warning:  center 227 has no basis functions!
 Warning:  center 228 has no basis functions!
 Warning:  center 229 has no basis functions!
 Warning:  center 230 has no basis functions!
 Warning:  center 231 has no basis functions!
 Warning:  center 232 has no basis functions!
 Warning:  center 233 has no basis functions!
 Warning:  center 234 has no basis functions!
 Warning:  center 235 has no basis functions!
 Warning:  center 236 has no basis functions!
   568 basis functions,   904 primitive gaussians,   590 cartesian basis functions
    73 alpha electrons       73 beta electrons
       nuclear repulsion energy      1610.9176155625 Hartrees.
 NAtoms=  236 NActive=  236 NUniq=  236 SFac= 1.00D+00 NAtFMM=   60 NAOKFM=T Big=T
 Integral buffers will be    131072 words long.
 Raffenetti 2 integral format.
 Two-electron integral symmetry is turned off.
 One-electron integrals computed using PRISM.
 NBasis=   568 RedAO= T EigKep=  1.78D-06  NBF=   568
 NBsUse=   556 1.00D-06 EigRej=  9.09D-07 NBFU=   556
 ExpMin= 4.38D-02 ExpMax= 4.56D+03 ExpMxC= 6.82D+02 IAcc=2 IRadAn=         4 AccDes= 0.00D+00
 Harris functional with IExCor=  402 and IRadAn=       4 diagonalized for initial guess.
 HarFok:  IExCor=  402 AccDes= 0.00D+00 IRadAn=         4 IDoV= 1 UseB2=F ITyADJ=14
 ICtDFT=  3500011 ScaDFX=  1.000000  1.000000  1.000000  1.000000
 FoFCou: FMM=F IPFlag=           0 FMFlag=      100000 FMFlg1=        2001
         NFxFlg=           0 DoJE=T BraDBF=F KetDBF=T FulRan=T
         wScrn=  0.000000 ICntrl=     500 IOpCl=  0 I1Cent=   200000004 NGrid=           0
         NMat0=    1 NMatS0=      1 NMatT0=    0 NMatD0=    1 NMtDS0=    0 NMtDT0=    0
 Symmetry not used in FoFCou.
 Requested convergence on RMS density matrix=1.00D-08 within 128 cycles.
 Requested convergence on MAX density matrix=1.00D-06.
 Requested convergence on             energy=1.00D-06.
 No special actions if energy rises.
 SCF Done:  E(RB3LYP) =  -847.003289847     A.U. after   15 cycles
            NFock= 15  Conv=0.75D-08     -V/T= 2.0040
 DoSCS=F DFT=T ScalE2(SS,OS)=  1.000000  1.000000
 Range of M.O.s used for correlation:     1   556
 NBasis=   568 NAE=    73 NBE=    73 NFC=     0 NFV=     0
 NROrb=    556 NOA=    73 NOB=    73 NVA=   483 NVB=   483

 **** Warning!!: The largest alpha MO coefficient is  0.10971037D+03

          Differentiating once with respect to magnetic field using GIAOs.
          Electric field/nuclear overlap derivatives assumed to be zero.
 FoFCou: FMM=F IPFlag=           0 FMFlag=      100000 FMFlg1=        2001
         NFxFlg=           0 DoJE=F BraDBF=F KetDBF=T FulRan=T
         wScrn=  0.000000 ICntrl=    6100 IOpCl=  0 I1Cent=           7 NGrid=         236
         NMat0=    1 NMatS0=      1 NMatT0=    0 NMatD0=    1 NMtDS0=    0 NMtDT0=    0
 Symmetry not used in FoFCou.
 FoFJK:  IHMeth= 1 ICntrl=    6127 DoSepK=F KAlg= 0 I1Cent=   0 FoldK=F
 IRaf=         1 NMat=   1 IRICut=       1 DoRegI=T DoRafI=F ISym2E= 0.
          There are     3 degrees of freedom in the 1st order CPHF.  IDoFFX=0 NUNeed=     3.
      3 vectors produced by pass  0 Test12= 1.18D-12 3.33D-08 XBig12= 2.07D+03 9.18D+00.
 AX will form     3 AO Fock derivatives at one time.
      3 vectors produced by pass  1 Test12= 1.18D-12 3.33D-08 XBig12= 3.56D+00 8.03D-01.
      3 vectors produced by pass  2 Test12= 1.18D-12 3.33D-08 XBig12= 2.10D-02 6.92D-02.
      3 vectors produced by pass  3 Test12= 1.18D-12 3.33D-08 XBig12= 5.45D-05 1.89D-03.
      3 vectors produced by pass  4 Test12= 1.18D-12 3.33D-08 XBig12= 1.20D-07 7.79D-05.
      3 vectors produced by pass  5 Test12= 1.18D-12 3.33D-08 XBig12= 4.02D-10 4.73D-06.
      3 vectors produced by pass  6 Test12= 1.18D-12 3.33D-08 XBig12= 1.32D-12 2.61D-07.
 InvSVY:  IOpt=1 It=  1 EMax= 1.42D-14
 Solved reduced A of dimension    21 with     3 vectors.
 Calculating GIAO nuclear magnetic shielding tensors.
 SCF GIAO Magnetic shielding tensor (ppm):
      1  C    Isotropic =    53.8139   Anisotropy =   178.0260
   XX=   -41.4327   YX=   -32.3458   ZX=    10.0287
   XY=   -28.3572   YY=    59.0527   ZY=    55.1899
   XZ=    13.1759   YZ=    58.7550   ZZ=   143.8218
   Eigenvalues:   -53.8775    42.8214   172.4979
      2  H    Isotropic =    24.3095   Anisotropy =     4.8536
   XX=    25.5771   YX=    -1.0289   ZX=     0.5661
   XY=    -0.7431   YY=    26.1829   ZY=    -2.3306
   XZ=    -0.1707   YZ=    -2.4411   ZZ=    21.1687
   Eigenvalues:    20.2108    25.1725    27.5453
      3  C    Isotropic =    51.4055   Anisotropy =   157.8639
   XX=   -31.5399   YX=    38.5015   ZX=   -17.9316
   XY=    34.3519   YY=    49.9437   ZY=    49.6392
   XZ=    -9.8383   YZ=    44.6006   ZZ=   135.8127
   Eigenvalues:   -50.5747    48.1432   156.6481
      4  H    Isotropic =    23.8290   Anisotropy =     7.1838
   XX=    25.3635   YX=     1.8486   ZX=    -0.3559
   XY=     1.9656   YY=    26.4581   ZY=    -2.4103
   XZ=    -1.2941   YZ=    -2.6614   ZZ=    19.6654
   Eigenvalues:    18.8176    24.0511    28.6182
      5  C    Isotropic =    46.0697   Anisotropy =   207.6751
   XX=   -19.2123   YX=    -4.8852   ZX=    -1.6475
   XY=     2.8938   YY=    -2.9860   ZY=    66.5656
   XZ=     2.5356   YZ=    67.9144   ZZ=   160.4073
   Eigenvalues:   -27.2455   -19.0652   184.5197
      6  C    Isotropic =    47.5218   Anisotropy =   196.9389
   XX=   -28.1552   YX=    -2.7889   ZX=    12.0660
   XY=   -14.3886   YY=    21.2063   ZY=    74.2521
   XZ=   -18.6356   YZ=    61.1113   ZZ=   149.5144
   Eigenvalues:   -30.2925    -5.9564   178.8144
      7  C    Isotropic =    49.3915   Anisotropy =   179.8333
   XX=   -12.5211   YX=    28.7048   ZX=   -24.6745
   XY=    31.5123   YY=    29.7000   ZY=    77.7459
   XZ=   -40.0095   YZ=    65.3072   ZZ=   130.9956
   Eigenvalues:   -52.1299    31.0240   169.2804
      8  H    Isotropic =    23.1586   Anisotropy =    13.5525
   XX=    28.5711   YX=     1.5482   ZX=    -3.6986
   XY=     3.2466   YY=    22.7592   ZY=    -2.1157
   XZ=    -8.3753   YZ=    -1.0821   ZZ=    18.1456
   Eigenvalues:    15.3521    21.9301    32.1936
      9  C    Isotropic =    55.1460   Anisotropy =   174.7426
   XX=    46.7071   YX=    -2.6162   ZX=    -2.8420
   XY=     0.6223   YY=    -1.6258   ZY=    92.8272
   XZ=     0.5159   YZ=    95.6598   ZZ=   120.3568
   Eigenvalues:   -52.8932    46.6901   171.6411
     10  H    Isotropic =    24.6278   Anisotropy =     7.1815
   XX=    29.1040   YX=     0.1399   ZX=    -0.3694
   XY=     0.3642   YY=    23.4778   ZY=    -1.0805
   XZ=    -2.4493   YZ=    -2.9465   ZZ=    21.3016
   Eigenvalues:    19.9703    24.4977    29.4155
     11  C    Isotropic =    51.5607   Anisotropy =   151.2142
   XX=     2.1639   YX=    40.9287   ZX=   -26.0048
   XY=    49.9131   YY=    12.2331   ZY=    42.1342
   XZ=   -15.6145   YZ=    38.6614   ZZ=   140.2851
   Eigenvalues:   -48.1951    50.5071   152.3701
     12  H    Isotropic =    23.8537   Anisotropy =     7.3815
   XX=    25.9672   YX=     2.3738   ZX=    -0.2390
   XY=     2.4320   YY=    26.3975   ZY=    -1.8291
   XZ=     0.3529   YZ=    -1.7731   ZZ=    19.1964
   Eigenvalues:    18.7149    24.0714    28.7747
     13  C    Isotropic =    52.8653   Anisotropy =   147.4265
   XX=    51.2944   YX=    19.9221   ZX=   -13.4678
   XY=    11.5478   YY=   -34.0176   ZY=    42.5079
   XZ=    -9.2241   YZ=    40.0716   ZZ=   141.3192
   Eigenvalues:   -46.5152    53.9616   151.1497
     14  H    Isotropic =    24.0156   Anisotropy =     7.3485
   XX=    28.6644   YX=     0.6281   ZX=     1.0808
   XY=     0.5926   YY=    24.4325   ZY=    -1.0823
   XZ=     1.6846   YZ=    -0.3842   ZZ=    18.9500
   Eigenvalues:    18.6430    24.4892    28.9146
     15  C    Isotropic =    46.2221   Anisotropy =   203.9048
   XX=   -27.2215   YX=    -0.0442   ZX=   -28.9124
   XY=     4.6427   YY=   -10.5571   ZY=    28.3830
   XZ=   -10.2704   YZ=    26.7376   ZZ=   176.4448
   Eigenvalues:   -30.5512   -12.9411   182.1586
     16  C    Isotropic =    51.9375   Anisotropy =   188.2004
   XX=   -19.4441   YX=     5.5046   ZX=    15.7858
   XY=    -8.3874   YY=     2.4863   ZY=    22.9264
   XZ=   -50.6243   YZ=    23.3340   ZZ=   172.7704
   Eigenvalues:   -21.0294    -0.5625   177.4045
     17  C    Isotropic =    51.9482   Anisotropy =   149.1264
   XX=    50.7296   YX=   -23.9353   ZX=   -18.4207
   XY=   -16.7271   YY=   -41.8764   ZY=    17.8662
   XZ=   -14.3278   YZ=    11.4871   ZZ=   146.9915
   Eigenvalues:   -46.7796    51.2584   151.3658
     18  H    Isotropic =    24.0122   Anisotropy =     7.5163
   XX=    28.5811   YX=    -0.0866   ZX=     1.5071
   XY=    -0.2466   YY=    24.3342   ZY=    -0.7657
   XZ=     2.5088   YZ=    -1.5208   ZZ=    19.1214
   Eigenvalues:    18.5094    24.5041    29.0231
     19  C    Isotropic =    51.7356   Anisotropy =   148.5924
   XX=     2.4559   YX=   -45.6913   ZX=   -31.2531
   XY=   -53.4448   YY=     7.4698   ZY=    -1.8888
   XZ=   -23.5601   YZ=    -1.2765   ZZ=   145.2810
   Eigenvalues:   -46.9894    51.3989   150.7972
     20  H    Isotropic =    23.9071   Anisotropy =     7.6651
   XX=    25.5796   YX=    -2.0226   ZX=     1.4905
   XY=    -1.9998   YY=    27.3706   ZY=    -0.5164
   XZ=     2.7276   YZ=    -1.1179   ZZ=    18.7711
   Eigenvalues:    18.1643    24.5398    29.0172
     21  C    Isotropic =    45.9767   Anisotropy =   203.9316
   XX=   -16.2108   YX=    13.1802   ZX=   -44.5913
   XY=     6.5714   YY=   -20.6329   ZY=     0.0949
   XZ=   -28.8984   YZ=   -13.0883   ZZ=   174.7736
   Eigenvalues:   -30.5796   -13.4215   181.9311
     22  C    Isotropic =    52.0450   Anisotropy =   188.1157
   XX=    -0.0787   YX=     2.5023   ZX=   -16.3451
   XY=    18.9327   YY=   -14.4798   ZY=   -34.4335
   XZ=   -50.6032   YZ=    19.9104   ZZ=   170.6934
   Eigenvalues:   -20.7705    -0.5500   177.4554
     23  C    Isotropic =    53.2392   Anisotropy =   146.7412
   XX=   -22.0674   YX=   -32.0012   ZX=   -49.4857
   XY=   -23.2043   YY=    44.3661   ZY=   -15.6400
   XZ=   -43.8090   YZ=   -20.2525   ZZ=   137.4189
   Eigenvalues:   -45.6776    54.3286   151.0667
     24  H    Isotropic =    23.8249   Anisotropy =     7.5289
   XX=    25.1073   YX=    -1.7330   ZX=     1.5380
   XY=    -1.5944   YY=    28.0047   ZY=     0.0879
   XZ=     1.2557   YZ=    -0.8283   ZZ=    18.3628
   Eigenvalues:    18.0848    24.5458    28.8442
     25  C    Isotropic =    51.4969   Anisotropy =   150.1066
   XX=   -28.4915   YX=    33.9684   ZX=   -52.3137
   XY=    22.0311   YY=    46.6072   ZY=    -3.8075
   XZ=   -44.5594   YZ=   -10.6355   ZZ=   136.3748
   Eigenvalues:   -48.3857    51.3083   151.5679
     26  H    Isotropic =    23.7431   Anisotropy =     7.4052
   XX=    24.0663   YX=     1.1141   ZX=     1.9989
   XY=     0.9693   YY=    28.1000   ZY=     1.6568
   XZ=     2.0795   YZ=     0.8886   ZZ=    19.0630
   Eigenvalues:    18.2615    24.2880    28.6799
     27  C    Isotropic =    45.8108   Anisotropy =   207.2710
   XX=    -2.7702   YX=    13.7697   ZX=   -61.4651
   XY=     6.5593   YY=   -12.0335   ZY=   -41.6456
   XZ=   -62.6381   YZ=   -44.9232   ZZ=   152.2361
   Eigenvalues:   -28.0803   -18.4787   183.9915
     28  C    Isotropic =    47.8398   Anisotropy =   197.2870
   XX=    19.6900   YX=    14.4398   ZX=   -60.5682
   XY=    28.5650   YY=   -19.3566   ZY=   -56.7015
   XZ=   -63.1331   YZ=   -24.4782   ZZ=   143.1859
   Eigenvalues:   -30.5979    -5.2472   179.3644
     29  C    Isotropic =    49.3441   Anisotropy =   179.7793
   XX=    -3.4110   YX=    38.3775   ZX=   -80.8875
   XY=    36.1252   YY=    25.9805   ZY=   -23.7573
   XZ=   -78.1065   YZ=    -3.9802   ZZ=   125.4627
   Eigenvalues:   -51.6645    30.4997   169.1970
     30  H    Isotropic =    23.1387   Anisotropy =    13.3222
   XX=    22.4354   YX=    -0.7013   ZX=    -0.2375
   XY=    -2.1539   YY=    28.3546   ZY=     4.5555
   XZ=    -3.4181   YZ=     8.3231   ZZ=    18.6259
   Eigenvalues:    15.2751    22.1208    32.0201
     31  C    Isotropic =    55.4410   Anisotropy =   174.9390
   XX=    17.1871   YX=   -14.0890   ZX=   -84.0024
   XY=   -17.9030   YY=    37.4745   ZY=   -50.3662
   XZ=   -84.6557   YZ=   -54.8325   ZZ=   111.6615
   Eigenvalues:   -51.9248    46.1808   172.0670
     32  H    Isotropic =    24.5337   Anisotropy =     7.2554
   XX=    24.6185   YX=    -2.5264   ZX=     0.7632
   XY=    -2.7385   YY=    27.4630   ZY=     1.0335
   XZ=     1.1913   YZ=     3.7573   ZZ=    21.5194
   Eigenvalues:    19.8987    24.3316    29.3706
     33  C    Isotropic =    53.1814   Anisotropy =   179.0596
   XX=    60.9231   YX=    35.2256   ZX=   -42.9515
   XY=    32.0226   YY=   -38.1801   ZY=   -45.5652
   XZ=   -44.2248   YZ=   -50.7831   ZZ=   136.8014
   Eigenvalues:   -55.1197    42.1095   172.5545
     34  H    Isotropic =    24.2825   Anisotropy =     5.1861
   XX=    26.7643   YX=    -0.0934   ZX=     2.5955
   XY=    -0.2993   YY=    24.8157   ZY=     0.8589
   XZ=     2.3715   YZ=     1.4580   ZZ=    21.2676
   Eigenvalues:    20.0339    25.0737    27.7399
     35  C    Isotropic =    51.5295   Anisotropy =   155.1748
   XX=    -0.5131   YX=    52.5760   ZX=   -52.1551
   XY=    55.6135   YY=    25.1843   ZY=   -14.2643
   XZ=   -45.7255   YZ=   -17.1625   ZZ=   129.9171
   Eigenvalues:   -48.3147    47.9237   154.9793
     36  H    Isotropic =    23.8384   Anisotropy =     7.3073
   XX=    24.2302   YX=     1.4459   ZX=     2.1759
   XY=     1.2147   YY=    27.1572   ZY=     2.0665
   XZ=     1.6853   YZ=     2.7775   ZZ=    20.1277
   Eigenvalues:    18.9464    23.8588    28.7099
     37  Bq   Isotropic =    29.5872   Anisotropy =    37.0391
   XX=    23.3032   YX=    -2.3460   ZX=     0.5526
   XY=    -2.9424   YY=    17.5421   ZY=    16.7340
   XZ=    -4.5110   YZ=    13.1101   ZZ=    47.9161
   Eigenvalues:    11.1961    23.2854    54.2799
     38  Bq   Isotropic =    31.6713   Anisotropy =    47.1241
   XX=    31.1394   YX=   -12.5717   ZX=    -2.4944
   XY=    -9.6281   YY=     3.3969   ZY=     7.1086
   XZ=    -4.9913   YZ=    12.3121   ZZ=    60.4775
   Eigenvalues:    -1.5307    33.4572    63.0874
     39  Bq   Isotropic =    27.7465   Anisotropy =    34.0690
   XX=    20.9730   YX=    -1.4822   ZX=    -0.6776
   XY=    -0.5409   YY=    17.5659   ZY=    13.6955
   XZ=    -3.7612   YZ=    13.2616   ZZ=    44.7005
   Eigenvalues:    12.0079    20.7724    50.4591
     40  Bq   Isotropic =    33.2051   Anisotropy =    42.2206
   XX=    33.7882   YX=   -11.6921   ZX=    -3.6765
   XY=    -7.2003   YY=     6.4714   ZY=     4.2348
   XZ=    -3.2895   YZ=    11.3090   ZZ=    59.3556
   Eigenvalues:     2.7911    35.4719    61.3522
     41  Bq   Isotropic =    25.1966   Anisotropy =    32.0543
   XX=    18.0088   YX=    -1.1014   ZX=    -1.6627
   XY=     1.1661   YY=    16.1656   ZY=    10.9791
   XZ=    -3.0238   YZ=    13.5813   ZZ=    41.4155
   Eigenvalues:    11.0564    17.9673    46.5662
     42  Bq   Isotropic =    33.9320   Anisotropy =    37.1019
   XX=    34.8680   YX=   -10.1887   ZX=    -4.0406
   XY=    -5.0979   YY=     9.7952   ZY=     3.2791
   XZ=    -1.1531   YZ=    10.2897   ZZ=    57.1328
   Eigenvalues:     6.9630    36.1664    58.6666
     43  Bq   Isotropic =    29.6038   Anisotropy =    49.2816
   XX=    25.1587   YX=    -8.6152   ZX=     2.3424
   XY=   -11.3303   YY=     6.9393   ZY=    19.8725
   XZ=    -6.2802   YZ=    13.6078   ZZ=    56.7134
   Eigenvalues:    -1.2522    27.6054    62.4582
     44  Bq   Isotropic =    24.5718   Anisotropy =    50.4171
   XX=    14.6598   YX=    -9.1369   ZX=     5.4131
   XY=   -12.1237   YY=     7.6738   ZY=    24.0749
   XZ=    -3.3532   YZ=    12.4674   ZZ=    51.3818
   Eigenvalues:    -4.5582    20.0904    58.1832
     45  Bq   Isotropic =    19.6672   Anisotropy =    59.9700
   XX=     9.8183   YX=   -17.1787   ZX=     1.9379
   XY=   -17.5000   YY=    -6.4044   ZY=    18.5740
   XZ=    -2.7658   YZ=    12.3432   ZZ=    55.5876
   Eigenvalues:   -19.6747    19.0290    59.6472
     46  Bq   Isotropic =    27.4092   Anisotropy =    43.2271
   XX=    18.5336   YX=    -5.6955   ZX=     4.6360
   XY=    -7.8420   YY=    14.6250   ZY=    21.6165
   XZ=    -3.3265   YZ=    12.5976   ZZ=    49.0690
   Eigenvalues:     4.5318    21.4685    56.2272
     47  Bq   Isotropic =    20.9161   Anisotropy =    58.5141
   XX=    12.9645   YX=   -19.4900   ZX=    -1.5337
   XY=   -16.8575   YY=    -7.5185   ZY=    11.4843
   XZ=    -2.1713   YZ=    11.9058   ZZ=    57.3022
   Eigenvalues:   -19.2537    22.0764    59.9254
     48  Bq   Isotropic =    28.5595   Anisotropy =    37.1929
   XX=    20.6231   YX=    -3.4101   ZX=     2.9758
   XY=    -3.9771   YY=    18.5261   ZY=    17.6513
   XZ=    -3.1016   YZ=    12.9859   ZZ=    46.5291
   Eigenvalues:    10.6407    21.6830    53.3547
     49  Bq   Isotropic =    24.4342   Anisotropy =    53.0574
   XX=    19.0687   YX=   -19.6049   ZX=    -4.5008
   XY=   -14.3512   YY=    -3.9106   ZY=     4.7330
   XZ=    -1.2864   YZ=    11.0159   ZZ=    58.1445
   Eigenvalues:   -13.3656    26.8624    59.8058
     50  Bq   Isotropic =    27.8581   Anisotropy =    33.0569
   XX=    20.5141   YX=    -2.1625   ZX=     1.1919
   XY=    -1.0406   YY=    19.3596   ZY=    13.6946
   XZ=    -2.7149   YZ=    13.6482   ZZ=    43.7006
   Eigenvalues:    13.0481    20.6302    49.8960
     51  Bq   Isotropic =    28.3170   Anisotropy =    45.6795
   XX=    25.2550   YX=   -17.8539   ZX=    -6.0669
   XY=   -11.1382   YY=     2.0236   ZY=     0.3975
   XZ=     0.0092   YZ=     9.8802   ZZ=    57.6723
   Eigenvalues:    -5.1141    31.2950    58.7700
     52  Bq   Isotropic =    25.8013   Anisotropy =    30.6044
   XX=    18.7353   YX=    -1.6182   ZX=    -0.2762
   XY=     0.9232   YY=    18.0628   ZY=    10.4916
   XZ=    -2.2279   YZ=    14.4500   ZZ=    40.6058
   Eigenvalues:    12.5186    18.6811    46.2042
     53  Bq   Isotropic =    30.9168   Anisotropy =    38.6112
   XX=    29.1429   YX=   -15.1224   ZX=    -6.1944
   XY=    -8.2535   YY=     7.6663   ZY=    -1.1084
   XZ=     1.6195   YZ=     8.7916   ZZ=    55.9412
   Eigenvalues:     2.4056    33.6872    56.6576
     54  Bq   Isotropic =    21.3167   Anisotropy =    56.8103
   XX=    10.8640   YX=   -13.3149   ZX=     4.5496
   XY=   -15.7463   YY=    -0.4597   ZY=    23.2668
   XZ=    -3.1638   YZ=    12.4477   ZZ=    53.5458
   Eigenvalues:   -13.9230    18.6828    59.1903
     55  Bq   Isotropic =    15.4411   Anisotropy =    56.6784
   XX=    -2.0459   YX=   -10.5094   ZX=     8.8725
   XY=   -13.9845   YY=     0.9075   ZY=    24.7054
   XZ=    -1.2360   YZ=    10.0258   ZZ=    47.4616
   Eigenvalues:   -16.3546     9.4511    53.2266
     56  Bq   Isotropic =     4.0433   Anisotropy =    72.4865
   XX=   -17.0041   YX=   -21.8223   ZX=     1.8179
   XY=   -21.4727   YY=   -20.3255   ZY=    18.6100
   XZ=     0.5512   YZ=     9.7282   ZZ=    49.4594
   Eigenvalues:   -41.7772     1.5394    52.3676
     57  Bq   Isotropic =    22.4267   Anisotropy =    45.2478
   XX=     8.9415   YX=    -6.1012   ZX=     8.2091
   XY=    -8.5464   YY=    12.0673   ZY=    21.1060
   XZ=    -1.5616   YZ=    10.8914   ZZ=    46.2714
   Eigenvalues:    -0.8447    15.5331    52.5919
     58  Bq   Isotropic =     6.5301   Anisotropy =    70.0945
   XX=   -11.6894   YX=   -25.4016   ZX=    -4.0241
   XY=   -21.0818   YY=   -20.3240   ZY=     9.6803
   XZ=     1.4998   YZ=    10.0546   ZZ=    51.6038
   Eigenvalues:   -40.1532     6.4839    53.2598
     59  Bq   Isotropic =    26.4597   Anisotropy =    36.3825
   XX=    16.3378   YX=    -3.4255   ZX=     5.9877
   XY=    -4.0011   YY=    18.5230   ZY=    16.1634
   XZ=    -1.6581   YZ=    12.0638   ZZ=    44.5185
   Eigenvalues:     9.6180    19.0465    50.7147
     60  Bq   Isotropic =    13.6905   Anisotropy =    61.5688
   XX=     0.2460   YX=   -25.6413   ZX=    -8.4666
   XY=   -18.2503   YY=   -12.9616   ZY=     1.2061
   XZ=     2.0590   YZ=     9.5976   ZZ=    53.7872
   Eigenvalues:   -29.3469    15.6821    54.7364
     61  Bq   Isotropic =    27.3581   Anisotropy =    30.9256
   XX=    19.4468   YX=    -2.1436   ZX=     3.5044
   XY=    -0.8217   YY=    20.4795   ZY=    11.8010
   XZ=    -1.5528   YZ=    13.5080   ZZ=    42.1481
   Eigenvalues:    14.0808    20.0184    47.9752
     62  Bq   Isotropic =    21.4455   Anisotropy =    50.6956
   XX=    12.5995   YX=   -22.9886   ZX=   -10.2389
   XY=   -14.3700   YY=    -2.8645   ZY=    -3.9470
   XZ=     2.7132   YZ=     8.5050   ZZ=    54.6016
   Eigenvalues:   -15.3494    24.4435    55.2426
     63  Bq   Isotropic =    26.0041   Anisotropy =    28.1577
   XX=    19.3048   YX=    -1.6992   ZX=     1.4432
   XY=     1.1436   YY=    19.4641   ZY=     8.6629
   XZ=    -1.2854   YZ=    15.0041   ZZ=    39.2436
   Eigenvalues:    13.9167    19.3198    44.7760
     64  Bq   Isotropic =    26.8714   Anisotropy =    40.9672
   XX=    21.0629   YX=   -18.9940   ZX=    -9.7164
   XY=   -10.7959   YY=     5.7741   ZY=    -5.3723
   XZ=     3.7069   YZ=     7.3829   ZZ=    53.7771
   Eigenvalues:    -3.3324    29.7637    54.1828
     65  Bq   Isotropic =     7.9044   Anisotropy =    67.2721
   XX=   -12.7092   YX=   -16.2183   ZX=     6.7125
   XY=   -18.8682   YY=   -11.8699   ZY=    24.2624
   XZ=    -0.5400   YZ=     9.5498   ZZ=    48.2924
   Eigenvalues:   -32.3567     3.3175    52.7525
     66  Bq   Isotropic =     3.3604   Anisotropy =    64.9182
   XX=   -23.7590   YX=    -8.2872   ZX=    11.4854
   XY=   -12.6076   YY=    -9.3947   ZY=    21.0321
   XZ=    -1.2019   YZ=     6.1855   ZZ=    43.2350
   Eigenvalues:   -30.9306    -5.6273    46.6392
     67  Bq   Isotropic =   -16.6234   Anisotropy =    88.2692
   XX=   -53.0380   YX=   -21.0201   ZX=    -0.9821
   XY=   -20.5852   YY=   -37.5463   ZY=    15.8867
   XZ=     1.6310   YZ=     5.5533   ZZ=    40.7141
   Eigenvalues:   -67.8711   -24.2218    42.2228
     68  Bq   Isotropic =    15.8176   Anisotropy =    47.4243
   XX=    -2.9159   YX=    -4.0246   ZX=    11.6259
   XY=    -6.8564   YY=     7.0480   ZY=    16.6435
   XZ=    -0.8118   YZ=     8.2387   ZZ=    43.3207
   Eigenvalues:    -7.4780     7.4969    47.4338
     69  Bq   Isotropic =   -11.8235   Anisotropy =    83.9782
   XX=   -44.4011   YX=   -26.6711   ZX=    -9.2449
   XY=   -21.0848   YY=   -34.2283   ZY=     6.9335
   XZ=     3.9610   YZ=     7.9516   ZZ=    43.1589
   Eigenvalues:   -63.7937   -15.8388    44.1620
     70  Bq   Isotropic =    23.4232   Anisotropy =    34.8049
   XX=    11.3131   YX=    -1.8520   ZX=     9.0456
   XY=    -2.4090   YY=    16.7180   ZY=    11.5430
   XZ=    -0.5966   YZ=    10.4725   ZZ=    42.2386
   Eigenvalues:     8.2753    15.3679    46.6265
     71  Bq   Isotropic =     0.8798   Anisotropy =    71.1131
   XX=   -23.6818   YX=   -28.2756   ZX=   -14.9428
   XY=   -19.2389   YY=   -21.1650   ZY=    -2.0287
   XZ=     4.2834   YZ=     8.5329   ZZ=    47.4862
   Eigenvalues:   -46.2425     0.5934    48.2885
     72  Bq   Isotropic =    26.2055   Anisotropy =    27.8054
   XX=    18.2342   YX=    -1.1666   ZX=     5.9142
   XY=     0.3893   YY=    20.2282   ZY=     7.7191
   XZ=    -0.4686   YZ=    12.9129   ZZ=    40.1541
   Eigenvalues:    15.1513    18.7228    44.7424
     73  Bq   Isotropic =    13.9135   Anisotropy =    55.6661
   XX=    -2.4770   YX=   -25.5423   ZX=   -16.3091
   XY=   -15.6890   YY=    -6.0026   ZY=    -7.3110
   XZ=     4.1987   YZ=     7.4749   ZZ=    50.2201
   Eigenvalues:   -25.1481    15.8644    51.0242
     74  Bq   Isotropic =    25.6830   Anisotropy =    24.7919
   XX=    19.9012   YX=    -1.2180   ZX=     3.2856
   XY=     1.9332   YY=    19.8540   ZY=     5.4383
   XZ=    -0.2839   YZ=    15.2640   ZZ=    37.2939
   Eigenvalues:    15.0195    19.8186    42.2110
     75  Bq   Isotropic =    22.7635   Anisotropy =    42.8320
   XX=    12.0285   YX=   -20.8503   ZX=   -14.4332
   XY=   -12.0581   YY=     5.5730   ZY=    -8.3035
   XZ=     4.6921   YZ=     6.2135   ZZ=    50.6889
   Eigenvalues:    -8.2267    25.1989    51.3181
     76  Bq   Isotropic =    -9.9857   Anisotropy =    81.2100
   XX=   -44.1996   YX=   -14.3008   ZX=     6.8691
   XY=   -17.7919   YY=   -27.5671   ZY=    21.2411
   XZ=    -0.8198   YZ=     4.6934   ZZ=    41.8096
   Eigenvalues:   -54.8786   -19.2328    44.1543
     77  Bq   Isotropic =    -8.4583   Anisotropy =    74.8482
   XX=   -43.1945   YX=    -1.7199   ZX=    11.4210
   XY=    -6.7976   YY=   -22.4318   ZY=    13.5287
   XZ=    -4.6668   YZ=     3.1960   ZZ=    40.2515
   Eigenvalues:   -44.3303   -22.4850    41.4405
     78  Bq   Isotropic =   -35.3829   Anisotropy =   103.4914
   XX=   -84.1050   YX=   -12.2102   ZX=    -6.9916
   XY=   -12.3794   YY=   -54.8356   ZY=    12.5081
   XZ=    -1.1041   YZ=     2.0480   ZZ=    32.7918
   Eigenvalues:   -88.5985   -51.1617    33.6113
     79  Bq   Isotropic =     9.1308   Anisotropy =    50.5953
   XX=   -13.0285   YX=     0.8886   ZX=    13.5708
   XY=    -2.1014   YY=    -0.6383   ZY=     8.5669
   XZ=    -1.7167   YZ=     5.8488   ZZ=    41.0591
   Eigenvalues:   -13.8252    -1.6434    42.8610
     80  Bq   Isotropic =   -28.0355   Anisotropy =    96.7295
   XX=   -73.8182   YX=   -20.2244   ZX=   -16.4030
   XY=   -14.2253   YY=   -45.7159   ZY=     6.1697
   XZ=     4.5245   YZ=     6.9286   ZZ=    35.4275
   Eigenvalues:   -82.0525   -38.5049    36.4508
     81  Bq   Isotropic =    20.0538   Anisotropy =    33.6418
   XX=     7.5260   YX=     1.3938   ZX=    11.2971
   XY=     1.0188   YY=    12.5551   ZY=     4.2944
   XZ=    -0.2212   YZ=     8.8206   ZZ=    40.0804
   Eigenvalues:     6.6066    11.0732    42.4817
     82  Bq   Isotropic =    -9.8159   Anisotropy =    79.0060
   XX=   -45.3486   YX=   -24.9323   ZX=   -22.8955
   XY=   -15.3444   YY=   -25.5635   ZY=    -2.0080
   XZ=     4.6011   YZ=     8.4503   ZZ=    41.4644
   Eigenvalues:   -58.2661   -14.0364    42.8548
     83  Bq   Isotropic =    24.5399   Anisotropy =    24.6257
   XX=    17.7117   YX=     0.7510   ZX=     7.9056
   XY=     2.6003   YY=    18.0879   ZY=     2.0097
   XZ=     0.3833   YZ=    12.1643   ZZ=    37.8202
   Eigenvalues:    15.7168    16.9459    40.9571
     84  Bq   Isotropic =     8.1520   Anisotropy =    58.6173
   XX=   -15.5606   YX=   -23.8050   ZX=   -23.2261
   XY=   -13.8802   YY=    -5.5551   ZY=    -7.2931
   XZ=     3.8814   YZ=     7.1245   ZZ=    45.5717
   Eigenvalues:   -30.8417     8.0675    47.2302
     85  Bq   Isotropic =    24.7888   Anisotropy =    21.0781
   XX=    20.7952   YX=    -0.2009   ZX=     4.9503
   XY=     3.2419   YY=    18.8616   ZY=     1.2951
   XZ=     0.6973   YZ=    15.3453   ZZ=    34.7095
   Eigenvalues:    15.2797    20.2457    38.8409
     86  Bq   Isotropic =    19.8433   Anisotropy =    42.9849
   XX=     4.5221   YX=   -19.7426   ZX=   -19.4296
   XY=   -11.3751   YY=     7.8575   ZY=    -8.2761
   XZ=     4.2899   YZ=     5.4767   ZZ=    47.1504
   Eigenvalues:   -10.2165    21.2465    48.4999
     87  Bq   Isotropic =   -26.8464   Anisotropy =    96.5583
   XX=   -71.8340   YX=    -6.1877   ZX=     3.1061
   XY=   -10.8717   YY=   -45.3922   ZY=    15.3720
   XZ=    -6.3361   YZ=     0.7524   ZZ=    36.6868
   Eigenvalues:   -74.3516   -43.7135    37.5258
     88  Bq   Isotropic =     0.6011   Anisotropy =     7.4594
   XX=     1.8610   YX=    -0.9386   ZX=    -1.0204
   XY=    -0.0897   YY=    -1.6852   ZY=    -4.0145
   XZ=    -2.3322   YZ=    -6.0264   ZZ=     1.6276
   Eigenvalues:    -5.5821     1.8114     5.5740
     89  Bq   Isotropic =     0.6456   Anisotropy =     7.4094
   XX=     2.2113   YX=    -1.1207   ZX=    -1.3235
   XY=    -0.3574   YY=    -1.0962   ZY=    -4.3455
   XZ=    -3.2514   YZ=    -5.8098   ZZ=     0.8217
   Eigenvalues:    -5.8266     2.1782     5.5852
     90  Bq   Isotropic =     0.5904   Anisotropy =     7.4865
   XX=     1.6887   YX=    -0.8433   ZX=    -0.9060
   XY=     0.0470   YY=    -1.9271   ZY=    -3.7981
   XZ=    -1.9546   YZ=    -6.0337   ZZ=     2.0096
   Eigenvalues:    -5.4359     1.6257     5.5814
     91  Bq   Isotropic =     0.6789   Anisotropy =     7.4258
   XX=     2.3808   YX=    -1.1982   ZX=    -1.5140
   XY=    -0.4746   YY=    -0.7699   ZY=    -4.4415
   XZ=    -3.7959   YZ=    -5.5883   ZZ=     0.4260
   Eigenvalues:    -5.9251     2.3325     5.6295
     92  Bq   Isotropic =     0.5875   Anisotropy =     7.5013
   XX=     1.5230   YX=    -0.7498   ZX=    -0.8136
   XY=     0.1786   YY=    -2.1264   ZY=    -3.5614
   XZ=    -1.6265   YZ=    -5.9864   ZZ=     2.3659
   Eigenvalues:    -5.2752     1.4493     5.5884
     93  Bq   Isotropic =     0.7196   Anisotropy =     7.5073
   XX=     2.5409   YX=    -1.2596   ZX=    -1.7294
   XY=    -0.5708   YY=    -0.4419   ZY=    -4.4829
   XZ=    -4.3947   YZ=    -5.2912   ZZ=     0.0598
   Eigenvalues:    -6.0091     2.4434     5.7245
     94  Bq   Isotropic =     0.5921   Anisotropy =     7.4999
   XX=     1.3664   YX=    -0.6603   ZX=    -0.7403
   XY=     0.3013   YY=    -2.2822   ZY=    -3.3138
   XZ=    -1.3429   YZ=    -5.8946   ZZ=     2.6921
   Eigenvalues:    -5.1019     1.2861     5.5921
     95  Bq   Isotropic =     0.7681   Anisotropy =     7.6829
   XX=     2.6887   YX=    -1.2993   ZX=    -1.9666
   XY=    -0.6387   YY=    -0.1285   ZY=    -4.4687
   XZ=    -5.0420   YZ=    -4.9262   ZZ=    -0.2560
   Eigenvalues:    -6.0800     2.4943     5.8900
     96  Bq   Isotropic =     0.6036   Anisotropy =     7.4818
   XX=     1.2204   YX=    -0.5764   ZX=    -0.6835
   XY=     0.4125   YY=    -2.3963   ZY=    -3.0631
   XZ=    -1.0985   YZ=    -5.7684   ZZ=     2.9867
   Eigenvalues:    -4.9185     1.1378     5.5914
     97  Bq   Isotropic =     0.8254   Anisotropy =     7.9701
   XX=     2.8227   YX=    -1.3127   ZX=    -2.2211
   XY=    -0.6725   YY=     0.1549   ZY=    -4.4026
   XZ=    -5.7294   YZ=    -4.5078   ZZ=    -0.5013
   Eigenvalues:    -6.1396     2.4770     6.1388
     98  Bq   Isotropic =     0.6196   Anisotropy =     7.4285
   XX=     2.0366   YX=    -1.0325   ZX=    -1.1590
   XY=    -0.2266   YY=    -1.4054   ZY=    -4.2003
   XZ=    -2.7636   YZ=    -5.9544   ZZ=     1.2276
   Eigenvalues:    -5.7124     1.9993     5.5719
     99  Bq   Isotropic =     0.6417   Anisotropy =     7.4375
   XX=     2.1374   YX=    -1.0787   ZX=    -0.8929
   XY=    -0.1066   YY=    -1.8624   ZY=    -4.1253
   XZ=    -2.2220   YZ=    -6.1893   ZZ=     1.6500
   Eigenvalues:    -5.7995     2.1246     5.6000
    100  Bq   Isotropic =     0.6962   Anisotropy =     7.3040
   XX=     2.5596   YX=    -1.3186   ZX=    -1.2076
   XY=    -0.4426   YY=    -1.2025   ZY=    -4.5021
   XZ=    -3.2062   YZ=    -5.9390   ZZ=     0.7315
   Eigenvalues:    -6.0578     2.5808     5.5655
    101  Bq   Isotropic =     0.6252   Anisotropy =     7.5030
   XX=     1.9287   YX=    -0.9585   ZX=    -0.7807
   XY=     0.0588   YY=    -2.1277   ZY=    -3.8813
   XZ=    -1.8277   YZ=    -6.1960   ZZ=     2.0745
   Eigenvalues:    -5.6462     1.8945     5.6272
    102  Bq   Isotropic =     0.7322   Anisotropy =     7.2936
   XX=     2.7600   YX=    -1.4266   ZX=    -1.4138
   XY=    -0.5962   YY=    -0.8331   ZY=    -4.6102
   XZ=    -3.8019   YZ=    -5.6768   ZZ=     0.2697
   Eigenvalues:    -6.1639     2.7659     5.5946
    103  Bq   Isotropic =     0.6169   Anisotropy =     7.5497
   XX=     1.7288   YX=    -0.8434   ZX=    -0.6941
   XY=     0.2142   YY=    -2.3421   ZY=    -3.6173
   XZ=    -1.4909   YZ=    -6.1408   ZZ=     2.4639
   Eigenvalues:    -5.4775     1.6781     5.6500
    104  Bq   Isotropic =     0.7733   Anisotropy =     7.3792
   XX=     2.9448   YX=    -1.5171   ZX=    -1.6516
   XY=    -0.7268   YY=    -0.4615   ZY=    -4.6530
   XZ=    -4.4643   YZ=    -5.3204   ZZ=    -0.1634
   Eigenvalues:    -6.2565     2.8836     5.6928
    105  Bq   Isotropic =     0.6170   Anisotropy =     7.5737
   XX=     1.5412   YX=    -0.7356   ZX=    -0.6292
   XY=     0.3559   YY=    -2.5052   ZY=    -3.3445
   XZ=    -1.2045   YZ=    -6.0371   ZZ=     2.8149
   Eigenvalues:    -5.2952     1.4801     5.6661
    106  Bq   Isotropic =     0.8196   Anisotropy =     7.6015
   XX=     3.1090   YX=    -1.5827   ZX=    -1.9175
   XY=    -0.8242   YY=    -0.1091   ZY=    -4.6284
   XZ=    -5.1860   YZ=    -4.8785   ZZ=    -0.5410
   Eigenvalues:    -6.3375     2.9091     5.8873
    107  Bq   Isotropic =     0.6252   Anisotropy =     7.5752
   XX=     1.3680   YX=    -0.6365   ZX=    -0.5822
   XY=     0.4817   YY=    -2.6199   ZY=    -3.0717
   XZ=    -0.9615   YZ=    -5.8967   ZZ=     3.1276
   Eigenvalues:    -5.1021     1.3024     5.6754
    108  Bq   Isotropic =     0.8725   Anisotropy =     7.9730
   XX=     3.2504   YX=    -1.6170   ZX=    -2.2051
   XY=    -0.8801   YY=     0.2043   ZY=    -4.5410
   XZ=    -5.9554   YZ=    -4.3687   ZZ=    -0.8372
   Eigenvalues:    -6.4085     2.8382     6.1878
    109  Bq   Isotropic =     0.6657   Anisotropy =     7.3640
   XX=     2.3498   YX=    -1.2005   ZX=    -1.0343
   XY=    -0.2763   YY=    -1.5507   ZY=    -4.3367
   XZ=    -2.6800   YZ=    -6.1075   ZZ=     1.1980
   Eigenvalues:    -5.9367     2.3588     5.5750
    110  Bq   Isotropic =     0.7061   Anisotropy =     7.3584
   XX=     2.4768   YX=    -1.2171   ZX=    -0.7371
   XY=    -0.1011   YY=    -2.0513   ZY=    -4.2036
   XZ=    -2.0691   YZ=    -6.3389   ZZ=     1.6926
   Eigenvalues:    -5.9890     2.4955     5.6117
    111  Bq   Isotropic =     0.7768   Anisotropy =     7.1282
   XX=     2.9954   YX=    -1.5258   ZX=    -1.0612
   XY=    -0.5191   YY=    -1.3166   ZY=    -4.6353
   XZ=    -3.1205   YZ=    -6.0579   ZZ=     0.6515
   Eigenvalues:    -6.2604     3.0619     5.5289
    112  Bq   Isotropic =     0.6801   Anisotropy =     7.4704
   XX=     2.2201   YX=    -1.0685   ZX=    -0.6301
   XY=     0.0963   YY=    -2.3399   ZY=    -3.9288
   XZ=    -1.6608   YZ=    -6.3423   ZZ=     2.1601
   Eigenvalues:    -5.8302     2.2101     5.6604
    113  Bq   Isotropic =     0.8174   Anisotropy =     7.1025
   XX=     3.2376   YX=    -1.6715   ZX=    -1.2850
   XY=    -0.7189   YY=    -0.8994   ZY=    -4.7595
   XZ=    -3.7739   YZ=    -5.7528   ZZ=     0.1141
   Eigenvalues:    -6.3759     3.2757     5.5524
    114  Bq   Isotropic =     0.6628   Anisotropy =     7.5558
   XX=     1.9755   YX=    -0.9298   ZX=    -0.5527
   XY=     0.2769   YY=    -2.5680   ZY=    -3.6360
   XZ=    -1.3191   YZ=    -6.2772   ZZ=     2.5810
   Eigenvalues:    -5.6559     1.9443     5.7001
    115  Bq   Isotropic =     0.8595   Anisotropy =     7.2354
   XX=     3.4550   YX=    -1.7986   ZX=    -1.5498
   XY=    -0.8945   YY=    -0.4791   ZY=    -4.8059
   XZ=    -4.5106   YZ=    -5.3313   ZZ=    -0.3974
   Eigenvalues:    -6.4808     3.3761     5.6831
    116  Bq   Isotropic =     0.6552   Anisotropy =     7.6110
   XX=     1.7480   YX=    -0.8028   ZX=    -0.4996
   XY=     0.4375   YY=    -2.7365   ZY=    -3.3378
   XZ=    -1.0342   YZ=    -6.1601   ZZ=     2.9542
   Eigenvalues:    -5.4674     1.7039     5.7292
    117  Bq   Isotropic =     0.9027   Anisotropy =     7.5736
   XX=     3.6398   YX=    -1.8967   ZX=    -1.8509
   XY=    -1.0317   YY=    -0.0830   ZY=    -4.7705
   XZ=    -5.3208   YZ=    -4.8023   ZZ=    -0.8488
   Eigenvalues:    -6.5774     3.3337     5.9517
    118  Bq   Isotropic =     0.6574   Anisotropy =     7.6371
   XX=     1.5401   YX=    -0.6883   ZX=    -0.4656
   XY=     0.5766   YY=    -2.8498   ZY=    -3.0440
   XZ=    -0.7968   YZ=    -6.0052   ZZ=     3.2819
   Eigenvalues:    -5.2670     1.4904     5.7488
    119  Bq   Isotropic =     0.9484   Anisotropy =     8.0953
   XX=     3.7883   YX=    -1.9569   ZX=    -2.1796
   XY=    -1.1181   YY=     0.2631   ZY=    -4.6589
   XZ=    -6.1882   YZ=    -4.1877   ZZ=    -1.2062
   Eigenvalues:    -6.6672     3.1671     6.3453
    120  Bq   Isotropic =     0.7390   Anisotropy =     7.2336
   XX=     2.7384   YX=    -1.3716   ZX=    -0.8794
   XY=    -0.3092   YY=    -1.7065   ZY=    -4.4447
   XZ=    -2.5533   YZ=    -6.2495   ZZ=     1.1851
   Eigenvalues:    -6.1321     2.7877     5.5614
    121  Bq   Isotropic =     0.7993   Anisotropy =     7.2060
   XX=     2.8911   YX=    -1.3456   ZX=    -0.5516
   XY=    -0.0588   YY=    -2.2503   ZY=    -4.2349
   XZ=    -1.8701   YZ=    -6.4639   ZZ=     1.7571
   Eigenvalues:    -6.1373     2.9319     5.6033
    122  Bq   Isotropic =     0.8952   Anisotropy =     6.8724
   XX=     3.5393   YX=    -1.7347   ZX=    -0.8817
   XY=    -0.5721   YY=    -1.4402   ZY=    -4.7312
   XZ=    -2.9897   YZ=    -6.1570   ZZ=     0.5866
   Eigenvalues:    -6.4197     3.6286     5.4768
    123  Bq   Isotropic =     0.7592   Anisotropy =     7.3741
   XX=     2.5713   YX=    -1.1659   ZX=    -0.4535
   XY=     0.1724   YY=    -2.5600   ZY=    -3.9271
   XZ=    -1.4516   YZ=    -6.4614   ZZ=     2.2662
   Eigenvalues:    -5.9760     2.5783     5.6753
    124  Bq   Isotropic =     0.9436   Anisotropy =     6.8819
   XX=     3.8386   YX=    -1.9264   ZX=    -1.1254
   XY=    -0.8292   YY=    -0.9722   ZY=    -4.8767
   XZ=    -3.7084   YZ=    -5.8081   ZZ=    -0.0357
   Eigenvalues:    -6.5465     3.8457     5.5315
    125  Bq   Isotropic =     0.7285   Anisotropy =     7.5065
[...]
   139  Bq   0.000000
   140  Bq   0.000000
   141  Bq   0.000000
   142  Bq   0.000000
   143  Bq   0.000000
   144  Bq   0.000000
   145  Bq   0.000000
   146  Bq   0.000000
   147  Bq   0.000000
   148  Bq   0.000000
   149  Bq   0.000000
   150  Bq   0.000000
   151  Bq   0.000000
   152  Bq   0.000000
   153  Bq   0.000000
   154  Bq   0.000000
   155  Bq   0.000000
   156  Bq   0.000000
   157  Bq   0.000000
   158  Bq   0.000000
   159  Bq   0.000000
   160  Bq   0.000000
   161  Bq   0.000000
   162  Bq   0.000000
   163  Bq   0.000000
   164  Bq   0.000000
   165  Bq   0.000000
   166  Bq   0.000000
   167  Bq   0.000000
   168  Bq   0.000000
   169  Bq   0.000000
   170  Bq   0.000000
   171  Bq   0.000000
   172  Bq   0.000000
   173  Bq   0.000000
   174  Bq   0.000000
   175  Bq   0.000000
   176  Bq   0.000000
   177  Bq   0.000000
   178  Bq   0.000000
   179  Bq   0.000000
   180  Bq   0.000000
   181  Bq   0.000000
   182  Bq   0.000000
   183  Bq   0.000000
   184  Bq   0.000000
   185  Bq   0.000000
   186  Bq   0.000000
   187  Bq   0.000000
   188  Bq   0.000000
   189  Bq   0.000000
   190  Bq   0.000000
   191  Bq   0.000000
   192  Bq   0.000000
   193  Bq   0.000000
   194  Bq   0.000000
   195  Bq   0.000000
   196  Bq   0.000000
   197  Bq   0.000000
   198  Bq   0.000000
   199  Bq   0.000000
   200  Bq   0.000000
   201  Bq   0.000000
   202  Bq   0.000000
   203  Bq   0.000000
   204  Bq   0.000000
   205  Bq   0.000000
   206  Bq   0.000000
   207  Bq   0.000000
   208  Bq   0.000000
   209  Bq   0.000000
   210  Bq   0.000000
   211  Bq   0.000000
   212  Bq   0.000000
   213  Bq   0.000000
   214  Bq   0.000000
   215  Bq   0.000000
   216  Bq   0.000000
   217  Bq   0.000000
   218  Bq   0.000000
   219  Bq   0.000000
   220  Bq   0.000000
   221  Bq   0.000000
   222  Bq   0.000000
   223  Bq   0.000000
   224  Bq   0.000000
   225  Bq   0.000000
   226  Bq   0.000000
   227  Bq   0.000000
   228  Bq   0.000000
   229  Bq   0.000000
   230  Bq   0.000000
   231  Bq   0.000000
   232  Bq   0.000000
   233  Bq   0.000000
   234  Bq   0.000000
   235  Bq   0.000000
   236  Bq   0.000000
 Sum of Mulliken charges =   0.00000
 Mulliken charges with hydrogens summed into heavy atoms:
               1
     1  C   -0.255498
     3  C    0.169409
     5  C    0.448258
     6  C    0.064351
     7  C   -0.483520
     9  C   -0.139521
    11  C   -0.205988
    13  C   -0.119315
    15  C    0.653397
    16  C    0.034822
    17  C   -0.317410
    19  C   -0.316854
    21  C    0.651066
    22  C    0.037784
    23  C   -0.117289
    25  C   -0.205316
    27  C    0.448331
    28  C    0.061983
    29  C   -0.333381
    31  C   -0.139505
    33  C   -0.255977
    35  C    0.170579
    37  Bq   0.000000
    38  Bq   0.000000
    39  Bq   0.000000
    40  Bq   0.000000
    41  Bq   0.000000
    42  Bq   0.000000
    43  Bq   0.000000
    44  Bq   0.000000
    45  Bq   0.000000
    46  Bq   0.000000
    47  Bq   0.000000
    48  Bq   0.000000
    49  Bq   0.000000
    50  Bq   0.000000
    51  Bq   0.000000
    52  Bq   0.000000
    53  Bq   0.000000
    54  Bq   0.000000
    55  Bq   0.000000
    56  Bq   0.000000
    57  Bq   0.000000
    58  Bq   0.000000
    59  Bq   0.000000
    60  Bq   0.000000
    61  Bq   0.000000
    62  Bq   0.000000
    63  Bq   0.000000
    64  Bq   0.000000
    65  Bq   0.000000
    66  Bq   0.000000
    67  Bq   0.000000
    68  Bq   0.000000
    69  Bq   0.000000
    70  Bq   0.000000
    71  Bq   0.000000
    72  Bq   0.000000
    73  Bq   0.000000
    74  Bq   0.000000
    75  Bq   0.000000
    76  Bq   0.000000
    77  Bq   0.000000
    78  Bq   0.000000
    79  Bq   0.000000
    80  Bq   0.000000
    81  Bq   0.000000
    82  Bq   0.000000
    83  Bq   0.000000
    84  Bq   0.000000
    85  Bq   0.000000
    86  Bq   0.000000
    87  Bq   0.000000
    88  Bq   0.000000
    89  Bq   0.000000
    90  Bq   0.000000
    91  Bq   0.000000
    92  Bq   0.000000
    93  Bq   0.000000
    94  Bq   0.000000
    95  Bq   0.000000
    96  Bq   0.000000
    97  Bq   0.000000
    98  Bq   0.000000
    99  Bq   0.000000
   100  Bq   0.000000
   101  Bq   0.000000
   102  Bq   0.000000
   103  Bq   0.000000
   104  Bq   0.000000
   105  Bq   0.000000
   106  Bq   0.000000
   107  Bq   0.000000
   108  Bq   0.000000
   109  Bq   0.000000
   110  Bq   0.000000
   111  Bq   0.000000
   112  Bq   0.000000
   113  Bq   0.000000
   114  Bq   0.000000
   115  Bq   0.000000
   116  Bq   0.000000
   117  Bq   0.000000
   118  Bq   0.000000
   119  Bq   0.000000
   120  Bq   0.000000
   121  Bq   0.000000
   122  Bq   0.000000
   123  Bq   0.000000
   124  Bq   0.000000
   125  Bq   0.000000
   126  Bq   0.000000
   127  Bq   0.000000
   128  Bq   0.000000
   129  Bq   0.000000
   130  Bq   0.000000
   131  Bq   0.000000
   132  Bq   0.000000
   133  Bq   0.000000
   134  Bq   0.000000
   135  Bq   0.000000
   136  Bq   0.000000
   137  Bq   0.000000
   138  Bq   0.000000
   139  Bq   0.000000
   140  Bq   0.000000
   141  Bq   0.000000
   142  Bq   0.000000
   143  Bq   0.000000
   144  Bq   0.000000
   145  Bq   0.000000
   146  Bq   0.000000
   147  Bq   0.000000
   148  Bq   0.000000
   149  Bq   0.000000
   150  Bq   0.000000
   151  Bq   0.000000
   152  Bq   0.000000
   153  Bq   0.000000
   154  Bq   0.000000
   155  Bq   0.000000
   156  Bq   0.000000
   157  Bq   0.000000
   158  Bq   0.000000
   159  Bq   0.000000
   160  Bq   0.000000
   161  Bq   0.000000
   162  Bq   0.000000
   163  Bq   0.000000
   164  Bq   0.000000
   165  Bq   0.000000
   166  Bq   0.000000
   167  Bq   0.000000
   168  Bq   0.000000
   169  Bq   0.000000
   170  Bq   0.000000
   171  Bq   0.000000
   172  Bq   0.000000
   173  Bq   0.000000
   174  Bq   0.000000
   175  Bq   0.000000
   176  Bq   0.000000
   177  Bq   0.000000
   178  Bq   0.000000
   179  Bq   0.000000
   180  Bq   0.000000
   181  Bq   0.000000
   182  Bq   0.000000
   183  Bq   0.000000
   184  Bq   0.000000
   185  Bq   0.000000
   186  Bq   0.000000
   187  Bq   0.000000
   188  Bq   0.000000
   189  Bq   0.000000
   190  Bq   0.000000
   191  Bq   0.000000
   192  Bq   0.000000
   193  Bq   0.000000
   194  Bq   0.000000
   195  Bq   0.000000
   196  Bq   0.000000
   197  Bq   0.000000
   198  Bq   0.000000
   199  Bq   0.000000
   200  Bq   0.000000
   201  Bq   0.000000
   202  Bq   0.000000
   203  Bq   0.000000
   204  Bq   0.000000
   205  Bq   0.000000
   206  Bq   0.000000
   207  Bq   0.000000
   208  Bq   0.000000
   209  Bq   0.000000
   210  Bq   0.000000
   211  Bq   0.000000
   212  Bq   0.000000
   213  Bq   0.000000
   214  Bq   0.000000
   215  Bq   0.000000
   216  Bq   0.149595
   217  Bq   0.000000
   218  Bq   0.000000
   219  Bq   0.000000
   220  Bq   0.000000
   221  Bq   0.000000
   222  Bq   0.000000
   223  Bq   0.000000
   224  Bq   0.000000
   225  Bq   0.000000
   226  Bq   0.000000
   227  Bq   0.000000
   228  Bq   0.000000
   229  Bq   0.000000
   230  Bq   0.000000
   231  Bq   0.000000
   232  Bq   0.000000
   233  Bq   0.000000
   234  Bq   0.000000
   235  Bq   0.000000
   236  Bq   0.000000
 Electronic spatial extent (au):  <R**2>=           5736.9264
 Charge=              0.0000 electrons
 Dipole moment (field-independent basis, Debye):
    X=              0.0475    Y=              0.0856    Z=              0.0029  Tot=              0.0979
 Quadrupole moment (field-independent basis, Debye-Ang):
   XX=           -113.7056   YY=           -113.9456   ZZ=           -133.2669
   XY=             -0.3834   XZ=              3.2102   YZ=             -1.1839
 Traceless Quadrupole moment (field-independent basis, Debye-Ang):
   XX=              6.6005   YY=              6.3604   ZZ=            -12.9609
   XY=             -0.3834   XZ=              3.2102   YZ=             -1.1839
 Octapole moment (field-independent basis, Debye-Ang**2):
  XXX=            -16.4668  YYY=            -16.1860  ZZZ=             -1.7007  XYY=              2.5576
  XXY=             -6.5650  XXZ=             13.6547  XZZ=             -8.9478  YZZ=            -17.7168
  YYZ=            -13.2941  XYZ=              8.8036
 Hexadecapole moment (field-independent basis, Debye-Ang**3):
 XXXX=          -3951.1638 YYYY=          -3112.2161 ZZZZ=           -504.8311 XXXY=            340.6935
 XXXZ=            156.4968 YYYX=            335.5625 YYYZ=            -87.0893 ZZZX=            120.2262
 ZZZY=           -108.7373 XXYY=          -1176.4844 XXZZ=           -856.7291 YYZZ=           -665.7275
 XXYZ=            -68.9016 YYXZ=             48.1602 ZZXY=            153.0375
 N-N= 1.610917615562D+03 E-N=-5.186891130729D+03  KE= 8.436329774449D+02
 1\1\GINC-XHYSTOS\SP\RB3LYP\6-311+G(d,p)\C22H14\YANNICK\23-Aug-2020\0\\
 # rb3lyp/6-311+g** NMR geom=connectivity\\Title\\0,1\C,0,-4.0500558,-0
 .5771862,0.8136712\H,0,-5.0263804,-1.0082727,1.002476\C,0,-3.9381552,0
 .6617804,0.2400876\H,0,-4.8252424,1.233889,-0.0111295\C,0,-2.676841,1.
 2433246,0.0057578\C,0,-1.4974121,0.5051527,0.2848253\C,0,-1.6508332,-0
 .7338728,0.9404026\H,0,-0.7713646,-1.2730967,1.2633753\C,0,-2.8898548,
 -1.2624035,1.1994307\H,0,-2.9683706,-2.2124563,1.7152676\C,0,-2.577318
 5,2.5963696,-0.419293\H,0,-3.4870728,3.1412239,-0.6474055\C,0,-1.37418
 95,3.2147896,-0.436403\H,0,-1.2997315,4.2742019,-0.6578144\C,0,-0.1719
 488,2.499409,-0.1734588\C,0,-0.2043917,1.1018437,0.0192689\C,0,1.05134
 91,3.204256,-0.0676222\H,0,1.0427344,4.2819499,-0.1896997\C,0,2.194209
 1,2.5487446,0.2579577\H,0,3.1168527,3.0912848,0.4334727\C,0,2.2216473,
 1.1336562,0.293499\C,0,1.0486931,0.3945528,0.0302412\C,0,3.4483363,0.4
 614633,0.5573939\H,0,4.3095794,1.0606054,0.8334846\C,0,3.5427346,-0.88
 55926,0.4749463\H,0,4.4731467,-1.3939704,0.7038822\C,0,2.4490052,-1.64
 74447,-0.0196319\C,0,1.2150704,-1.0057258,-0.3013573\C,0,0.2531113,-1.
 743444,-1.0216591\H,0,-0.6541356,-1.2535051,-1.3462847\C,0,0.4494193,-
 3.0628597,-1.3413779\H,0,-0.3083162,-3.5944309,-1.905406\C,0,1.6251726
 ,-3.7207967,-0.9552541\H,0,1.7670048,-4.7687404,-1.1927019\C,0,2.61098
 72,-3.0144177,-0.318305\H,0,3.5525612,-3.4902813,-0.0646367\Bq,0,-0.38
 31196139,2.2117401821,0.3974059347\Bq,0,-0.3809956405,1.9508438801,-0.
 1428982466\Bq,0,-0.3834736095,2.2552228991,0.4874566315\Bq,0,-0.380641
 6449,1.9073611631,-0.2329489435\Bq,0,-0.3838276051,2.2987056161,0.5775
 073284\Bq,0,-0.3802876493,1.8638784461,-0.3229996404\Bq,0,-0.382057627
 2,2.0812920311,0.127253844\Bq,0,-0.3822406905,2.2148261408,0.173822159
 9\Bq,0,-0.3815326993,2.1278607068,-0.0062792339\Bq,0,-0.3825946861,2.2
 583088578,0.2638728567\Bq,0,-0.3811787038,2.0843779898,-0.0963299308\B
 q,0,-0.3829486816,2.3017915748,0.3539235536\Bq,0,-0.3808247082,2.04089
 52728,-0.1863806277\Bq,0,-0.3833026772,2.3452742918,0.4439742505\Bq,0,
 -0.3804707126,1.9974125558,-0.2764313246\Bq,0,-0.3836566728,2.38875700
 88,0.5340249474\Bq,0,-0.380116717,1.9539298388,-0.3664820214\Bq,0,-0.3
 818866949,2.1713434238,0.083771463\Bq,0,-0.3820697582,2.3048775334,0.1
 303397788\Bq,0,-0.3813617671,2.2179120994,-0.0497616149\Bq,0,-0.382423
 7538,2.3483602505,0.2203904757\Bq,0,-0.3810077715,2.1744293824,-0.1398
 123118\Bq,0,-0.3827777494,2.3918429675,0.3104411726\Bq,0,-0.3806537759
 ,2.1309466654,-0.2298630087\Bq,0,-0.3831317449,2.4353256845,0.40049186
 95\Bq,0,-0.3802997803,2.0874639484,-0.3199137056\Bq,0,-0.3834857405,2.
 4788084015,0.4905425664\Bq,0,-0.3799457848,2.0439812314,-0.4099644025\
 Bq,0,-0.3817157626,2.2613948164,0.0402890819\Bq,0,-0.3818988259,2.3949
 289261,0.0868573978\Bq,0,-0.3811908348,2.3079634921,-0.093243996\Bq,0,
 -0.3822528215,2.4384116431,0.1769080947\Bq,0,-0.3808368392,2.264480775
 1,-0.1832946929\Bq,0,-0.3826068171,2.4818943601,0.2669587916\Bq,0,-0.3
 804828436,2.2209980581,-0.2733453897\Bq,0,-0.3829608127,2.5253770771,0
 .3570094884\Bq,0,-0.3801288481,2.1775153411,-0.3633960866\Bq,0,-0.3833
 148082,2.5688597941,0.4470601853\Bq,0,-0.3797748525,2.1340326241,-0.45
 34467835\Bq,0,-0.3815448304,2.3514462091,-0.0031932991\Bq,0,-0.3817278
 937,2.4849803188,0.0433750168\Bq,0,-0.3810199025,2.3980148848,-0.13672
 6377\Bq,0,-0.3820818892,2.5284630358,0.1334257136\Bq,0,-0.3806659069,2
 .3545321678,-0.2267770739\Bq,0,-0.3824358848,2.5719457528,0.2234764105
 \Bq,0,-0.3803119114,2.3110494508,-0.3168277708\Bq,0,-0.3827898804,2.61
 54284698,0.3135271074\Bq,0,-0.3799579158,2.2675667338,-0.4068784676\Bq
 ,0,-0.383143876,2.6589111868,0.4035778043\Bq,0,-0.3796039202,2.2240840
 168,-0.4969291645\Bq,0,-0.3813738981,2.4414976018,-0.0466756801\Bq,0,-
 0.2902752801,-2.0175893147,2.2178871723\Bq,0,-0.2895672889,-2.10455474
 87,2.0377857786\Bq,0,-0.2906292756,-1.9741065977,2.3079378692\Bq,0,-0.
 2892132933,-2.1480374658,1.9477350817\Bq,0,-0.2909832712,-1.9306238807
 ,2.3979885661\Bq,0,-0.2888592978,-2.1915201828,1.8576843848\Bq,0,-0.29
 13372668,-1.8871411637,2.488039263\Bq,0,-0.2885053022,-2.2350028998,1.
 7676336879\Bq,0,-0.2916912624,-1.8436584467,2.5780899599\Bq,0,-0.28815
 13066,-2.2784856168,1.677582991\Bq,0,-0.2899212845,-2.0610720317,2.127
 8364754\Bq,0,-0.2901043478,-1.9275379221,2.1744047913\Bq,0,-0.28939635
 66,-2.0145033561,1.9943033975\Bq,0,-0.2904583434,-1.8840552051,2.26445
 54882\Bq,0,-0.2890423611,-2.0579860731,1.9042527006\Bq,0,-0.2908123389
 ,-1.8405724881,2.3545061851\Bq,0,-0.2886883655,-2.1014687901,1.8142020
 038\Bq,0,-0.2911663345,-1.7970897711,2.4445568819\Bq,0,-0.2883343699,-
 2.1449515071,1.7241513069\Bq,0,-0.2915203301,-1.753607054,2.5346075788
 \Bq,0,-0.2879803743,-2.1884342241,1.63410061\Bq,0,-0.2897503522,-1.971
 0206391,2.0843540944\Bq,0,-0.2899334155,-1.8374865294,2.1309224103\Bq,
 0,-0.2892254244,-1.9244519634,1.9508210165\Bq,0,-0.2902874111,-1.79400
 38124,2.2209731071\Bq,0,-0.2888714288,-1.9679346804,1.8607703196\Bq,0,
 -0.2906414067,-1.7505210954,2.311023804\Bq,0,-0.2885174332,-2.01141739
 74,1.7707196227\Bq,0,-0.2909954022,-1.7070383784,2.4010745009\Bq,0,-0.
 2881634376,-2.0549001144,1.6806689259\Bq,0,-0.2913493978,-1.6635556614
 ,2.4911251978\Bq,0,-0.2878094421,-2.0983828314,1.590618229\Bq,0,-0.289
 5794199,-1.8809692464,2.0408717134\Bq,0,-0.2897624832,-1.7474351367,2.
 0874400292\Bq,0,-0.2890544921,-1.8344005707,1.9073386355\Bq,0,-0.29011
 64788,-1.7039524197,2.1774907261\Bq,0,-0.2887004965,-1.8778832877,1.81
 72879386\Bq,0,-0.2904704744,-1.6604697027,2.267541423\Bq,0,-0.28834650
 09,-1.9213660047,1.7272372417\Bq,0,-0.29082447,-1.6169869857,2.3575921
 199\Bq,0,-0.2879925054,-1.9648487217,1.6371865448\Bq,0,-0.2911784655,-
 1.5735042687,2.4476428168\Bq,0,-0.2876385098,-2.0083314388,1.547135847
 9\Bq,0,-0.2894084877,-1.7909178537,1.9973893323\Bq,0,-0.289591551,-1.6
 573837441,2.0439576482\Bq,0,-0.2888835598,-1.7443491781,1.8638562544\B
 q,0,-0.2899455465,-1.613901027,2.1340083451\Bq,0,-0.2885295642,-1.7878
 318951,1.7738055576\Bq,0,-0.2902995421,-1.57041831,2.224059042\Bq,0,-0
 .2881755687,-1.8313146121,1.6837548607\Bq,0,-0.2906535377,-1.526935593
 ,2.3141097388\Bq,0,-0.2878215731,-1.8747973291,1.5937041638\Bq,0,-0.29
 10075333,-1.483452876,2.4041604357\Bq,0,-0.2874675775,-1.9182800461,1.
 5036534669\Bq,0,-0.2892375554,-1.7008664611,1.9539069513\Bq,0,-0.28942
 06187,-1.5673323514,2.0004752672\Bq,0,-0.2887126275,-1.6542977854,1.82
 03738734\Bq,0,-0.2897746143,-1.5238496344,2.090525964\Bq,0,-0.28835863
 2,-1.6977805024,1.7303231765\Bq,0,-0.2901286098,-1.4803669174,2.180576
 6609\Bq,0,-0.2880046364,-1.7412632194,1.6402724796\Bq,0,-0.2904826054,
 -1.4368842004,2.2706273578\Bq,0,-0.2876506408,-1.7847459364,1.55022178
 28\Bq,0,-0.290836601,-1.3934014834,2.3606780547\Bq,0,-0.2872966452,-1.
 8282286534,1.4601710859\Bq,0,-0.2890666231,-1.6108150684,1.9104245703\
 Bq,0,-0.2892496864,-1.4772809587,1.9569928861\Bq,0,-0.2885416953,-1.56
 42463927,1.7768914924\Bq,0,-0.289603682,-1.4337982417,2.047043583\Bq,0
 ,-0.2881876997,-1.6077291097,1.6868407955\Bq,0,-0.2899576776,-1.390315
 5247,2.1370942799\Bq,0,-0.2878337041,-1.6512118267,1.5967900986\Bq,0,-
 0.2903116731,-1.3468328077,2.2271449768\Bq,0,-0.2874797085,-1.69469454
 37,1.5067394017\Bq,0,-0.2906656687,-1.3033500907,2.3171956737\Bq,0,-0.
 287125713,-1.7381772607,1.4166887048\Bq,0,-0.2888956908,-1.5207636757,
 1.8669421893\Bq,0,-0.2890787541,-1.387229566,1.9135105051\Bq,0,-0.2883
 70763,-1.4741950001,1.7334091113\Bq,0,-0.2894327497,-1.343746849,2.003
 561202\Bq,0,-0.2880167674,-1.5176777171,1.6433584145\Bq,0,-0.289786745
 3,-1.300264132,2.0936118989\Bq,0,-0.2876627718,-1.5611604341,1.5533077
 176\Bq,0,-0.2901407409,-1.256781415,2.1836625957\Bq,0,-0.2873087763,-1
 .6046431511,1.4632570207\Bq,0,-0.2904947364,-1.213298698,2.2737132926\
 Bq,0,-0.2869547807,-1.6481258681,1.3732063238\Bq,0,-0.2887247586,-1.43
 0712283,1.8234598082\Bq,0,-0.2889078219,-1.2971781734,1.8700281241\Bq,
 0,-0.2881998307,-1.3841436074,1.6899267303\Bq,0,-0.2892618174,-1.25369
 54564,1.960078821\Bq,0,-0.2878458351,-1.4276263244,1.5998760334\Bq,0,-
 0.289615813,-1.2102127394,2.0501295178\Bq,0,-0.2874918396,-1.471109041
 4,1.5098253365\Bq,0,-0.2899698086,-1.1667300224,2.1401802147\Bq,0,-0.2
 87137844,-1.5145917584,1.4197746397\Bq,0,-0.2903238042,-1.1232473054,2
 .2302309116\Bq,0,-0.2867838484,-1.5580744754,1.3297239428\Bq,0,-0.2885
 538263,-1.3406608904,1.7799774272\Bq,0,-0.2887368896,-1.2071267807,1.8
 26545743\Bq,0,-0.2880288984,-1.2940922147,1.6464443493\Bq,0,-0.2890908
 852,-1.1636440637,1.9165964399\Bq,0,-0.2876749029,-1.3375749317,1.5563
 936524\Bq,0,-0.2894448807,-1.1201613467,2.0066471368\Bq,0,-0.287320907
 3,-1.3810576487,1.4663429555\Bq,0,-0.2897988763,-1.0766786297,2.096697
 8337\Bq,0,-0.2869669117,-1.4245403657,1.3762922586\Bq,0,-0.2901528719,
 -1.0331959127,2.1867485306\Bq,0,-0.2866129161,-1.4680230827,1.28624156
 17\Bq,0,-0.288382894,-1.2506094977,1.7364950462\Bq,0,-0.2885659573,-1.
 117075388,1.783063362\Bq,0,-0.2878579662,-1.204040822,1.6029619682\Bq,
 0,-0.2889199529,-1.073592671,1.8731140589\Bq,0,-0.2875039706,-1.247523
 539,1.5129112714\Bq,0,-0.2892739485,-1.030109954,1.9631647558\Bq,0,-0.
 287149975,-1.291006256,1.4228605745\Bq,0,-0.289627944,-0.986627237,2.0
 532154527\Bq,0,-0.2867959794,-1.3344889731,1.3328098776\Bq,0,-0.289981
 9396,-0.94314452,2.1432661495\Bq,0,-0.2864419839,-1.3779716901,1.24275
 91807\Bq,0,-0.2882119617,-1.160558105,1.6930126651\Bq,0,-0.288395025,-
 1.0270239954,1.739580981\Bq,0,-0.2876870339,-1.1139894294,1.5594795872
 \Bq,0,-0.2887490206,-0.9835412784,1.8296316779\Bq,0,-0.2873330383,-1.1
 574721464,1.4694288903\Bq,0,-0.2891030162,-0.9400585614,1.9196823747\B
 q,0,-0.2869790427,-1.2009548634,1.3793781934\Bq,0,-0.2894570118,-0.896
 5758443,2.0097330716\Bq,0,-0.2866250472,-1.2444375804,1.2893274966\Bq,
 0,-0.2898110073,-0.8530931273,2.0997837685\Bq,0,-0.2862710516,-1.28792
 02974,1.1992767997\Bq,0,-0.2880410295,-1.0705067124,1.6495302841\Bq,0,
 -0.2882240928,-0.9369726027,1.6960985999\Bq,0,-0.2875161016,-1.0239380
 367,1.5159972062\Bq,0,-0.2885780883,-0.8934898857,1.7861492968\Bq,0,-0
 .287162106,-1.0674207537,1.4259465093\Bq,0,-0.2889320839,-0.8500071687
 ,1.8761999937\Bq,0,-0.2868081105,-1.1109034707,1.3358958124\Bq,0,-0.28
 92860795,-0.8065244517,1.9662506906\Bq,0,-0.2864541149,-1.1543861877,1
 .2458451155\Bq,0,-0.2896400751,-0.7630417347,2.0563013875\Bq,0,-0.2861
 001193,-1.1978689047,1.1557944186\Bq,0,-0.2878700972,-0.9804553197,1.6
 060479031\Bq,0,-0.2880531605,-0.84692121,1.6526162189\Bq,0,-0.28734516
 93,-0.933886644,1.4725148251\Bq,0,-0.2884071561,-0.803438493,1.7426669
 158\Bq,0,-0.2869911738,-0.977369361,1.3824641283\Bq,0,-0.2887611516,-0
 .759955776,1.8327176127\Bq,0,-0.2866371782,-1.020852078,1.2924134314\\
 Version=ES64L-G09RevD.01\HF=-847.0032898\RMSD=7.519e-09\Dipole=0.01868
 08,0.0336671,0.0011595\Quadrupole=4.9072795,4.7288219,-9.6361014,-0.28
 50201,2.3867064,-0.880172\PG=C01 [X(C22H14)]\\@


 The lyf so short, the craft so long to lerne.
                             -- Chaucer
 Job cpu time:       0 days  2 hours 35 minutes 24.7 seconds.
 File lengths (MBytes):  RWF=    184 Int=      0 D2E=      0 Chk=     19 Scr=      1
 Normal termination of Gaussian 09 at Sun Aug 23 07:09:24 2020.
