 Entering Gaussian System, Link 0=g09
 Input=input_cycle_05_batch_07000.com
 Output=input_cycle_05_batch_07000.log
 Initial command:
 /share/programs/GAUSSIAN/64/g09/l1.exe "/scratch/yannick.30705/Gau-3141829.inp" -scrdir="/scratch/yannick.30705/"
 Entering Link 1 = /share/programs/GAUSSIAN/64/g09/l1.exe PID=   3141830.
  
 Copyright (c) 1988,1990,1992,1993,1995,1998,2003,2009,2013,
            Gaussian, Inc.  All Rights Reserved.
  
 This is part of the Gaussian(R) 09 program.  It is based on
 the Gaussian(R) 03 system (copyright 2003, Gaussian, Inc.),
 the Gaussian(R) 98 system (copyright 1998, Gaussian, Inc.),
 the Gaussian(R) 94 system (copyright 1995, Gaussian, Inc.),
 the Gaussian 92(TM) system (copyright 1992, Gaussian, Inc.),
 the Gaussian 90(TM) system (copyright 1990, Gaussian, Inc.),
 the Gaussian 88(TM) system (copyright 1988, Gaussian, Inc.),
 the Gaussian 86(TM) system (copyright 1986, Carnegie Mellon
 University), and the Gaussian 82(TM) system (copyright 1983,
 Carnegie Mellon University). Gaussian is a federally registered
 trademark of Gaussian, Inc.
  
 This software contains proprietary and confidential information,
 including trade secrets, belonging to Gaussian, Inc.
  
 This software is provided under written license and may be
 used, copied, transmitted, or stored only in accord with that
 written license.
  
 The following legend is applicable only to US Government
 contracts under FAR:
  
                    RESTRICTED RIGHTS LEGEND
  
 Use, reproduction and disclosure by the US Government is
 subject to restrictions as set forth in subparagraphs (a)
 and (c) of the Commercial Computer Software - Restricted
 Rights clause in FAR 52.227-19.
  
 Gaussian, Inc.
 340 Quinnipiac St., Bldg. 40, Wallingford CT 06492
  
  
 ---------------------------------------------------------------
 Warning -- This program may not be used in any manner that
 competes with the business of Gaussian, Inc. or will provide
 assistance to any competitor of Gaussian, Inc.  The licensee
 of this program is prohibited from giving any competitor of
 Gaussian, Inc. access to this program.  By using this program,
 the user acknowledges that Gaussian, Inc. is engaged in the
 business of creating and licensing software in the field of
 computational chemistry and represents and warrants to the
 licensee that it is not a competitor of Gaussian, Inc. and that
 it will not use this program in any manner prohibited above.
 ---------------------------------------------------------------
  

 Cite this work as:
 Gaussian 09, Revision D.01,
 M. J. Frisch, G. W. Trucks, H. B. Schlegel, G. E. Scuseria, 
 M. A. Robb, J. R. Cheeseman, G. Scalmani, V. Barone, B. Mennucci, 
 G. A. Petersson, H. Nakatsuji, M. Caricato, X. Li, H. P. Hratchian, 
 A. F. Izmaylov, J. Bloino, G. Zheng, J. L. Sonnenberg, M. Hada, 
 M. Ehara, K. Toyota, R. Fukuda, J. Hasegawa, M. Ishida, T. Nakajima, 
 Y. Honda, O. Kitao, H. Nakai, T. Vreven, J. A. Montgomery, Jr., 
 J. E. Peralta, F. Ogliaro, M. Bearpark, J. J. Heyd, E. Brothers, 
 K. N. Kudin, V. N. Staroverov, T. Keith, R. Kobayashi, J. Normand, 
 K. Raghavachari, A. Rendell, J. C. Burant, S. S. Iyengar, J. Tomasi, 
 M. Cossi, N. Rega, J. M. Millam, M. Klene, J. E. Knox, J. B. Cross, 
 V. Bakken, C. Adamo, J. Jaramillo, R. Gomperts, R. E. Stratmann, 
 O. Yazyev, A. J. Austin, R. Cammi, C. Pomelli, J. W. Ochterski, 
 R. L. Martin, K. Morokuma, V. G. Zakrzewski, G. A. Voth, 
 P. Salvador, J. J. Dannenberg, S. Dapprich, A. D. Daniels, 
 O. Farkas, J. B. Foresman, J. V. Ortiz, J. Cioslowski, 
 and D. J. Fox, Gaussian, Inc., Wallingford CT, 2013.
 
 ******************************************
 Gaussian 09:  ES64L-G09RevD.01 24-Apr-2013
                23-Aug-2020 
 ******************************************
 %nproc=8
 Will use up to    8 processors via shared memory.
 %mem=1000MB
 ----------------------------------------
 # rb3lyp/6-311+g** NMR geom=connectivity
 ----------------------------------------
 1/38=1,57=2/1;
 2/12=2,17=6,18=5,40=1/2;
 3/5=4,6=6,7=111,11=2,16=1,25=1,30=1,74=-5,116=1/1,2,8,3;
 4//1;
 5/5=2,38=5/2;
 8/6=1,10=90,11=11/1;
 10/13=100,45=16/2;
 6/7=2,8=2,9=2,10=2,28=1/1;
 99/9=1/99;
 -----
 Title
 -----
 Symbolic Z-matrix:
 Charge =  0 Multiplicity = 1
 C                    -4.05006  -0.57719   0.81367 
 H                    -5.02638  -1.00827   1.00248 
 C                    -3.93816   0.66178   0.24009 
 H                    -4.82524   1.23389  -0.01113 
 C                    -2.67684   1.24332   0.00576 
 C                    -1.49741   0.50515   0.28483 
 C                    -1.65083  -0.73387   0.9404 
 H                    -0.77136  -1.2731    1.26338 
 C                    -2.88985  -1.2624    1.19943 
 H                    -2.96837  -2.21246   1.71527 
 C                    -2.57732   2.59637  -0.41929 
 H                    -3.48707   3.14122  -0.64741 
 C                    -1.37419   3.21479  -0.4364 
 H                    -1.29973   4.2742   -0.65781 
 C                    -0.17195   2.49941  -0.17346 
 C                    -0.20439   1.10184   0.01927 
 C                     1.05135   3.20426  -0.06762 
 H                     1.04273   4.28195  -0.1897 
 C                     2.19421   2.54874   0.25796 
 H                     3.11685   3.09128   0.43347 
 C                     2.22165   1.13366   0.2935 
 C                     1.04869   0.39455   0.03024 
 C                     3.44834   0.46146   0.55739 
 H                     4.30958   1.06061   0.83348 
 C                     3.54273  -0.88559   0.47495 
 H                     4.47315  -1.39397   0.70388 
 C                     2.44901  -1.64744  -0.01963 
 C                     1.21507  -1.00573  -0.30136 
 C                     0.25311  -1.74344  -1.02166 
 H                    -0.65414  -1.25351  -1.34628 
 C                     0.44942  -3.06286  -1.34138 
 H                    -0.30832  -3.59443  -1.90541 
 C                     1.62517  -3.7208   -0.95525 
 H                     1.767    -4.76874  -1.1927 
 C                     2.61099  -3.01442  -0.31831 
 H                     3.55256  -3.49028  -0.06464 
 Bq                   -4.08508   0.0132    0.88922 
 Bq                   -4.08685   0.23061   1.33947 
 Bq                   -4.08473  -0.03029   0.79917 
 Bq                   -4.08721   0.27409   1.42952 
 Bq                   -4.08437  -0.07377   0.70912 
 Bq                   -4.08756   0.31757   1.51957 
 Bq                   -4.08402  -0.11725   0.61907 
 Bq                   -4.08579   0.10016   1.06932 
 Bq                   -4.08597   0.2337    1.11589 
 Bq                   -4.08526   0.14673   0.93579 
 Bq                   -4.08633   0.27718   1.20594 
 Bq                   -4.08491   0.10325   0.84574 
 Bq                   -4.08668   0.32066   1.29599 
 Bq                   -4.08456   0.05976   0.75569 
 Bq                   -4.08703   0.36414   1.38604 
 Bq                   -4.0842    0.01628   0.66564 
 Bq                   -4.08739   0.40763   1.47609 
 Bq                   -4.08385  -0.0272    0.57559 
 Bq                   -4.08562   0.19021   1.02584 
 Bq                   -4.0858    0.32375   1.07241 
 Bq                   -4.08509   0.23678   0.89231 
 Bq                   -4.08616   0.36723   1.16246 
 Bq                   -4.08474   0.1933    0.80226 
 Bq                   -4.08651   0.41071   1.25251 
 Bq                   -4.08439   0.14982   0.7122 
 Bq                   -4.08686   0.4542    1.34256 
 Bq                   -4.08403   0.10633   0.62215 
 Bq                   -4.08722   0.49768   1.43261 
 Bq                   -4.08368   0.06285   0.5321 
 Bq                   -4.08545   0.28026   0.98236 
 Bq                   -4.08563   0.4138    1.02892 
 Bq                   -4.08492   0.32683   0.84882 
 Bq                   -4.08598   0.45728   1.11898 
 Bq                   -4.08457   0.28335   0.75877 
 Bq                   -4.08634   0.50076   1.20903 
 Bq                   -4.08421   0.23987   0.66872 
 Bq                   -4.08669   0.54425   1.29908 
 Bq                   -4.08386   0.19638   0.57867 
 Bq                   -4.08705   0.58773   1.38913 
 Bq                   -4.08351   0.1529    0.48862 
 Bq                   -4.08528   0.37032   0.93887 
 Bq                   -4.08546   0.50385   0.98544 
 Bq                   -4.08475   0.41688   0.80534 
 Bq                   -4.08581   0.54733   1.07549 
 Bq                   -4.0844    0.3734    0.71529 
 Bq                   -4.08617   0.59082   1.16554 
 Bq                   -4.08404   0.32992   0.62524 
 Bq                   -4.08652   0.6343    1.25559 
 Bq                   -4.08369   0.28644   0.53519 
 Bq                   -4.08688   0.67778   1.34565 
 Bq                   -4.08334   0.24295   0.44514 
 Bq                   -4.08511   0.46037   0.89539 
 Bq                   -4.08529   0.5939    0.94196 
 Bq                   -4.08458   0.50694   0.76186 
 Bq                   -4.08564   0.63738   1.03201 
 Bq                   -4.08423   0.46345   0.67181 
 Bq                   -4.086     0.68087   1.12206 
 Bq                   -4.08387   0.41997   0.58176 
 Bq                   -4.08635   0.72435   1.21211 
 Bq                   -4.08352   0.37649   0.49171 
 Bq                   -4.0867    0.76783   1.30216 
 Bq                   -4.08316   0.333     0.40166 
 Bq                   -4.08493   0.55042   0.85191 
 Bq                   -4.08512   0.68395   0.89848 
 Bq                   -4.08441   0.59699   0.71838 
 Bq                   -4.08547   0.72744   0.98853 
 Bq                   -4.08406   0.5535    0.62833 
 Bq                   -4.08583   0.77092   1.07858 
 Bq                   -4.0837    0.51002   0.53828 
 Bq                   -4.08618   0.8144    1.16863 
 Bq                   -4.08335   0.46654   0.44822 
 Bq                   -4.08653   0.85788   1.25868 
 Bq                   -4.08299   0.42306   0.35817 
 Bq                   -4.08476   0.64047   0.80843 
 Bq                   -4.08495   0.774     0.855 
 Bq                   -4.08424   0.68704   0.67489 
 Bq                   -4.0853    0.81749   0.94505 
 Bq                   -4.08389   0.64356   0.58484 
 Bq                   -4.08566   0.86097   1.0351 
 Bq                   -4.08353   0.60007   0.49479 
 Bq                   -4.08601   0.90445   1.12515 
 Bq                   -4.08318   0.55659   0.40474 
 Bq                   -4.08636   0.94793   1.2152 
 Bq                   -4.08282   0.51311   0.31469 
 Bq                   -4.08459   0.73052   0.76494 
 Bq                   -4.08478   0.86406   0.81151 
 Bq                   -4.08407   0.77709   0.63141 
 Bq                   -4.08513   0.90754   0.90156 
 Bq                   -4.08371   0.73361   0.54136 
 Bq                   -4.08548   0.95102   0.99161 
 Bq                   -4.08336   0.69012   0.45131 
 Bq                   -4.08584   0.9945    1.08167 
 Bq                   -4.08301   0.64664   0.36126 
 Bq                   -4.08619   1.03799   1.17172 
 Bq                   -4.08265   0.60316   0.27121 
 Bq                   -4.08442   0.82057   0.72146 
 Bq                   -4.08461   0.95411   0.76803 
 Bq                   -4.0839    0.86714   0.58793 
 Bq                   -4.08496   0.99759   0.85808 
 Bq                   -4.08354   0.82366   0.49788 
 Bq                   -4.08531   1.04107   0.94813 
 Bq                   -4.08319   0.78018   0.40783 
 Bq                   -4.08567   1.08455   1.03818 
 Bq                   -4.08284   0.73669   0.31778 
 Bq                   -4.08602   1.12804   1.12823 
 Bq                   -4.08248   0.69321   0.22773 
 Bq                   -4.08425   0.91062   0.67798 
 Bq                   -4.08443   1.04416   0.72455 
 Bq                   -4.08373   0.95719   0.54445 
 Bq                   -4.08479   1.08764   0.8146 
 Bq                   -4.08337   0.91371   0.4544 
 Bq                   -4.08514   1.13112   0.90465 
 Bq                   -4.08302   0.87023   0.36435 
 Bq                   -4.0855    1.17461   0.9947 
 Bq                   -4.08266   0.82674   0.27429 
 Bq                   -4.08585   1.21809   1.08475 
 Bq                   -4.08231   0.78326   0.18424 
 Bq                   -4.08408   1.00068   0.6345 
 Bq                   -4.08426   1.13421   0.68107 
 Bq                   -4.08356   1.04724   0.50096 
 Bq                   -4.08462   1.17769   0.77112 
 Bq                   -4.0832    1.00376   0.41091 
 Bq                   -4.08497   1.22117   0.86117 
 Bq                   -4.08285   0.96028   0.32086 
 Bq                   -4.08533   1.26466   0.95122 
 Bq                   -4.08249   0.9168    0.23081 
 Bq                   -4.08568   1.30814   1.04127 
 Bq                   -4.08214   0.87331   0.14076 
 Bq                   -4.08391   1.09073   0.59102 
 Bq                   -4.08409   1.22426   0.63758 
 Bq                   -4.08338   1.1373    0.45748 
 Bq                   -4.08445   1.26774   0.72763 
 Bq                   -4.08303   1.09381   0.36743 
 Bq                   -4.0848    1.31123   0.81768 
 Bq                   -4.08268   1.05033   0.27738 
 Bq                   -4.08515   1.35471   0.90774 
 Bq                   -4.08232   1.00685   0.18733 
 Bq                   -4.08551   1.39819   0.99779 
 Bq                   -4.08197   0.96336   0.09728 
 Bq                   -4.08374   1.18078   0.54753 
 Bq                   -4.08392   1.31431   0.5941 
 Bq                   -4.08321   1.22735   0.414 
 Bq                   -4.08428   1.35779   0.68415 
 Bq                   -4.08286   1.18386   0.32395 
 Bq                   -4.08463   1.40128   0.7742 
 Bq                   -4.08251   1.14038   0.2339 
 Bq                   -4.08498   1.44476   0.86425 
 Bq                   -4.08215   1.0969    0.14385 
 Bq                   -4.08534   1.48824   0.9543 
 Bq                   -4.0818    1.05342   0.0538 
 Bq                   -4.08357   1.27083   0.50405 
 Bq                   -4.08375   1.40436   0.55062 
 Bq                   -4.08304   1.3174    0.37052 
 Bq                   -4.0841    1.44785   0.64067 
 Bq                   -4.08269   1.27392   0.28047 
 Bq                   -4.08446   1.49133   0.73072 
 Bq                   -4.08233   1.23043   0.19042 
 Bq                   -4.08481   1.53481   0.82077 
 Bq                   -4.08198   1.18695   0.10037 
 Bq                   -4.08517   1.57829   0.91082 
 Bq                   -4.08163   1.14347   0.01031 
 Bq                   -4.0834    1.36088   0.46057 
 Bq                   -4.08358   1.49441   0.50714 
 Bq                   -4.08287   1.40745   0.32703 
 Bq                   -4.08393   1.5379    0.59719 
 Bq                   -4.08252   1.36397   0.23698 
 Bq                   -4.08429   1.58138   0.68724 
 Bq                   -4.08216   1.32048   0.14693 
 Bq                   -4.08464   1.62486   0.77729 
 Bq                   -4.08181   1.277     0.05688 
 Bq                   -4.085     1.66835   0.86734 
 Bq                   -4.08146   1.23352  -0.03317 
 Bq                   -4.08323   1.45093   0.41709 
 Bq                   -4.08341   1.58447   0.46365 
 Bq                   -4.0827    1.4975    0.28355 
 Bq                   -4.08376   1.62795   0.5537 
 Bq                   -4.08235   1.45402   0.1935 
 Bq                   -4.08412   1.67143   0.64376 
 Bq                   -4.08199   1.41054   0.10345 
 Bq                   -4.08447   1.71491   0.73381 
 Bq                   -4.08164   1.36705   0.0134 
 Bq                   -4.08482   1.7584    0.82386 
 Bq                   -4.08128   1.32357  -0.07665 
 Bq                   -4.08305   1.54098   0.3736 
 Bq                   -4.08324   1.67452   0.42017 
 Bq                   -4.08253   1.58755   0.24007 
 Bq                   -4.08359   1.718     0.51022 
 Bq                   -4.08218   1.54407   0.15002 
 Bq                   -4.08395   1.76148   0.60027 
 Bq                   -4.08182   1.50059   0.05997 
 Bq                   -4.0843    1.80497   0.69032 
 Bq                   -4.08147   1.4571   -0.03008 
 Bq                   -4.08465   1.84845   0.78037 
 Bq                   -4.08111   1.41362  -0.12013 
 Bq                   -4.08288   1.63104   0.33012 
 Bq                   -4.08307   1.76457   0.37669 
 Bq                   -4.08236   1.6776    0.19659 
 Bq                   -4.08342   1.80805   0.46674 
 Bq                   -4.082     1.63412   0.10654 
 Bq                   -4.08377   1.85153   0.55679 
 
 Symmetry turned off:
 Cannot cope with ghost atoms or with translation vectors.
 Stoichiometry    C22H14
 Framework group  C1[X(C22H14)]
 NUMDOF-- NAT=    36 NAtoms=   236
 Deg. of freedom     0
 Full point group                 C1      NOp   1
                          Input orientation:                          
 ---------------------------------------------------------------------
 Center     Atomic      Atomic             Coordinates (Angstroms)
 Number     Number       Type             X           Y           Z
 ---------------------------------------------------------------------
      1          6           0       -4.050056   -0.577186    0.813671
      2          1           0       -5.026380   -1.008273    1.002476
      3          6           0       -3.938155    0.661780    0.240088
      4          1           0       -4.825242    1.233889   -0.011130
      5          6           0       -2.676841    1.243325    0.005758
      6          6           0       -1.497412    0.505153    0.284825
      7          6           0       -1.650833   -0.733873    0.940403
      8          1           0       -0.771365   -1.273097    1.263375
      9          6           0       -2.889855   -1.262404    1.199431
     10          1           0       -2.968371   -2.212456    1.715268
     11          6           0       -2.577319    2.596370   -0.419293
     12          1           0       -3.487073    3.141224   -0.647406
     13          6           0       -1.374190    3.214790   -0.436403
     14          1           0       -1.299732    4.274202   -0.657814
     15          6           0       -0.171949    2.499409   -0.173459
     16          6           0       -0.204392    1.101844    0.019269
     17          6           0        1.051349    3.204256   -0.067622
     18          1           0        1.042734    4.281950   -0.189700
     19          6           0        2.194209    2.548745    0.257958
     20          1           0        3.116853    3.091285    0.433473
     21          6           0        2.221647    1.133656    0.293499
     22          6           0        1.048693    0.394553    0.030241
     23          6           0        3.448336    0.461463    0.557394
     24          1           0        4.309579    1.060605    0.833485
     25          6           0        3.542735   -0.885593    0.474946
     26          1           0        4.473147   -1.393970    0.703882
     27          6           0        2.449005   -1.647445   -0.019632
     28          6           0        1.215070   -1.005726   -0.301357
     29          6           0        0.253111   -1.743444   -1.021659
     30          1           0       -0.654136   -1.253505   -1.346285
     31          6           0        0.449419   -3.062860   -1.341378
     32          1           0       -0.308316   -3.594431   -1.905406
     33          6           0        1.625173   -3.720797   -0.955254
     34          1           0        1.767005   -4.768740   -1.192702
     35          6           0        2.610987   -3.014418   -0.318305
     36          1           0        3.552561   -3.490281   -0.064637
     37          0           0       -4.085082    0.013196    0.889220
     38          0           0       -4.086852    0.230610    1.339473
     39          0           0       -4.084728   -0.030287    0.799169
     40          0           0       -4.087206    0.274092    1.429524
     41          0           0       -4.084374   -0.073769    0.709119
     42          0           0       -4.087560    0.317575    1.519575
     43          0           0       -4.084020   -0.117252    0.619068
     44          0           0       -4.085790    0.100161    1.069321
     45          0           0       -4.085973    0.233696    1.115890
     46          0           0       -4.085265    0.146730    0.935788
     47          0           0       -4.086327    0.277178    1.205940
     48          0           0       -4.084911    0.103247    0.845738
     49          0           0       -4.086681    0.320661    1.295991
     50          0           0       -4.084557    0.059765    0.755687
     51          0           0       -4.087035    0.364144    1.386042
     52          0           0       -4.084203    0.016282    0.665636
     53          0           0       -4.087389    0.407626    1.476092
     54          0           0       -4.083849   -0.027201    0.575586
     55          0           0       -4.085619    0.190213    1.025839
     56          0           0       -4.085802    0.323747    1.072407
     57          0           0       -4.085094    0.236781    0.892306
     58          0           0       -4.086156    0.367230    1.162458
     59          0           0       -4.084740    0.193299    0.802255
     60          0           0       -4.086510    0.410712    1.252509
     61          0           0       -4.084386    0.149816    0.712205
     62          0           0       -4.086864    0.454195    1.342559
     63          0           0       -4.084032    0.106333    0.622154
     64          0           0       -4.087218    0.497678    1.432610
     65          0           0       -4.083678    0.062851    0.532103
     66          0           0       -4.085448    0.280264    0.982357
     67          0           0       -4.085631    0.413798    1.028925
     68          0           0       -4.084923    0.326833    0.848824
     69          0           0       -4.085985    0.457281    1.118976
     70          0           0       -4.084569    0.283350    0.758773
     71          0           0       -4.086339    0.500764    1.209026
     72          0           0       -4.084215    0.239867    0.668722
     73          0           0       -4.086693    0.544246    1.299077
     74          0           0       -4.083861    0.196385    0.578671
     75          0           0       -4.087047    0.587729    1.389128
     76          0           0       -4.083507    0.152902    0.488621
     77          0           0       -4.085277    0.370316    0.938874
     78          0           0       -4.085460    0.503850    0.985443
     79          0           0       -4.084752    0.416884    0.805341
     80          0           0       -4.085814    0.547332    1.075493
     81          0           0       -4.084398    0.373402    0.715290
     82          0           0       -4.086168    0.590815    1.165544
     83          0           0       -4.084044    0.329919    0.625240
     84          0           0       -4.086522    0.634298    1.255595
     85          0           0       -4.083690    0.286436    0.535189
     86          0           0       -4.086876    0.677781    1.345645
     87          0           0       -4.083336    0.242953    0.445138
     88          0           0       -4.085106    0.460367    0.895392
     89          0           0       -4.085289    0.593901    0.941960
     90          0           0       -4.084581    0.506936    0.761859
     91          0           0       -4.085643    0.637384    1.032011
     92          0           0       -4.084227    0.463453    0.671808
     93          0           0       -4.085997    0.680867    1.122062
     94          0           0       -4.083873    0.419970    0.581757
     95          0           0       -4.086351    0.724349    1.212112
     96          0           0       -4.083519    0.376487    0.491707
     97          0           0       -4.086705    0.767832    1.302163
     98          0           0       -4.083165    0.333005    0.401656
     99          0           0       -4.084935    0.550418    0.851909
    100          0           0       -4.085118    0.683952    0.898478
    101          0           0       -4.084410    0.596987    0.718376
    102          0           0       -4.085472    0.727435    0.988528
    103          0           0       -4.084056    0.553504    0.628326
    104          0           0       -4.085826    0.770918    1.078579
    105          0           0       -4.083702    0.510022    0.538275
    106          0           0       -4.086180    0.814401    1.168630
    107          0           0       -4.083348    0.466539    0.448224
    108          0           0       -4.086534    0.857883    1.258681
    109          0           0       -4.082994    0.423056    0.358174
    110          0           0       -4.084764    0.640470    0.808427
    111          0           0       -4.084947    0.774004    0.854995
    112          0           0       -4.084239    0.687038    0.674894
    113          0           0       -4.085301    0.817487    0.945046
    114          0           0       -4.083885    0.643556    0.584843
    115          0           0       -4.085655    0.860969    1.035097
    116          0           0       -4.083531    0.600073    0.494793
    117          0           0       -4.086009    0.904452    1.125148
    118          0           0       -4.083177    0.556590    0.404742
    119          0           0       -4.086363    0.947935    1.215198
    120          0           0       -4.082823    0.513108    0.314691
    121          0           0       -4.084593    0.730521    0.764945
    122          0           0       -4.084776    0.864055    0.811513
    123          0           0       -4.084068    0.777090    0.631412
    124          0           0       -4.085130    0.907538    0.901564
    125          0           0       -4.083714    0.733607    0.541361
    126          0           0       -4.085484    0.951021    0.991614
    127          0           0       -4.083360    0.690124    0.451310
    128          0           0       -4.085838    0.994503    1.081665
    129          0           0       -4.083006    0.646642    0.361260
    130          0           0       -4.086192    1.037986    1.171716
    131          0           0       -4.082652    0.603159    0.271209
    132          0           0       -4.084422    0.820573    0.721462
    133          0           0       -4.084605    0.954107    0.768031
    134          0           0       -4.083897    0.867141    0.587929
    135          0           0       -4.084959    0.997589    0.858081
    136          0           0       -4.083543    0.823658    0.497879
    137          0           0       -4.085313    1.041072    0.948132
    138          0           0       -4.083189    0.780176    0.407828
    139          0           0       -4.085667    1.084555    1.038183
    140          0           0       -4.082835    0.736693    0.317777
    141          0           0       -4.086021    1.128038    1.128233
    142          0           0       -4.082481    0.693210    0.227726
    143          0           0       -4.084251    0.910624    0.677980
    144          0           0       -4.084434    1.044158    0.724548
    145          0           0       -4.083726    0.957193    0.544447
    146          0           0       -4.084788    1.087641    0.814599
    147          0           0       -4.083372    0.913710    0.454396
    148          0           0       -4.085142    1.131123    0.904650
    149          0           0       -4.083018    0.870227    0.364345
    150          0           0       -4.085496    1.174606    0.994700
    151          0           0       -4.082664    0.826744    0.274295
    152          0           0       -4.085850    1.218089    1.084751
    153          0           0       -4.082310    0.783262    0.184244
    154          0           0       -4.084080    1.000675    0.634498
    155          0           0       -4.084263    1.134209    0.681066
    156          0           0       -4.083555    1.047244    0.500964
    157          0           0       -4.084617    1.177692    0.771117
    158          0           0       -4.083201    1.003761    0.410914
    159          0           0       -4.084971    1.221175    0.861167
    160          0           0       -4.082847    0.960279    0.320863
    161          0           0       -4.085325    1.264658    0.951218
    162          0           0       -4.082493    0.916796    0.230812
    163          0           0       -4.085679    1.308140    1.041269
    164          0           0       -4.082139    0.873313    0.140762
    165          0           0       -4.083909    1.090727    0.591015
    166          0           0       -4.084092    1.224261    0.637584
    167          0           0       -4.083384    1.137295    0.457482
    168          0           0       -4.084446    1.267744    0.727634
    169          0           0       -4.083030    1.093813    0.367431
    170          0           0       -4.084800    1.311226    0.817685
    171          0           0       -4.082676    1.050330    0.277381
    172          0           0       -4.085154    1.354709    0.907736
    173          0           0       -4.082322    1.006847    0.187330
    174          0           0       -4.085508    1.398192    0.997786
    175          0           0       -4.081968    0.963365    0.097279
    176          0           0       -4.083738    1.180778    0.547533
    177          0           0       -4.083921    1.314312    0.594101
    178          0           0       -4.083213    1.227347    0.414000
    179          0           0       -4.084275    1.357795    0.684152
    180          0           0       -4.082859    1.183864    0.323949
    181          0           0       -4.084629    1.401278    0.774203
    182          0           0       -4.082505    1.140381    0.233898
    183          0           0       -4.084983    1.444760    0.864253
    184          0           0       -4.082151    1.096899    0.143848
    185          0           0       -4.085337    1.488243    0.954304
    186          0           0       -4.081797    1.053416    0.053797
    187          0           0       -4.083567    1.270829    0.504050
    188          0           0       -4.083750    1.404364    0.550619
    189          0           0       -4.083043    1.317398    0.370517
    190          0           0       -4.084104    1.447846    0.640669
    191          0           0       -4.082689    1.273915    0.280467
    192          0           0       -4.084458    1.491329    0.730720
    193          0           0       -4.082335    1.230433    0.190416
    194          0           0       -4.084812    1.534812    0.820771
    195          0           0       -4.081981    1.186950    0.100365
    196          0           0       -4.085166    1.578294    0.910822
    197          0           0       -4.081627    1.143467    0.010315
    198          0           0       -4.083396    1.360881    0.460568
    199          0           0       -4.083580    1.494415    0.507136
    200          0           0       -4.082872    1.407450    0.327035
    201          0           0       -4.083934    1.537898    0.597187
    202          0           0       -4.082518    1.363967    0.236984
    203          0           0       -4.084288    1.581380    0.687238
    204          0           0       -4.082164    1.320484    0.146934
    205          0           0       -4.084642    1.624863    0.777288
    206          0           0       -4.081810    1.277001    0.056883
    207          0           0       -4.084996    1.668346    0.867339
    208          0           0       -4.081456    1.233519   -0.033168
    209          0           0       -4.083226    1.450932    0.417086
    210          0           0       -4.083409    1.584466    0.463654
    211          0           0       -4.082701    1.497501    0.283553
    212          0           0       -4.083763    1.627949    0.553705
    213          0           0       -4.082347    1.454018    0.193502
    214          0           0       -4.084117    1.671432    0.643755
    215          0           0       -4.081993    1.410536    0.103451
    216          0           0       -4.084471    1.714915    0.733806
    217          0           0       -4.081639    1.367053    0.013400
    218          0           0       -4.084825    1.758397    0.823857
    219          0           0       -4.081285    1.323570   -0.076650
    220          0           0       -4.083055    1.540984    0.373603
    221          0           0       -4.083238    1.674518    0.420172
    222          0           0       -4.082530    1.587552    0.240070
    223          0           0       -4.083592    1.718001    0.510222
    224          0           0       -4.082176    1.544070    0.150020
    225          0           0       -4.083946    1.761483    0.600273
    226          0           0       -4.081822    1.500587    0.059969
    227          0           0       -4.084300    1.804966    0.690324
    228          0           0       -4.081468    1.457104   -0.030082
    229          0           0       -4.084654    1.848449    0.780374
    230          0           0       -4.081114    1.413621   -0.120133
    231          0           0       -4.082884    1.631035    0.330121
    232          0           0       -4.083067    1.764569    0.376689
    233          0           0       -4.082359    1.677604    0.196588
    234          0           0       -4.083421    1.808052    0.466740
    235          0           0       -4.082005    1.634121    0.106537
    236          0           0       -4.083775    1.851535    0.556791
 ---------------------------------------------------------------------
 Rotational constants (GHZ):      0.4529074      0.2836956      0.1879557
 Standard basis: 6-311+G(d,p) (5D, 7F)
 Warning:  center  37 has no basis functions!
 Warning:  center  38 has no basis functions!
 Warning:  center  39 has no basis functions!
 Warning:  center  40 has no basis functions!
 Warning:  center  41 has no basis functions!
 Warning:  center  42 has no basis functions!
 Warning:  center  43 has no basis functions!
 Warning:  center  44 has no basis functions!
 Warning:  center  45 has no basis functions!
 Warning:  center  46 has no basis functions!
 Warning:  center  47 has no basis functions!
 Warning:  center  48 has no basis functions!
 Warning:  center  49 has no basis functions!
 Warning:  center  50 has no basis functions!
 Warning:  center  51 has no basis functions!
 Warning:  center  52 has no basis functions!
 Warning:  center  53 has no basis functions!
 Warning:  center  54 has no basis functions!
 Warning:  center  55 has no basis functions!
 Warning:  center  56 has no basis functions!
 Warning:  center  57 has no basis functions!
 Warning:  center  58 has no basis functions!
 Warning:  center  59 has no basis functions!
 Warning:  center  60 has no basis functions!
 Warning:  center  61 has no basis functions!
 Warning:  center  62 has no basis functions!
 Warning:  center  63 has no basis functions!
 Warning:  center  64 has no basis functions!
 Warning:  center  65 has no basis functions!
 Warning:  center  66 has no basis functions!
 Warning:  center  67 has no basis functions!
 Warning:  center  68 has no basis functions!
 Warning:  center  69 has no basis functions!
 Warning:  center  70 has no basis functions!
 Warning:  center  71 has no basis functions!
 Warning:  center  72 has no basis functions!
 Warning:  center  73 has no basis functions!
 Warning:  center  74 has no basis functions!
 Warning:  center  75 has no basis functions!
 Warning:  center  76 has no basis functions!
 Warning:  center  77 has no basis functions!
 Warning:  center  78 has no basis functions!
 Warning:  center  79 has no basis functions!
 Warning:  center  80 has no basis functions!
 Warning:  center  81 has no basis functions!
 Warning:  center  82 has no basis functions!
 Warning:  center  83 has no basis functions!
 Warning:  center  84 has no basis functions!
 Warning:  center  85 has no basis functions!
 Warning:  center  86 has no basis functions!
 Warning:  center  87 has no basis functions!
 Warning:  center  88 has no basis functions!
 Warning:  center  89 has no basis functions!
 Warning:  center  90 has no basis functions!
 Warning:  center  91 has no basis functions!
 Warning:  center  92 has no basis functions!
 Warning:  center  93 has no basis functions!
 Warning:  center  94 has no basis functions!
 Warning:  center  95 has no basis functions!
 Warning:  center  96 has no basis functions!
 Warning:  center  97 has no basis functions!
 Warning:  center  98 has no basis functions!
 Warning:  center  99 has no basis functions!
 Warning:  center 100 has no basis functions!
 Warning:  center 101 has no basis functions!
 Warning:  center 102 has no basis functions!
 Warning:  center 103 has no basis functions!
 Warning:  center 104 has no basis functions!
 Warning:  center 105 has no basis functions!
 Warning:  center 106 has no basis functions!
 Warning:  center 107 has no basis functions!
 Warning:  center 108 has no basis functions!
 Warning:  center 109 has no basis functions!
 Warning:  center 110 has no basis functions!
 Warning:  center 111 has no basis functions!
 Warning:  center 112 has no basis functions!
 Warning:  center 113 has no basis functions!
 Warning:  center 114 has no basis functions!
 Warning:  center 115 has no basis functions!
 Warning:  center 116 has no basis functions!
 Warning:  center 117 has no basis functions!
 Warning:  center 118 has no basis functions!
 Warning:  center 119 has no basis functions!
 Warning:  center 120 has no basis functions!
 Warning:  center 121 has no basis functions!
 Warning:  center 122 has no basis functions!
 Warning:  center 123 has no basis functions!
 Warning:  center 124 has no basis functions!
 Warning:  center 125 has no basis functions!
 Warning:  center 126 has no basis functions!
 Warning:  center 127 has no basis functions!
 Warning:  center 128 has no basis functions!
 Warning:  center 129 has no basis functions!
 Warning:  center 130 has no basis functions!
 Warning:  center 131 has no basis functions!
 Warning:  center 132 has no basis functions!
 Warning:  center 133 has no basis functions!
 Warning:  center 134 has no basis functions!
 Warning:  center 135 has no basis functions!
 Warning:  center 136 has no basis functions!
 Warning:  center 137 has no basis functions!
 Warning:  center 138 has no basis functions!
 Warning:  center 139 has no basis functions!
 Warning:  center 140 has no basis functions!
 Warning:  center 141 has no basis functions!
 Warning:  center 142 has no basis functions!
 Warning:  center 143 has no basis functions!
 Warning:  center 144 has no basis functions!
 Warning:  center 145 has no basis functions!
 Warning:  center 146 has no basis functions!
 Warning:  center 147 has no basis functions!
 Warning:  center 148 has no basis functions!
 Warning:  center 149 has no basis functions!
 Warning:  center 150 has no basis functions!
 Warning:  center 151 has no basis functions!
 Warning:  center 152 has no basis functions!
 Warning:  center 153 has no basis functions!
 Warning:  center 154 has no basis functions!
 Warning:  center 155 has no basis functions!
 Warning:  center 156 has no basis functions!
 Warning:  center 157 has no basis functions!
 Warning:  center 158 has no basis functions!
 Warning:  center 159 has no basis functions!
 Warning:  center 160 has no basis functions!
 Warning:  center 161 has no basis functions!
 Warning:  center 162 has no basis functions!
 Warning:  center 163 has no basis functions!
 Warning:  center 164 has no basis functions!
 Warning:  center 165 has no basis functions!
 Warning:  center 166 has no basis functions!
 Warning:  center 167 has no basis functions!
 Warning:  center 168 has no basis functions!
 Warning:  center 169 has no basis functions!
 Warning:  center 170 has no basis functions!
 Warning:  center 171 has no basis functions!
 Warning:  center 172 has no basis functions!
 Warning:  center 173 has no basis functions!
 Warning:  center 174 has no basis functions!
 Warning:  center 175 has no basis functions!
 Warning:  center 176 has no basis functions!
 Warning:  center 177 has no basis functions!
 Warning:  center 178 has no basis functions!
 Warning:  center 179 has no basis functions!
 Warning:  center 180 has no basis functions!
 Warning:  center 181 has no basis functions!
 Warning:  center 182 has no basis functions!
 Warning:  center 183 has no basis functions!
 Warning:  center 184 has no basis functions!
 Warning:  center 185 has no basis functions!
 Warning:  center 186 has no basis functions!
 Warning:  center 187 has no basis functions!
 Warning:  center 188 has no basis functions!
 Warning:  center 189 has no basis functions!
 Warning:  center 190 has no basis functions!
 Warning:  center 191 has no basis functions!
 Warning:  center 192 has no basis functions!
 Warning:  center 193 has no basis functions!
 Warning:  center 194 has no basis functions!
 Warning:  center 195 has no basis functions!
 Warning:  center 196 has no basis functions!
 Warning:  center 197 has no basis functions!
 Warning:  center 198 has no basis functions!
 Warning:  center 199 has no basis functions!
 Warning:  center 200 has no basis functions!
 Warning:  center 201 has no basis functions!
 Warning:  center 202 has no basis functions!
 Warning:  center 203 has no basis functions!
 Warning:  center 204 has no basis functions!
 Warning:  center 205 has no basis functions!
 Warning:  center 206 has no basis functions!
 Warning:  center 207 has no basis functions!
 Warning:  center 208 has no basis functions!
 Warning:  center 209 has no basis functions!
 Warning:  center 210 has no basis functions!
 Warning:  center 211 has no basis functions!
 Warning:  center 212 has no basis functions!
 Warning:  center 213 has no basis functions!
 Warning:  center 214 has no basis functions!
 Warning:  center 215 has no basis functions!
 Warning:  center 216 has no basis functions!
 Warning:  center 217 has no basis functions!
 Warning:  center 218 has no basis functions!
 Warning:  center 219 has no basis functions!
 Warning:  center 220 has no basis functions!
 Warning:  center 221 has no basis functions!
 Warning:  center 222 has no basis functions!
 Warning:  center 223 has no basis functions!
 Warning:  center 224 has no basis functions!
 Warning:  center 225 has no basis functions!
 Warning:  center 226 has no basis functions!
 Warning:  center 227 has no basis functions!
 Warning:  center 228 has no basis functions!
 Warning:  center 229 has no basis functions!
 Warning:  center 230 has no basis functions!
 Warning:  center 231 has no basis functions!
 Warning:  center 232 has no basis functions!
 Warning:  center 233 has no basis functions!
 Warning:  center 234 has no basis functions!
 Warning:  center 235 has no basis functions!
 Warning:  center 236 has no basis functions!
   568 basis functions,   904 primitive gaussians,   590 cartesian basis functions
    73 alpha electrons       73 beta electrons
       nuclear repulsion energy      1610.9176155625 Hartrees.
 NAtoms=  236 NActive=  236 NUniq=  236 SFac= 1.00D+00 NAtFMM=   60 NAOKFM=T Big=T
 Integral buffers will be    131072 words long.
 Raffenetti 2 integral format.
 Two-electron integral symmetry is turned off.
 One-electron integrals computed using PRISM.
 NBasis=   568 RedAO= T EigKep=  1.78D-06  NBF=   568
 NBsUse=   556 1.00D-06 EigRej=  9.09D-07 NBFU=   556
 ExpMin= 4.38D-02 ExpMax= 4.56D+03 ExpMxC= 6.82D+02 IAcc=2 IRadAn=         4 AccDes= 0.00D+00
 Harris functional with IExCor=  402 and IRadAn=       4 diagonalized for initial guess.
 HarFok:  IExCor=  402 AccDes= 0.00D+00 IRadAn=         4 IDoV= 1 UseB2=F ITyADJ=14
 ICtDFT=  3500011 ScaDFX=  1.000000  1.000000  1.000000  1.000000
 FoFCou: FMM=F IPFlag=           0 FMFlag=      100000 FMFlg1=        2001
         NFxFlg=           0 DoJE=T BraDBF=F KetDBF=T FulRan=T
         wScrn=  0.000000 ICntrl=     500 IOpCl=  0 I1Cent=   200000004 NGrid=           0
         NMat0=    1 NMatS0=      1 NMatT0=    0 NMatD0=    1 NMtDS0=    0 NMtDT0=    0
 Symmetry not used in FoFCou.
 Requested convergence on RMS density matrix=1.00D-08 within 128 cycles.
 Requested convergence on MAX density matrix=1.00D-06.
 Requested convergence on             energy=1.00D-06.
 No special actions if energy rises.
 SCF Done:  E(RB3LYP) =  -847.003289847     A.U. after   15 cycles
            NFock= 15  Conv=0.76D-08     -V/T= 2.0040
 DoSCS=F DFT=T ScalE2(SS,OS)=  1.000000  1.000000
 Range of M.O.s used for correlation:     1   556
 NBasis=   568 NAE=    73 NBE=    73 NFC=     0 NFV=     0
 NROrb=    556 NOA=    73 NOB=    73 NVA=   483 NVB=   483

 **** Warning!!: The largest alpha MO coefficient is  0.10971035D+03

          Differentiating once with respect to magnetic field using GIAOs.
          Electric field/nuclear overlap derivatives assumed to be zero.
 FoFCou: FMM=F IPFlag=           0 FMFlag=      100000 FMFlg1=        2001
         NFxFlg=           0 DoJE=F BraDBF=F KetDBF=T FulRan=T
         wScrn=  0.000000 ICntrl=    6100 IOpCl=  0 I1Cent=           7 NGrid=         236
         NMat0=    1 NMatS0=      1 NMatT0=    0 NMatD0=    1 NMtDS0=    0 NMtDT0=    0
 Symmetry not used in FoFCou.
 FoFJK:  IHMeth= 1 ICntrl=    6127 DoSepK=F KAlg= 0 I1Cent=   0 FoldK=F
 IRaf=         1 NMat=   1 IRICut=       1 DoRegI=T DoRafI=F ISym2E= 0.
          There are     3 degrees of freedom in the 1st order CPHF.  IDoFFX=0 NUNeed=     3.
      3 vectors produced by pass  0 Test12= 1.18D-12 3.33D-08 XBig12= 2.07D+03 9.18D+00.
 AX will form     3 AO Fock derivatives at one time.
      3 vectors produced by pass  1 Test12= 1.18D-12 3.33D-08 XBig12= 3.56D+00 8.03D-01.
      3 vectors produced by pass  2 Test12= 1.18D-12 3.33D-08 XBig12= 2.10D-02 6.92D-02.
      3 vectors produced by pass  3 Test12= 1.18D-12 3.33D-08 XBig12= 5.45D-05 1.89D-03.
      3 vectors produced by pass  4 Test12= 1.18D-12 3.33D-08 XBig12= 1.20D-07 7.79D-05.
      3 vectors produced by pass  5 Test12= 1.18D-12 3.33D-08 XBig12= 4.02D-10 4.73D-06.
      3 vectors produced by pass  6 Test12= 1.18D-12 3.33D-08 XBig12= 1.32D-12 2.61D-07.
 InvSVY:  IOpt=1 It=  1 EMax= 7.11D-15
 Solved reduced A of dimension    21 with     3 vectors.
 Calculating GIAO nuclear magnetic shielding tensors.
 SCF GIAO Magnetic shielding tensor (ppm):
      1  C    Isotropic =    53.8139   Anisotropy =   178.0260
   XX=   -41.4327   YX=   -32.3458   ZX=    10.0287
   XY=   -28.3572   YY=    59.0527   ZY=    55.1899
   XZ=    13.1759   YZ=    58.7550   ZZ=   143.8218
   Eigenvalues:   -53.8775    42.8214   172.4979
      2  H    Isotropic =    24.3095   Anisotropy =     4.8536
   XX=    25.5771   YX=    -1.0289   ZX=     0.5661
   XY=    -0.7431   YY=    26.1829   ZY=    -2.3306
   XZ=    -0.1707   YZ=    -2.4411   ZZ=    21.1687
   Eigenvalues:    20.2108    25.1725    27.5453
      3  C    Isotropic =    51.4055   Anisotropy =   157.8639
   XX=   -31.5399   YX=    38.5015   ZX=   -17.9316
   XY=    34.3519   YY=    49.9437   ZY=    49.6392
   XZ=    -9.8383   YZ=    44.6006   ZZ=   135.8127
   Eigenvalues:   -50.5747    48.1432   156.6481
      4  H    Isotropic =    23.8290   Anisotropy =     7.1838
   XX=    25.3635   YX=     1.8486   ZX=    -0.3559
   XY=     1.9656   YY=    26.4581   ZY=    -2.4103
   XZ=    -1.2941   YZ=    -2.6614   ZZ=    19.6654
   Eigenvalues:    18.8176    24.0511    28.6182
      5  C    Isotropic =    46.0697   Anisotropy =   207.6751
   XX=   -19.2123   YX=    -4.8852   ZX=    -1.6475
   XY=     2.8938   YY=    -2.9860   ZY=    66.5656
   XZ=     2.5356   YZ=    67.9144   ZZ=   160.4073
   Eigenvalues:   -27.2455   -19.0652   184.5197
      6  C    Isotropic =    47.5218   Anisotropy =   196.9389
   XX=   -28.1552   YX=    -2.7889   ZX=    12.0660
   XY=   -14.3886   YY=    21.2063   ZY=    74.2521
   XZ=   -18.6356   YZ=    61.1113   ZZ=   149.5144
   Eigenvalues:   -30.2925    -5.9564   178.8144
      7  C    Isotropic =    49.3915   Anisotropy =   179.8333
   XX=   -12.5211   YX=    28.7048   ZX=   -24.6745
   XY=    31.5123   YY=    29.7000   ZY=    77.7459
   XZ=   -40.0095   YZ=    65.3072   ZZ=   130.9956
   Eigenvalues:   -52.1299    31.0240   169.2804
      8  H    Isotropic =    23.1586   Anisotropy =    13.5525
   XX=    28.5711   YX=     1.5482   ZX=    -3.6986
   XY=     3.2466   YY=    22.7592   ZY=    -2.1157
   XZ=    -8.3753   YZ=    -1.0821   ZZ=    18.1456
   Eigenvalues:    15.3521    21.9301    32.1936
      9  C    Isotropic =    55.1460   Anisotropy =   174.7426
   XX=    46.7071   YX=    -2.6162   ZX=    -2.8420
   XY=     0.6223   YY=    -1.6258   ZY=    92.8272
   XZ=     0.5159   YZ=    95.6598   ZZ=   120.3568
   Eigenvalues:   -52.8932    46.6901   171.6411
     10  H    Isotropic =    24.6278   Anisotropy =     7.1815
   XX=    29.1040   YX=     0.1399   ZX=    -0.3694
   XY=     0.3642   YY=    23.4778   ZY=    -1.0805
   XZ=    -2.4493   YZ=    -2.9465   ZZ=    21.3016
   Eigenvalues:    19.9703    24.4977    29.4155
     11  C    Isotropic =    51.5607   Anisotropy =   151.2142
   XX=     2.1639   YX=    40.9287   ZX=   -26.0048
   XY=    49.9131   YY=    12.2331   ZY=    42.1342
   XZ=   -15.6145   YZ=    38.6614   ZZ=   140.2851
   Eigenvalues:   -48.1951    50.5071   152.3701
     12  H    Isotropic =    23.8537   Anisotropy =     7.3815
   XX=    25.9672   YX=     2.3738   ZX=    -0.2390
   XY=     2.4320   YY=    26.3975   ZY=    -1.8291
   XZ=     0.3529   YZ=    -1.7731   ZZ=    19.1964
   Eigenvalues:    18.7149    24.0714    28.7747
     13  C    Isotropic =    52.8653   Anisotropy =   147.4265
   XX=    51.2944   YX=    19.9221   ZX=   -13.4678
   XY=    11.5478   YY=   -34.0176   ZY=    42.5079
   XZ=    -9.2241   YZ=    40.0716   ZZ=   141.3192
   Eigenvalues:   -46.5152    53.9616   151.1497
     14  H    Isotropic =    24.0156   Anisotropy =     7.3485
   XX=    28.6644   YX=     0.6281   ZX=     1.0808
   XY=     0.5926   YY=    24.4325   ZY=    -1.0823
   XZ=     1.6846   YZ=    -0.3842   ZZ=    18.9500
   Eigenvalues:    18.6430    24.4892    28.9146
     15  C    Isotropic =    46.2221   Anisotropy =   203.9048
   XX=   -27.2215   YX=    -0.0442   ZX=   -28.9124
   XY=     4.6427   YY=   -10.5571   ZY=    28.3830
   XZ=   -10.2704   YZ=    26.7376   ZZ=   176.4448
   Eigenvalues:   -30.5512   -12.9411   182.1586
     16  C    Isotropic =    51.9375   Anisotropy =   188.2004
   XX=   -19.4441   YX=     5.5046   ZX=    15.7858
   XY=    -8.3874   YY=     2.4863   ZY=    22.9264
   XZ=   -50.6243   YZ=    23.3340   ZZ=   172.7704
   Eigenvalues:   -21.0294    -0.5625   177.4045
     17  C    Isotropic =    51.9482   Anisotropy =   149.1264
   XX=    50.7296   YX=   -23.9353   ZX=   -18.4207
   XY=   -16.7271   YY=   -41.8764   ZY=    17.8662
   XZ=   -14.3278   YZ=    11.4871   ZZ=   146.9915
   Eigenvalues:   -46.7796    51.2584   151.3658
     18  H    Isotropic =    24.0122   Anisotropy =     7.5163
   XX=    28.5811   YX=    -0.0866   ZX=     1.5071
   XY=    -0.2466   YY=    24.3342   ZY=    -0.7657
   XZ=     2.5088   YZ=    -1.5208   ZZ=    19.1214
   Eigenvalues:    18.5094    24.5041    29.0231
     19  C    Isotropic =    51.7356   Anisotropy =   148.5924
   XX=     2.4559   YX=   -45.6913   ZX=   -31.2531
   XY=   -53.4448   YY=     7.4698   ZY=    -1.8888
   XZ=   -23.5601   YZ=    -1.2765   ZZ=   145.2810
   Eigenvalues:   -46.9894    51.3989   150.7972
     20  H    Isotropic =    23.9071   Anisotropy =     7.6651
   XX=    25.5796   YX=    -2.0226   ZX=     1.4905
   XY=    -1.9998   YY=    27.3706   ZY=    -0.5164
   XZ=     2.7276   YZ=    -1.1179   ZZ=    18.7711
   Eigenvalues:    18.1643    24.5398    29.0172
     21  C    Isotropic =    45.9767   Anisotropy =   203.9316
   XX=   -16.2108   YX=    13.1802   ZX=   -44.5913
   XY=     6.5714   YY=   -20.6329   ZY=     0.0949
   XZ=   -28.8984   YZ=   -13.0883   ZZ=   174.7736
   Eigenvalues:   -30.5796   -13.4215   181.9311
     22  C    Isotropic =    52.0450   Anisotropy =   188.1157
   XX=    -0.0787   YX=     2.5023   ZX=   -16.3451
   XY=    18.9327   YY=   -14.4798   ZY=   -34.4335
   XZ=   -50.6032   YZ=    19.9104   ZZ=   170.6934
   Eigenvalues:   -20.7705    -0.5500   177.4554
     23  C    Isotropic =    53.2392   Anisotropy =   146.7412
   XX=   -22.0674   YX=   -32.0012   ZX=   -49.4857
   XY=   -23.2043   YY=    44.3661   ZY=   -15.6400
   XZ=   -43.8090   YZ=   -20.2525   ZZ=   137.4189
   Eigenvalues:   -45.6776    54.3286   151.0667
     24  H    Isotropic =    23.8249   Anisotropy =     7.5289
   XX=    25.1073   YX=    -1.7330   ZX=     1.5380
   XY=    -1.5944   YY=    28.0047   ZY=     0.0879
   XZ=     1.2557   YZ=    -0.8283   ZZ=    18.3628
   Eigenvalues:    18.0848    24.5458    28.8442
     25  C    Isotropic =    51.4969   Anisotropy =   150.1066
   XX=   -28.4915   YX=    33.9684   ZX=   -52.3137
   XY=    22.0311   YY=    46.6072   ZY=    -3.8075
   XZ=   -44.5594   YZ=   -10.6355   ZZ=   136.3748
   Eigenvalues:   -48.3857    51.3083   151.5679
     26  H    Isotropic =    23.7431   Anisotropy =     7.4052
   XX=    24.0663   YX=     1.1141   ZX=     1.9989
   XY=     0.9693   YY=    28.1000   ZY=     1.6568
   XZ=     2.0795   YZ=     0.8886   ZZ=    19.0630
   Eigenvalues:    18.2615    24.2880    28.6799
     27  C    Isotropic =    45.8108   Anisotropy =   207.2710
   XX=    -2.7702   YX=    13.7697   ZX=   -61.4651
   XY=     6.5593   YY=   -12.0335   ZY=   -41.6456
   XZ=   -62.6381   YZ=   -44.9232   ZZ=   152.2361
   Eigenvalues:   -28.0803   -18.4787   183.9915
     28  C    Isotropic =    47.8398   Anisotropy =   197.2870
   XX=    19.6900   YX=    14.4398   ZX=   -60.5682
   XY=    28.5650   YY=   -19.3566   ZY=   -56.7015
   XZ=   -63.1331   YZ=   -24.4782   ZZ=   143.1859
   Eigenvalues:   -30.5979    -5.2472   179.3644
     29  C    Isotropic =    49.3441   Anisotropy =   179.7793
   XX=    -3.4110   YX=    38.3775   ZX=   -80.8875
   XY=    36.1252   YY=    25.9805   ZY=   -23.7573
   XZ=   -78.1065   YZ=    -3.9802   ZZ=   125.4627
   Eigenvalues:   -51.6645    30.4997   169.1970
     30  H    Isotropic =    23.1387   Anisotropy =    13.3222
   XX=    22.4354   YX=    -0.7013   ZX=    -0.2375
   XY=    -2.1539   YY=    28.3546   ZY=     4.5555
   XZ=    -3.4181   YZ=     8.3231   ZZ=    18.6259
   Eigenvalues:    15.2751    22.1208    32.0201
     31  C    Isotropic =    55.4410   Anisotropy =   174.9390
   XX=    17.1871   YX=   -14.0890   ZX=   -84.0024
   XY=   -17.9030   YY=    37.4745   ZY=   -50.3662
   XZ=   -84.6557   YZ=   -54.8325   ZZ=   111.6615
   Eigenvalues:   -51.9248    46.1808   172.0670
     32  H    Isotropic =    24.5337   Anisotropy =     7.2554
   XX=    24.6185   YX=    -2.5264   ZX=     0.7632
   XY=    -2.7385   YY=    27.4630   ZY=     1.0335
   XZ=     1.1913   YZ=     3.7573   ZZ=    21.5194
   Eigenvalues:    19.8987    24.3316    29.3706
     33  C    Isotropic =    53.1814   Anisotropy =   179.0596
   XX=    60.9231   YX=    35.2256   ZX=   -42.9515
   XY=    32.0226   YY=   -38.1801   ZY=   -45.5652
   XZ=   -44.2248   YZ=   -50.7831   ZZ=   136.8014
   Eigenvalues:   -55.1197    42.1095   172.5545
     34  H    Isotropic =    24.2825   Anisotropy =     5.1861
   XX=    26.7643   YX=    -0.0934   ZX=     2.5955
   XY=    -0.2993   YY=    24.8157   ZY=     0.8589
   XZ=     2.3715   YZ=     1.4580   ZZ=    21.2676
   Eigenvalues:    20.0339    25.0737    27.7399
     35  C    Isotropic =    51.5295   Anisotropy =   155.1748
   XX=    -0.5131   YX=    52.5760   ZX=   -52.1551
   XY=    55.6135   YY=    25.1843   ZY=   -14.2643
   XZ=   -45.7255   YZ=   -17.1625   ZZ=   129.9171
   Eigenvalues:   -48.3147    47.9237   154.9793
     36  H    Isotropic =    23.8384   Anisotropy =     7.3073
   XX=    24.2302   YX=     1.4459   ZX=     2.1759
   XY=     1.2147   YY=    27.1572   ZY=     2.0665
   XZ=     1.6853   YZ=     2.7775   ZZ=    20.1277
   Eigenvalues:    18.9464    23.8588    28.7099
     37  Bq   Isotropic =    36.8839   Anisotropy =    28.4834
   XX=    38.0312   YX=    -3.6709   ZX=    -2.4503
   XY=     0.4104   YY=    20.1499   ZY=     6.5446
   XZ=    -1.2904   YZ=    14.4732   ZZ=    52.4705
   Eigenvalues:    16.9826    37.7962    55.8728
     38  Bq   Isotropic =    21.7230   Anisotropy =    27.2197
   XX=    18.2040   YX=    -2.7832   ZX=    -3.3352
   XY=    -6.8706   YY=    15.3760   ZY=     6.2027
   XZ=   -16.7641   YZ=     7.7308   ZZ=    31.5890
   Eigenvalues:    11.7205    13.5790    39.8695
     39  Bq   Isotropic =    36.1860   Anisotropy =    34.4397
   XX=    36.0912   YX=    -3.6678   ZX=    -1.7114
   XY=     2.0063   YY=    18.0972   ZY=    10.1211
   XZ=     0.3794   YZ=    17.7681   ZZ=    54.3697
   Eigenvalues:    13.3417    36.0706    59.1458
     40  Bq   Isotropic =    18.1939   Anisotropy =    27.6957
   XX=    13.5975   YX=    -2.5570   ZX=    -3.1352
   XY=    -7.1537   YY=    12.8143   ZY=     6.7100
   XZ=   -17.7790   YZ=     7.3781   ZZ=    28.1698
   Eigenvalues:     7.6763    10.2477    36.6577
     41  Bq   Isotropic =    34.5569   Anisotropy =    40.1603
   XX=    32.9195   YX=    -3.5060   ZX=    -0.8576
   XY=     2.7404   YY=    16.7112   ZY=    15.2039
   XZ=    -0.1040   YZ=    20.8330   ZZ=    54.0399
   Eigenvalues:     9.4316    32.9086    61.3304
     42  Bq   Isotropic =    15.1728   Anisotropy =    27.6497
   XX=     9.8371   YX=    -2.3481   ZX=    -2.9065
   XY=    -7.1501   YY=    10.4624   ZY=     7.0165
   XZ=   -18.0898   YZ=     7.0349   ZZ=    25.2189
   Eigenvalues:     4.2007     7.7118    33.6059
     43  Bq   Isotropic =    33.3610   Anisotropy =    43.0792
   XX=    30.9860   YX=    -3.0972   ZX=     0.0130
   XY=     2.4299   YY=    17.4224   ZY=    20.4941
   XZ=    -2.1767   YZ=    22.5169   ZZ=    51.6747
   Eigenvalues:     7.0557    30.9469    62.0805
     44  Bq   Isotropic =    33.2956   Anisotropy =    24.1452
   XX=    33.9938   YX=    -3.4324   ZX=    -3.3469
   XY=    -3.5148   YY=    21.4371   ZY=     4.4179
   XZ=    -8.4698   YZ=     9.9499   ZZ=    44.4559
   Eigenvalues:    19.1575    31.3370    49.3924
     45  Bq   Isotropic =    29.9004   Anisotropy =    24.3671
   XX=    29.9298   YX=    -3.3114   ZX=    -3.1330
   XY=    -5.1496   YY=    21.5652   ZY=     7.0766
   XZ=   -11.6897   YZ=     9.7302   ZZ=    38.2061
   Eigenvalues:    17.9368    25.6191    46.1451
     46  Bq   Isotropic =    37.3722   Anisotropy =    22.5346
   XX=    40.1868   YX=    -3.5046   ZX=    -2.5319
   XY=    -2.0425   YY=    24.8223   ZY=     8.2742
   XZ=    -3.8288   YZ=    12.2031   ZZ=    47.1074
   Eigenvalues:    20.7247    38.9966    52.3953
     47  Bq   Isotropic =    25.6798   Anisotropy =    25.8693
   XX=    24.0056   YX=    -3.0996   ZX=    -3.1930
   XY=    -6.1942   YY=    18.9684   ZY=     7.0957
   XZ=   -14.6794   YZ=     9.0934   ZZ=    34.0653
   Eigenvalues:    15.3310    18.7823    42.9260
     48  Bq   Isotropic =    39.6846   Anisotropy =    24.6219
   XX=    42.8942   YX=    -3.4185   ZX=    -1.9960
   XY=    -0.4557   YY=    25.0698   ZY=    10.0008
   XZ=    -0.3510   YZ=    14.2158   ZZ=    51.0898
   Eigenvalues:    20.2236    42.7310    56.0992
     49  Bq   Isotropic =    21.6781   Anisotropy =    26.9777
   XX=    18.4903   YX=    -2.8600   ZX=    -3.1315
   XY=    -6.8272   YY=    16.1865   ZY=     7.2282
   XZ=   -16.7089   YZ=     8.6479   ZZ=    30.3574
   Eigenvalues:    12.3563    13.0147    39.6632
     50  Bq   Isotropic =    40.7469   Anisotropy =    28.8581
   XX=    43.5838   YX=    -3.1929   ZX=    -1.3579
   XY=     0.6149   YY=    24.6802   ZY=    12.5856
   XZ=     1.5299   YZ=    16.5154   ZZ=    53.9768
   Eigenvalues:    18.6216    43.6335    59.9857
     51  Bq   Isotropic =    18.1182   Anisotropy =    27.5340
   XX=    13.7467   YX=    -2.6196   ZX=    -2.9894
   XY=    -7.1005   YY=    13.4966   ZY=     7.3458
   XZ=   -17.8351   YZ=     8.2767   ZZ=    27.1113
   Eigenvalues:     7.9328     9.9476    36.4742
     52  Bq   Isotropic =    40.8710   Anisotropy =    32.9244
   XX=    43.0436   YX=    -2.8426   ZX=    -0.6716
   XY=     0.8325   YY=    24.3450   ZY=    15.6496
   XZ=     1.2701   YZ=    18.5395   ZZ=    55.2245
   Eigenvalues:    16.7088    43.0837    62.8206
     53  Bq   Isotropic =    15.0908   Anisotropy =    27.5369
   XX=     9.9000   YX=    -2.3954   ZX=    -2.8040
   XY=    -7.0937   YY=    11.0682   ZY=     7.3859
   XZ=   -18.2186   YZ=     7.9128   ZZ=    24.3041
   Eigenvalues:     4.2516     7.5720    33.4487
     54  Bq   Isotropic =    40.6662   Anisotropy =    34.8378
   XX=    42.6088   YX=    -2.3937   ZX=     0.0302
   XY=     0.2245   YY=    24.7494   ZY=    18.4040
   XZ=    -0.6597   YZ=    19.5855   ZZ=    54.6404
   Eigenvalues:    15.4995    42.6078    63.8914
     55  Bq   Isotropic =    33.9616   Anisotropy =    22.9203
   XX=    35.6114   YX=    -3.4592   ZX=    -2.9172
   XY=    -3.7146   YY=    23.6231   ZY=     7.3794
   XZ=    -7.9026   YZ=    10.7170   ZZ=    42.6505
   Eigenvalues:    19.8841    32.7591    49.2418
     56  Bq   Isotropic =    29.7661   Anisotropy =    23.7925
   XX=    30.0955   YX=    -3.3635   ZX=    -2.6125
   XY=    -5.3627   YY=    23.2658   ZY=     9.1189
   XZ=   -11.5944   YZ=    10.2282   ZZ=    35.9370
   Eigenvalues:    18.0144    25.6561    45.6278
     57  Bq   Isotropic =    37.5254   Anisotropy =    21.3373
   XX=    40.7547   YX=    -3.5175   ZX=    -1.7978
   XY=    -2.7463   YY=    27.6344   ZY=    11.5522
   XZ=    -3.4066   YZ=    12.3694   ZZ=    44.1872
   Eigenvalues:    21.2369    39.5892    51.7503
     58  Bq   Isotropic =    25.5204   Anisotropy =    25.4187
   XX=    24.1115   YX=    -3.1506   ZX=    -2.7943
   XY=    -6.2831   YY=    20.2713   ZY=     8.5114
   XZ=   -14.6872   YZ=     9.6699   ZZ=    32.1785
   Eigenvalues:    15.3581    18.7369    42.4662
     59  Bq   Isotropic =    40.1912   Anisotropy =    22.8794
   XX=    43.9376   YX=    -3.3875   ZX=    -1.2420
   XY=    -1.5478   YY=    28.4215   ZY=    13.3942
   XZ=     0.2905   YZ=    14.0434   ZZ=    48.2145
   Eigenvalues:    21.2289    43.9006    55.4441
     60  Bq   Isotropic =    21.5215   Anisotropy =    26.6085
   XX=    18.5644   YX=    -2.9041   ZX=    -2.8383
   XY=    -6.8419   YY=    17.2037   ZY=     8.1469
   XZ=   -16.7855   YZ=     9.2808   ZZ=    28.7965
   Eigenvalues:    12.3299    12.9742    39.2605
     61  Bq   Isotropic =    41.7444   Anisotropy =    26.5716
   XX=    45.2985   YX=    -3.1225   ZX=    -0.6876
   XY=    -0.9166   YY=    28.2854   ZY=    15.3333
   XZ=     2.4063   YZ=    15.8692   ZZ=    51.6493
   Eigenvalues:    20.2853    45.4890    59.4588
     62  Bq   Isotropic =    17.9743   Anisotropy =    27.2267
   XX=    13.7979   YX=    -2.6549   ZX=    -2.7800
   XY=    -7.0720   YY=    14.3152   ZY=     7.9026
   XZ=   -17.9539   YZ=     8.9516   ZZ=    25.8098
   Eigenvalues:     7.8228     9.9747    36.1255
     63  Bq   Isotropic =    42.3748   Anisotropy =    30.0814
   XX=    45.4667   YX=    -2.7760   ZX=    -0.1850
   XY=    -1.0848   YY=    27.6597   ZY=    16.8738
   XZ=     2.3572   YZ=    17.3670   ZZ=    53.9979
   Eigenvalues:    19.0443    45.6510    62.4290
     64  Bq   Isotropic =    14.9616   Anisotropy =    27.2811
   XX=     9.9315   YX=    -2.4216   ZX=    -2.6575
   XY=    -7.0409   YY=    11.7498   ZY=     7.6940
   XZ=   -18.3611   YZ=     8.6166   ZZ=    23.2036
   Eigenvalues:     4.1279     7.6080    33.1490
     65  Bq   Isotropic =    42.4856   Anisotropy =    31.5743
   XX=    45.4872   YX=    -2.4094   ZX=     0.2861
   XY=    -1.8923   YY=    27.1155   ZY=    17.5226
   XZ=     0.5545   YZ=    17.9941   ZZ=    54.8540
   Eigenvalues:    18.2873    45.6343    63.5351
     66  Bq   Isotropic =    33.9151   Anisotropy =    22.1255
   XX=    35.9083   YX=    -3.5005   ZX=    -2.2746
   XY=    -4.1256   YY=    25.8409   ZY=    10.1047
   XZ=    -7.6645   YZ=    11.0919   ZZ=    39.9960
   Eigenvalues:    20.1016    32.9782    48.6654
     67  Bq   Isotropic =    29.2373   Anisotropy =    23.3443
   XX=    29.4831   YX=    -3.3847   ZX=    -1.8845
   XY=    -5.6951   YY=    25.0501   ZY=    10.7222
   XZ=   -11.7871   YZ=    10.3445   ZZ=    33.1787
   Eigenvalues:    17.8224    25.0893    44.8002
     68  Bq   Isotropic =    36.3572   Anisotropy =    21.3517
   XX=    39.0443   YX=    -3.5680   ZX=    -0.7080
   XY=    -3.6228   YY=    29.7677   ZY=    14.4986
   XZ=    -3.2666   YZ=    12.3243   ZZ=    40.2598
   Eigenvalues:    20.4244    38.0556    50.5917
     69  Bq   Isotropic =    25.1478   Anisotropy =    24.9234
   XX=    23.7748   YX=    -3.1658   ZX=    -2.2479
   XY=    -6.4555   YY=    21.7163   ZY=     9.5638
   XZ=   -14.9123   YZ=     9.9141   ZZ=    29.9523
   Eigenvalues:    15.1308    18.5491    41.7634
     70  Bq   Isotropic =    38.4943   Anisotropy =    23.4002
   XX=    41.3439   YX=    -3.4753   ZX=    -0.0820
   XY=    -2.8296   YY=    30.1765   ZY=    16.7693
   XZ=     0.7357   YZ=    14.0024   ZZ=    43.9626
   Eigenvalues:    19.8384    41.5501    54.0945
     71  Bq   Isotropic =    21.2455   Anisotropy =    26.1228
   XX=    18.3960   YX=    -2.9157   ZX=    -2.4413
   XY=    -6.9062   YY=    18.3464   ZY=     8.7904
   XZ=   -16.9964   YZ=     9.6484   ZZ=    26.9941
   Eigenvalues:    11.5943    13.4815    38.6607
     72  Bq   Isotropic =    39.4520   Anisotropy =    27.5766
   XX=    41.7216   YX=    -3.2835   ZX=     0.3797
   XY=    -2.6562   YY=    29.0838   ZY=    18.5428
   XZ=     3.1786   YZ=    15.8517   ZZ=    47.5505
   Eigenvalues:    18.2865    42.2330    57.8363
     73  Bq   Isotropic =    17.7591   Anisotropy =    26.7805
   XX=    13.7285   YX=    -2.6639   ZX=    -2.4979
   XY=    -7.0666   YY=    15.2208   ZY=     8.2609
   XZ=   -18.1350   YZ=     9.4230   ZZ=    24.3281
   Eigenvalues:     7.3707    10.2939    35.6127
     74  Bq   Isotropic =    39.5967   Anisotropy =    31.4032
   XX=    41.0936   YX=    -3.0656   ZX=     0.6084
   XY=    -3.2318   YY=    27.0329   ZY=    19.0517
   XZ=     3.3820   YZ=    17.3049   ZZ=    50.6635
   Eigenvalues:    16.6027    41.6551    60.5322
     75  Bq   Isotropic =    14.7850   Anisotropy =    26.8874
   XX=     9.9150   YX=    -2.4282   ZX=    -2.4605
   XY=    -6.9940   YY=    12.4802   ZY=     7.8618
   XZ=   -18.5148   YZ=     9.1659   ZZ=    21.9598
   Eigenvalues:     3.8361     7.8089    32.7099
     76  Bq   Isotropic =    39.5389   Anisotropy =    32.9195
   XX=    40.8412   YX=    -2.8859   ZX=     0.6914
   XY=    -4.2510   YY=    24.9945   ZY=    17.8730
   XZ=     1.6898   YZ=    17.7404   ZZ=    52.7810
   Eigenvalues:    15.7481    41.3834    61.4852
     77  Bq   Isotropic =    33.1340   Anisotropy =    21.8227
   XX=    34.8569   YX=    -3.5322   ZX=    -1.3511
   XY=    -4.6868   YY=    27.9116   ZY=    12.3776
   XZ=    -7.7425   YZ=    11.1021   ZZ=    36.6335
   Eigenvalues:    19.7047    32.0149    47.6824
     78  Bq   Isotropic =    28.3016   Anisotropy =    22.8640
   XX=    28.0889   YX=    -3.3086   ZX=    -0.8908
   XY=    -6.0644   YY=    26.7552   ZY=    11.6119
   XZ=   -12.2177   YZ=    10.0648   ZZ=    30.0606
   Eigenvalues:    17.3784    23.9821    43.5443
     79  Bq   Isotropic =    33.7831   Anisotropy =    22.3543
   XX=    34.8747   YX=    -3.4675   ZX=     0.8812
   XY=    -4.5455   YY=    31.1499   ZY=    16.7914
   XZ=    -3.3823   YZ=    11.9395   ZZ=    35.3247
   Eigenvalues:    18.4157    34.2475    48.6860
     80  Bq   Isotropic =    24.5544   Anisotropy =    24.2845
   XX=    23.0025   YX=    -3.1091   ZX=    -1.5212
   XY=    -6.6576   YY=    23.1559   ZY=    10.0412
   XZ=   -15.3066   YZ=     9.8415   ZZ=    27.5048
   Eigenvalues:    14.6083    18.3107    40.7440
     81  Bq   Isotropic =    34.3999   Anisotropy =    25.9358
   XX=    34.6758   YX=    -3.4003   ZX=     1.6540
   XY=    -4.2006   YY=    30.3582   ZY=    19.8606
   XZ=     1.0048   YZ=    13.8937   ZZ=    38.1658
   Eigenvalues:    16.1566    35.3527    51.6905
     82  Bq   Isotropic =    20.8420   Anisotropy =    25.4683
   XX=    17.9876   YX=    -2.8759   ZX=    -1.9225
   XY=    -6.9884   YY=    19.4988   ZY=     9.0072
   XZ=   -17.3020   YZ=     9.7800   ZZ=    25.0395
   Eigenvalues:    10.7604    13.9447    37.8209
     83  Bq   Isotropic =    33.4967   Anisotropy =    31.6861
   XX=    32.0125   YX=    -3.2942   ZX=     1.9743
   XY=    -4.5854   YY=    27.1571   ZY=    22.0212
   XZ=     3.8810   YZ=    16.2009   ZZ=    41.3205
   Eigenvalues:    12.6168    33.2525    54.6208
     84  Bq   Isotropic =    17.4636   Anisotropy =    26.1720
   XX=    13.5338   YX=    -2.6371   ZX=    -2.1327
   XY=    -7.0679   YY=    16.1313   ZY=     8.3181
   XZ=   -18.3486   YZ=     9.7227   ZZ=    22.7256
   Eigenvalues:     6.7609    10.7183    34.9116
     85  Bq   Isotropic =    31.9738   Anisotropy =    36.8267
   XX=    28.6609   YX=    -3.2575   ZX=     1.7055
   XY=    -5.7006   YY=    22.5348   ZY=    21.9862
   XZ=     4.4043   YZ=    18.0558   ZZ=    44.7257
   Eigenvalues:     9.2337    30.1628    56.5249
     86  Bq   Isotropic =    14.5521   Anisotropy =    26.3479
   XX=     9.8414   YX=    -2.4105   ZX=    -2.2061
   XY=    -6.9457   YY=    13.2063   ZY=     7.8234
   XZ=   -18.6581   YZ=     9.5893   ZZ=    20.6085
   Eigenvalues:     3.4348     8.1040    32.1173
     87  Bq   Isotropic =    31.1988   Anisotropy =    38.8660
   XX=    27.2465   YX=    -3.3800   ZX=     1.0626
   XY=    -7.0117   YY=    18.4342   ZY=    19.1509
   XZ=     2.8206   YZ=    18.5376   ZZ=    47.9158
   Eigenvalues:     7.6909    28.7961    57.1095
     88  Bq   Isotropic =    31.5861   Anisotropy =    21.8044
   XX=    32.4039   YX=    -3.4379   ZX=    -0.0492
   XY=    -5.2865   YY=    29.6934   ZY=    13.8775
   XZ=    -8.0952   YZ=    10.6842   ZZ=    32.6611
   Eigenvalues:    18.7811    29.8549    46.1224
     89  Bq   Isotropic =    26.9760   Anisotropy =    22.0247
   XX=    25.9939   YX=    -3.0095   ZX=     0.3961
   XY=    -6.3324   YY=    28.1388   ZY=    11.4575
   XZ=   -12.7925   YZ=     9.3837   ZZ=    26.7952
   Eigenvalues:    16.7530    22.5158    41.6591
     90  Bq   Isotropic =    29.7625   Anisotropy =    23.7121
   XX=    28.1185   YX=    -2.8467   ZX=     3.0754
   XY=    -5.2281   YY=    31.5976   ZY=    17.7325
   XZ=    -3.7802   YZ=    10.9849   ZZ=    29.5714
   Eigenvalues:    15.6755    28.0414    45.5705
     91  Bq   Isotropic =    23.7446   Anisotropy =    23.3126
   XX=    21.8590   YX=    -2.9123   ZX=    -0.6028
   XY=    -6.8028   YY=    24.3849   ZY=     9.7405
   XZ=   -15.7749   YZ=     9.4897   ZZ=    24.9898
   Eigenvalues:    13.8052    18.1421    39.2863
     92  Bq   Isotropic =    27.6531   Anisotropy =    29.7184
   XX=    23.2865   YX=    -2.5812   ZX=     4.0934
   XY=    -5.3037   YY=    28.8505   ZY=    21.8245
   XZ=     0.9501   YZ=    13.3131   ZZ=    30.8223
   Eigenvalues:    10.5747    24.9193    47.4654
     93  Bq   Isotropic =    20.3038   Anisotropy =    24.5508
   XX=    17.3763   YX=    -2.7482   ZX=    -1.2775
   XY=    -7.0375   YY=    20.5053   ZY=     8.6763
   XZ=   -17.6242   YZ=     9.7257   ZZ=    23.0300
   Eigenvalues:     9.8789    14.3616    36.6710
     94  Bq   Isotropic =    23.1409   Anisotropy =    38.3556
   XX=    14.4603   YX=    -2.2884   ZX=     4.1181
   XY=    -6.2972   YY=    22.3692   ZY=    24.8617
   XZ=     4.2293   YZ=    16.3237   ZZ=    32.5933
   Eigenvalues:     3.1329    17.5786    48.7114
     95  Bq   Isotropic =    17.0738   Anisotropy =    25.3605
   XX=    13.2274   YX=    -2.5549   ZX=    -1.6822
   XY=    -7.0475   YY=    16.9372   ZY=     8.0030
   XZ=   -18.5382   YZ=     9.8973   ZZ=    21.0567
   Eigenvalues:     6.1051    11.1354    33.9808
     96  Bq   Isotropic =    18.1343   Anisotropy =    46.2205
   XX=     5.1074   YX=    -2.1809   ZX=     2.8382
   XY=    -8.0317   YY=    13.9898   ZY=    24.7683
   XZ=     5.0606   YZ=    18.8867   ZZ=    35.3056
   Eigenvalues:    -4.1185     9.5733    48.9479
     97  Bq   Isotropic =    14.2469   Anisotropy =    25.6474
   XX=     9.7094   YX=    -2.3574   ZX=    -1.8925
   XY=    -6.8815   YY=    13.8554   ZY=     7.5364
   XZ=   -18.7529   YZ=     9.9238   ZZ=    19.1758
   Eigenvalues:     2.9835     8.4120    31.3451
     98  Bq   Isotropic =    15.7754   Anisotropy =    49.4864
   XX=     0.9585   YX=    -2.6148   ZX=     0.8207
   XY=    -9.6506   YY=     7.4257   ZY=    20.5707
   XZ=     3.6641   YZ=    19.7113   ZZ=    38.9419
   Eigenvalues:    -7.4258     5.9856    48.7663
     99  Bq   Isotropic =    29.2879   Anisotropy =    21.5963
   XX=    28.5979   YX=    -2.9963   ZX=     1.6903
   XY=    -5.7172   YY=    30.9451   ZY=    14.0988
   XZ=    -8.6662   YZ=     9.7452   ZZ=    28.3207
   Eigenvalues:    17.6290    26.5492    43.6855
    100  Bq   Isotropic =    25.3369   Anisotropy =    20.4032
   XX=    23.4513   YX=    -2.3367   ZX=     1.9150
   XY=    -6.3202   YY=    28.8383   ZY=     9.9841
   XZ=   -13.3764   YZ=     8.3951   ZZ=    23.7210
   Eigenvalues:    15.9912    21.0805    38.9390
    101  Bq   Isotropic =    24.5753   Anisotropy =    24.2742
   XX=    19.3063   YX=    -1.1866   ZX=     5.7946
   XY=    -5.1637   YY=    30.6947   ZY=    16.3768
   XZ=    -4.5282   YZ=     9.3627   ZZ=    23.7249
   Eigenvalues:    12.9247    20.0431    40.7581
    102  Bq   Isotropic =    22.7380   Anisotropy =    21.7981
   XX=    20.4847   YX=    -2.4959   ZX=     0.4656
   XY=    -6.7866   YY=    25.1312   ZY=     8.5389
   XZ=   -16.1855   YZ=     8.9611   ZZ=    22.5980
   Eigenvalues:    12.8435    18.1003    37.2700
    103  Bq   Isotropic =    18.4933   Anisotropy =    33.2889
   XX=     7.4462   YX=    -0.0844   ZX=     7.0951
   XY=    -5.3168   YY=    25.2712   ZY=    21.2719
   XZ=     0.1778   YZ=    11.9568   ZZ=    22.7625
   Eigenvalues:     2.8946    11.8994    40.6859
    104  Bq   Isotropic =    19.6227   Anisotropy =    23.2805
   XX=    16.6319   YX=    -2.4905   ZX=    -0.5317
   XY=    -6.9932   YY=    21.1763   ZY=     7.7484
   XZ=   -17.8583   YZ=     9.5721   ZZ=    21.0600
   Eigenvalues:     9.0193    14.7059    35.1431
    105  Bq   Isotropic =     8.1914   Anisotropy =    46.3413
   XX=   -11.8154   YX=     1.4015   ZX=     6.3063
   XY=    -6.5043   YY=    14.3084   ZY=    25.2950
   XZ=     3.2501   YZ=    15.5866   ZZ=    22.0810
   Eigenvalues:   -14.0846    -0.4269    39.0856
    106  Bq   Isotropic =    16.5702   Anisotropy =    24.3120
   XX=    12.8378   YX=    -2.3941   ZX=    -1.1611
   XY=    -6.9715   YY=    17.5125   ZY=     7.2974
   XZ=   -18.6295   YZ=    10.0109   ZZ=    19.3604
   Eigenvalues:     5.4633    11.4691    32.7783
    107  Bq   Isotropic =    -2.8483   Anisotropy =    58.7892
   XX=   -32.2739   YX=     2.9639   ZX=     2.7463
   XY=    -8.2420   YY=     1.3011   ZY=    25.4234
   XZ=     3.8354   YZ=    18.6823   ZZ=    22.4277
   Eigenvalues:   -33.0770   -11.8125    36.3445
    108  Bq   Isotropic =    13.8477   Anisotropy =    24.7747
   XX=     9.5249   YX=    -2.2555   ZX=    -1.5278
   XY=    -6.7827   YY=    14.3465   ZY=     6.9946
   XZ=   -18.7498   YZ=    10.2125   ZZ=    17.6718
   Eigenvalues:     2.5198     8.6591    30.3642
    109  Bq   Isotropic =    -8.0469   Anisotropy =    64.0957
   XX=   -41.7334   YX=     2.9944   ZX=    -1.6958
   XY=    -9.5114   YY=    -7.0329   ZY=    20.7632
   XZ=     3.0336   YZ=    20.1811   ZZ=    24.6256
   Eigenvalues:   -42.1560   -16.6683    34.6836
    110  Bq   Isotropic =    26.4126   Anisotropy =    20.4718
   XX=    23.8508   YX=    -1.9244   ZX=     3.7914
   XY=    -5.6759   YY=    31.2427   ZY=    12.4952
   XZ=    -9.3722   YZ=     8.3196   ZZ=    24.1442
   Eigenvalues:    16.6970    22.4803    40.0605
    111  Bq   Isotropic =    23.5295   Anisotropy =    17.6561
   XX=    20.9267   YX=    -1.1971   ZX=     3.4761
   XY=    -5.8749   YY=    28.4469   ZY=     7.2007
   XZ=   -13.8005   YZ=     7.3691   ZZ=    21.2148
   Eigenvalues:    15.1014    20.1869    35.3002
    112  Bq   Isotropic =    19.0766   Anisotropy =    22.7112
   XX=    10.2854   YX=     1.9277   ZX=     8.6021
   XY=    -3.7620   YY=    27.8746   ZY=    12.1449
   XZ=    -5.6106   YZ=     7.4589   ZZ=    19.0697
   Eigenvalues:     9.3691    13.6432    34.2174
    113  Bq   Isotropic =    21.5668   Anisotropy =    19.6285
   XX=    19.0921   YX=    -1.8125   ZX=     1.5720
   XY=    -6.5228   YY=    25.1139   ZY=     6.5064
   XZ=   -16.3911   YZ=     8.4481   ZZ=    20.4943
   Eigenvalues:    11.9121    18.1358    34.6524
    114  Bq   Isotropic =     8.4647   Anisotropy =    34.8325
   XX=    -9.7457   YX=     4.9517   ZX=     9.9885
   XY=    -3.0815   YY=    19.1585   ZY=    17.1207
   XZ=    -1.7263   YZ=    10.3528   ZZ=    15.9813
   Eigenvalues:   -10.4565     4.1642    31.6864
    115  Bq   Isotropic =    18.7876   Anisotropy =    21.6337
   XX=    15.8469   YX=    -2.0766   ZX=     0.2510
   XY=    -6.8050   YY=    21.3298   ZY=     6.2959
   XZ=   -17.8926   YZ=     9.4439   ZZ=    19.1860
   Eigenvalues:     8.2460    14.9066    33.2100
    116  Bq   Isotropic =    -8.8764   Anisotropy =    53.9692
   XX=   -42.1646   YX=     9.5301   ZX=     7.1226
   XY=    -3.1572   YY=     2.7921   ZY=    21.9434
   XZ=    -0.6452   YZ=    14.8173   ZZ=    12.7431
   Eigenvalues:   -42.4681   -11.2642    27.1030
    117  Bq   Isotropic =    15.9289   Anisotropy =    23.0271
   XX=    12.4006   YX=    -2.1387   ZX=    -0.6054
   XY=    -6.8098   YY=    17.7423   ZY=     6.2570
   XZ=   -18.5452   YZ=    10.1385   ZZ=    17.6437
   Eigenvalues:     4.8624    11.6439    31.2803
    118  Bq   Isotropic =   -27.0679   Anisotropy =    72.5513
   XX=   -76.5857   YX=    15.9754   ZX=    -1.5292
   XY=    -2.7489   YY=   -14.5122   ZY=    22.4305
   XZ=    -2.5081   YZ=    17.9363   ZZ=     9.8942
   Eigenvalues:   -77.4918   -25.0116    21.2996
    119  Bq   Isotropic =    13.3298   Anisotropy =    23.7344
   XX=     9.2966   YX=    -2.0943   ZX=    -1.1322
   XY=    -6.6312   YY=    14.6079   ZY=     6.2348
   XZ=   -18.5983   YZ=    10.4969   ZZ=    16.0848
   Eigenvalues:     2.0547     8.7819    29.1527
    120  Bq   Isotropic =   -35.2564   Anisotropy =    79.3019
   XX=   -92.1914   YX=    19.7124   ZX=    -9.3938
   XY=    -0.8398   YY=   -21.2690   ZY=    19.2782
   XZ=    -1.2036   YZ=    19.9953   ZZ=     7.6913
   Eigenvalues:   -94.0528   -29.3278    17.6115
    121  Bq   Isotropic =    23.3550   Anisotropy =    17.6904
   XX=    19.1321   YX=    -0.0283   ZX=     5.9547
   XY=    -4.8707   YY=    30.0596   ZY=     8.8825
   XZ=   -10.0664   YZ=     6.7436   ZZ=    20.8733
   Eigenvalues:    16.2645    18.6518    35.1486
    122  Bq   Isotropic =    21.7244   Anisotropy =    13.8007
   XX=    18.9776   YX=     0.3406   ZX=     4.7872
   XY=    -4.9735   YY=    26.7332   ZY=     3.5929
   XZ=   -13.8915   YZ=     6.7096   ZZ=    19.4625
   Eigenvalues:    14.2937    19.9547    30.9249
    123  Bq   Isotropic =    14.6059   Anisotropy =    18.6403
   XX=     4.1210   YX=     6.2860   ZX=    10.7120
   XY=    -0.8522   YY=    22.9460   ZY=     5.7042
   XZ=    -6.7106   YZ=     6.1584   ZZ=    16.7508
   Eigenvalues:     3.6187    13.1662    27.0328
    124  Bq   Isotropic =    20.2628   Anisotropy =    16.9235
   XX=    17.9062   YX=    -0.8934   ZX=     2.5517
   XY=    -5.9903   YY=    24.1741   ZY=     3.9769
   XZ=   -16.2636   YZ=     8.1913   ZZ=    18.7080
   Eigenvalues:    11.1527    18.0906    31.5451
    125  Bq   Isotropic =     0.6686   Anisotropy =    33.5210
[...]
   132  Bq   0.000000
   133  Bq   0.000000
   134  Bq   0.000000
   135  Bq   0.000000
   136  Bq   0.000000
   137  Bq   0.000000
   138  Bq   0.000000
   139  Bq   0.000000
   140  Bq   0.000000
   141  Bq   0.000000
   142  Bq   0.000000
   143  Bq   0.000000
   144  Bq   0.000000
   145  Bq   0.000000
   146  Bq   0.000000
   147  Bq   0.000000
   148  Bq   0.000000
   149  Bq   0.000000
   150  Bq   0.000000
   151  Bq   0.000000
   152  Bq   0.000000
   153  Bq   0.000000
   154  Bq   0.000000
   155  Bq   0.000000
   156  Bq   0.000000
   157  Bq   0.000000
   158  Bq   0.000000
   159  Bq   0.000000
   160  Bq   0.000000
   161  Bq   0.000000
   162  Bq   0.000000
   163  Bq   0.000000
   164  Bq   0.000000
   165  Bq   0.000000
   166  Bq   0.000000
   167  Bq   0.000000
   168  Bq   0.000000
   169  Bq   0.000000
   170  Bq   0.000000
   171  Bq   0.000000
   172  Bq   0.000000
   173  Bq   0.000000
   174  Bq   0.000000
   175  Bq   0.000000
   176  Bq   0.000000
   177  Bq   0.000000
   178  Bq   0.000000
   179  Bq   0.000000
   180  Bq   0.000000
   181  Bq   0.000000
   182  Bq   0.000000
   183  Bq   0.000000
   184  Bq   0.000000
   185  Bq   0.000000
   186  Bq   0.000000
   187  Bq   0.000000
   188  Bq   0.000000
   189  Bq   0.000000
   190  Bq   0.000000
   191  Bq   0.000000
   192  Bq   0.000000
   193  Bq   0.000000
   194  Bq   0.000000
   195  Bq   0.000000
   196  Bq   0.000000
   197  Bq   0.000000
   198  Bq   0.000000
   199  Bq   0.000000
   200  Bq   0.000000
   201  Bq   0.000000
   202  Bq   0.000000
   203  Bq   0.000000
   204  Bq   0.000000
   205  Bq   0.000000
   206  Bq   0.000000
   207  Bq   0.000000
   208  Bq   0.000000
   209  Bq   0.000000
   210  Bq   0.000000
   211  Bq   0.000000
   212  Bq   0.000000
   213  Bq   0.000000
   214  Bq   0.000000
   215  Bq   0.000000
   216  Bq   0.000000
   217  Bq   0.000000
   218  Bq   0.000000
   219  Bq   0.000000
   220  Bq   0.000000
   221  Bq   0.000000
   222  Bq   0.000000
   223  Bq   0.000000
   224  Bq   0.000000
   225  Bq   0.000000
   226  Bq   0.000000
   227  Bq   0.000000
   228  Bq   0.000000
   229  Bq   0.000000
   230  Bq   0.000000
   231  Bq   0.000000
   232  Bq   0.000000
   233  Bq   0.000000
   234  Bq   0.000000
   235  Bq   0.000000
   236  Bq   0.000000
 Sum of Mulliken charges =   0.00000
 Mulliken charges with hydrogens summed into heavy atoms:
               1
     1  C   -0.255498
     3  C    0.053849
     5  C    0.448258
     6  C    0.064351
     7  C   -0.333926
     9  C   -0.139521
    11  C   -0.205988
    13  C   -0.119315
    15  C    0.653397
    16  C    0.034822
    17  C   -0.317410
    19  C   -0.316854
    21  C    0.651066
    22  C    0.037784
    23  C   -0.117289
    25  C   -0.205316
    27  C    0.448331
    28  C    0.061983
    29  C   -0.333381
    31  C   -0.139505
    33  C   -0.255977
    35  C    0.170579
    37  Bq   0.000000
    38  Bq   0.000000
    39  Bq   0.000000
    40  Bq   0.000000
    41  Bq   0.000000
    42  Bq   0.000000
    43  Bq   0.000000
    44  Bq   0.000000
    45  Bq   0.000000
    46  Bq   0.000000
    47  Bq   0.000000
    48  Bq   0.000000
    49  Bq   0.000000
    50  Bq   0.000000
    51  Bq   0.000000
    52  Bq   0.000000
    53  Bq   0.000000
    54  Bq   0.000000
    55  Bq   0.000000
    56  Bq   0.000000
    57  Bq   0.000000
    58  Bq   0.000000
    59  Bq   0.000000
    60  Bq   0.000000
    61  Bq   0.000000
    62  Bq   0.000000
    63  Bq   0.000000
    64  Bq   0.000000
    65  Bq   0.000000
    66  Bq   0.000000
    67  Bq   0.000000
    68  Bq   0.000000
    69  Bq   0.000000
    70  Bq   0.000000
    71  Bq   0.000000
    72  Bq   0.000000
    73  Bq   0.000000
    74  Bq   0.000000
    75  Bq   0.000000
    76  Bq   0.000000
    77  Bq   0.000000
    78  Bq   0.000000
    79  Bq   0.000000
    80  Bq   0.000000
    81  Bq   0.000000
    82  Bq   0.000000
    83  Bq   0.000000
    84  Bq   0.000000
    85  Bq   0.000000
    86  Bq   0.000000
    87  Bq   0.000000
    88  Bq   0.000000
    89  Bq   0.000000
    90  Bq   0.000000
    91  Bq   0.000000
    92  Bq   0.000000
    93  Bq   0.000000
    94  Bq   0.000000
    95  Bq   0.000000
    96  Bq   0.000000
    97  Bq   0.000000
    98  Bq   0.000000
    99  Bq   0.000000
   100  Bq   0.000000
   101  Bq   0.000000
   102  Bq   0.000000
   103  Bq   0.000000
   104  Bq   0.000000
   105  Bq   0.000000
   106  Bq   0.000000
   107  Bq   0.000000
   108  Bq   0.000000
   109  Bq   0.000000
   110  Bq   0.000000
   111  Bq   0.000000
   112  Bq   0.000000
   113  Bq   0.000000
   114  Bq   0.000000
   115  Bq   0.000000
   116  Bq   0.000000
   117  Bq   0.000000
   118  Bq   0.000000
   119  Bq   0.000000
   120  Bq   0.000000
   121  Bq   0.000000
   122  Bq   0.000000
   123  Bq   0.000000
   124  Bq   0.000000
   125  Bq   0.000000
   126  Bq   0.000000
   127  Bq   0.000000
   128  Bq   0.000000
   129  Bq   0.000000
   130  Bq   0.000000
   131  Bq   0.000000
   132  Bq   0.000000
   133  Bq   0.000000
   134  Bq   0.000000
   135  Bq   0.000000
   136  Bq   0.000000
   137  Bq   0.000000
   138  Bq   0.000000
   139  Bq   0.000000
   140  Bq   0.000000
   141  Bq   0.000000
   142  Bq   0.000000
   143  Bq   0.000000
   144  Bq   0.000000
   145  Bq   0.000000
   146  Bq   0.000000
   147  Bq   0.000000
   148  Bq   0.000000
   149  Bq   0.000000
   150  Bq   0.000000
   151  Bq   0.000000
   152  Bq   0.000000
   153  Bq   0.000000
   154  Bq   0.000000
   155  Bq   0.000000
   156  Bq   0.000000
   157  Bq   0.000000
   158  Bq   0.000000
   159  Bq   0.000000
   160  Bq   0.000000
   161  Bq   0.000000
   162  Bq   0.000000
   163  Bq   0.000000
   164  Bq   0.000000
   165  Bq   0.000000
   166  Bq   0.000000
   167  Bq   0.000000
   168  Bq   0.000000
   169  Bq   0.000000
   170  Bq   0.000000
   171  Bq   0.000000
   172  Bq   0.000000
   173  Bq   0.000000
   174  Bq   0.000000
   175  Bq   0.000000
   176  Bq   0.000000
   177  Bq   0.000000
   178  Bq   0.000000
   179  Bq   0.000000
   180  Bq   0.000000
   181  Bq   0.000000
   182  Bq   0.000000
   183  Bq   0.000000
   184  Bq   0.000000
   185  Bq   0.000000
   186  Bq   0.000000
   187  Bq   0.000000
   188  Bq   0.000000
   189  Bq   0.000000
   190  Bq   0.000000
   191  Bq   0.000000
   192  Bq   0.000000
   193  Bq   0.000000
   194  Bq   0.000000
   195  Bq   0.000000
   196  Bq   0.000000
   197  Bq   0.000000
   198  Bq   0.000000
   199  Bq   0.000000
   200  Bq   0.000000
   201  Bq   0.000000
   202  Bq   0.000000
   203  Bq   0.000000
   204  Bq   0.000000
   205  Bq   0.000000
   206  Bq   0.000000
   207  Bq   0.000000
   208  Bq   0.115559
   209  Bq   0.000000
   210  Bq   0.000000
   211  Bq   0.000000
   212  Bq   0.000000
   213  Bq   0.000000
   214  Bq   0.000000
   215  Bq   0.000000
   216  Bq   0.000000
   217  Bq   0.000000
   218  Bq   0.000000
   219  Bq   0.000000
   220  Bq   0.000000
   221  Bq   0.000000
   222  Bq   0.000000
   223  Bq   0.000000
   224  Bq   0.000000
   225  Bq   0.000000
   226  Bq   0.000000
   227  Bq   0.000000
   228  Bq   0.000000
   229  Bq   0.000000
   230  Bq   0.000000
   231  Bq   0.000000
   232  Bq   0.000000
   233  Bq   0.000000
   234  Bq   0.000000
   235  Bq   0.000000
   236  Bq   0.000000
 Electronic spatial extent (au):  <R**2>=           5736.9264
 Charge=              0.0000 electrons
 Dipole moment (field-independent basis, Debye):
    X=              0.0475    Y=              0.0856    Z=              0.0029  Tot=              0.0979
 Quadrupole moment (field-independent basis, Debye-Ang):
   XX=           -113.7056   YY=           -113.9456   ZZ=           -133.2669
   XY=             -0.3834   XZ=              3.2102   YZ=             -1.1839
 Traceless Quadrupole moment (field-independent basis, Debye-Ang):
   XX=              6.6005   YY=              6.3604   ZZ=            -12.9609
   XY=             -0.3834   XZ=              3.2102   YZ=             -1.1839
 Octapole moment (field-independent basis, Debye-Ang**2):
  XXX=            -16.4668  YYY=            -16.1860  ZZZ=             -1.7007  XYY=              2.5576
  XXY=             -6.5650  XXZ=             13.6547  XZZ=             -8.9478  YZZ=            -17.7168
  YYZ=            -13.2941  XYZ=              8.8036
 Hexadecapole moment (field-independent basis, Debye-Ang**3):
 XXXX=          -3951.1638 YYYY=          -3112.2161 ZZZZ=           -504.8311 XXXY=            340.6935
 XXXZ=            156.4968 YYYX=            335.5625 YYYZ=            -87.0893 ZZZX=            120.2262
 ZZZY=           -108.7373 XXYY=          -1176.4844 XXZZ=           -856.7291 YYZZ=           -665.7275
 XXYZ=            -68.9016 YYXZ=             48.1602 ZZXY=            153.0375
 N-N= 1.610917615562D+03 E-N=-5.186891130729D+03  KE= 8.436329774449D+02
 1\1\GINC-MUHKA\SP\RB3LYP\6-311+G(d,p)\C22H14\YANNICK\23-Aug-2020\0\\# 
 rb3lyp/6-311+g** NMR geom=connectivity\\Title\\0,1\C,0,-4.0500558,-0.5
 771862,0.8136712\H,0,-5.0263804,-1.0082727,1.002476\C,0,-3.9381552,0.6
 617804,0.2400876\H,0,-4.8252424,1.233889,-0.0111295\C,0,-2.676841,1.24
 33246,0.0057578\C,0,-1.4974121,0.5051527,0.2848253\C,0,-1.6508332,-0.7
 338728,0.9404026\H,0,-0.7713646,-1.2730967,1.2633753\C,0,-2.8898548,-1
 .2624035,1.1994307\H,0,-2.9683706,-2.2124563,1.7152676\C,0,-2.5773185,
 2.5963696,-0.419293\H,0,-3.4870728,3.1412239,-0.6474055\C,0,-1.3741895
 ,3.2147896,-0.436403\H,0,-1.2997315,4.2742019,-0.6578144\C,0,-0.171948
 8,2.499409,-0.1734588\C,0,-0.2043917,1.1018437,0.0192689\C,0,1.0513491
 ,3.204256,-0.0676222\H,0,1.0427344,4.2819499,-0.1896997\C,0,2.1942091,
 2.5487446,0.2579577\H,0,3.1168527,3.0912848,0.4334727\C,0,2.2216473,1.
 1336562,0.293499\C,0,1.0486931,0.3945528,0.0302412\C,0,3.4483363,0.461
 4633,0.5573939\H,0,4.3095794,1.0606054,0.8334846\C,0,3.5427346,-0.8855
 926,0.4749463\H,0,4.4731467,-1.3939704,0.7038822\C,0,2.4490052,-1.6474
 447,-0.0196319\C,0,1.2150704,-1.0057258,-0.3013573\C,0,0.2531113,-1.74
 3444,-1.0216591\H,0,-0.6541356,-1.2535051,-1.3462847\C,0,0.4494193,-3.
 0628597,-1.3413779\H,0,-0.3083162,-3.5944309,-1.905406\C,0,1.6251726,-
 3.7207967,-0.9552541\H,0,1.7670048,-4.7687404,-1.1927019\C,0,2.6109872
 ,-3.0144177,-0.318305\H,0,3.5525612,-3.4902813,-0.0646367\Bq,0,-4.0850
 815578,0.0131959583,0.8892199871\Bq,0,-4.0868515357,0.2306095434,1.339
 4734715\Bq,0,-4.0847275622,-0.0302867587,0.7991692902\Bq,0,-4.08720553
 12,0.2740922604,1.4295241684\Bq,0,-4.0843735666,-0.0737694757,0.709118
 5933\Bq,0,-4.0875595268,0.3175749774,1.5195748653\Bq,0,-4.0840195711,-
 0.1172521927,0.6190678965\Bq,0,-4.0857895489,0.1001613924,1.0693213809
 \Bq,0,-4.0859726122,0.233695502,1.1158896967\Bq,0,-4.0852646211,0.1467
 30068,0.9357883029\Bq,0,-4.0863266078,0.277178219,1.2059403936\Bq,0,-4
 .0849106255,0.103247351,0.8457376061\Bq,0,-4.0866806034,0.320660936,1.
 2959910905\Bq,0,-4.0845566299,0.059764634,0.7556869092\Bq,0,-4.0870345
 99,0.364143653,1.3860417874\Bq,0,-4.0842026344,0.016281917,0.665636212
 3\Bq,0,-4.0873885945,0.40762637,1.4760924842\Bq,0,-4.0838486388,-0.027
 2008,0.5755855154\Bq,0,-4.0856186167,0.190212785,1.0258389998\Bq,0,-4.
 08580168,0.3237468947,1.0724073157\Bq,0,-4.0850936888,0.2367814607,0.8
 923059219\Bq,0,-4.0861556755,0.3672296117,1.1624580126\Bq,0,-4.0847396
 932,0.1932987437,0.802255225\Bq,0,-4.0865096711,0.4107123287,1.2525087
 094\Bq,0,-4.0843856977,0.1498160267,0.7122045282\Bq,0,-4.0868636667,0.
 4541950457,1.3425594063\Bq,0,-4.0840317021,0.1063333097,0.6221538313\B
 q,0,-4.0872176623,0.4976777627,1.4326101032\Bq,0,-4.0836777065,0.06285
 05927,0.5321031344\Bq,0,-4.0854476844,0.2802641777,0.9823566188\Bq,0,-
 4.0856307477,0.4137982874,1.0289249346\Bq,0,-4.0849227565,0.3268328534
 ,0.8488235409\Bq,0,-4.0859847433,0.4572810044,1.1189756315\Bq,0,-4.084
 568761,0.2833501364,0.758772844\Bq,0,-4.0863387388,0.5007637214,1.2090
 263284\Bq,0,-4.0842147654,0.2398674194,0.6687221471\Bq,0,-4.0866927344
 ,0.5442464384,1.2990770253\Bq,0,-4.0838607698,0.1963847023,0.578671450
 2\Bq,0,-4.08704673,0.5877291554,1.3891277222\Bq,0,-4.0835067742,0.1529
 019853,0.4886207534\Bq,0,-4.0852767521,0.3703155704,0.9388742378\Bq,0,
 -4.0854598154,0.50384968,0.9854425536\Bq,0,-4.0847518243,0.416884246,0
 .8053411599\Bq,0,-4.085813811,0.547332397,1.0754932505\Bq,0,-4.0843978
 287,0.373401529,0.715290463\Bq,0,-4.0861678066,0.590815114,1.165543947
 4\Bq,0,-4.0840438331,0.329918812,0.6252397661\Bq,0,-4.0865218021,0.634
 2978311,1.2555946443\Bq,0,-4.0836898375,0.286436095,0.5351890692\Bq,0,
 -4.0868757977,0.6777805481,1.3456453411\Bq,0,-4.083335842,0.242953378,
 0.4451383723\Bq,0,-4.0851058198,0.460366963,0.8953918567\Bq,0,-4.08528
 88831,0.5939010727,0.9419601726\Bq,0,-4.084580892,0.5069356387,0.76185
 87788\Bq,0,-4.0856428787,0.6373837897,1.0320108695\Bq,0,-4.0842268964,
 0.4634529217,0.6718080819\Bq,0,-4.0859968743,0.6808665067,1.1220615663
 \Bq,0,-4.0838729008,0.4199702047,0.5817573851\Bq,0,-4.0863508699,0.724
 3492237,1.2121122632\Bq,0,-4.0835189053,0.3764874877,0.4917066882\Bq,0
 ,-4.0867048654,0.7678319407,1.3021629601\Bq,0,-4.0831649097,0.33300477
 07,0.4016559913\Bq,0,-4.0849348876,0.5504183557,0.8519094757\Bq,0,-4.0
 851179509,0.6839524654,0.8984777916\Bq,0,-4.0844099597,0.5969870314,0.
 7183763978\Bq,0,-4.0854719464,0.7274351824,0.9885284884\Bq,0,-4.084055
 9641,0.5535043144,0.6283257009\Bq,0,-4.085825942,0.7709178994,1.078579
 1853\Bq,0,-4.0837019686,0.5100215974,0.538275004\Bq,0,-4.0861799376,0.
 8144006164,1.1686298822\Bq,0,-4.083347973,0.4665388804,0.4482243071\Bq
 ,0,-4.0865339332,0.8578833334,1.2586805791\Bq,0,-4.0829939774,0.423056
 1634,0.3581736103\Bq,0,-4.0847639553,0.6404697484,0.8084270947\Bq,0,-4
 .0849470186,0.7740038581,0.8549954105\Bq,0,-4.0842390274,0.687038424,0
 .6748940168\Bq,0,-4.0853010142,0.8174865751,0.9450461074\Bq,0,-4.08388
 50319,0.643555707,0.5848433199\Bq,0,-4.0856550097,0.8609692921,1.03509
 68043\Bq,0,-4.0835310363,0.60007299,0.494792623\Bq,0,-4.0860090053,0.9
 044520091,1.1251475012\Bq,0,-4.0831770407,0.556590273,0.4047419261\Bq,
 0,-4.0863630009,0.9479347261,1.215198198\Bq,0,-4.0828230452,0.51310755
 6,0.3146912292\Bq,0,-4.084593023,0.730521141,0.7649447136\Bq,0,-4.0847
 760863,0.8640552507,0.8115130295\Bq,0,-4.0840680952,0.7770898167,0.631
 4116357\Bq,0,-4.0851300819,0.9075379677,0.9015637264\Bq,0,-4.083714099
 6,0.7336070997,0.5413609388\Bq,0,-4.0854840775,0.9510206847,0.99161442
 33\Bq,0,-4.083360104,0.6901243827,0.451310242\Bq,0,-4.085838073,0.9945
 034017,1.0816651201\Bq,0,-4.0830061084,0.6466416657,0.3612595451\Bq,0,
 -4.0861920686,1.0379861187,1.171715817\Bq,0,-4.0826521129,0.6031589487
 ,0.2712088482\Bq,0,-4.0844220907,0.8205725337,0.7214623326\Bq,0,-4.084
 605154,0.9541066434,0.7680306485\Bq,0,-4.0838971629,0.8671412094,0.587
 9292547\Bq,0,-4.0849591496,0.9975893604,0.8580813453\Bq,0,-4.083543167
 3,0.8236584924,0.4978785578\Bq,0,-4.0853131452,1.0410720774,0.94813204
 22\Bq,0,-4.0831891717,0.7801757754,0.4078278609\Bq,0,-4.0856671408,1.0
 845547944,1.0381827391\Bq,0,-4.0828351762,0.7366930584,0.317777164\Bq,
 0,-4.0860211363,1.1280375114,1.128233436\Bq,0,-4.0824811806,0.69321034
 14,0.2277264672\Bq,0,-4.0842511585,0.9106239264,0.6779799516\Bq,0,-4.0
 844342218,1.0441580361,0.7245482674\Bq,0,-4.0837262306,0.9571926021,0.
 5444468737\Bq,0,-4.0847882173,1.0876407531,0.8145989643\Bq,0,-4.083372
 235,0.913709885,0.4543961768\Bq,0,-4.0851422129,1.1311234701,0.9046496
 612\Bq,0,-4.0830182395,0.870227168,0.3643454799\Bq,0,-4.0854962085,1.1
 746061871,0.9947003581\Bq,0,-4.0826642439,0.826744451,0.274294783\Bq,0
 ,-4.0858502041,1.2180889041,1.084751055\Bq,0,-4.0823102483,0.783261734
 ,0.1842440861\Bq,0,-4.0840802262,1.0006753191,0.6344975705\Bq,0,-4.084
 2632895,1.1342094287,0.6810658864\Bq,0,-4.0835552983,1.0472439947,0.50
 09644926\Bq,0,-4.0846172851,1.1776921457,0.7711165833\Bq,0,-4.08320130
 28,1.0037612777,0.4109137957\Bq,0,-4.0849712806,1.2211748627,0.8611672
 802\Bq,0,-4.0828473072,0.9602785607,0.3208630989\Bq,0,-4.0853252762,1.
 2646575797,0.951217977\Bq,0,-4.0824933116,0.9167958437,0.230812402\Bq,
 0,-4.0856792718,1.3081402968,1.0412686739\Bq,0,-4.0821393161,0.8733131
 267,0.1407617051\Bq,0,-4.0839092939,1.0907267117,0.5910151895\Bq,0,-4.
 0840923572,1.2242608214,0.6375835054\Bq,0,-4.0833843661,1.1372953874,0
 .4574821116\Bq,0,-4.0844463528,1.2677435384,0.7276342022\Bq,0,-4.08303
 03705,1.0938126704,0.3674314147\Bq,0,-4.0848003484,1.3112262554,0.8176
 848991\Bq,0,-4.0826763749,1.0503299534,0.2773807178\Bq,0,-4.0851543439
 ,1.3547089724,0.907735596\Bq,0,-4.0823223794,1.0068472364,0.1873300209
 \Bq,0,-4.0855083395,1.3981916894,0.9977862929\Bq,0,-4.0819683838,0.963
 3645194,0.0972793241\Bq,0,-4.0837383616,1.1807781044,0.5475328085\Bq,0
 ,-4.0839214249,1.3143122141,0.5941011243\Bq,0,-4.0832134338,1.22734678
 01,0.4139997306\Bq,0,-4.0842754205,1.3577949311,0.6841518212\Bq,0,-4.0
 828594382,1.1838640631,0.3239490337\Bq,0,-4.0846294161,1.4012776481,0.
 7742025181\Bq,0,-4.0825054427,1.1403813461,0.2338983368\Bq,0,-4.084983
 4117,1.4447603651,0.864253215\Bq,0,-4.0821514471,1.0968986291,0.143847
 6399\Bq,0,-4.0853374072,1.4882430821,0.9543039119\Bq,0,-4.0817974515,1
 .053415912,0.053796943\Bq,0,-4.0835674294,1.2708294971,0.5040504274\Bq
 ,0,-4.0837504927,1.4043636067,0.5506187433\Bq,0,-4.0830425015,1.317398
 1727,0.3705173495\Bq,0,-4.0841044882,1.4478463237,0.6406694402\Bq,0,-4
 .082688506,1.2739154557,0.2804666526\Bq,0,-4.0844584838,1.4913290408,0
 .7307201371\Bq,0,-4.0823345104,1.2304327387,0.1904159558\Bq,0,-4.08481
 24794,1.5348117578,0.8207708339\Bq,0,-4.0819805148,1.1869500217,0.1003
 652589\Bq,0,-4.085166475,1.5782944748,0.9108215308\Bq,0,-4.0816265192,
 1.1434673047,0.010314562\Bq,0,-4.0833964971,1.3608808897,0.4605680464\
 Bq,0,-4.0835795604,1.4944149994,0.5071363623\Bq,0,-4.0828715693,1.4074
 495654,0.3270349685\Bq,0,-4.083933556,1.5378977164,0.5971870591\Bq,0,-
 4.0825175737,1.3639668484,0.2369842716\Bq,0,-4.0842875515,1.5813804334
 ,0.687237756\Bq,0,-4.0821635781,1.3204841314,0.1469335747\Bq,0,-4.0846
 415471,1.6248631504,0.7772884529\Bq,0,-4.0818095825,1.2770014144,0.056
 8828778\Bq,0,-4.0849955427,1.6683458674,0.8673391498\Bq,0,-4.081455587
 ,1.2335186974,-0.033167819\Bq,0,-4.0832255648,1.4509322824,0.417085665
 4\Bq,0,-4.0834086281,1.5844663921,0.4636539812\Bq,0,-4.082700637,1.497
 5009581,0.2835525875\Bq,0,-4.0837626237,1.6279491091,0.5537046781\Bq,0
 ,-4.0823466414,1.4540182411,0.1935018906\Bq,0,-4.0841166193,1.67143182
 61,0.643755375\Bq,0,-4.0819926458,1.4105355241,0.1034511937\Bq,0,-4.08
 44706148,1.7149145431,0.7338060719\Bq,0,-4.0816386503,1.3670528071,0.0
 134004968\Bq,0,-4.0848246104,1.7583972601,0.8238567688\Bq,0,-4.0812846
 547,1.3235700901,-0.0766502001\Bq,0,-4.0830546326,1.5409836751,0.37360
 32843\Bq,0,-4.0832376959,1.6745177848,0.4201716002\Bq,0,-4.0825297047,
 1.5875523507,0.2400702064\Bq,0,-4.0835916914,1.7180005018,0.5102222971
 \Bq,0,-4.0821757091,1.5440696337,0.1500195095\Bq,0,-4.083945687,1.7614
 832188,0.600272994\Bq,0,-4.0818217136,1.5005869167,0.0599688127\Bq,0,-
 4.0842996826,1.8049659358,0.6903236908\Bq,0,-4.081467718,1.4571041997,
 -0.0300818842\Bq,0,-4.0846536781,1.8484486528,0.7803743877\Bq,0,-4.081
 1137224,1.4136214827,-0.1201325811\Bq,0,-4.0828837003,1.6310350678,0.3
 301209033\Bq,0,-4.0830667636,1.7645691774,0.3766892192\Bq,0,-4.0823587
 724,1.6776037434,0.1965878254\Bq,0,-4.0834207592,1.8080518944,0.466739
 916\Bq,0,-4.0820047769,1.6341210264,0.1065371285\Bq,0,-4.0837747547,1.
 8515346114,0.5567906129\\Version=ES64L-G09RevD.01\HF=-847.0032898\RMSD
 =7.580e-09\Dipole=0.0186808,0.0336671,0.0011595\Quadrupole=4.9072795,4
 .7288219,-9.6361014,-0.2850201,2.3867064,-0.880172\PG=C01 [X(C22H14)]\
 \@


 WAR ES EIN GOTT DER DIESE ZEICHEN SCHRIEB?
          - LUDWIG BOLTZMANN, QUOTING GOETHE, ABOUT MAXWELL'S EQUATIONS.
 Job cpu time:       0 days  2 hours 48 minutes 16.1 seconds.
 File lengths (MBytes):  RWF=    184 Int=      0 D2E=      0 Chk=     19 Scr=      1
 Normal termination of Gaussian 09 at Sun Aug 23 01:55:12 2020.
