 Entering Gaussian System, Link 0=g09
 Input=input_cycle_05_batch_06800.com
 Output=input_cycle_05_batch_06800.log
 Initial command:
 /share/programs/GAUSSIAN/64/g09/l1.exe "/scratch/yannick.30704/Gau-2885720.inp" -scrdir="/scratch/yannick.30704/"
 Entering Link 1 = /share/programs/GAUSSIAN/64/g09/l1.exe PID=   2885721.
  
 Copyright (c) 1988,1990,1992,1993,1995,1998,2003,2009,2013,
            Gaussian, Inc.  All Rights Reserved.
  
 This is part of the Gaussian(R) 09 program.  It is based on
 the Gaussian(R) 03 system (copyright 2003, Gaussian, Inc.),
 the Gaussian(R) 98 system (copyright 1998, Gaussian, Inc.),
 the Gaussian(R) 94 system (copyright 1995, Gaussian, Inc.),
 the Gaussian 92(TM) system (copyright 1992, Gaussian, Inc.),
 the Gaussian 90(TM) system (copyright 1990, Gaussian, Inc.),
 the Gaussian 88(TM) system (copyright 1988, Gaussian, Inc.),
 the Gaussian 86(TM) system (copyright 1986, Carnegie Mellon
 University), and the Gaussian 82(TM) system (copyright 1983,
 Carnegie Mellon University). Gaussian is a federally registered
 trademark of Gaussian, Inc.
  
 This software contains proprietary and confidential information,
 including trade secrets, belonging to Gaussian, Inc.
  
 This software is provided under written license and may be
 used, copied, transmitted, or stored only in accord with that
 written license.
  
 The following legend is applicable only to US Government
 contracts under FAR:
  
                    RESTRICTED RIGHTS LEGEND
  
 Use, reproduction and disclosure by the US Government is
 subject to restrictions as set forth in subparagraphs (a)
 and (c) of the Commercial Computer Software - Restricted
 Rights clause in FAR 52.227-19.
  
 Gaussian, Inc.
 340 Quinnipiac St., Bldg. 40, Wallingford CT 06492
  
  
 ---------------------------------------------------------------
 Warning -- This program may not be used in any manner that
 competes with the business of Gaussian, Inc. or will provide
 assistance to any competitor of Gaussian, Inc.  The licensee
 of this program is prohibited from giving any competitor of
 Gaussian, Inc. access to this program.  By using this program,
 the user acknowledges that Gaussian, Inc. is engaged in the
 business of creating and licensing software in the field of
 computational chemistry and represents and warrants to the
 licensee that it is not a competitor of Gaussian, Inc. and that
 it will not use this program in any manner prohibited above.
 ---------------------------------------------------------------
  

 Cite this work as:
 Gaussian 09, Revision D.01,
 M. J. Frisch, G. W. Trucks, H. B. Schlegel, G. E. Scuseria, 
 M. A. Robb, J. R. Cheeseman, G. Scalmani, V. Barone, B. Mennucci, 
 G. A. Petersson, H. Nakatsuji, M. Caricato, X. Li, H. P. Hratchian, 
 A. F. Izmaylov, J. Bloino, G. Zheng, J. L. Sonnenberg, M. Hada, 
 M. Ehara, K. Toyota, R. Fukuda, J. Hasegawa, M. Ishida, T. Nakajima, 
 Y. Honda, O. Kitao, H. Nakai, T. Vreven, J. A. Montgomery, Jr., 
 J. E. Peralta, F. Ogliaro, M. Bearpark, J. J. Heyd, E. Brothers, 
 K. N. Kudin, V. N. Staroverov, T. Keith, R. Kobayashi, J. Normand, 
 K. Raghavachari, A. Rendell, J. C. Burant, S. S. Iyengar, J. Tomasi, 
 M. Cossi, N. Rega, J. M. Millam, M. Klene, J. E. Knox, J. B. Cross, 
 V. Bakken, C. Adamo, J. Jaramillo, R. Gomperts, R. E. Stratmann, 
 O. Yazyev, A. J. Austin, R. Cammi, C. Pomelli, J. W. Ochterski, 
 R. L. Martin, K. Morokuma, V. G. Zakrzewski, G. A. Voth, 
 P. Salvador, J. J. Dannenberg, S. Dapprich, A. D. Daniels, 
 O. Farkas, J. B. Foresman, J. V. Ortiz, J. Cioslowski, 
 and D. J. Fox, Gaussian, Inc., Wallingford CT, 2013.
 
 ******************************************
 Gaussian 09:  ES64L-G09RevD.01 24-Apr-2013
                23-Aug-2020 
 ******************************************
 %nproc=8
 Will use up to    8 processors via shared memory.
 %mem=1000MB
 ----------------------------------------
 # rb3lyp/6-311+g** NMR geom=connectivity
 ----------------------------------------
 1/38=1,57=2/1;
 2/12=2,17=6,18=5,40=1/2;
 3/5=4,6=6,7=111,11=2,16=1,25=1,30=1,74=-5,116=1/1,2,8,3;
 4//1;
 5/5=2,38=5/2;
 8/6=1,10=90,11=11/1;
 10/13=100,45=16/2;
 6/7=2,8=2,9=2,10=2,28=1/1;
 99/9=1/99;
 -----
 Title
 -----
 Symbolic Z-matrix:
 Charge =  0 Multiplicity = 1
 C                    -4.05006  -0.57719   0.81367 
 H                    -5.02638  -1.00827   1.00248 
 C                    -3.93816   0.66178   0.24009 
 H                    -4.82524   1.23389  -0.01113 
 C                    -2.67684   1.24332   0.00576 
 C                    -1.49741   0.50515   0.28483 
 C                    -1.65083  -0.73387   0.9404 
 H                    -0.77136  -1.2731    1.26338 
 C                    -2.88985  -1.2624    1.19943 
 H                    -2.96837  -2.21246   1.71527 
 C                    -2.57732   2.59637  -0.41929 
 H                    -3.48707   3.14122  -0.64741 
 C                    -1.37419   3.21479  -0.4364 
 H                    -1.29973   4.2742   -0.65781 
 C                    -0.17195   2.49941  -0.17346 
 C                    -0.20439   1.10184   0.01927 
 C                     1.05135   3.20426  -0.06762 
 H                     1.04273   4.28195  -0.1897 
 C                     2.19421   2.54874   0.25796 
 H                     3.11685   3.09128   0.43347 
 C                     2.22165   1.13366   0.2935 
 C                     1.04869   0.39455   0.03024 
 C                     3.44834   0.46146   0.55739 
 H                     4.30958   1.06061   0.83348 
 C                     3.54273  -0.88559   0.47495 
 H                     4.47315  -1.39397   0.70388 
 C                     2.44901  -1.64744  -0.01963 
 C                     1.21507  -1.00573  -0.30136 
 C                     0.25311  -1.74344  -1.02166 
 H                    -0.65414  -1.25351  -1.34628 
 C                     0.44942  -3.06286  -1.34138 
 H                    -0.30832  -3.59443  -1.90541 
 C                     1.62517  -3.7208   -0.95525 
 H                     1.767    -4.76874  -1.1927 
 C                     2.61099  -3.01442  -0.31831 
 H                     3.55256  -3.49028  -0.06464 
 Bq                   -4.08851  -1.56425   1.76195 
 Bq                   -4.08957  -1.4338    2.03211 
 Bq                   -4.08816  -1.60773   1.6719 
 Bq                   -4.08993  -1.39032   2.12216 
 Bq                   -4.0878   -1.65121   1.58185 
 Bq                   -4.09028  -1.34683   2.21221 
 Bq                   -4.08745  -1.69469   1.4918 
 Bq                   -4.09064  -1.30335   2.30226 
 Bq                   -4.0871   -1.73818   1.40175 
 Bq                   -4.08887  -1.52076   1.852 
 Bq                   -4.08905  -1.38723   1.89857 
 Bq                   -4.08834  -1.4742    1.71847 
 Bq                   -4.0894   -1.34375   1.98862 
 Bq                   -4.08799  -1.51768   1.62842 
 Bq                   -4.08976  -1.30026   2.07867 
 Bq                   -4.08763  -1.56116   1.53837 
 Bq                   -4.09011  -1.25678   2.16872 
 Bq                   -4.08728  -1.60464   1.44832 
 Bq                   -4.09047  -1.2133    2.25878 
 Bq                   -4.08693  -1.64813   1.35827 
 Bq                   -4.0887   -1.43071   1.80852 
 Bq                   -4.08888  -1.29718   1.85509 
 Bq                   -4.08817  -1.38414   1.67499 
 Bq                   -4.08923  -1.2537    1.94514 
 Bq                   -4.08782  -1.42763   1.58494 
 Bq                   -4.08959  -1.21021   2.03519 
 Bq                   -4.08746  -1.47111   1.49489 
 Bq                   -4.08994  -1.16673   2.12524 
 Bq                   -4.08711  -1.51459   1.40484 
 Bq                   -4.09029  -1.12325   2.21529 
 Bq                   -4.08675  -1.55807   1.31479 
 Bq                   -4.08852  -1.34066   1.76504 
 Bq                   -4.08871  -1.20713   1.81161 
 Bq                   -4.088    -1.29409   1.63151 
 Bq                   -4.08906  -1.16364   1.90166 
 Bq                   -4.08765  -1.33757   1.54146 
 Bq                   -4.08942  -1.12016   1.99171 
 Bq                   -4.08729  -1.38106   1.45141 
 Bq                   -4.08977  -1.07668   2.08176 
 Bq                   -4.08694  -1.42454   1.36135 
 Bq                   -4.09012  -1.0332    2.17181 
 Bq                   -4.08658  -1.46802   1.2713 
 Bq                   -4.08835  -1.25061   1.72156 
 Bq                   -4.08854  -1.11708   1.76813 
 Bq                   -4.08783  -1.20404   1.58802 
 Bq                   -4.08889  -1.07359   1.85818 
 Bq                   -4.08747  -1.24752   1.49797 
 Bq                   -4.08924  -1.03011   1.94823 
 Bq                   -4.08712  -1.29101   1.40792 
 Bq                   -4.0896   -0.98663   2.03828 
 Bq                   -4.08677  -1.33449   1.31787 
 Bq                   -4.08995  -0.94314   2.12833 
 Bq                   -4.08641  -1.37797   1.22782 
 Bq                   -4.08818  -1.16056   1.67807 
 Bq                   -4.08837  -1.02702   1.72464 
 Bq                   -4.08766  -1.11399   1.54454 
 Bq                   -4.08872  -0.98354   1.81469 
 Bq                   -4.0873   -1.15747   1.45449 
 Bq                   -4.08907  -0.94006   1.90474 
 Bq                   -4.08695  -1.20095   1.36444 
 Bq                   -4.08943  -0.89658   1.9948 
 Bq                   -4.0866   -1.24444   1.27439 
 Bq                   -4.08978  -0.85309   2.08485 
 Bq                   -4.08624  -1.28792   1.18434 
 Bq                   -4.08801  -1.07051   1.63459 
 Bq                   -4.08819  -0.93697   1.68116 
 Bq                   -4.08749  -1.02394   1.50106 
 Bq                   -4.08855  -0.89349   1.77121 
 Bq                   -4.08713  -1.06742   1.41101 
 Bq                   -4.0889   -0.85001   1.86126 
 Bq                   -4.08678  -1.1109    1.32096 
 Bq                   -4.08926  -0.80652   1.95131 
 Bq                   -4.08642  -1.15439   1.23091 
 Bq                   -4.08961  -0.76304   2.04136 
 Bq                   -4.08607  -1.19787   1.14086 
 Bq                   -4.08784  -0.98046   1.59111 
 Bq                   -4.08802  -0.84692   1.63768 
 Bq                   -4.08732  -0.93389   1.45758 
 Bq                   -4.08838  -0.80344   1.72773 
 Bq                   -4.08696  -0.97737   1.36753 
 Bq                   -4.08873  -0.75996   1.81778 
 Bq                   -4.08661  -1.02085   1.27748 
 Bq                   -4.08909  -0.71647   1.90783 
 Bq                   -4.08625  -1.06433   1.18742 
 Bq                   -4.08944  -0.67299   1.99788 
 Bq                   -4.0859   -1.10782   1.09737 
 Bq                   -4.08767  -0.8904    1.54763 
 Bq                   -4.08785  -0.75687   1.5942 
 Bq                   -4.08714  -0.84384   1.41409 
 Bq                   -4.08821  -0.71339   1.68425 
 Bq                   -4.08679  -0.88732   1.32404 
 Bq                   -4.08856  -0.6699    1.7743 
 Bq                   -4.08644  -0.9308    1.23399 
 Bq                   -4.08891  -0.62642   1.86435 
 Bq                   -4.08608  -0.97428   1.14394 
 Bq                   -4.08927  -0.58294   1.9544 
 Bq                   -4.08573  -1.01777   1.05389 
 Bq                   -4.0875   -0.80035   1.50415 
 Bq                   -4.08768  -0.66682   1.55071 
 Bq                   -4.08697  -0.75378   1.37061 
 Bq                   -4.08804  -0.62334   1.64076 
 Bq                   -4.08662  -0.79727   1.28056 
 Bq                   -4.08839  -0.57985   1.73081 
 Bq                   -4.08627  -0.84075   1.19051 
 Bq                   -4.08874  -0.53637   1.82087 
 Bq                   -4.08591  -0.88423   1.10046 
 Bq                   -4.0891   -0.49289   1.91092 
 Bq                   -4.08556  -0.92771   1.01041 
 Bq                   -4.08733  -0.7103    1.46066 
 Bq                   -4.08751  -0.57677   1.50723 
 Bq                   -4.0868   -0.66373   1.32713 
 Bq                   -4.08786  -0.53328   1.59728 
 Bq                   -4.08645  -0.70722   1.23708 
 Bq                   -4.08822  -0.4898    1.68733 
 Bq                   -4.0861   -0.7507    1.14703 
 Bq                   -4.08857  -0.44632   1.77738 
 Bq                   -4.08574  -0.79418   1.05698 
 Bq                   -4.08893  -0.40284   1.86743 
 Bq                   -4.08539  -0.83766   0.96693 
 Bq                   -4.08716  -0.62025   1.41718 
 Bq                   -4.08734  -0.48672   1.46375 
 Bq                   -4.08663  -0.57368   1.28365 
 Bq                   -4.08769  -0.44323   1.5538 
 Bq                   -4.08628  -0.61716   1.1936 
 Bq                   -4.08805  -0.39975   1.64385 
 Bq                   -4.08592  -0.66065   1.10355 
 Bq                   -4.0884   -0.35627   1.7339 
 Bq                   -4.08557  -0.70413   1.0135 
 Bq                   -4.08876  -0.31278   1.82395 
 Bq                   -4.08522  -0.74761   0.92344 
 Bq                   -4.08699  -0.5302    1.3737 
 Bq                   -4.08717  -0.39666   1.42027 
 Bq                   -4.08646  -0.48363   1.24016 
 Bq                   -4.08752  -0.35318   1.51032 
 Bq                   -4.08611  -0.52711   1.15011 
 Bq                   -4.08788  -0.3097    1.60037 
 Bq                   -4.08575  -0.5706    1.06006 
 Bq                   -4.08823  -0.26622   1.69042 
 Bq                   -4.0854   -0.61408   0.97001 
 Bq                   -4.08859  -0.22273   1.78047 
 Bq                   -4.08505  -0.65756   0.87996 
 Bq                   -4.08682  -0.44015   1.33022 
 Bq                   -4.087    -0.30661   1.37678 
 Bq                   -4.08629  -0.39358   1.19668 
 Bq                   -4.08735  -0.26313   1.46683 
 Bq                   -4.08594  -0.43706   1.10663 
 Bq                   -4.08771  -0.21965   1.55689 
 Bq                   -4.08558  -0.48054   1.01658 
 Bq                   -4.08806  -0.17616   1.64694 
 Bq                   -4.08523  -0.52403   0.92653 
 Bq                   -4.08841  -0.13268   1.73699 
 Bq                   -4.08487  -0.56751   0.83648 
 Bq                   -4.08664  -0.3501    1.28673 
 Bq                   -4.08683  -0.21656   1.3333 
 Bq                   -4.08612  -0.30353   1.1532 
 Bq                   -4.08718  -0.17308   1.42335 
 Bq                   -4.08577  -0.34701   1.06315 
 Bq                   -4.08754  -0.1296    1.5134 
 Bq                   -4.08541  -0.39049   0.9731 
 Bq                   -4.08789  -0.08611   1.60345 
 Bq                   -4.08506  -0.43398   0.88305 
 Bq                   -4.08824  -0.04263   1.6935 
 Bq                   -4.0847   -0.47746   0.793 
 Bq                   -4.08647  -0.26004   1.24325 
 Bq                   -4.08666  -0.12651   1.28982 
 Bq                   -4.08595  -0.21348   1.10972 
 Bq                   -4.08701  -0.08303   1.37987 
 Bq                   -4.08559  -0.25696   1.01967 
 Bq                   -4.08736  -0.03954   1.46992 
 Bq                   -4.08524  -0.30044   0.92962 
 Bq                   -4.08772   0.00394   1.55997 
 Bq                   -4.08489  -0.34392   0.83957 
 Bq                   -4.08807   0.04742   1.65002 
 Bq                   -4.08453  -0.38741   0.74952 
 Bq                   -4.0863   -0.16999   1.19977 
 Bq                   -4.08649  -0.03646   1.24634 
 Bq                   -4.08578  -0.12342   1.06624 
 Bq                   -4.08684   0.00702   1.33639 
 Bq                   -4.08542  -0.16691   0.97618 
 Bq                   -4.08719   0.05051   1.42644 
 Bq                   -4.08507  -0.21039   0.88613 
 Bq                   -4.08755   0.09399   1.51649 
 Bq                   -4.08472  -0.25387   0.79608 
 Bq                   -4.0879    0.13747   1.60654 
 Bq                   -4.08436  -0.29735   0.70603 
 Bq                   -4.08613  -0.07994   1.15629 
 Bq                   -4.08631   0.05359   1.20285 
 Bq                   -4.08561  -0.03337   1.02275 
 Bq                   -4.08667   0.09708   1.29291 
 Bq                   -4.08525  -0.07686   0.9327 
 Bq                   -4.08702   0.14056   1.38296 
 Bq                   -4.0849   -0.12034   0.84265 
 Bq                   -4.08738   0.18404   1.47301 
 Bq                   -4.08454  -0.16382   0.7526 
 Bq                   -4.08773   0.22752   1.56306 
 Bq                   -4.08419  -0.2073    0.66255 
 Bq                   -4.08596   0.01011   1.1128 
 Bq                   -4.08614   0.14364   1.15937 
 Bq                   -4.08544   0.05668   0.97927 
 Bq                   -4.0865    0.18713   1.24942 
 
 Symmetry turned off:
 Cannot cope with ghost atoms or with translation vectors.
 Stoichiometry    C22H14
 Framework group  C1[X(C22H14)]
 NUMDOF-- NAT=    36 NAtoms=   236
 Deg. of freedom     0
 Full point group                 C1      NOp   1
                          Input orientation:                          
 ---------------------------------------------------------------------
 Center     Atomic      Atomic             Coordinates (Angstroms)
 Number     Number       Type             X           Y           Z
 ---------------------------------------------------------------------
      1          6           0       -4.050056   -0.577186    0.813671
      2          1           0       -5.026380   -1.008273    1.002476
      3          6           0       -3.938155    0.661780    0.240088
      4          1           0       -4.825242    1.233889   -0.011130
      5          6           0       -2.676841    1.243325    0.005758
      6          6           0       -1.497412    0.505153    0.284825
      7          6           0       -1.650833   -0.733873    0.940403
      8          1           0       -0.771365   -1.273097    1.263375
      9          6           0       -2.889855   -1.262404    1.199431
     10          1           0       -2.968371   -2.212456    1.715268
     11          6           0       -2.577319    2.596370   -0.419293
     12          1           0       -3.487073    3.141224   -0.647406
     13          6           0       -1.374190    3.214790   -0.436403
     14          1           0       -1.299732    4.274202   -0.657814
     15          6           0       -0.171949    2.499409   -0.173459
     16          6           0       -0.204392    1.101844    0.019269
     17          6           0        1.051349    3.204256   -0.067622
     18          1           0        1.042734    4.281950   -0.189700
     19          6           0        2.194209    2.548745    0.257958
     20          1           0        3.116853    3.091285    0.433473
     21          6           0        2.221647    1.133656    0.293499
     22          6           0        1.048693    0.394553    0.030241
     23          6           0        3.448336    0.461463    0.557394
     24          1           0        4.309579    1.060605    0.833485
     25          6           0        3.542735   -0.885593    0.474946
     26          1           0        4.473147   -1.393970    0.703882
     27          6           0        2.449005   -1.647445   -0.019632
     28          6           0        1.215070   -1.005726   -0.301357
     29          6           0        0.253111   -1.743444   -1.021659
     30          1           0       -0.654136   -1.253505   -1.346285
     31          6           0        0.449419   -3.062860   -1.341378
     32          1           0       -0.308316   -3.594431   -1.905406
     33          6           0        1.625173   -3.720797   -0.955254
     34          1           0        1.767005   -4.768740   -1.192702
     35          6           0        2.610987   -3.014418   -0.318305
     36          1           0        3.552561   -3.490281   -0.064637
     37          0           0       -4.088512   -1.564246    1.761954
     38          0           0       -4.089574   -1.433798    2.032106
     39          0           0       -4.088158   -1.607729    1.671903
     40          0           0       -4.089928   -1.390316    2.122156
     41          0           0       -4.087804   -1.651212    1.581852
     42          0           0       -4.090282   -1.346833    2.212207
     43          0           0       -4.087450   -1.694695    1.491801
     44          0           0       -4.090636   -1.303350    2.302258
     45          0           0       -4.087096   -1.738177    1.401751
     46          0           0       -4.088866   -1.520764    1.852004
     47          0           0       -4.089049   -1.387230    1.898573
     48          0           0       -4.088341   -1.474195    1.718471
     49          0           0       -4.089403   -1.343747    1.988623
     50          0           0       -4.087987   -1.517678    1.628420
     51          0           0       -4.089757   -1.300264    2.078674
     52          0           0       -4.087633   -1.561160    1.538370
     53          0           0       -4.090111   -1.256781    2.168725
     54          0           0       -4.087279   -1.604643    1.448319
     55          0           0       -4.090465   -1.213299    2.258775
     56          0           0       -4.086925   -1.648126    1.358268
     57          0           0       -4.088695   -1.430712    1.808522
     58          0           0       -4.088878   -1.297178    1.855090
     59          0           0       -4.088170   -1.384144    1.674989
     60          0           0       -4.089232   -1.253695    1.945141
     61          0           0       -4.087816   -1.427626    1.584938
     62          0           0       -4.089586   -1.210213    2.035192
     63          0           0       -4.087462   -1.471109    1.494887
     64          0           0       -4.089940   -1.166730    2.125242
     65          0           0       -4.087108   -1.514592    1.404837
     66          0           0       -4.090294   -1.123247    2.215293
     67          0           0       -4.086754   -1.558074    1.314786
     68          0           0       -4.088524   -1.340661    1.765039
     69          0           0       -4.088708   -1.207127    1.811608
     70          0           0       -4.088000   -1.294092    1.631506
     71          0           0       -4.089062   -1.163644    1.901658
     72          0           0       -4.087646   -1.337575    1.541456
     73          0           0       -4.089416   -1.120161    1.991709
     74          0           0       -4.087292   -1.381058    1.451405
     75          0           0       -4.089770   -1.076679    2.081760
     76          0           0       -4.086938   -1.424540    1.361354
     77          0           0       -4.090124   -1.033196    2.171811
     78          0           0       -4.086584   -1.468023    1.271304
     79          0           0       -4.088354   -1.250609    1.721557
     80          0           0       -4.088537   -1.117075    1.768125
     81          0           0       -4.087829   -1.204041    1.588024
     82          0           0       -4.088891   -1.073593    1.858176
     83          0           0       -4.087475   -1.247524    1.497973
     84          0           0       -4.089245   -1.030110    1.948227
     85          0           0       -4.087121   -1.291006    1.407923
     86          0           0       -4.089599   -0.986627    2.038278
     87          0           0       -4.086767   -1.334489    1.317872
     88          0           0       -4.089953   -0.943145    2.128328
     89          0           0       -4.086413   -1.377972    1.227821
     90          0           0       -4.088183   -1.160558    1.678075
     91          0           0       -4.088366   -1.027024    1.724643
     92          0           0       -4.087658   -1.113989    1.544542
     93          0           0       -4.088720   -0.983541    1.814694
     94          0           0       -4.087304   -1.157472    1.454491
     95          0           0       -4.089074   -0.940059    1.904744
     96          0           0       -4.086950   -1.200955    1.364440
     97          0           0       -4.089428   -0.896576    1.994795
     98          0           0       -4.086596   -1.244438    1.274390
     99          0           0       -4.089782   -0.853093    2.084846
    100          0           0       -4.086242   -1.287920    1.184339
    101          0           0       -4.088012   -1.070507    1.634592
    102          0           0       -4.088195   -0.936973    1.681161
    103          0           0       -4.087487   -1.023938    1.501059
    104          0           0       -4.088549   -0.893490    1.771211
    105          0           0       -4.087133   -1.067421    1.411009
    106          0           0       -4.088903   -0.850007    1.861262
    107          0           0       -4.086779   -1.110903    1.320958
    108          0           0       -4.089257   -0.806524    1.951313
    109          0           0       -4.086425   -1.154386    1.230907
    110          0           0       -4.089611   -0.763042    2.041363
    111          0           0       -4.086071   -1.197869    1.140856
    112          0           0       -4.087841   -0.980455    1.591110
    113          0           0       -4.088024   -0.846921    1.637678
    114          0           0       -4.087316   -0.933887    1.457577
    115          0           0       -4.088378   -0.803438    1.727729
    116          0           0       -4.086962   -0.977369    1.367526
    117          0           0       -4.088732   -0.759956    1.817780
    118          0           0       -4.086608   -1.020852    1.277475
    119          0           0       -4.089086   -0.716473    1.907830
    120          0           0       -4.086254   -1.064335    1.187425
    121          0           0       -4.089440   -0.672990    1.997881
    122          0           0       -4.085900   -1.107818    1.097374
    123          0           0       -4.087670   -0.890404    1.547628
    124          0           0       -4.087853   -0.756870    1.594196
    125          0           0       -4.087145   -0.843835    1.414094
    126          0           0       -4.088207   -0.713387    1.684247
    127          0           0       -4.086791   -0.887318    1.324044
    128          0           0       -4.088561   -0.669904    1.774297
    129          0           0       -4.086437   -0.930801    1.233993
    130          0           0       -4.088915   -0.626422    1.864348
    131          0           0       -4.086083   -0.974283    1.143942
    132          0           0       -4.089269   -0.582939    1.954399
    133          0           0       -4.085729   -1.017766    1.053892
    134          0           0       -4.087499   -0.800353    1.504145
    135          0           0       -4.087682   -0.666818    1.550714
    136          0           0       -4.086974   -0.753784    1.370612
    137          0           0       -4.088036   -0.623336    1.640764
    138          0           0       -4.086620   -0.797267    1.280561
    139          0           0       -4.088390   -0.579853    1.730815
    140          0           0       -4.086266   -0.840749    1.190511
    141          0           0       -4.088744   -0.536370    1.820866
    142          0           0       -4.085912   -0.884232    1.100460
    143          0           0       -4.089098   -0.492888    1.910916
    144          0           0       -4.085558   -0.927715    1.010409
    145          0           0       -4.087328   -0.710301    1.460663
    146          0           0       -4.087511   -0.576767    1.507231
    147          0           0       -4.086803   -0.663732    1.327130
    148          0           0       -4.087865   -0.533284    1.597282
    149          0           0       -4.086449   -0.707215    1.237079
    150          0           0       -4.088219   -0.489802    1.687333
    151          0           0       -4.086095   -0.750698    1.147028
    152          0           0       -4.088573   -0.446319    1.777383
    153          0           0       -4.085741   -0.794181    1.056978
    154          0           0       -4.088927   -0.402836    1.867434
    155          0           0       -4.085387   -0.837663    0.966927
    156          0           0       -4.087157   -0.620250    1.417180
    157          0           0       -4.087340   -0.486716    1.463749
    158          0           0       -4.086632   -0.573681    1.283647
    159          0           0       -4.087694   -0.443233    1.553799
    160          0           0       -4.086278   -0.617164    1.193597
    161          0           0       -4.088048   -0.399750    1.643850
    162          0           0       -4.085924   -0.660647    1.103546
    163          0           0       -4.088402   -0.356267    1.733901
    164          0           0       -4.085570   -0.704129    1.013495
    165          0           0       -4.088756   -0.312785    1.823952
    166          0           0       -4.085216   -0.747612    0.923445
    167          0           0       -4.086986   -0.530198    1.373698
    168          0           0       -4.087169   -0.396664    1.420266
    169          0           0       -4.086461   -0.483630    1.240165
    170          0           0       -4.087523   -0.353182    1.510317
    171          0           0       -4.086107   -0.527112    1.150114
    172          0           0       -4.087877   -0.309699    1.600368
    173          0           0       -4.085753   -0.570595    1.060064
    174          0           0       -4.088231   -0.266216    1.690418
    175          0           0       -4.085399   -0.614078    0.970013
    176          0           0       -4.088585   -0.222733    1.780469
    177          0           0       -4.085045   -0.657561    0.879962
    178          0           0       -4.086815   -0.440147    1.330216
    179          0           0       -4.086998   -0.306613    1.376784
    180          0           0       -4.086290   -0.393578    1.196683
    181          0           0       -4.087352   -0.263130    1.466835
    182          0           0       -4.085936   -0.437061    1.106632
    183          0           0       -4.087706   -0.219647    1.556885
    184          0           0       -4.085582   -0.480544    1.016581
    185          0           0       -4.088060   -0.176165    1.646936
    186          0           0       -4.085228   -0.524026    0.926530
    187          0           0       -4.088414   -0.132682    1.736987
    188          0           0       -4.084874   -0.567509    0.836480
    189          0           0       -4.086644   -0.350096    1.286733
    190          0           0       -4.086827   -0.216561    1.333302
    191          0           0       -4.086119   -0.303527    1.153200
    192          0           0       -4.087181   -0.173079    1.423352
    193          0           0       -4.085765   -0.347010    1.063150
    194          0           0       -4.087535   -0.129596    1.513403
    195          0           0       -4.085411   -0.390492    0.973099
    196          0           0       -4.087889   -0.086113    1.603454
    197          0           0       -4.085057   -0.433975    0.883048
    198          0           0       -4.088243   -0.042631    1.693504
    199          0           0       -4.084703   -0.477458    0.792997
    200          0           0       -4.086473   -0.260044    1.243251
    201          0           0       -4.086656   -0.126510    1.289819
    202          0           0       -4.085948   -0.213476    1.109718
    203          0           0       -4.087010   -0.083027    1.379870
    204          0           0       -4.085594   -0.256958    1.019667
    205          0           0       -4.087364   -0.039545    1.469921
    206          0           0       -4.085240   -0.300441    0.929616
    207          0           0       -4.087718    0.003938    1.559971
    208          0           0       -4.084886   -0.343924    0.839566
    209          0           0       -4.088072    0.047421    1.650022
    210          0           0       -4.084532   -0.387406    0.749515
    211          0           0       -4.086302   -0.169993    1.199769
    212          0           0       -4.086485   -0.036459    1.246337
    213          0           0       -4.085777   -0.123424    1.066235
    214          0           0       -4.086839    0.007024    1.336388
    215          0           0       -4.085423   -0.166907    0.976185
    216          0           0       -4.087193    0.050507    1.426438
    217          0           0       -4.085069   -0.210390    0.886134
    218          0           0       -4.087547    0.093989    1.516489
    219          0           0       -4.084715   -0.253872    0.796083
    220          0           0       -4.087901    0.137472    1.606540
    221          0           0       -4.084361   -0.297355    0.706033
    222          0           0       -4.086131   -0.079941    1.156286
    223          0           0       -4.086314    0.053593    1.202854
    224          0           0       -4.085606   -0.033373    1.022753
    225          0           0       -4.086668    0.097075    1.292905
    226          0           0       -4.085252   -0.076855    0.932702
    227          0           0       -4.087022    0.140558    1.382956
    228          0           0       -4.084898   -0.120338    0.842652
    229          0           0       -4.087376    0.184041    1.473007
    230          0           0       -4.084544   -0.163821    0.752601
    231          0           0       -4.087730    0.227524    1.563057
    232          0           0       -4.084191   -0.207304    0.662550
    233          0           0       -4.085960    0.010110    1.112804
    234          0           0       -4.086144    0.143644    1.159372
    235          0           0       -4.085436    0.056679    0.979271
    236          0           0       -4.086498    0.187127    1.249423
 ---------------------------------------------------------------------
 Rotational constants (GHZ):      0.4529074      0.2836956      0.1879557
 Standard basis: 6-311+G(d,p) (5D, 7F)
 Warning:  center  37 has no basis functions!
 Warning:  center  38 has no basis functions!
 Warning:  center  39 has no basis functions!
 Warning:  center  40 has no basis functions!
 Warning:  center  41 has no basis functions!
 Warning:  center  42 has no basis functions!
 Warning:  center  43 has no basis functions!
 Warning:  center  44 has no basis functions!
 Warning:  center  45 has no basis functions!
 Warning:  center  46 has no basis functions!
 Warning:  center  47 has no basis functions!
 Warning:  center  48 has no basis functions!
 Warning:  center  49 has no basis functions!
 Warning:  center  50 has no basis functions!
 Warning:  center  51 has no basis functions!
 Warning:  center  52 has no basis functions!
 Warning:  center  53 has no basis functions!
 Warning:  center  54 has no basis functions!
 Warning:  center  55 has no basis functions!
 Warning:  center  56 has no basis functions!
 Warning:  center  57 has no basis functions!
 Warning:  center  58 has no basis functions!
 Warning:  center  59 has no basis functions!
 Warning:  center  60 has no basis functions!
 Warning:  center  61 has no basis functions!
 Warning:  center  62 has no basis functions!
 Warning:  center  63 has no basis functions!
 Warning:  center  64 has no basis functions!
 Warning:  center  65 has no basis functions!
 Warning:  center  66 has no basis functions!
 Warning:  center  67 has no basis functions!
 Warning:  center  68 has no basis functions!
 Warning:  center  69 has no basis functions!
 Warning:  center  70 has no basis functions!
 Warning:  center  71 has no basis functions!
 Warning:  center  72 has no basis functions!
 Warning:  center  73 has no basis functions!
 Warning:  center  74 has no basis functions!
 Warning:  center  75 has no basis functions!
 Warning:  center  76 has no basis functions!
 Warning:  center  77 has no basis functions!
 Warning:  center  78 has no basis functions!
 Warning:  center  79 has no basis functions!
 Warning:  center  80 has no basis functions!
 Warning:  center  81 has no basis functions!
 Warning:  center  82 has no basis functions!
 Warning:  center  83 has no basis functions!
 Warning:  center  84 has no basis functions!
 Warning:  center  85 has no basis functions!
 Warning:  center  86 has no basis functions!
 Warning:  center  87 has no basis functions!
 Warning:  center  88 has no basis functions!
 Warning:  center  89 has no basis functions!
 Warning:  center  90 has no basis functions!
 Warning:  center  91 has no basis functions!
 Warning:  center  92 has no basis functions!
 Warning:  center  93 has no basis functions!
 Warning:  center  94 has no basis functions!
 Warning:  center  95 has no basis functions!
 Warning:  center  96 has no basis functions!
 Warning:  center  97 has no basis functions!
 Warning:  center  98 has no basis functions!
 Warning:  center  99 has no basis functions!
 Warning:  center 100 has no basis functions!
 Warning:  center 101 has no basis functions!
 Warning:  center 102 has no basis functions!
 Warning:  center 103 has no basis functions!
 Warning:  center 104 has no basis functions!
 Warning:  center 105 has no basis functions!
 Warning:  center 106 has no basis functions!
 Warning:  center 107 has no basis functions!
 Warning:  center 108 has no basis functions!
 Warning:  center 109 has no basis functions!
 Warning:  center 110 has no basis functions!
 Warning:  center 111 has no basis functions!
 Warning:  center 112 has no basis functions!
 Warning:  center 113 has no basis functions!
 Warning:  center 114 has no basis functions!
 Warning:  center 115 has no basis functions!
 Warning:  center 116 has no basis functions!
 Warning:  center 117 has no basis functions!
 Warning:  center 118 has no basis functions!
 Warning:  center 119 has no basis functions!
 Warning:  center 120 has no basis functions!
 Warning:  center 121 has no basis functions!
 Warning:  center 122 has no basis functions!
 Warning:  center 123 has no basis functions!
 Warning:  center 124 has no basis functions!
 Warning:  center 125 has no basis functions!
 Warning:  center 126 has no basis functions!
 Warning:  center 127 has no basis functions!
 Warning:  center 128 has no basis functions!
 Warning:  center 129 has no basis functions!
 Warning:  center 130 has no basis functions!
 Warning:  center 131 has no basis functions!
 Warning:  center 132 has no basis functions!
 Warning:  center 133 has no basis functions!
 Warning:  center 134 has no basis functions!
 Warning:  center 135 has no basis functions!
 Warning:  center 136 has no basis functions!
 Warning:  center 137 has no basis functions!
 Warning:  center 138 has no basis functions!
 Warning:  center 139 has no basis functions!
 Warning:  center 140 has no basis functions!
 Warning:  center 141 has no basis functions!
 Warning:  center 142 has no basis functions!
 Warning:  center 143 has no basis functions!
 Warning:  center 144 has no basis functions!
 Warning:  center 145 has no basis functions!
 Warning:  center 146 has no basis functions!
 Warning:  center 147 has no basis functions!
 Warning:  center 148 has no basis functions!
 Warning:  center 149 has no basis functions!
 Warning:  center 150 has no basis functions!
 Warning:  center 151 has no basis functions!
 Warning:  center 152 has no basis functions!
 Warning:  center 153 has no basis functions!
 Warning:  center 154 has no basis functions!
 Warning:  center 155 has no basis functions!
 Warning:  center 156 has no basis functions!
 Warning:  center 157 has no basis functions!
 Warning:  center 158 has no basis functions!
 Warning:  center 159 has no basis functions!
 Warning:  center 160 has no basis functions!
 Warning:  center 161 has no basis functions!
 Warning:  center 162 has no basis functions!
 Warning:  center 163 has no basis functions!
 Warning:  center 164 has no basis functions!
 Warning:  center 165 has no basis functions!
 Warning:  center 166 has no basis functions!
 Warning:  center 167 has no basis functions!
 Warning:  center 168 has no basis functions!
 Warning:  center 169 has no basis functions!
 Warning:  center 170 has no basis functions!
 Warning:  center 171 has no basis functions!
 Warning:  center 172 has no basis functions!
 Warning:  center 173 has no basis functions!
 Warning:  center 174 has no basis functions!
 Warning:  center 175 has no basis functions!
 Warning:  center 176 has no basis functions!
 Warning:  center 177 has no basis functions!
 Warning:  center 178 has no basis functions!
 Warning:  center 179 has no basis functions!
 Warning:  center 180 has no basis functions!
 Warning:  center 181 has no basis functions!
 Warning:  center 182 has no basis functions!
 Warning:  center 183 has no basis functions!
 Warning:  center 184 has no basis functions!
 Warning:  center 185 has no basis functions!
 Warning:  center 186 has no basis functions!
 Warning:  center 187 has no basis functions!
 Warning:  center 188 has no basis functions!
 Warning:  center 189 has no basis functions!
 Warning:  center 190 has no basis functions!
 Warning:  center 191 has no basis functions!
 Warning:  center 192 has no basis functions!
 Warning:  center 193 has no basis functions!
 Warning:  center 194 has no basis functions!
 Warning:  center 195 has no basis functions!
 Warning:  center 196 has no basis functions!
 Warning:  center 197 has no basis functions!
 Warning:  center 198 has no basis functions!
 Warning:  center 199 has no basis functions!
 Warning:  center 200 has no basis functions!
 Warning:  center 201 has no basis functions!
 Warning:  center 202 has no basis functions!
 Warning:  center 203 has no basis functions!
 Warning:  center 204 has no basis functions!
 Warning:  center 205 has no basis functions!
 Warning:  center 206 has no basis functions!
 Warning:  center 207 has no basis functions!
 Warning:  center 208 has no basis functions!
 Warning:  center 209 has no basis functions!
 Warning:  center 210 has no basis functions!
 Warning:  center 211 has no basis functions!
 Warning:  center 212 has no basis functions!
 Warning:  center 213 has no basis functions!
 Warning:  center 214 has no basis functions!
 Warning:  center 215 has no basis functions!
 Warning:  center 216 has no basis functions!
 Warning:  center 217 has no basis functions!
 Warning:  center 218 has no basis functions!
 Warning:  center 219 has no basis functions!
 Warning:  center 220 has no basis functions!
 Warning:  center 221 has no basis functions!
 Warning:  center 222 has no basis functions!
 Warning:  center 223 has no basis functions!
 Warning:  center 224 has no basis functions!
 Warning:  center 225 has no basis functions!
 Warning:  center 226 has no basis functions!
 Warning:  center 227 has no basis functions!
 Warning:  center 228 has no basis functions!
 Warning:  center 229 has no basis functions!
 Warning:  center 230 has no basis functions!
 Warning:  center 231 has no basis functions!
 Warning:  center 232 has no basis functions!
 Warning:  center 233 has no basis functions!
 Warning:  center 234 has no basis functions!
 Warning:  center 235 has no basis functions!
 Warning:  center 236 has no basis functions!
   568 basis functions,   904 primitive gaussians,   590 cartesian basis functions
    73 alpha electrons       73 beta electrons
       nuclear repulsion energy      1610.9176155625 Hartrees.
 NAtoms=  236 NActive=  236 NUniq=  236 SFac= 1.00D+00 NAtFMM=   60 NAOKFM=T Big=T
 Integral buffers will be    131072 words long.
 Raffenetti 2 integral format.
 Two-electron integral symmetry is turned off.
 One-electron integrals computed using PRISM.
 NBasis=   568 RedAO= T EigKep=  1.78D-06  NBF=   568
 NBsUse=   556 1.00D-06 EigRej=  9.09D-07 NBFU=   556
 ExpMin= 4.38D-02 ExpMax= 4.56D+03 ExpMxC= 6.82D+02 IAcc=2 IRadAn=         4 AccDes= 0.00D+00
 Harris functional with IExCor=  402 and IRadAn=       4 diagonalized for initial guess.
 HarFok:  IExCor=  402 AccDes= 0.00D+00 IRadAn=         4 IDoV= 1 UseB2=F ITyADJ=14
 ICtDFT=  3500011 ScaDFX=  1.000000  1.000000  1.000000  1.000000
 FoFCou: FMM=F IPFlag=           0 FMFlag=      100000 FMFlg1=        2001
         NFxFlg=           0 DoJE=T BraDBF=F KetDBF=T FulRan=T
         wScrn=  0.000000 ICntrl=     500 IOpCl=  0 I1Cent=   200000004 NGrid=           0
         NMat0=    1 NMatS0=      1 NMatT0=    0 NMatD0=    1 NMtDS0=    0 NMtDT0=    0
 Symmetry not used in FoFCou.
 Requested convergence on RMS density matrix=1.00D-08 within 128 cycles.
 Requested convergence on MAX density matrix=1.00D-06.
 Requested convergence on             energy=1.00D-06.
 No special actions if energy rises.
 SCF Done:  E(RB3LYP) =  -847.003289847     A.U. after   15 cycles
            NFock= 15  Conv=0.76D-08     -V/T= 2.0040
 DoSCS=F DFT=T ScalE2(SS,OS)=  1.000000  1.000000
 Range of M.O.s used for correlation:     1   556
 NBasis=   568 NAE=    73 NBE=    73 NFC=     0 NFV=     0
 NROrb=    556 NOA=    73 NOB=    73 NVA=   483 NVB=   483

 **** Warning!!: The largest alpha MO coefficient is  0.10971037D+03

          Differentiating once with respect to magnetic field using GIAOs.
          Electric field/nuclear overlap derivatives assumed to be zero.
 FoFCou: FMM=F IPFlag=           0 FMFlag=      100000 FMFlg1=        2001
         NFxFlg=           0 DoJE=F BraDBF=F KetDBF=T FulRan=T
         wScrn=  0.000000 ICntrl=    6100 IOpCl=  0 I1Cent=           7 NGrid=         236
         NMat0=    1 NMatS0=      1 NMatT0=    0 NMatD0=    1 NMtDS0=    0 NMtDT0=    0
 Symmetry not used in FoFCou.
 FoFJK:  IHMeth= 1 ICntrl=    6127 DoSepK=F KAlg= 0 I1Cent=   0 FoldK=F
 IRaf=         1 NMat=   1 IRICut=       1 DoRegI=T DoRafI=F ISym2E= 0.
          There are     3 degrees of freedom in the 1st order CPHF.  IDoFFX=0 NUNeed=     3.
      3 vectors produced by pass  0 Test12= 1.18D-12 3.33D-08 XBig12= 2.07D+03 9.18D+00.
 AX will form     3 AO Fock derivatives at one time.
      3 vectors produced by pass  1 Test12= 1.18D-12 3.33D-08 XBig12= 3.56D+00 8.03D-01.
      3 vectors produced by pass  2 Test12= 1.18D-12 3.33D-08 XBig12= 2.10D-02 6.92D-02.
      3 vectors produced by pass  3 Test12= 1.18D-12 3.33D-08 XBig12= 5.45D-05 1.89D-03.
      3 vectors produced by pass  4 Test12= 1.18D-12 3.33D-08 XBig12= 1.20D-07 7.79D-05.
      3 vectors produced by pass  5 Test12= 1.18D-12 3.33D-08 XBig12= 4.02D-10 4.73D-06.
      3 vectors produced by pass  6 Test12= 1.18D-12 3.33D-08 XBig12= 1.32D-12 2.61D-07.
 InvSVY:  IOpt=1 It=  1 EMax= 7.11D-15
 Solved reduced A of dimension    21 with     3 vectors.
 Calculating GIAO nuclear magnetic shielding tensors.
 SCF GIAO Magnetic shielding tensor (ppm):
      1  C    Isotropic =    53.8139   Anisotropy =   178.0260
   XX=   -41.4327   YX=   -32.3458   ZX=    10.0287
   XY=   -28.3572   YY=    59.0527   ZY=    55.1899
   XZ=    13.1759   YZ=    58.7550   ZZ=   143.8218
   Eigenvalues:   -53.8775    42.8214   172.4979
      2  H    Isotropic =    24.3095   Anisotropy =     4.8536
   XX=    25.5771   YX=    -1.0289   ZX=     0.5661
   XY=    -0.7431   YY=    26.1829   ZY=    -2.3306
   XZ=    -0.1707   YZ=    -2.4411   ZZ=    21.1687
   Eigenvalues:    20.2108    25.1725    27.5453
      3  C    Isotropic =    51.4055   Anisotropy =   157.8639
   XX=   -31.5399   YX=    38.5015   ZX=   -17.9316
   XY=    34.3519   YY=    49.9437   ZY=    49.6392
   XZ=    -9.8383   YZ=    44.6006   ZZ=   135.8127
   Eigenvalues:   -50.5747    48.1432   156.6481
      4  H    Isotropic =    23.8290   Anisotropy =     7.1838
   XX=    25.3635   YX=     1.8486   ZX=    -0.3559
   XY=     1.9656   YY=    26.4581   ZY=    -2.4103
   XZ=    -1.2941   YZ=    -2.6614   ZZ=    19.6654
   Eigenvalues:    18.8176    24.0511    28.6182
      5  C    Isotropic =    46.0697   Anisotropy =   207.6751
   XX=   -19.2123   YX=    -4.8852   ZX=    -1.6475
   XY=     2.8938   YY=    -2.9860   ZY=    66.5656
   XZ=     2.5356   YZ=    67.9144   ZZ=   160.4073
   Eigenvalues:   -27.2455   -19.0652   184.5197
      6  C    Isotropic =    47.5218   Anisotropy =   196.9389
   XX=   -28.1552   YX=    -2.7889   ZX=    12.0660
   XY=   -14.3886   YY=    21.2063   ZY=    74.2521
   XZ=   -18.6356   YZ=    61.1113   ZZ=   149.5144
   Eigenvalues:   -30.2925    -5.9564   178.8144
      7  C    Isotropic =    49.3915   Anisotropy =   179.8333
   XX=   -12.5211   YX=    28.7048   ZX=   -24.6745
   XY=    31.5123   YY=    29.7000   ZY=    77.7459
   XZ=   -40.0095   YZ=    65.3072   ZZ=   130.9956
   Eigenvalues:   -52.1299    31.0240   169.2804
      8  H    Isotropic =    23.1586   Anisotropy =    13.5525
   XX=    28.5711   YX=     1.5482   ZX=    -3.6986
   XY=     3.2466   YY=    22.7592   ZY=    -2.1157
   XZ=    -8.3753   YZ=    -1.0821   ZZ=    18.1456
   Eigenvalues:    15.3521    21.9301    32.1936
      9  C    Isotropic =    55.1460   Anisotropy =   174.7426
   XX=    46.7071   YX=    -2.6162   ZX=    -2.8420
   XY=     0.6223   YY=    -1.6258   ZY=    92.8272
   XZ=     0.5159   YZ=    95.6598   ZZ=   120.3568
   Eigenvalues:   -52.8932    46.6901   171.6411
     10  H    Isotropic =    24.6278   Anisotropy =     7.1815
   XX=    29.1040   YX=     0.1399   ZX=    -0.3694
   XY=     0.3642   YY=    23.4778   ZY=    -1.0805
   XZ=    -2.4493   YZ=    -2.9465   ZZ=    21.3016
   Eigenvalues:    19.9703    24.4977    29.4155
     11  C    Isotropic =    51.5607   Anisotropy =   151.2142
   XX=     2.1639   YX=    40.9287   ZX=   -26.0048
   XY=    49.9131   YY=    12.2331   ZY=    42.1342
   XZ=   -15.6145   YZ=    38.6614   ZZ=   140.2851
   Eigenvalues:   -48.1951    50.5071   152.3701
     12  H    Isotropic =    23.8537   Anisotropy =     7.3815
   XX=    25.9672   YX=     2.3738   ZX=    -0.2390
   XY=     2.4320   YY=    26.3975   ZY=    -1.8291
   XZ=     0.3529   YZ=    -1.7731   ZZ=    19.1964
   Eigenvalues:    18.7149    24.0714    28.7747
     13  C    Isotropic =    52.8653   Anisotropy =   147.4265
   XX=    51.2944   YX=    19.9221   ZX=   -13.4678
   XY=    11.5478   YY=   -34.0176   ZY=    42.5079
   XZ=    -9.2241   YZ=    40.0716   ZZ=   141.3192
   Eigenvalues:   -46.5152    53.9616   151.1497
     14  H    Isotropic =    24.0156   Anisotropy =     7.3485
   XX=    28.6644   YX=     0.6281   ZX=     1.0808
   XY=     0.5926   YY=    24.4325   ZY=    -1.0823
   XZ=     1.6846   YZ=    -0.3842   ZZ=    18.9500
   Eigenvalues:    18.6430    24.4892    28.9146
     15  C    Isotropic =    46.2221   Anisotropy =   203.9048
   XX=   -27.2215   YX=    -0.0442   ZX=   -28.9124
   XY=     4.6427   YY=   -10.5571   ZY=    28.3830
   XZ=   -10.2704   YZ=    26.7376   ZZ=   176.4448
   Eigenvalues:   -30.5512   -12.9411   182.1586
     16  C    Isotropic =    51.9375   Anisotropy =   188.2004
   XX=   -19.4441   YX=     5.5046   ZX=    15.7858
   XY=    -8.3874   YY=     2.4863   ZY=    22.9264
   XZ=   -50.6243   YZ=    23.3340   ZZ=   172.7704
   Eigenvalues:   -21.0294    -0.5625   177.4045
     17  C    Isotropic =    51.9482   Anisotropy =   149.1264
   XX=    50.7296   YX=   -23.9353   ZX=   -18.4207
   XY=   -16.7271   YY=   -41.8764   ZY=    17.8662
   XZ=   -14.3278   YZ=    11.4871   ZZ=   146.9915
   Eigenvalues:   -46.7796    51.2584   151.3658
     18  H    Isotropic =    24.0122   Anisotropy =     7.5163
   XX=    28.5811   YX=    -0.0866   ZX=     1.5071
   XY=    -0.2466   YY=    24.3342   ZY=    -0.7657
   XZ=     2.5088   YZ=    -1.5208   ZZ=    19.1214
   Eigenvalues:    18.5094    24.5041    29.0231
     19  C    Isotropic =    51.7356   Anisotropy =   148.5924
   XX=     2.4559   YX=   -45.6913   ZX=   -31.2531
   XY=   -53.4448   YY=     7.4698   ZY=    -1.8888
   XZ=   -23.5601   YZ=    -1.2765   ZZ=   145.2810
   Eigenvalues:   -46.9894    51.3989   150.7972
     20  H    Isotropic =    23.9071   Anisotropy =     7.6651
   XX=    25.5796   YX=    -2.0226   ZX=     1.4905
   XY=    -1.9998   YY=    27.3706   ZY=    -0.5164
   XZ=     2.7276   YZ=    -1.1179   ZZ=    18.7711
   Eigenvalues:    18.1643    24.5398    29.0172
     21  C    Isotropic =    45.9767   Anisotropy =   203.9316
   XX=   -16.2108   YX=    13.1802   ZX=   -44.5913
   XY=     6.5714   YY=   -20.6329   ZY=     0.0949
   XZ=   -28.8984   YZ=   -13.0883   ZZ=   174.7736
   Eigenvalues:   -30.5796   -13.4215   181.9311
     22  C    Isotropic =    52.0450   Anisotropy =   188.1157
   XX=    -0.0787   YX=     2.5023   ZX=   -16.3451
   XY=    18.9327   YY=   -14.4798   ZY=   -34.4335
   XZ=   -50.6032   YZ=    19.9104   ZZ=   170.6934
   Eigenvalues:   -20.7705    -0.5500   177.4554
     23  C    Isotropic =    53.2392   Anisotropy =   146.7412
   XX=   -22.0674   YX=   -32.0012   ZX=   -49.4857
   XY=   -23.2043   YY=    44.3661   ZY=   -15.6400
   XZ=   -43.8090   YZ=   -20.2525   ZZ=   137.4189
   Eigenvalues:   -45.6776    54.3286   151.0667
     24  H    Isotropic =    23.8249   Anisotropy =     7.5289
   XX=    25.1073   YX=    -1.7330   ZX=     1.5380
   XY=    -1.5944   YY=    28.0047   ZY=     0.0879
   XZ=     1.2557   YZ=    -0.8283   ZZ=    18.3628
   Eigenvalues:    18.0848    24.5458    28.8442
     25  C    Isotropic =    51.4969   Anisotropy =   150.1066
   XX=   -28.4915   YX=    33.9684   ZX=   -52.3137
   XY=    22.0311   YY=    46.6072   ZY=    -3.8075
   XZ=   -44.5594   YZ=   -10.6355   ZZ=   136.3748
   Eigenvalues:   -48.3857    51.3083   151.5679
     26  H    Isotropic =    23.7431   Anisotropy =     7.4052
   XX=    24.0663   YX=     1.1141   ZX=     1.9989
   XY=     0.9693   YY=    28.1000   ZY=     1.6568
   XZ=     2.0795   YZ=     0.8886   ZZ=    19.0630
   Eigenvalues:    18.2615    24.2880    28.6799
     27  C    Isotropic =    45.8108   Anisotropy =   207.2710
   XX=    -2.7702   YX=    13.7697   ZX=   -61.4651
   XY=     6.5593   YY=   -12.0335   ZY=   -41.6456
   XZ=   -62.6381   YZ=   -44.9232   ZZ=   152.2361
   Eigenvalues:   -28.0803   -18.4787   183.9915
     28  C    Isotropic =    47.8398   Anisotropy =   197.2870
   XX=    19.6900   YX=    14.4398   ZX=   -60.5682
   XY=    28.5650   YY=   -19.3566   ZY=   -56.7015
   XZ=   -63.1331   YZ=   -24.4782   ZZ=   143.1859
   Eigenvalues:   -30.5979    -5.2472   179.3644
     29  C    Isotropic =    49.3441   Anisotropy =   179.7793
   XX=    -3.4110   YX=    38.3775   ZX=   -80.8875
   XY=    36.1252   YY=    25.9805   ZY=   -23.7573
   XZ=   -78.1065   YZ=    -3.9802   ZZ=   125.4627
   Eigenvalues:   -51.6645    30.4997   169.1970
     30  H    Isotropic =    23.1387   Anisotropy =    13.3222
   XX=    22.4354   YX=    -0.7013   ZX=    -0.2375
   XY=    -2.1539   YY=    28.3546   ZY=     4.5555
   XZ=    -3.4181   YZ=     8.3231   ZZ=    18.6259
   Eigenvalues:    15.2751    22.1208    32.0201
     31  C    Isotropic =    55.4410   Anisotropy =   174.9390
   XX=    17.1871   YX=   -14.0890   ZX=   -84.0024
   XY=   -17.9030   YY=    37.4745   ZY=   -50.3662
   XZ=   -84.6557   YZ=   -54.8325   ZZ=   111.6615
   Eigenvalues:   -51.9248    46.1808   172.0670
     32  H    Isotropic =    24.5337   Anisotropy =     7.2554
   XX=    24.6185   YX=    -2.5264   ZX=     0.7632
   XY=    -2.7385   YY=    27.4630   ZY=     1.0335
   XZ=     1.1913   YZ=     3.7573   ZZ=    21.5194
   Eigenvalues:    19.8987    24.3316    29.3706
     33  C    Isotropic =    53.1814   Anisotropy =   179.0596
   XX=    60.9231   YX=    35.2256   ZX=   -42.9515
   XY=    32.0226   YY=   -38.1801   ZY=   -45.5652
   XZ=   -44.2248   YZ=   -50.7831   ZZ=   136.8014
   Eigenvalues:   -55.1197    42.1095   172.5545
     34  H    Isotropic =    24.2825   Anisotropy =     5.1861
   XX=    26.7643   YX=    -0.0934   ZX=     2.5955
   XY=    -0.2993   YY=    24.8157   ZY=     0.8589
   XZ=     2.3715   YZ=     1.4580   ZZ=    21.2676
   Eigenvalues:    20.0339    25.0737    27.7399
     35  C    Isotropic =    51.5295   Anisotropy =   155.1748
   XX=    -0.5131   YX=    52.5760   ZX=   -52.1551
   XY=    55.6135   YY=    25.1843   ZY=   -14.2643
   XZ=   -45.7255   YZ=   -17.1625   ZZ=   129.9171
   Eigenvalues:   -48.3147    47.9237   154.9793
     36  H    Isotropic =    23.8384   Anisotropy =     7.3073
   XX=    24.2302   YX=     1.4459   ZX=     2.1759
   XY=     1.2147   YY=    27.1572   ZY=     2.0665
   XZ=     1.6853   YZ=     2.7775   ZZ=    20.1277
   Eigenvalues:    18.9464    23.8588    28.7099
     37  Bq   Isotropic =     0.5920   Anisotropy =    12.3508
   XX=     8.1637   YX=    -0.4069   ZX=    -0.7219
   XY=    -1.6876   YY=    -0.2156   ZY=    -7.5646
   XZ=    -4.4061   YZ=   -12.7840   ZZ=    -6.1720
   Eigenvalues:   -14.1177     7.0679     8.8259
     38  Bq   Isotropic =     0.8197   Anisotropy =    12.9067
   XX=     5.7327   YX=    -0.1143   ZX=    -1.9576
   XY=    -2.1218   YY=    -2.2331   ZY=    -5.1790
   XZ=    -7.1179   YZ=   -12.4438   ZZ=    -1.0406
   Eigenvalues:   -11.3828     4.4177     9.4241
     39  Bq   Isotropic =     0.5306   Anisotropy =    12.7053
   XX=     8.8093   YX=    -0.5172   ZX=    -0.2651
   XY=    -1.4236   YY=     0.5674   ZY=    -8.1875
   XZ=    -3.2658   YZ=   -12.3855   ZZ=    -7.7849
   Eigenvalues:   -14.8806     7.4716     9.0008
     40  Bq   Isotropic =     0.8896   Anisotropy =    13.1573
   XX=     4.9052   YX=    -0.0625   ZX=    -2.2424
   XY=    -2.1750   YY=    -2.7374   ZY=    -4.3367
   XZ=    -7.6650   YZ=   -11.9290   ZZ=     0.5008
   Eigenvalues:   -10.4923     3.4999     9.6611
     41  Bq   Isotropic =     0.4884   Anisotropy =    13.3496
   XX=     9.2983   YX=    -0.5980   ZX=     0.1605
   XY=    -1.0828   YY=     1.3785   ZY=    -8.6612
   XZ=    -2.1036   YZ=   -11.7079   ZZ=    -9.2116
   Eigenvalues:   -15.4602     7.5372     9.3881
     42  Bq   Isotropic =     0.9499   Anisotropy =    13.3466
   XX=     4.1269   YX=    -0.0338   ZX=    -2.4468
   XY=    -2.1927   YY=    -3.1400   ZY=    -3.5254
   XZ=    -8.0216   YZ=   -11.2888   ZZ=     1.8627
   Eigenvalues:    -9.6594     2.6614     9.8476
     43  Bq   Isotropic =     0.4710   Anisotropy =    13.8499
   XX=     9.5966   YX=    -0.6220   ZX=     0.5285
   XY=    -0.6573   YY=     2.2076   ZY=    -8.9517
   XZ=    -0.9791   YZ=   -10.7577   ZZ=   -10.3912
   Eigenvalues:   -15.7979     7.5066     9.7042
     44  Bq   Isotropic =     0.9989   Anisotropy =    13.4515
   XX=     3.4180   YX=    -0.0232   ZX=    -2.5745
   XY=    -2.1800   YY=    -3.4411   ZY=    -2.7684
   XZ=    -8.2046   YZ=   -10.5693   ZZ=     3.0197
   Eigenvalues:    -8.8928     1.9229     9.9665
     45  Bq   Isotropic =     0.4803   Anisotropy =    13.9887
   XX=     9.6825   YX=    -0.5665   ZX=     0.8254
   XY=    -0.1473   YY=     3.0464   ZY=    -9.0297
   XZ=     0.0613   YZ=    -9.5532   ZZ=   -11.2879
   Eigenvalues:   -15.8576     7.4924     9.8061
     46  Bq   Isotropic =     0.6654   Anisotropy =    12.4027
   XX=     7.4045   YX=    -0.2925   ZX=    -1.1768
   XY=    -1.8854   YY=    -0.9558   ZY=    -6.8299
   XZ=    -5.4615   YZ=   -12.9103   ZZ=    -4.4526
   Eigenvalues:   -13.2395     6.3018     8.9338
     47  Bq   Isotropic =     1.4379   Anisotropy =    13.0448
   XX=     7.5345   YX=    -0.2831   ZX=    -1.3282
   XY=    -2.1082   YY=    -1.4762   ZY=    -5.9909
   XZ=    -6.6489   YZ=   -13.6416   ZZ=    -1.7446
   Eigenvalues:   -12.1228     6.3021    10.1344
     48  Bq   Isotropic =     1.3678   Anisotropy =    12.8121
   XX=     9.4014   YX=    -0.5809   ZX=    -0.3614
   XY=    -1.6913   YY=     0.1260   ZY=    -7.6342
   XZ=    -4.4900   YZ=   -13.6354   ZZ=    -5.4240
   Eigenvalues:   -13.9330     8.1272     9.9092
     49  Bq   Isotropic =     1.4653   Anisotropy =    13.3991
   XX=     6.5467   YX=    -0.1908   ZX=    -1.7444
   XY=    -2.2511   YY=    -2.1569   ZY=    -5.0935
   XZ=    -7.4725   YZ=   -13.2360   ZZ=     0.0062
   Eigenvalues:   -11.2115     5.2094    10.3981
     50  Bq   Isotropic =     1.3363   Anisotropy =    13.4766
   XX=    10.1731   YX=    -0.7592   ZX=     0.1124
   XY=    -1.4089   YY=     0.9973   ZY=    -8.3049
   XZ=    -3.2732   YZ=   -13.1595   ZZ=    -7.1615
   Eigenvalues:   -14.7110     8.3993    10.3207
     51  Bq   Isotropic =     1.4838   Anisotropy =    13.7285
   XX=     5.5860   YX=    -0.1361   ZX=    -2.0819
   XY=    -2.3508   YY=    -2.7286   ZY=    -4.1966
   XZ=    -8.0842   YZ=   -12.6269   ZZ=     1.5939
   Eigenvalues:   -10.3456     4.1608    10.6361
     52  Bq   Isotropic =     1.3173   Anisotropy =    14.3735
   XX=    10.7685   YX=    -0.9183   ZX=     0.5257
   XY=    -1.0637   YY=     1.8904   ZY=    -8.8276
   XZ=    -2.0621   YZ=   -12.3594   ZZ=    -8.7071
   Eigenvalues:   -15.3060     8.3583    10.8996
     53  Bq   Isotropic =     1.4922   Anisotropy =    13.9811
   XX=     4.6871   YX=    -0.1115   ZX=    -2.3320
   XY=    -2.4078   YY=    -3.1811   ZY=    -3.3337
   XZ=    -8.4832   YZ=   -11.8750   ZZ=     2.9707
   Eigenvalues:    -9.5410     3.2047    10.8130
     54  Bq   Isotropic =     1.3175   Anisotropy =    15.0173
   XX=    11.1470   YX=    -1.0190   ZX=     0.8503
   XY=    -0.6427   YY=     2.7976   ZY=    -9.1685
   XZ=    -0.9204   YZ=   -11.2510   ZZ=    -9.9921
   Eigenvalues:   -15.6514     8.2749    11.3290
     55  Bq   Isotropic =     1.4908   Anisotropy =    14.1288
   XX=     3.8727   YX=    -0.1079   ZX=    -2.4967
   XY=    -2.4246   YY=    -3.5144   ZY=    -2.5317
   XZ=    -8.6871   YZ=   -11.0387   ZZ=     4.1141
   Eigenvalues:    -8.8022     2.3646    10.9100
     56  Bq   Isotropic =     1.3398   Anisotropy =    15.2191
   XX=    11.2809   YX=    -1.0253   ZX=     1.0782
   XY=    -0.1372   YY=     3.7154   ZY=    -9.2947
   XZ=     0.1119   YZ=    -9.8642   ZZ=   -10.9768
   Eigenvalues:   -15.7055     8.2391    11.4859
     57  Bq   Isotropic =     1.4039   Anisotropy =    12.7669
   XX=     8.5037   YX=    -0.4156   ZX=    -0.8557
   XY=    -1.9223   YY=    -0.7066   ZY=    -6.8506
   XZ=    -5.6382   YZ=   -13.7886   ZZ=    -3.5854
   Eigenvalues:   -13.0473     7.3438     9.9152
     58  Bq   Isotropic =     2.4134   Anisotropy =    13.4202
   XX=     8.7660   YX=    -0.3322   ZX=    -1.0597
   XY=    -2.1048   YY=    -1.2078   ZY=    -5.6419
   XZ=    -6.9729   YZ=   -14.3173   ZZ=    -0.3179
   Eigenvalues:   -11.4216     7.3015    11.3602
     59  Bq   Isotropic =     2.4924   Anisotropy =    13.4426
   XX=    11.0583   YX=    -0.7128   ZX=     0.0149
   XY=    -1.5693   YY=     0.5642   ZY=    -7.2852
   XZ=    -4.6126   YZ=   -14.2347   ZZ=    -4.1454
   Eigenvalues:   -13.0657     9.0887    11.4541
     60  Bq   Isotropic =     2.3523   Anisotropy =    13.8740
   XX=     7.5717   YX=    -0.2320   ZX=    -1.5361
   XY=    -2.3203   YY=    -1.9780   ZY=    -4.7392
   XZ=    -7.8847   YZ=   -13.8693   ZZ=     1.4632
   Eigenvalues:   -10.6160     6.0712    11.6017
     61  Bq   Isotropic =     2.5140   Anisotropy =    14.4548
   XX=    12.0236   YX=    -0.9701   ZX=     0.5135
   XY=    -1.2589   YY=     1.4981   ZY=    -7.9646
   XZ=    -3.3178   YZ=   -13.6328   ZZ=    -5.9798
   Eigenvalues:   -13.7924     9.1838    12.1505
     62  Bq   Isotropic =     2.2799   Anisotropy =    14.3116
   XX=     6.4218   YX=    -0.1832   ZX=    -1.9277
   XY=    -2.4884   YY=    -2.6285   ZY=    -3.8311
   XZ=    -8.5614   YZ=   -13.1806   ZZ=     3.0464
   Eigenvalues:    -9.8583     4.8771    11.8210
     63  Bq   Isotropic =     2.5330   Anisotropy =    15.5752
   XX=    12.7819   YX=    -1.2247   ZX=     0.9171
   XY=    -0.9107   YY=     2.4379   ZY=    -8.5161
   XZ=    -2.0665   YZ=   -12.6583   ZZ=    -7.6207
   Eigenvalues:   -14.3536     9.0362    12.9165
     64  Bq   Isotropic =     2.2001   Anisotropy =    14.6510
   XX=     5.3569   YX=    -0.1714   ZX=    -2.2224
   XY=    -2.6026   YY=    -3.1425   ZY=    -2.9541
   XZ=    -8.9993   YZ=   -12.3275   ZZ=     4.3859
   Eigenvalues:    -9.1550     3.7879    11.9675
     65  Bq   Isotropic =     2.5586   Anisotropy =    16.3684
   XX=    13.2802   YX=    -1.4223   ZX=     1.1936
   XY=    -0.5050   YY=     3.3861   ZY=    -8.9123
   XZ=    -0.9278   YZ=   -11.3447   ZZ=    -8.9906
   Eigenvalues:   -14.6761     8.8810    13.4709
     66  Bq   Isotropic =     2.1163   Anisotropy =    14.8553
   XX=     4.4019   YX=    -0.1823   ZX=    -2.4219
   XY=    -2.6618   YY=    -3.5183   ZY=    -2.1385
   XZ=    -9.2183   YZ=   -11.3825   ZZ=     5.4652
   Eigenvalues:    -8.5042     2.8332    12.0198
     67  Bq   Isotropic =     2.5958   Anisotropy =    16.6504
   XX=    13.4804   YX=    -1.5083   ZX=     1.3402
   XY=    -0.0204   YY=     4.3540   ZY=    -9.1176
   XZ=     0.0683   YZ=    -9.7409   ZZ=   -10.0471
   Eigenvalues:   -14.7137     8.8051    13.6960
     68  Bq   Isotropic =     2.4602   Anisotropy =    13.1392
   XX=     9.9498   YX=    -0.4933   ZX=    -0.5276
   XY=    -1.8517   YY=    -0.3483   ZY=    -6.5018
   XZ=    -5.8603   YZ=   -14.4556   ZZ=    -2.2210
   Eigenvalues:   -12.2530     8.4139    11.2196
     69  Bq   Isotropic =     3.7173   Anisotropy =    13.7086
   XX=    10.3104   YX=    -0.3563   ZX=    -0.7941
   XY=    -2.0432   YY=    -0.7700   ZY=    -4.8630
   XZ=    -7.3485   YZ=   -14.7010   ZZ=     1.6115
   Eigenvalues:   -10.0762     8.3717    12.8563
     70  Bq   Isotropic =     4.0185   Anisotropy =    14.2496
   XX=    13.2005   YX=    -0.8330   ZX=     0.4193
   XY=    -1.3563   YY=     1.1237   ZY=    -6.3394
   XZ=    -4.7565   YZ=   -14.4347   ZZ=    -2.2686
   Eigenvalues:   -11.3246     9.8619    13.5183
     71  Bq   Isotropic =     3.5207   Anisotropy =    14.2789
   XX=     8.8322   YX=    -0.2515   ZX=    -1.3385
   XY=    -2.3518   YY=    -1.6353   ZY=    -4.0317
   XZ=    -8.3572   YZ=   -14.2473   ZZ=     3.3652
   Eigenvalues:    -9.4957     7.0178    13.0399
     72  Bq   Isotropic =     4.1129   Anisotropy =    15.6505
   XX=    14.4405   YX=    -1.1902   ZX=     0.9599
   XY=    -1.0154   YY=     2.0577   ZY=    -6.9595
   XZ=    -3.3738   YZ=   -13.6369   ZZ=    -4.1596
   Eigenvalues:   -11.9085     9.7006    14.5466
     73  Bq   Isotropic =     3.3096   Anisotropy =    14.8698
   XX=     7.4272   YX=    -0.2145   ZX=    -1.7866
   XY=    -2.6063   YY=    -2.3800   ZY=    -3.1787
   XZ=    -9.1008   YZ=   -13.5075   ZZ=     4.8817
   Eigenvalues:    -8.9563     5.6623    13.2228
     74  Bq   Isotropic =     4.1784   Anisotropy =    17.0566
   XX=    15.4290   YX=    -1.5692   ZX=     1.3652
   XY=    -0.6745   YY=     2.9617   ZY=    -7.5020
   XZ=    -2.0862   YZ=   -12.4162   ZZ=    -5.8554
   Eigenvalues:   -12.3682     9.3540    15.5495
     75  Bq   Isotropic =     3.0967   Anisotropy =    15.3342
   XX=     6.1432   YX=    -0.2218   ZX=    -2.1245
   XY=    -2.7915   YY=    -2.9745   ZY=    -2.3424
   XZ=    -9.5742   YZ=   -12.5766   ZZ=     6.1214
   Eigenvalues:    -8.4485     4.4192    13.3195
     76  Bq   Isotropic =     4.2302   Anisotropy =    18.0607
   XX=    16.0935   YX=    -1.8945   ZX=     1.5937
   XY=    -0.3048   YY=     3.8646   ZY=    -7.9597
   XZ=    -0.9722   YZ=   -10.8362   ZZ=    -7.2676
   Eigenvalues:   -12.6267     9.0466    16.2706
     77  Bq   Isotropic =     2.8911   Anisotropy =    15.6187
   XX=     5.0071   YX=    -0.2522   ZX=    -2.3551
   XY=    -2.9025   YY=    -3.4112   ZY=    -1.5581
   XZ=    -9.8011   YZ=   -11.5434   ZZ=     7.0773
   Eigenvalues:    -7.9623     3.3320    13.3035
     78  Bq   Isotropic =     4.2802   Anisotropy =    18.4567
   XX=    16.3805   YX=    -2.0848   ZX=     1.6461
   XY=     0.1345   YY=     4.8142   ZY=    -8.2969
   XZ=    -0.0480   YZ=    -8.9784   ZZ=    -8.3542
   Eigenvalues:   -12.6338     8.8897    16.5846
     79  Bq   Isotropic =     3.8864   Anisotropy =    13.5259
   XX=    11.7941   YX=    -0.5484   ZX=    -0.1890
   XY=    -1.7035   YY=     0.1677   ZY=    -5.6390
   XZ=    -6.1196   YZ=   -14.7832   ZZ=    -0.3028
   Eigenvalues:   -10.6948     9.4502    12.9036
     80  Bq   Isotropic =     5.3750   Anisotropy =    13.8838
   XX=    12.1630   YX=    -0.3780   ZX=    -0.5301
   XY=    -1.9697   YY=    -0.0818   ZY=    -3.5622
   XZ=    -7.7669   YZ=   -14.6876   ZZ=     4.0439
   Eigenvalues:    -7.9943     9.4884    14.6309
     81  Bq   Isotropic =     5.9606   Anisotropy =    15.1806
   XX=    15.8254   YX=    -0.9824   ZX=     0.8733
   XY=    -1.1215   YY=     1.8451   ZY=    -4.6188
   XZ=    -4.8865   YZ=   -14.0899   ZZ=     0.2114
   Eigenvalues:    -8.5585    10.3593    16.0810
     82  Bq   Isotropic =     4.9935   Anisotropy =    14.5777
   XX=    10.3214   YX=    -0.2666   ZX=    -1.1546
   XY=    -2.3827   YY=    -1.0491   ZY=    -2.9094
   XZ=    -8.8871   YZ=   -14.2783   ZZ=     5.7083
   Eigenvalues:    -7.7832     8.0517    14.7120
     83  Bq   Isotropic =     6.1316   Anisotropy =    17.0661
   XX=    17.4192   YX=    -1.4758   ZX=     1.4873
   XY=    -0.7629   YY=     2.6643   ZY=    -5.0656
   XZ=    -3.3893   YZ=   -12.9969   ZZ=    -1.6888
   Eigenvalues:    -8.8809     9.7667    17.5090
     84  Bq   Isotropic =     4.5912   Anisotropy =    15.3778
   XX=     8.5938   YX=    -0.2433   ZX=    -1.6631
   XY=    -2.7332   YY=    -1.9114   ZY=    -2.1990
   XZ=    -9.7020   YZ=   -13.5286   ZZ=     7.0912
   Eigenvalues:    -7.5915     6.5221    14.8431
     85  Bq   Isotropic =     6.2320   Anisotropy =    18.8849
   XX=    18.7006   YX=    -2.0271   ZX=     1.9180
   XY=    -0.4578   YY=     3.3779   ZY=    -5.5302
   XZ=    -2.0570   YZ=   -11.4274   ZZ=    -3.3824
   Eigenvalues:    -9.1505     9.0246    18.8220
     86  Bq   Isotropic =     4.1949   Anisotropy =    16.0155
   XX=     7.0370   YX=    -0.2723   ZX=    -2.0428
   XY=    -2.9957   YY=    -2.6162   ZY=    -1.4735
   XZ=   -10.2075   YZ=   -12.5555   ZZ=     8.1639
   Eigenvalues:    -7.3888     5.1016    14.8719
     87  Bq   Isotropic =     6.2926   Anisotropy =    20.2019
   XX=    19.5724   YX=    -2.5291   ZX=     2.1044
   XY=    -0.1629   YY=     4.0705   ZY=    -6.0518
   XZ=    -0.9872   YZ=    -9.4971   ZZ=    -4.7651
   Eigenvalues:    -9.2906     8.4079    19.7605
     88  Bq   Isotropic =     3.8231   Anisotropy =    16.4097
   XX=     5.6792   YX=    -0.3249   ZX=    -2.3002
   XY=    -3.1613   YY=    -3.1433   ZY=    -0.7757
   XZ=   -10.4350   YZ=   -11.4663   ZZ=     8.9334
   Eigenvalues:    -7.1547     3.8611    14.7629
     89  Bq   Isotropic =     6.3438   Anisotropy =    20.7593
   XX=    19.9633   YX=    -2.8598   ZX=     2.0471
   XY=     0.1944   YY=     4.8689   ZY=    -6.6045
   XZ=    -0.1795   YZ=    -7.3445   ZZ=    -5.8007
   Eigenvalues:    -9.2489     8.0970    20.1833
     90  Bq   Isotropic =     5.7056   Anisotropy =    13.9300
   XX=    14.0336   YX=    -0.6108   ZX=     0.1696
   XY=    -1.5344   YY=     0.9112   ZY=    -4.1308
   XZ=    -6.3964   YZ=   -14.6490   ZZ=     2.1719
   Eigenvalues:    -8.2515    10.3761    14.9922
     91  Bq   Isotropic =     7.3802   Anisotropy =    13.9310
   XX=    14.2597   YX=    -0.4186   ZX=    -0.2669
   XY=    -1.9485   YY=     0.9589   ZY=    -1.6997
   XZ=    -8.2165   YZ=   -14.1988   ZZ=     6.9219
   Eigenvalues:    -5.1551    10.6281    16.6675
     92  Bq   Isotropic =     8.2770   Anisotropy =    16.1193
   XX=    18.8191   YX=    -1.2028   ZX=     1.4026
   XY=    -0.9690   YY=     2.7970   ZY=    -1.9766
   XZ=    -4.9544   YZ=   -13.0772   ZZ=     3.2149
   Eigenvalues:    -4.6969    10.5047    19.0232
     93  Bq   Isotropic =     6.7687   Anisotropy =    14.7650
   XX=    11.9903   YX=    -0.2941   ZX=    -0.9878
   XY=    -2.4619   YY=    -0.1266   ZY=    -1.3592
   XZ=    -9.4691   YZ=   -13.8941   ZZ=     8.4422
   Eigenvalues:    -5.4699     9.1639    16.6120
     94  Bq   Isotropic =     8.4913   Anisotropy =    18.6111
   XX=    20.8077   YX=    -1.8900   ZX=     2.1409
   XY=    -0.6337   YY=     3.3194   ZY=    -2.0654
   XZ=    -3.2878   YZ=   -11.5476   ZZ=     1.3469
   Eigenvalues:    -4.6069     9.1822    20.8987
     95  Bq   Isotropic =     6.1229   Anisotropy =    15.8368
   XX=     9.8841   YX=    -0.2823   ZX=    -1.5618
   XY=    -2.9047   YY=    -1.1439   ZY=    -0.8936
   XZ=   -10.3613   YZ=   -13.1832   ZZ=     9.6284
   Eigenvalues:    -5.7619     7.4499    16.6807
     96  Bq   Isotropic =     8.5691   Anisotropy =    20.9934
   XX=    22.4013   YX=    -2.6896   ZX=     2.6380
   XY=    -0.4259   YY=     3.5825   ZY=    -2.3255
   XZ=    -1.8777   YZ=    -9.4779   ZZ=    -0.2765
   Eigenvalues:    -4.5698     7.7124    22.5647
     97  Bq   Isotropic =     5.4918   Anisotropy =    16.6969
   XX=     8.0092   YX=    -0.3327   ZX=    -1.9812
   XY=    -3.2397   YY=    -2.0031   ZY=    -0.3554
   XZ=   -10.8957   YZ=   -12.2117   ZZ=    10.4693
   Eigenvalues:    -5.9766     5.8288    16.6231
     98  Bq   Isotropic =     8.5791   Anisotropy =    22.7450
   XX=    23.4834   YX=    -3.4469   ZX=     2.7967
   XY=    -0.2761   YY=     3.7763   ZY=    -2.8964
   XZ=    -0.8592   YZ=    -7.0763   ZZ=    -1.5223
   Eigenvalues:    -4.5200     6.5149    23.7425
     99  Bq   Isotropic =     4.9080   Anisotropy =    17.2281
   XX=     6.3959   YX=    -0.4069   ZX=    -2.2602
   XY=    -3.4541   YY=    -2.6636   ZY=     0.1981
   XZ=   -11.1159   YZ=   -11.1075   ZZ=    10.9916
   Eigenvalues:    -6.0837     4.4142    16.3934
    100  Bq   Isotropic =     8.5983   Anisotropy =    23.5212
   XX=    23.9758   YX=    -3.9736   ZX=     2.6084
   XY=    -0.0572   YY=     4.1877   ZY=    -3.7865
   XZ=    -0.2174   YZ=    -4.5821   ZZ=    -2.3685
   Eigenvalues:    -4.4072     5.9230    24.2791
    101  Bq   Isotropic =     7.8997   Anisotropy =    14.2821
   XX=    16.5836   YX=    -0.7093   ZX=     0.5585
   XY=    -1.4264   YY=     1.9805   ZY=    -1.8928
   XZ=    -6.6651   YZ=   -13.9583   ZZ=     5.1351
   Eigenvalues:    -4.8816    11.1596    17.4211
    102  Bq   Isotropic =     9.6885   Anisotropy =    13.8249
   XX=    16.4658   YX=    -0.4924   ZX=    -0.0114
   XY=    -2.0537   YY=     2.4684   ZY=     0.6721
   XZ=    -8.6913   YZ=   -13.2035   ZZ=    10.1313
   Eigenvalues:    -1.6454    11.8057    18.9051
    103  Bq   Isotropic =    10.8512   Anisotropy =    16.8437
   XX=    21.9045   YX=    -1.5254   ZX=     2.0261
   XY=    -1.0338   YY=     4.0866   ZY=     1.6462
   XZ=    -4.9114   YZ=   -11.3226   ZZ=     6.5626
   Eigenvalues:     0.1652    10.3082    22.0804
    104  Bq   Isotropic =     8.8134   Anisotropy =    14.8739
   XX=    13.7431   YX=    -0.3458   ZX=    -0.8468
   XY=    -2.6427   YY=     1.2259   ZY=     0.5542
   XZ=   -10.1010   YZ=   -13.0655   ZZ=    11.4712
   Eigenvalues:    -2.6294    10.3403    18.7294
    105  Bq   Isotropic =    10.9979   Anisotropy =    20.0303
   XX=    24.2136   YX=    -2.4885   ZX=     2.9654
   XY=    -0.8093   YY=     4.0490   ZY=     2.2006
   XZ=    -2.9778   YZ=    -9.1613   ZZ=     4.7312
   Eigenvalues:     0.8284     7.8140    24.3515
    106  Bq   Isotropic =     7.8780   Anisotropy =    16.2847
   XX=    11.2293   YX=    -0.3417   ZX=    -1.4899
   XY=    -3.1577   YY=    -0.0054   ZY=     0.6757
   XZ=   -11.0755   YZ=   -12.4425   ZZ=    12.4100
   Eigenvalues:    -3.5261     8.4255    18.7344
    107  Bq   Isotropic =    10.8944   Anisotropy =    23.1040
   XX=    26.0059   YX=    -3.6520   ZX=     3.5960
   XY=    -0.8170   YY=     3.4494   ZY=     2.3674
   XZ=    -1.4095   YZ=    -6.3727   ZZ=     3.2278
   Eigenvalues:     1.3093     5.0768    26.2970
    108  Bq   Isotropic =     6.9646   Anisotropy =    17.4036
   XX=     9.0109   YX=    -0.4105   ZX=    -1.9449
   XY=    -3.5472   YY=    -1.0807   ZY=     0.9586
   XZ=   -11.6334   YZ=   -11.5178   ZZ=    12.9636
   Eigenvalues:    -4.2562     6.5830    18.5670
    109  Bq   Isotropic =    10.6988   Anisotropy =    25.4033
   XX=    27.1844   YX=    -4.7883   ZX=     3.7542
   XY=    -0.9374   YY=     2.6640   ZY=     1.8054
   XZ=    -0.4156   YZ=    -3.3235   ZZ=     2.2478
   Eigenvalues:     1.6599     2.8020    27.6343
    110  Bq   Isotropic =     6.1261   Anisotropy =    18.0852
   XX=     7.1220   YX=    -0.5033   ZX=    -2.2384
   XY=    -3.7946   YY=    -1.9305   ZY=     1.3196
   XZ=   -11.8371   YZ=   -10.4431   ZZ=    13.1869
   Eigenvalues:    -4.7819     4.9774    18.1829
    111  Bq   Isotropic =    10.6024   Anisotropy =    26.4562
   XX=    27.7164   YX=    -5.5995   ZX=     3.4048
   XY=    -0.9446   YY=     2.2937   ZY=     0.4148
   XZ=     0.0182   YZ=    -0.4315   ZZ=     1.7972
   Eigenvalues:     1.5562     2.0111    28.2399
    112  Bq   Isotropic =    10.4000   Anisotropy =    14.4265
   XX=    19.2516   YX=    -0.8629   ZX=     0.9791
   XY=    -1.4799   YY=     3.5039   ZY=     1.0610
   XZ=    -6.9058   YZ=   -12.6681   ZZ=     8.4444
   Eigenvalues:    -0.6799    11.8622    20.0176
    113  Bq   Isotropic =    12.2145   Anisotropy =    13.5523
   XX=    18.5751   YX=    -0.6024   ZX=     0.2132
   XY=    -2.3554   YY=     4.5526   ZY=     3.3623
   XZ=    -9.2007   YZ=   -11.7345   ZZ=    13.5157
   Eigenvalues:     2.3016    13.0925    21.2493
    114  Bq   Isotropic =    13.4665   Anisotropy =    16.9839
   XX=    24.5828   YX=    -1.9564   ZX=     2.7393
   XY=    -1.4657   YY=     5.8452   ZY=     6.1193
   XZ=    -4.7308   YZ=    -8.8514   ZZ=     9.9713
   Eigenvalues:     5.2419    10.3684    24.7891
    115  Bq   Isotropic =    11.0627   Anisotropy =    14.9894
   XX=    15.4427   YX=    -0.4271   ZX=    -0.7506
   XY=    -2.9723   YY=     3.0782   ZY=     2.6632
   XZ=   -10.7882   YZ=   -11.8144   ZZ=    14.6673
   Eigenvalues:     0.5725    11.5601    21.0556
    116  Bq   Isotropic =    13.2818   Anisotropy =    20.8283
   XX=    26.8814   YX=    -3.3013   ZX=     3.9887
   XY=    -1.5104   YY=     4.8893   ZY=     7.7148
   XZ=    -2.3740   YZ=    -5.8229   ZZ=     8.0746
   Eigenvalues:     4.3446     8.3334    27.1673
    117  Bq   Isotropic =     9.8031   Anisotropy =    16.7976
   XX=    12.5362   YX=    -0.4272   ZX=    -1.4602
   XY=    -3.5216   YY=     1.5473   ZY=     2.3743
   XZ=   -11.8433   YZ=   -11.3178   ZZ=    15.3258
   Eigenvalues:    -1.0068     9.4146    21.0015
    118  Bq   Isotropic =    12.6287   Anisotropy =    24.6316
   XX=    28.4519   YX=    -4.9941   ZX=     4.8604
   XY=    -1.9469   YY=     2.8010   ZY=     8.6672
   XZ=    -0.4857   YZ=    -2.0307   ZZ=     6.6331
   Eigenvalues:     0.2886     8.5476    29.0498
    119  Bq   Isotropic =     8.5692   Anisotropy =    18.1809
   XX=     9.9778   YX=    -0.5105   ZX=    -1.9417
   XY=    -3.9349   YY=     0.1786   ZY=     2.3652
   XZ=   -12.4143   YZ=   -10.4785   ZZ=    15.5512
   Eigenvalues:    -2.3188     7.3366    20.6898
    120  Bq   Isotropic =    11.8635   Anisotropy =    27.5468
   XX=    29.3336   YX=    -6.7018   ZX=     5.0704
   XY=    -2.5598   YY=     0.2680   ZY=     8.2556
   XZ=     0.5876   YZ=     1.9082   ZZ=     5.9889
   Eigenvalues:    -3.5971     8.9596    30.2280
    121  Bq   Isotropic =     7.4416   Anisotropy =    19.0006
   XX=     7.8136   YX=    -0.6173   ZX=    -2.2390
   XY=    -4.1906   YY=    -0.9255   ZY=     2.5112
   XZ=   -12.5900   YZ=    -9.4746   ZZ=    15.4366
   Eigenvalues:    -3.3155     5.5316    20.1087
    122  Bq   Isotropic =    11.4538   Anisotropy =    28.9240
   XX=    29.6969   YX=    -7.9406   ZX=     4.5168
   XY=    -2.9348   YY=    -1.5102   ZY=     6.1683
   XZ=     0.8103   YZ=     5.2736   ZZ=     6.1746
   Eigenvalues:    -5.5970     9.2219    30.7364
    123  Bq   Isotropic =    13.0777   Anisotropy =    14.1461
   XX=    21.7185   YX=    -1.0729   ZX=     1.4106
   XY=    -1.7968   YY=     5.6193   ZY=     4.5447
   XZ=    -7.1208   YZ=   -10.8162   ZZ=    11.8952
   Eigenvalues:     3.9824    12.7421    22.5084
    124  Bq   Isotropic =    14.8311   Anisotropy =    13.2094
   XX=    20.3301   YX=    -0.7409   ZX=     0.3608
   XY=    -2.8970   YY=     7.2507   ZY=     6.0032
   XZ=    -9.7742   YZ=    -9.9019   ZZ=    16.9126
   Eigenvalues:     6.2908    14.5651    23.6374
    125  Bq   Isotropic =    15.7888   Anisotropy =    16.0484
[...]
   136  Bq   0.000000
   137  Bq   0.000000
   138  Bq   0.000000
   139  Bq   0.000000
   140  Bq   0.000000
   141  Bq   0.000000
   142  Bq   0.000000
   143  Bq   0.000000
   144  Bq   0.000000
   145  Bq   0.000000
   146  Bq   0.000000
   147  Bq   0.000000
   148  Bq   0.000000
   149  Bq   0.000000
   150  Bq   0.000000
   151  Bq   0.000000
   152  Bq   0.000000
   153  Bq   0.000000
   154  Bq   0.000000
   155  Bq   0.000000
   156  Bq   0.000000
   157  Bq   0.000000
   158  Bq   0.000000
   159  Bq   0.000000
   160  Bq   0.000000
   161  Bq   0.000000
   162  Bq   0.000000
   163  Bq   0.000000
   164  Bq   0.000000
   165  Bq   0.000000
   166  Bq   0.000000
   167  Bq   0.000000
   168  Bq   0.000000
   169  Bq   0.000000
   170  Bq   0.000000
   171  Bq   0.000000
   172  Bq   0.000000
   173  Bq   0.000000
   174  Bq   0.000000
   175  Bq   0.000000
   176  Bq   0.000000
   177  Bq   0.000000
   178  Bq   0.000000
   179  Bq   0.000000
   180  Bq   0.000000
   181  Bq   0.000000
   182  Bq   0.000000
   183  Bq   0.000000
   184  Bq   0.000000
   185  Bq   0.000000
   186  Bq   0.000000
   187  Bq   0.000000
   188  Bq   0.000000
   189  Bq   0.000000
   190  Bq   0.000000
   191  Bq   0.000000
   192  Bq   0.000000
   193  Bq   0.000000
   194  Bq   0.000000
   195  Bq   0.000000
   196  Bq   0.000000
   197  Bq   0.000000
   198  Bq   0.000000
   199  Bq   0.000000
   200  Bq   0.000000
   201  Bq   0.000000
   202  Bq   0.000000
   203  Bq   0.000000
   204  Bq   0.000000
   205  Bq   0.000000
   206  Bq   0.000000
   207  Bq   0.000000
   208  Bq   0.000000
   209  Bq   0.000000
   210  Bq   0.000000
   211  Bq   0.000000
   212  Bq   0.000000
   213  Bq   0.000000
   214  Bq   0.000000
   215  Bq   0.000000
   216  Bq   0.000000
   217  Bq   0.000000
   218  Bq   0.000000
   219  Bq   0.000000
   220  Bq   0.000000
   221  Bq   0.000000
   222  Bq   0.000000
   223  Bq   0.000000
   224  Bq   0.000000
   225  Bq   0.000000
   226  Bq   0.000000
   227  Bq   0.000000
   228  Bq   0.000000
   229  Bq   0.000000
   230  Bq   0.000000
   231  Bq   0.000000
   232  Bq   0.000000
   233  Bq   0.000000
   234  Bq   0.000000
   235  Bq   0.000000
   236  Bq   0.000000
 Sum of Mulliken charges =   0.00000
 Mulliken charges with hydrogens summed into heavy atoms:
               1
     1  C   -0.379265
     3  C    0.169409
     5  C    0.448258
     6  C    0.064351
     7  C   -0.333926
     9  C   -0.139521
    11  C   -0.205988
    13  C   -0.119315
    15  C    0.653397
    16  C    0.034822
    17  C   -0.317410
    19  C   -0.316854
    21  C    0.651066
    22  C    0.037784
    23  C   -0.117289
    25  C   -0.205316
    27  C    0.448331
    28  C    0.061983
    29  C   -0.333381
    31  C   -0.139505
    33  C   -0.255977
    35  C    0.170579
    37  Bq   0.000000
    38  Bq   0.000000
    39  Bq   0.000000
    40  Bq   0.000000
    41  Bq   0.000000
    42  Bq   0.000000
    43  Bq   0.000000
    44  Bq   0.000000
    45  Bq   0.000000
    46  Bq   0.000000
    47  Bq   0.000000
    48  Bq   0.000000
    49  Bq   0.000000
    50  Bq   0.000000
    51  Bq   0.000000
    52  Bq   0.000000
    53  Bq   0.000000
    54  Bq   0.000000
    55  Bq   0.000000
    56  Bq   0.000000
    57  Bq   0.000000
    58  Bq   0.000000
    59  Bq   0.000000
    60  Bq   0.000000
    61  Bq   0.000000
    62  Bq   0.000000
    63  Bq   0.000000
    64  Bq   0.000000
    65  Bq   0.000000
    66  Bq   0.000000
    67  Bq   0.000000
    68  Bq   0.000000
    69  Bq   0.000000
    70  Bq   0.000000
    71  Bq   0.000000
    72  Bq   0.000000
    73  Bq   0.000000
    74  Bq   0.000000
    75  Bq   0.000000
    76  Bq   0.000000
    77  Bq   0.000000
    78  Bq   0.000000
    79  Bq   0.000000
    80  Bq   0.000000
    81  Bq   0.000000
    82  Bq   0.000000
    83  Bq   0.000000
    84  Bq   0.000000
    85  Bq   0.000000
    86  Bq   0.000000
    87  Bq   0.000000
    88  Bq   0.000000
    89  Bq   0.000000
    90  Bq   0.000000
    91  Bq   0.000000
    92  Bq   0.000000
    93  Bq   0.000000
    94  Bq   0.000000
    95  Bq   0.000000
    96  Bq   0.000000
    97  Bq   0.000000
    98  Bq   0.000000
    99  Bq   0.000000
   100  Bq   0.000000
   101  Bq   0.000000
   102  Bq   0.000000
   103  Bq   0.000000
   104  Bq   0.000000
   105  Bq   0.000000
   106  Bq   0.000000
   107  Bq   0.000000
   108  Bq   0.000000
   109  Bq   0.000000
   110  Bq   0.000000
   111  Bq   0.000000
   112  Bq   0.000000
   113  Bq   0.000000
   114  Bq   0.000000
   115  Bq   0.000000
   116  Bq   0.000000
   117  Bq   0.000000
   118  Bq   0.000000
   119  Bq   0.000000
   120  Bq   0.000000
   121  Bq   0.000000
   122  Bq   0.000000
   123  Bq   0.000000
   124  Bq   0.000000
   125  Bq   0.000000
   126  Bq   0.000000
   127  Bq   0.000000
   128  Bq   0.000000
   129  Bq   0.000000
   130  Bq   0.000000
   131  Bq   0.000000
   132  Bq   0.000000
   133  Bq   0.123768
   134  Bq   0.000000
   135  Bq   0.000000
   136  Bq   0.000000
   137  Bq   0.000000
   138  Bq   0.000000
   139  Bq   0.000000
   140  Bq   0.000000
   141  Bq   0.000000
   142  Bq   0.000000
   143  Bq   0.000000
   144  Bq   0.000000
   145  Bq   0.000000
   146  Bq   0.000000
   147  Bq   0.000000
   148  Bq   0.000000
   149  Bq   0.000000
   150  Bq   0.000000
   151  Bq   0.000000
   152  Bq   0.000000
   153  Bq   0.000000
   154  Bq   0.000000
   155  Bq   0.000000
   156  Bq   0.000000
   157  Bq   0.000000
   158  Bq   0.000000
   159  Bq   0.000000
   160  Bq   0.000000
   161  Bq   0.000000
   162  Bq   0.000000
   163  Bq   0.000000
   164  Bq   0.000000
   165  Bq   0.000000
   166  Bq   0.000000
   167  Bq   0.000000
   168  Bq   0.000000
   169  Bq   0.000000
   170  Bq   0.000000
   171  Bq   0.000000
   172  Bq   0.000000
   173  Bq   0.000000
   174  Bq   0.000000
   175  Bq   0.000000
   176  Bq   0.000000
   177  Bq   0.000000
   178  Bq   0.000000
   179  Bq   0.000000
   180  Bq   0.000000
   181  Bq   0.000000
   182  Bq   0.000000
   183  Bq   0.000000
   184  Bq   0.000000
   185  Bq   0.000000
   186  Bq   0.000000
   187  Bq   0.000000
   188  Bq   0.000000
   189  Bq   0.000000
   190  Bq   0.000000
   191  Bq   0.000000
   192  Bq   0.000000
   193  Bq   0.000000
   194  Bq   0.000000
   195  Bq   0.000000
   196  Bq   0.000000
   197  Bq   0.000000
   198  Bq   0.000000
   199  Bq   0.000000
   200  Bq   0.000000
   201  Bq   0.000000
   202  Bq   0.000000
   203  Bq   0.000000
   204  Bq   0.000000
   205  Bq   0.000000
   206  Bq   0.000000
   207  Bq   0.000000
   208  Bq   0.000000
   209  Bq   0.000000
   210  Bq   0.000000
   211  Bq   0.000000
   212  Bq   0.000000
   213  Bq   0.000000
   214  Bq   0.000000
   215  Bq   0.000000
   216  Bq   0.000000
   217  Bq   0.000000
   218  Bq   0.000000
   219  Bq   0.000000
   220  Bq   0.000000
   221  Bq   0.000000
   222  Bq   0.000000
   223  Bq   0.000000
   224  Bq   0.000000
   225  Bq   0.000000
   226  Bq   0.000000
   227  Bq   0.000000
   228  Bq   0.000000
   229  Bq   0.000000
   230  Bq   0.000000
   231  Bq   0.000000
   232  Bq   0.000000
   233  Bq   0.000000
   234  Bq   0.000000
   235  Bq   0.000000
   236  Bq   0.000000
 Electronic spatial extent (au):  <R**2>=           5736.9264
 Charge=              0.0000 electrons
 Dipole moment (field-independent basis, Debye):
    X=              0.0475    Y=              0.0856    Z=              0.0029  Tot=              0.0979
 Quadrupole moment (field-independent basis, Debye-Ang):
   XX=           -113.7056   YY=           -113.9456   ZZ=           -133.2669
   XY=             -0.3834   XZ=              3.2102   YZ=             -1.1839
 Traceless Quadrupole moment (field-independent basis, Debye-Ang):
   XX=              6.6005   YY=              6.3604   ZZ=            -12.9609
   XY=             -0.3834   XZ=              3.2102   YZ=             -1.1839
 Octapole moment (field-independent basis, Debye-Ang**2):
  XXX=            -16.4668  YYY=            -16.1860  ZZZ=             -1.7007  XYY=              2.5576
  XXY=             -6.5650  XXZ=             13.6547  XZZ=             -8.9478  YZZ=            -17.7168
  YYZ=            -13.2941  XYZ=              8.8036
 Hexadecapole moment (field-independent basis, Debye-Ang**3):
 XXXX=          -3951.1638 YYYY=          -3112.2161 ZZZZ=           -504.8311 XXXY=            340.6935
 XXXZ=            156.4968 YYYX=            335.5625 YYYZ=            -87.0893 ZZZX=            120.2262
 ZZZY=           -108.7373 XXYY=          -1176.4844 XXZZ=           -856.7291 YYZZ=           -665.7275
 XXYZ=            -68.9016 YYXZ=             48.1602 ZZXY=            153.0375
 N-N= 1.610917615562D+03 E-N=-5.186891130729D+03  KE= 8.436329774449D+02
 1\1\GINC-PLANA\SP\RB3LYP\6-311+G(d,p)\C22H14\YANNICK\23-Aug-2020\0\\# 
 rb3lyp/6-311+g** NMR geom=connectivity\\Title\\0,1\C,0,-4.0500558,-0.5
 771862,0.8136712\H,0,-5.0263804,-1.0082727,1.002476\C,0,-3.9381552,0.6
 617804,0.2400876\H,0,-4.8252424,1.233889,-0.0111295\C,0,-2.676841,1.24
 33246,0.0057578\C,0,-1.4974121,0.5051527,0.2848253\C,0,-1.6508332,-0.7
 338728,0.9404026\H,0,-0.7713646,-1.2730967,1.2633753\C,0,-2.8898548,-1
 .2624035,1.1994307\H,0,-2.9683706,-2.2124563,1.7152676\C,0,-2.5773185,
 2.5963696,-0.419293\H,0,-3.4870728,3.1412239,-0.6474055\C,0,-1.3741895
 ,3.2147896,-0.436403\H,0,-1.2997315,4.2742019,-0.6578144\C,0,-0.171948
 8,2.499409,-0.1734588\C,0,-0.2043917,1.1018437,0.0192689\C,0,1.0513491
 ,3.204256,-0.0676222\H,0,1.0427344,4.2819499,-0.1896997\C,0,2.1942091,
 2.5487446,0.2579577\H,0,3.1168527,3.0912848,0.4334727\C,0,2.2216473,1.
 1336562,0.293499\C,0,1.0486931,0.3945528,0.0302412\C,0,3.4483363,0.461
 4633,0.5573939\H,0,4.3095794,1.0606054,0.8334846\C,0,3.5427346,-0.8855
 926,0.4749463\H,0,4.4731467,-1.3939704,0.7038822\C,0,2.4490052,-1.6474
 447,-0.0196319\C,0,1.2150704,-1.0057258,-0.3013573\C,0,0.2531113,-1.74
 3444,-1.0216591\H,0,-0.6541356,-1.2535051,-1.3462847\C,0,0.4494193,-3.
 0628597,-1.3413779\H,0,-0.3083162,-3.5944309,-1.905406\C,0,1.6251726,-
 3.7207967,-0.9552541\H,0,1.7670048,-4.7687404,-1.1927019\C,0,2.6109872
 ,-3.0144177,-0.318305\H,0,3.5525612,-3.4902813,-0.0646367\Bq,0,-4.0885
 123343,-1.5642463927,1.7619535426\Bq,0,-4.089574321,-1.4337982417,2.03
 21056332\Bq,0,-4.0881583387,-1.6077291097,1.6719028457\Bq,0,-4.0899283
 166,-1.3903155247,2.1221563301\Bq,0,-4.0878043432,-1.6512118267,1.5818
 521488\Bq,0,-4.0902823122,-1.3468328077,2.212207027\Bq,0,-4.0874503476
 ,-1.6946945437,1.4918014519\Bq,0,-4.0906363078,-1.3033500907,2.3022577
 239\Bq,0,-4.087096352,-1.7381772607,1.401750755\Bq,0,-4.0888663299,-1.
 5207636757,1.8520042394\Bq,0,-4.0890493932,-1.387229566,1.8985725553\B
 q,0,-4.088341402,-1.4741950001,1.7184711615\Bq,0,-4.0894033888,-1.3437
 46849,1.9886232522\Bq,0,-4.0879874065,-1.5176777171,1.6284204647\Bq,0,
 -4.0897573843,-1.300264132,2.0786739491\Bq,0,-4.0876334109,-1.56116043
 41,1.5383697678\Bq,0,-4.0901113799,-1.256781415,2.1687246459\Bq,0,-4.0
 872794153,-1.6046431511,1.4483190709\Bq,0,-4.0904653755,-1.213298698,2
 .2587753428\Bq,0,-4.0869254197,-1.6481258681,1.358268374\Bq,0,-4.08869
 53976,-1.430712283,1.8085218584\Bq,0,-4.0888784609,-1.2971781734,1.855
 0901743\Bq,0,-4.0881704698,-1.3841436074,1.6749887805\Bq,0,-4.08923245
 65,-1.2536954564,1.9451408711\Bq,0,-4.0878164742,-1.4276263244,1.58493
 80836\Bq,0,-4.0895864521,-1.2102127394,2.035191568\Bq,0,-4.0874624786,
 -1.4711090414,1.4948873867\Bq,0,-4.0899404476,-1.1667300224,2.12524226
 49\Bq,0,-4.087108483,-1.5145917584,1.4048366899\Bq,0,-4.0902944432,-1.
 1232473054,2.2152929618\Bq,0,-4.0867544875,-1.5580744754,1.314785993\B
 q,0,-4.0885244653,-1.3406608904,1.7650394774\Bq,0,-4.0887075286,-1.207
 1267807,1.8116077932\Bq,0,-4.0879995375,-1.2940922147,1.6315063995\Bq,
 0,-4.0890615242,-1.1636440637,1.9016584901\Bq,0,-4.0876455419,-1.33757
 49317,1.5414557026\Bq,0,-4.0894155198,-1.1201613467,1.991709187\Bq,0,-
 4.0872915463,-1.3810576487,1.4514050057\Bq,0,-4.0897695154,-1.07667862
 97,2.0817598839\Bq,0,-4.0869375508,-1.4245403657,1.3613543088\Bq,0,-4.
 0901235109,-1.0331959127,2.1718105808\Bq,0,-4.0865835552,-1.4680230827
 ,1.2713036119\Bq,0,-4.0883535331,-1.2506094977,1.7215570964\Bq,0,-4.08
 85365964,-1.117075388,1.7681254122\Bq,0,-4.0878286052,-1.204040822,1.5
 880240184\Bq,0,-4.0888905919,-1.073592671,1.8581761091\Bq,0,-4.0874746
 096,-1.247523539,1.4979733216\Bq,0,-4.0892445875,-1.030109954,1.948226
 806\Bq,0,-4.0871206141,-1.291006256,1.4079226247\Bq,0,-4.0895985831,-0
 .986627237,2.0382775028\Bq,0,-4.0867666185,-1.3344889731,1.3178719278\
 Bq,0,-4.0899525787,-0.94314452,2.1283281997\Bq,0,-4.0864126229,-1.3779
 716901,1.2278212309\Bq,0,-4.0881826008,-1.160558105,1.6780747153\Bq,0,
 -4.0883656641,-1.0270239954,1.7246430312\Bq,0,-4.0876576729,-1.1139894
 294,1.5445416374\Bq,0,-4.0887196597,-0.9835412784,1.8146937281\Bq,0,-4
 .0873036774,-1.1574721464,1.4544909405\Bq,0,-4.0890736552,-0.940058561
 4,1.9047444249\Bq,0,-4.0869496818,-1.2009548634,1.3644402436\Bq,0,-4.0
 894276508,-0.8965758443,1.9947951218\Bq,0,-4.0865956862,-1.2444375804,
 1.2743895468\Bq,0,-4.0897816464,-0.8530931273,2.0848458187\Bq,0,-4.086
 2416906,-1.2879202974,1.1843388499\Bq,0,-4.0880116685,-1.0705067124,1.
 6345923343\Bq,0,-4.0881947318,-0.9369726027,1.6811606501\Bq,0,-4.08748
 67407,-1.0239380367,1.5010592564\Bq,0,-4.0885487274,-0.8934898857,1.77
 1211347\Bq,0,-4.0871327451,-1.0674207537,1.4110085595\Bq,0,-4.08890272
 3,-0.8500071687,1.8612620439\Bq,0,-4.0867787495,-1.1109034707,1.320957
 8626\Bq,0,-4.0892567185,-0.8065244517,1.9513127408\Bq,0,-4.0864247539,
 -1.1543861877,1.2309071657\Bq,0,-4.0896107141,-0.7630417347,2.04136343
 77\Bq,0,-4.0860707584,-1.1978689047,1.1408564688\Bq,0,-4.0878407362,-0
 .9804553197,1.5911099533\Bq,0,-4.0880237995,-0.84692121,1.6376782691\B
 q,0,-4.0873158084,-0.933886644,1.4575768753\Bq,0,-4.0883777951,-0.8034
 38493,1.727728966\Bq,0,-4.0869618128,-0.977369361,1.3675261785\Bq,0,-4
 .0887317907,-0.759955776,1.8177796629\Bq,0,-4.0866078172,-1.020852078,
 1.2774754816\Bq,0,-4.0890857863,-0.716473059,1.9078303598\Bq,0,-4.0862
 538217,-1.064334795,1.1874247847\Bq,0,-4.0894397818,-0.672990342,1.997
 8810566\Bq,0,-4.0858998261,-1.107817512,1.0973740878\Bq,0,-4.087669804
 ,-0.890403927,1.5476275722\Bq,0,-4.0878528673,-0.7568698173,1.59419588
 81\Bq,0,-4.0871448761,-0.8438352514,1.4140944943\Bq,0,-4.0882068628,-0
 .7133871003,1.684246585\Bq,0,-4.0867908805,-0.8873179684,1.3240437974\
 Bq,0,-4.0885608584,-0.6699043833,1.7742972818\Bq,0,-4.086436885,-0.930
 8006854,1.2339931005\Bq,0,-4.088914854,-0.6264216663,1.8643479787\Bq,0
 ,-4.0860828894,-0.9742834024,1.1439424037\Bq,0,-4.0892688496,-0.582938
 9493,1.9543986756\Bq,0,-4.0857288938,-1.0177661194,1.0538917068\Bq,0,-
 4.0874988717,-0.8003525344,1.5041451912\Bq,0,-4.087681935,-0.666818424
 7,1.550713507\Bq,0,-4.0869739438,-0.7537838587,1.3706121133\Bq,0,-4.08
 80359306,-0.6233357077,1.6407642039\Bq,0,-4.0866199483,-0.7972665757,1
 .2805614164\Bq,0,-4.0883899261,-0.5798529907,1.7308149008\Bq,0,-4.0862
 659527,-0.8407492927,1.1905107195\Bq,0,-4.0887439217,-0.5363702737,1.8
 208655977\Bq,0,-4.0859119571,-0.8842320097,1.1004600226\Bq,0,-4.089097
 9173,-0.4928875567,1.9109162946\Bq,0,-4.0855579615,-0.9277147267,1.010
 4093257\Bq,0,-4.0873279394,-0.7103011417,1.4606628102\Bq,0,-4.08751100
 27,-0.576767032,1.507231126\Bq,0,-4.0868030116,-0.663732466,1.32712973
 22\Bq,0,-4.0878649983,-0.533284315,1.5972818229\Bq,0,-4.086449016,-0.7
 07215183,1.2370790354\Bq,0,-4.0882189939,-0.489801598,1.6873325198\Bq,
 0,-4.0860950204,-0.7506979,1.1470283385\Bq,0,-4.0885729894,-0.44631888
 1,1.7773832167\Bq,0,-4.0857410248,-0.794180617,1.0569776416\Bq,0,-4.08
 8926985,-0.402836164,1.8674339135\Bq,0,-4.0853870293,-0.837663334,0.96
 69269447\Bq,0,-4.0871570071,-0.620249749,1.4171804291\Bq,0,-4.08734007
 04,-0.4867156393,1.463748745\Bq,0,-4.0866320793,-0.5736810733,1.283647
 3512\Bq,0,-4.087694066,-0.4432329223,1.5537994419\Bq,0,-4.0862780837,-
 0.6171637904,1.1935966543\Bq,0,-4.0880480616,-0.3997502053,1.643850138
 7\Bq,0,-4.0859240881,-0.6606465074,1.1035459574\Bq,0,-4.0884020572,-0.
 3562674883,1.7339008356\Bq,0,-4.0855700926,-0.7041292244,1.0134952606\
 Bq,0,-4.0887560527,-0.3127847713,1.8239515325\Bq,0,-4.085216097,-0.747
 6119414,0.9234445637\Bq,0,-4.0869860749,-0.5301983563,1.3736980481\Bq,
 0,-4.0871691382,-0.3966642467,1.4202663639\Bq,0,-4.086461147,-0.483629
 6807,1.2401649702\Bq,0,-4.0875231337,-0.3531815297,1.5103170608\Bq,0,-
 4.0861071514,-0.5271123977,1.1501142733\Bq,0,-4.0878771293,-0.30969881
 27,1.6003677577\Bq,0,-4.0857531559,-0.5705951147,1.0600635764\Bq,0,-4.
 0882311249,-0.2662160957,1.6904184546\Bq,0,-4.0853991603,-0.6140778317
 ,0.9700128795\Bq,0,-4.0885851205,-0.2227333786,1.7804691515\Bq,0,-4.08
 50451647,-0.6575605487,0.8799621826\Bq,0,-4.0868151426,-0.4401469637,1
 .3302156671\Bq,0,-4.0869982059,-0.306612854,1.3767839829\Bq,0,-4.08629
 02147,-0.393578288,1.1966825891\Bq,0,-4.0873522015,-0.263130137,1.4668
 346798\Bq,0,-4.0859362192,-0.437061005,1.1066318923\Bq,0,-4.087706197,
 -0.21964742,1.5568853767\Bq,0,-4.0855822236,-0.480543722,1.0165811954\
 Bq,0,-4.0880601926,-0.176164703,1.6469360736\Bq,0,-4.085228228,-0.5240
 26439,0.9265304985\Bq,0,-4.0884141882,-0.132681986,1.7369867704\Bq,0,-
 4.0848742324,-0.567509156,0.8364798016\Bq,0,-4.0866442103,-0.350095571
 ,1.286733286\Bq,0,-4.0868272736,-0.2165614613,1.3333016019\Bq,0,-4.086
 1192825,-0.3035268953,1.1532002081\Bq,0,-4.0871812692,-0.1730787443,1.
 4233522988\Bq,0,-4.0857652869,-0.3470096123,1.0631495112\Bq,0,-4.08753
 52648,-0.1295960273,1.5134029956\Bq,0,-4.0854112913,-0.3904923293,0.97
 30988143\Bq,0,-4.0878892603,-0.0861133103,1.6034536925\Bq,0,-4.0850572
 957,-0.4339750463,0.8830481175\Bq,0,-4.0882432559,-0.0426305933,1.6935
 043894\Bq,0,-4.0847033002,-0.4774577634,0.7929974206\Bq,0,-4.086473278
 ,-0.2600441783,1.243250905\Bq,0,-4.0866563413,-0.1265100687,1.28981922
 08\Bq,0,-4.0859483502,-0.2134755027,1.1097178271\Bq,0,-4.0870103369,-0
 .0830273517,1.3798699177\Bq,0,-4.0855943546,-0.2569582197,1.0196671302
 \Bq,0,-4.0873643325,-0.0395446346,1.4699206146\Bq,0,-4.085240359,-0.30
 04409367,0.9296164333\Bq,0,-4.0877183281,0.0039380824,1.5599713115\Bq,
 0,-4.0848863635,-0.3439236537,0.8395657364\Bq,0,-4.0880723236,0.047420
 7994,1.6500220084\Bq,0,-4.0845323679,-0.3874063707,0.7495150395\Bq,0,-
 4.0863023458,-0.1699927857,1.199768524\Bq,0,-4.0864854091,-0.036458676
 ,1.2463368398\Bq,0,-4.0857774179,-0.12342411,1.066235446\Bq,0,-4.08683
 94046,0.007024041,1.3363875367\Bq,0,-4.0854234223,-0.166906827,0.97618
 47492\Bq,0,-4.0871934002,0.050506758,1.4264382336\Bq,0,-4.0850694268,-
 0.210389544,0.8861340523\Bq,0,-4.0875473958,0.093989475,1.5164889305\B
 q,0,-4.0847154312,-0.253872261,0.7960833554\Bq,0,-4.0879013914,0.13747
 2192,1.6065396273\Bq,0,-4.0843614356,-0.297354978,0.7060326585\Bq,0,-4
 .0861314135,-0.079941393,1.1562861429\Bq,0,-4.0863144768,0.0535927167,
 1.2028544588\Bq,0,-4.0856064856,-0.0333727173,1.022753065\Bq,0,-4.0866
 684724,0.0970754337,1.2929051557\Bq,0,-4.0852524901,-0.0768554343,0.93
 27023681\Bq,0,-4.0870224679,0.1405581507,1.3829558525\Bq,0,-4.08489849
 45,-0.1203381513,0.8426516712\Bq,0,-4.0873764635,0.1840408677,1.473006
 5494\Bq,0,-4.0845444989,-0.1638208683,0.7526009744\Bq,0,-4.0877304591,
 0.2275235847,1.5630572463\Bq,0,-4.0841905033,-0.2073035853,0.662550277
 5\Bq,0,-4.0859604812,0.0101099997,1.1128037619\Bq,0,-4.0861435445,0.14
 36441094,1.1593720777\Bq,0,-4.0854355534,0.0566786753,0.979270684\Bq,0
 ,-4.0864975401,0.1871268264,1.2494227746\\Version=ES64L-G09RevD.01\HF=
 -847.0032898\RMSD=7.589e-09\Dipole=0.0186808,0.0336671,0.0011595\Quadr
 upole=4.9072795,4.7288219,-9.6361014,-0.2850201,2.3867064,-0.880172\PG
 =C01 [X(C22H14)]\\@


 WOMEN HOLD UP HALF THE SKY. -- MAO TSE TUNG
 Job cpu time:       0 days  3 hours 29 minutes 18.0 seconds.
 File lengths (MBytes):  RWF=    184 Int=      0 D2E=      0 Chk=     19 Scr=      1
 Normal termination of Gaussian 09 at Sun Aug 23 01:52:44 2020.
