 Entering Gaussian System, Link 0=g09
 Input=input_cycle_04_batch_23200.com
 Output=input_cycle_04_batch_23200.log
 Initial command:
 /share/programs/GAUSSIAN/64/g09/l1.exe "/scratch/yannick.30596/Gau-19719.inp" -scrdir="/scratch/yannick.30596/"
 Entering Link 1 = /share/programs/GAUSSIAN/64/g09/l1.exe PID=     19720.
  
 Copyright (c) 1988,1990,1992,1993,1995,1998,2003,2009,2013,
            Gaussian, Inc.  All Rights Reserved.
  
 This is part of the Gaussian(R) 09 program.  It is based on
 the Gaussian(R) 03 system (copyright 2003, Gaussian, Inc.),
 the Gaussian(R) 98 system (copyright 1998, Gaussian, Inc.),
 the Gaussian(R) 94 system (copyright 1995, Gaussian, Inc.),
 the Gaussian 92(TM) system (copyright 1992, Gaussian, Inc.),
 the Gaussian 90(TM) system (copyright 1990, Gaussian, Inc.),
 the Gaussian 88(TM) system (copyright 1988, Gaussian, Inc.),
 the Gaussian 86(TM) system (copyright 1986, Carnegie Mellon
 University), and the Gaussian 82(TM) system (copyright 1983,
 Carnegie Mellon University). Gaussian is a federally registered
 trademark of Gaussian, Inc.
  
 This software contains proprietary and confidential information,
 including trade secrets, belonging to Gaussian, Inc.
  
 This software is provided under written license and may be
 used, copied, transmitted, or stored only in accord with that
 written license.
  
 The following legend is applicable only to US Government
 contracts under FAR:
  
                    RESTRICTED RIGHTS LEGEND
  
 Use, reproduction and disclosure by the US Government is
 subject to restrictions as set forth in subparagraphs (a)
 and (c) of the Commercial Computer Software - Restricted
 Rights clause in FAR 52.227-19.
  
 Gaussian, Inc.
 340 Quinnipiac St., Bldg. 40, Wallingford CT 06492
  
  
 ---------------------------------------------------------------
 Warning -- This program may not be used in any manner that
 competes with the business of Gaussian, Inc. or will provide
 assistance to any competitor of Gaussian, Inc.  The licensee
 of this program is prohibited from giving any competitor of
 Gaussian, Inc. access to this program.  By using this program,
 the user acknowledges that Gaussian, Inc. is engaged in the
 business of creating and licensing software in the field of
 computational chemistry and represents and warrants to the
 licensee that it is not a competitor of Gaussian, Inc. and that
 it will not use this program in any manner prohibited above.
 ---------------------------------------------------------------
  

 Cite this work as:
 Gaussian 09, Revision D.01,
 M. J. Frisch, G. W. Trucks, H. B. Schlegel, G. E. Scuseria, 
 M. A. Robb, J. R. Cheeseman, G. Scalmani, V. Barone, B. Mennucci, 
 G. A. Petersson, H. Nakatsuji, M. Caricato, X. Li, H. P. Hratchian, 
 A. F. Izmaylov, J. Bloino, G. Zheng, J. L. Sonnenberg, M. Hada, 
 M. Ehara, K. Toyota, R. Fukuda, J. Hasegawa, M. Ishida, T. Nakajima, 
 Y. Honda, O. Kitao, H. Nakai, T. Vreven, J. A. Montgomery, Jr., 
 J. E. Peralta, F. Ogliaro, M. Bearpark, J. J. Heyd, E. Brothers, 
 K. N. Kudin, V. N. Staroverov, T. Keith, R. Kobayashi, J. Normand, 
 K. Raghavachari, A. Rendell, J. C. Burant, S. S. Iyengar, J. Tomasi, 
 M. Cossi, N. Rega, J. M. Millam, M. Klene, J. E. Knox, J. B. Cross, 
 V. Bakken, C. Adamo, J. Jaramillo, R. Gomperts, R. E. Stratmann, 
 O. Yazyev, A. J. Austin, R. Cammi, C. Pomelli, J. W. Ochterski, 
 R. L. Martin, K. Morokuma, V. G. Zakrzewski, G. A. Voth, 
 P. Salvador, J. J. Dannenberg, S. Dapprich, A. D. Daniels, 
 O. Farkas, J. B. Foresman, J. V. Ortiz, J. Cioslowski, 
 and D. J. Fox, Gaussian, Inc., Wallingford CT, 2013.
 
 ******************************************
 Gaussian 09:  ES64L-G09RevD.01 24-Apr-2013
                22-Aug-2020 
 ******************************************
 %nproc=8
 Will use up to    8 processors via shared memory.
 %mem=1000MB
 ----------------------------------------
 # rb3lyp/6-311+g** NMR geom=connectivity
 ----------------------------------------
 1/38=1,57=2/1;
 2/12=2,17=6,18=5,40=1/2;
 3/5=4,6=6,7=111,11=2,16=1,25=1,30=1,74=-5,116=1/1,2,8,3;
 4//1;
 5/5=2,38=5/2;
 8/6=1,10=90,11=11/1;
 10/13=100,45=16/2;
 6/7=2,8=2,9=2,10=2,28=1/1;
 99/9=1/99;
 -----
 Title
 -----
 Symbolic Z-matrix:
 Charge =  0 Multiplicity = 1
 C                    -4.05006  -0.57719   0.81367 
 H                    -5.02638  -1.00827   1.00248 
 C                    -3.93816   0.66178   0.24009 
 H                    -4.82524   1.23389  -0.01113 
 C                    -2.67684   1.24332   0.00576 
 C                    -1.49741   0.50515   0.28483 
 C                    -1.65083  -0.73387   0.9404 
 H                    -0.77136  -1.2731    1.26338 
 C                    -2.88985  -1.2624    1.19943 
 H                    -2.96837  -2.21246   1.71527 
 C                    -2.57732   2.59637  -0.41929 
 H                    -3.48707   3.14122  -0.64741 
 C                    -1.37419   3.21479  -0.4364 
 H                    -1.29973   4.2742   -0.65781 
 C                    -0.17195   2.49941  -0.17346 
 C                    -0.20439   1.10184   0.01927 
 C                     1.05135   3.20426  -0.06762 
 H                     1.04273   4.28195  -0.1897 
 C                     2.19421   2.54874   0.25796 
 H                     3.11685   3.09128   0.43347 
 C                     2.22165   1.13366   0.2935 
 C                     1.04869   0.39455   0.03024 
 C                     3.44834   0.46146   0.55739 
 H                     4.30958   1.06061   0.83348 
 C                     3.54273  -0.88559   0.47495 
 H                     4.47315  -1.39397   0.70388 
 C                     2.44901  -1.64744  -0.01963 
 C                     1.21507  -1.00573  -0.30136 
 C                     0.25311  -1.74344  -1.02166 
 H                    -0.65414  -1.25351  -1.34628 
 C                     0.44942  -3.06286  -1.34138 
 H                    -0.30832  -3.59443  -1.90541 
 C                     1.62517  -3.7208   -0.95525 
 H                     1.767    -4.76874  -1.1927 
 C                     2.61099  -3.01442  -0.31831 
 H                     3.55256  -3.49028  -0.06464 
 Bq                    3.7379   -1.03643   1.06498 
 Bq                    3.78926  -1.00797   0.87379 
 Bq                    3.71222  -1.05065   1.16057 
 Bq                    3.81494  -0.99374   0.7782 
 Bq                    3.68654  -1.06488   1.25617 
 Bq                    3.84061  -0.97952   0.6826 
 Bq                    3.66086  -1.07911   1.35176 
 Bq                    3.86629  -0.96529   0.58701 
 Bq                    3.63518  -1.09334   1.44735 
 Bq                    3.89197  -0.95106   0.49142 
 Bq                    3.76358  -1.0222    0.96938 
 Bq                    3.73421  -0.93744   1.07872 
 Bq                    3.78557  -0.90899   0.88753 
 Bq                    3.70853  -0.95167   1.17431 
 Bq                    3.81124  -0.89476   0.79194 
 Bq                    3.68285  -0.9659    1.26991 
 Bq                    3.83692  -0.88053   0.69634 
 Bq                    3.65717  -0.98013   1.3655 
 Bq                    3.8626   -0.86631   0.60075 
 Bq                    3.63149  -0.99435   1.46109 
 Bq                    3.88828  -0.85208   0.50516 
 Bq                    3.75989  -0.92322   0.98313 
 Bq                    3.73052  -0.83846   1.09246 
 Bq                    3.78187  -0.81001   0.90127 
 Bq                    3.70484  -0.85269   1.18805 
 Bq                    3.80755  -0.79578   0.80568 
 Bq                    3.67916  -0.86692   1.28365 
 Bq                    3.83323  -0.78155   0.71008 
 Bq                    3.65348  -0.88114   1.37924 
 Bq                    3.85891  -0.76732   0.61449 
 Bq                    3.6278   -0.89537   1.47483 
 Bq                    3.88459  -0.7531    0.5189 
 Bq                    3.7562   -0.82423   0.99687 
 Bq                    3.72683  -0.73948   1.1062 
 Bq                    3.77818  -0.71102   0.91501 
 Bq                    3.70115  -0.75371   1.20179 
 Bq                    3.80386  -0.6968    0.81942 
 Bq                    3.67547  -0.76793   1.29739 
 Bq                    3.82954  -0.68257   0.72383 
 Bq                    3.64979  -0.78216   1.39298 
 Bq                    3.85522  -0.66834   0.62823 
 Bq                    3.62411  -0.79639   1.48858 
 Bq                    3.8809   -0.65411   0.53264 
 Bq                    3.7525   -0.72525   1.01061 
 Bq                    3.72313  -0.6405    1.11994 
 Bq                    3.77449  -0.61204   0.92875 
 Bq                    3.69746  -0.65472   1.21553 
 Bq                    3.80017  -0.59781   0.83316 
 Bq                    3.67178  -0.66895   1.31113 
 Bq                    3.82585  -0.58359   0.73757 
 Bq                    3.6461   -0.68318   1.40672 
 Bq                    3.85153  -0.56936   0.64197 
 Bq                    3.62042  -0.69741   1.50232 
 Bq                    3.87721  -0.55513   0.54638 
 Bq                    3.74881  -0.62627   1.02435 
 Bq                    3.71944  -0.54151   1.13368 
 Bq                    3.7708   -0.51306   0.94249 
 Bq                    3.69376  -0.55574   1.22928 
 Bq                    3.79648  -0.49883   0.8469 
 Bq                    3.66809  -0.56997   1.32487 
 Bq                    3.82216  -0.4846    0.75131 
 Bq                    3.64241  -0.5842    1.42046 
 Bq                    3.84784  -0.47037   0.65571 
 Bq                    3.61673  -0.59842   1.51606 
 Bq                    3.87352  -0.45615   0.56012 
 Bq                    3.74512  -0.52729   1.03809 
 Bq                    3.71575  -0.44253   1.14742 
 Bq                    3.76711  -0.41408   0.95623 
 Bq                    3.69007  -0.45676   1.24302 
 Bq                    3.79279  -0.39985   0.86064 
 Bq                    3.66439  -0.47099   1.33861 
 Bq                    3.81847  -0.38562   0.76505 
 Bq                    3.63872  -0.48521   1.4342 
 Bq                    3.84415  -0.37139   0.66945 
 Bq                    3.61304  -0.49944   1.5298 
 Bq                    3.86983  -0.35716   0.57386 
 Bq                    3.74143  -0.4283    1.05183 
 Bq                    3.71206  -0.34355   1.16116 
 Bq                    3.76342  -0.31509   0.96997 
 Bq                    3.68638  -0.35778   1.25676 
 Bq                    3.7891   -0.30086   0.87438 
 Bq                    3.6607   -0.372     1.35235 
 Bq                    3.81478  -0.28664   0.77879 
 Bq                    3.63502  -0.38623   1.44794 
 Bq                    3.84046  -0.27241   0.68319 
 Bq                    3.60935  -0.40046   1.54354 
 Bq                    3.86613  -0.25818   0.5876 
 Bq                    3.73774  -0.32932   1.06557 
 Bq                    3.70837  -0.24457   1.1749 
 Bq                    3.75973  -0.21611   0.98372 
 Bq                    3.68269  -0.25879   1.2705 
 Bq                    3.78541  -0.20188   0.88812 
 Bq                    3.65701  -0.27302   1.36609 
 Bq                    3.81109  -0.18765   0.79253 
 Bq                    3.63133  -0.28725   1.46168 
 Bq                    3.83676  -0.17343   0.69693 
 Bq                    3.60565  -0.30148   1.55728 
 Bq                    3.86244  -0.1592    0.60134 
 Bq                    3.73405  -0.23034   1.07931 
 Bq                    3.70468  -0.14558   1.18864 
 Bq                    3.75604  -0.11713   0.99746 
 Bq                    3.679    -0.15981   1.28424 
 Bq                    3.78172  -0.1029    0.90186 
 Bq                    3.65332  -0.17404   1.37983 
 Bq                    3.80739  -0.08867   0.80627 
 Bq                    3.62764  -0.18827   1.47542 
 Bq                    3.83307  -0.07444   0.71067 
 Bq                    3.60196  -0.20249   1.57102 
 Bq                    3.85875  -0.06022   0.61508 
 Bq                    3.73036  -0.13135   1.09305 
 Bq                    3.70099  -0.0466    1.20238 
 Bq                    3.75235  -0.01814   1.0112 
 Bq                    3.67531  -0.06083   1.29798 
 Bq                    3.77802  -0.00392   0.9156 
 Bq                    3.64963  -0.07505   1.39357 
 Bq                    3.8037    0.01031   0.82001 
 Bq                    3.62395  -0.08928   1.48917 
 Bq                    3.82938   0.02454   0.72442 
 Bq                    3.59827  -0.10351   1.58476 
 Bq                    3.85506   0.03877   0.62882 
 Bq                    3.72667  -0.03237   1.10679 
 Bq                    3.6973    0.05238   1.21612 
 Bq                    3.74865   0.08084   1.02494 
 Bq                    3.67162   0.03816   1.31172 
 Bq                    3.77433   0.09507   0.92934 
 Bq                    3.64594   0.02393   1.40731 
 Bq                    3.80001   0.10929   0.83375 
 Bq                    3.62026   0.0097    1.50291 
 Bq                    3.82569   0.12352   0.73816 
 Bq                    3.59458  -0.00453   1.5985 
 Bq                    3.85137   0.13775   0.64256 
 Bq                    3.72298   0.06661   1.12053 
 Bq                    3.69361   0.15137   1.22987 
 Bq                    3.74496   0.17982   1.03868 
 Bq                    3.66793   0.13714   1.32546 
 Bq                    3.77064   0.19405   0.94308 
 Bq                    3.64225   0.12291   1.42105 
 Bq                    3.79632   0.20828   0.84749 
 Bq                    3.61657   0.10868   1.51665 
 Bq                    3.822     0.2225    0.7519 
 Bq                    3.59089   0.09446   1.61224 
 Bq                    3.84768   0.23673   0.6563 
 Bq                    3.71928   0.16559   1.13427 
 Bq                    3.68991   0.25035   1.24361 
 Bq                    3.74127   0.2788    1.05242 
 Bq                    3.66424   0.23612   1.3392 
 Bq                    3.76695   0.29303   0.95682 
 Bq                    3.63856   0.22189   1.43479 
 Bq                    3.79263   0.30726   0.86123 
 Bq                    3.61288   0.20767   1.53039 
 Bq                    3.81831   0.32149   0.76564 
 Bq                    3.5872    0.19344   1.62598 
 Bq                    3.84399   0.33571   0.67004 
 Bq                    3.71559   0.26458   1.14801 
 Bq                    3.68622   0.34933   1.25735 
 Bq                    3.73758   0.37779   1.06616 
 Bq                    3.66055   0.3351    1.35294 
 Bq                    3.76326   0.39201   0.97056 
 Bq                    3.63487   0.32088   1.44853 
 Bq                    3.78894   0.40624   0.87497 
 Bq                    3.60919   0.30665   1.54413 
 Bq                    3.81462   0.42047   0.77938 
 Bq                    3.58351   0.29242   1.63972 
 Bq                    3.8403    0.4347    0.68378 
 Bq                    3.7119    0.36356   1.16175 
 Bq                    3.68253   0.44831   1.27109 
 Bq                    3.73389   0.47677   1.0799 
 Bq                    3.65685   0.43409   1.36668 
 Bq                    3.75957   0.491     0.98431 
 Bq                    3.63118   0.41986   1.46227 
 Bq                    3.78525   0.50522   0.88871 
 Bq                    3.6055    0.40563   1.55787 
 Bq                    3.81093   0.51945   0.79312 
 Bq                    3.57982   0.3914    1.65346 
 Bq                    3.83661   0.53368   0.69752 
 Bq                    3.70821   0.46254   1.17549 
 Bq                    3.67884   0.5473    1.28483 
 Bq                    3.7302    0.57575   1.09364 
 Bq                    3.65316   0.53307   1.38042 
 Bq                    3.75588   0.58998   0.99805 
 Bq                    3.62748   0.51884   1.47601 
 Bq                    3.78156   0.60421   0.90245 
 Bq                    3.60181   0.50461   1.57161 
 Bq                    3.80724   0.61843   0.80686 
 Bq                    3.57613   0.49039   1.6672 
 Bq                    3.83292   0.63266   0.71126 
 Bq                    3.70452   0.56152   1.18923 
 Bq                    3.67515   0.64628   1.29857 
 Bq                    3.72651   0.67473   1.10738 
 Bq                    3.64947   0.63205   1.39416 
 Bq                    3.75219   0.68896   1.01179 
 Bq                    3.62379   0.61782   1.48976 
 Bq                    3.77787   0.70319   0.91619 
 Bq                    3.59811   0.6036    1.58535 
 Bq                    3.80355   0.71742   0.8206 
 Bq                    3.57244   0.58937   1.68094 
 Bq                    3.82922   0.73165   0.72501 
 Bq                    3.70083   0.66051   1.20297 
 Bq                    3.67146   0.74526   1.31231 
 Bq                    3.72282   0.77372   1.12112 
 
 Symmetry turned off:
 Cannot cope with ghost atoms or with translation vectors.
 Stoichiometry    C22H14
 Framework group  C1[X(C22H14)]
 NUMDOF-- NAT=    36 NAtoms=   236
 Deg. of freedom     0
 Full point group                 C1      NOp   1
                          Input orientation:                          
 ---------------------------------------------------------------------
 Center     Atomic      Atomic             Coordinates (Angstroms)
 Number     Number       Type             X           Y           Z
 ---------------------------------------------------------------------
      1          6           0       -4.050056   -0.577186    0.813671
      2          1           0       -5.026380   -1.008273    1.002476
      3          6           0       -3.938155    0.661780    0.240088
      4          1           0       -4.825242    1.233889   -0.011130
      5          6           0       -2.676841    1.243325    0.005758
      6          6           0       -1.497412    0.505153    0.284825
      7          6           0       -1.650833   -0.733873    0.940403
      8          1           0       -0.771365   -1.273097    1.263375
      9          6           0       -2.889855   -1.262404    1.199431
     10          1           0       -2.968371   -2.212456    1.715268
     11          6           0       -2.577319    2.596370   -0.419293
     12          1           0       -3.487073    3.141224   -0.647406
     13          6           0       -1.374190    3.214790   -0.436403
     14          1           0       -1.299732    4.274202   -0.657814
     15          6           0       -0.171949    2.499409   -0.173459
     16          6           0       -0.204392    1.101844    0.019269
     17          6           0        1.051349    3.204256   -0.067622
     18          1           0        1.042734    4.281950   -0.189700
     19          6           0        2.194209    2.548745    0.257958
     20          1           0        3.116853    3.091285    0.433473
     21          6           0        2.221647    1.133656    0.293499
     22          6           0        1.048693    0.394553    0.030241
     23          6           0        3.448336    0.461463    0.557394
     24          1           0        4.309579    1.060605    0.833485
     25          6           0        3.542735   -0.885593    0.474946
     26          1           0        4.473147   -1.393970    0.703882
     27          6           0        2.449005   -1.647445   -0.019632
     28          6           0        1.215070   -1.005726   -0.301357
     29          6           0        0.253111   -1.743444   -1.021659
     30          1           0       -0.654136   -1.253505   -1.346285
     31          6           0        0.449419   -3.062860   -1.341378
     32          1           0       -0.308316   -3.594431   -1.905406
     33          6           0        1.625173   -3.720797   -0.955254
     34          1           0        1.767005   -4.768740   -1.192702
     35          6           0        2.610987   -3.014418   -0.318305
     36          1           0        3.552561   -3.490281   -0.064637
     37          0           0        3.737899   -1.036427    1.064979
     38          0           0        3.789256   -1.007971    0.873791
     39          0           0        3.712220   -1.050654    1.160572
     40          0           0        3.814935   -0.993744    0.778197
     41          0           0        3.686541   -1.064882    1.256166
     42          0           0        3.840614   -0.979516    0.682603
     43          0           0        3.660862   -1.079110    1.351760
     44          0           0        3.866293   -0.965288    0.587010
     45          0           0        3.635183   -1.093337    1.447354
     46          0           0        3.891972   -0.951061    0.491416
     47          0           0        3.763578   -1.022199    0.969385
     48          0           0        3.734208   -0.937444    1.078719
     49          0           0        3.785565   -0.908989    0.887532
     50          0           0        3.708529   -0.951672    1.174313
     51          0           0        3.811244   -0.894761    0.791938
     52          0           0        3.682850   -0.965899    1.269907
     53          0           0        3.836923   -0.880533    0.696344
     54          0           0        3.657171   -0.980127    1.365500
     55          0           0        3.862602   -0.866306    0.600750
     56          0           0        3.631492   -0.994355    1.461094
     57          0           0        3.888281   -0.852078    0.505156
     58          0           0        3.759886   -0.923216    0.983125
     59          0           0        3.730517   -0.838461    1.092460
     60          0           0        3.781874   -0.810006    0.901272
     61          0           0        3.704838   -0.852689    1.188053
     62          0           0        3.807553   -0.795778    0.805678
     63          0           0        3.679159   -0.866917    1.283647
     64          0           0        3.833232   -0.781551    0.710085
     65          0           0        3.653480   -0.881144    1.379241
     66          0           0        3.858911   -0.767323    0.614491
     67          0           0        3.627801   -0.895372    1.474835
     68          0           0        3.884590   -0.753095    0.518897
     69          0           0        3.756195   -0.824234    0.996866
     70          0           0        3.726826   -0.739479    1.106200
     71          0           0        3.778183   -0.711023    0.915013
     72          0           0        3.701147   -0.753706    1.201794
     73          0           0        3.803862   -0.696796    0.819419
     74          0           0        3.675468   -0.767934    1.297388
     75          0           0        3.829541   -0.682568    0.723825
     76          0           0        3.649789   -0.782162    1.392982
     77          0           0        3.855220   -0.668340    0.628231
     78          0           0        3.624110   -0.796389    1.488575
     79          0           0        3.880899   -0.654113    0.532638
     80          0           0        3.752504   -0.725251    1.010606
     81          0           0        3.723134   -0.640496    1.119941
     82          0           0        3.774492   -0.612041    0.928753
     83          0           0        3.697456   -0.654723    1.215535
     84          0           0        3.800171   -0.597813    0.833159
     85          0           0        3.671777   -0.668951    1.311128
     86          0           0        3.825850   -0.583585    0.737566
     87          0           0        3.646098   -0.683179    1.406722
     88          0           0        3.851529   -0.569358    0.641972
     89          0           0        3.620419   -0.697406    1.502316
     90          0           0        3.877208   -0.555130    0.546378
     91          0           0        3.748813   -0.626268    1.024347
     92          0           0        3.719443   -0.541513    1.133681
     93          0           0        3.770801   -0.513058    0.942494
     94          0           0        3.693765   -0.555741    1.229275
     95          0           0        3.796480   -0.498830    0.846900
     96          0           0        3.668086   -0.569968    1.324869
     97          0           0        3.822159   -0.484603    0.751306
     98          0           0        3.642407   -0.584196    1.420463
     99          0           0        3.847838   -0.470375    0.655712
    100          0           0        3.616728   -0.598424    1.516056
    101          0           0        3.873517   -0.456147    0.560119
    102          0           0        3.745122   -0.527285    1.038088
    103          0           0        3.715752   -0.442530    1.147422
    104          0           0        3.767110   -0.414075    0.956234
    105          0           0        3.690073   -0.456758    1.243016
    106          0           0        3.792789   -0.399847    0.860640
    107          0           0        3.664395   -0.470986    1.338609
    108          0           0        3.818468   -0.385620    0.765047
    109          0           0        3.638716   -0.485213    1.434203
    110          0           0        3.844147   -0.371392    0.669453
    111          0           0        3.613037   -0.499441    1.529797
    112          0           0        3.869826   -0.357164    0.573859
    113          0           0        3.741431   -0.428303    1.051828
    114          0           0        3.712061   -0.343548    1.161162
    115          0           0        3.763419   -0.315092    0.969975
    116          0           0        3.686382   -0.357775    1.256756
    117          0           0        3.789098   -0.300865    0.874381
    118          0           0        3.660704   -0.372003    1.352350
    119          0           0        3.814777   -0.286637    0.778787
    120          0           0        3.635025   -0.386231    1.447944
    121          0           0        3.840456   -0.272409    0.683193
    122          0           0        3.609346   -0.400458    1.543537
    123          0           0        3.866134   -0.258182    0.587600
    124          0           0        3.737740   -0.329320    1.065569
    125          0           0        3.708370   -0.244565    1.174903
    126          0           0        3.759728   -0.216110    0.983715
    127          0           0        3.682691   -0.258793    1.270497
    128          0           0        3.785407   -0.201882    0.888122
    129          0           0        3.657013   -0.273020    1.366090
    130          0           0        3.811086   -0.187654    0.792528
    131          0           0        3.631334   -0.287248    1.461684
    132          0           0        3.836765   -0.173427    0.696934
    133          0           0        3.605655   -0.301476    1.557278
    134          0           0        3.862443   -0.159199    0.601340
    135          0           0        3.734049   -0.230337    1.079309
    136          0           0        3.704679   -0.145582    1.188643
    137          0           0        3.756037   -0.117127    0.997456
    138          0           0        3.679000   -0.159810    1.284237
    139          0           0        3.781716   -0.102899    0.901862
    140          0           0        3.653321   -0.174038    1.379831
    141          0           0        3.807395   -0.088672    0.806268
    142          0           0        3.627643   -0.188265    1.475425
    143          0           0        3.833074   -0.074444    0.710675
    144          0           0        3.601964   -0.202493    1.571019
    145          0           0        3.858752   -0.060216    0.615081
    146          0           0        3.730358   -0.131355    1.093050
    147          0           0        3.700988   -0.046600    1.202384
    148          0           0        3.752346   -0.018144    1.011196
    149          0           0        3.675309   -0.060827    1.297978
    150          0           0        3.778025   -0.003917    0.915603
    151          0           0        3.649630   -0.075055    1.393572
    152          0           0        3.803704    0.010311    0.820009
    153          0           0        3.623952   -0.089283    1.489165
    154          0           0        3.829382    0.024539    0.724415
    155          0           0        3.598273   -0.103510    1.584759
    156          0           0        3.855061    0.038766    0.628821
    157          0           0        3.726667   -0.032372    1.106790
    158          0           0        3.697297    0.052383    1.216125
    159          0           0        3.748655    0.080838    1.024937
    160          0           0        3.671618    0.038155    1.311718
    161          0           0        3.774334    0.095066    0.929343
    162          0           0        3.645939    0.023928    1.407312
    163          0           0        3.800013    0.109294    0.833749
    164          0           0        3.620261    0.009700    1.502906
    165          0           0        3.825691    0.123521    0.738156
    166          0           0        3.594582   -0.004528    1.598500
    167          0           0        3.851370    0.137749    0.642562
    168          0           0        3.722976    0.066611    1.120531
    169          0           0        3.693606    0.151366    1.229865
    170          0           0        3.744964    0.179821    1.038678
    171          0           0        3.667927    0.137138    1.325459
    172          0           0        3.770643    0.194049    0.943084
    173          0           0        3.642248    0.122910    1.421053
    174          0           0        3.796322    0.208276    0.847490
    175          0           0        3.616569    0.108683    1.516646
    176          0           0        3.822000    0.222504    0.751896
    177          0           0        3.590891    0.094455    1.612240
    178          0           0        3.847679    0.236732    0.656302
    179          0           0        3.719285    0.165593    1.134271
    180          0           0        3.689915    0.250348    1.243606
    181          0           0        3.741273    0.278804    1.052418
    182          0           0        3.664236    0.236121    1.339199
    183          0           0        3.766952    0.293031    0.956824
    184          0           0        3.638557    0.221893    1.434793
    185          0           0        3.792630    0.307259    0.861230
    186          0           0        3.612878    0.207665    1.530387
    187          0           0        3.818309    0.321487    0.765637
    188          0           0        3.587200    0.193438    1.625981
    189          0           0        3.843988    0.335714    0.670043
    190          0           0        3.715594    0.264576    1.148012
    191          0           0        3.686224    0.349331    1.257346
    192          0           0        3.737582    0.377786    1.066159
    193          0           0        3.660545    0.335103    1.352940
    194          0           0        3.763261    0.392014    0.970565
    195          0           0        3.634866    0.320876    1.448534
    196          0           0        3.788939    0.406242    0.874971
    197          0           0        3.609187    0.306648    1.544127
    198          0           0        3.814618    0.420469    0.779377
    199          0           0        3.583508    0.292420    1.639721
    200          0           0        3.840297    0.434697    0.683783
    201          0           0        3.711903    0.363559    1.161752
    202          0           0        3.682533    0.448314    1.271087
    203          0           0        3.733891    0.476769    1.079899
    204          0           0        3.656854    0.434086    1.366680
    205          0           0        3.759569    0.490997    0.984305
    206          0           0        3.631175    0.419858    1.462274
    207          0           0        3.785248    0.505224    0.888712
    208          0           0        3.605496    0.405631    1.557868
    209          0           0        3.810927    0.519452    0.793118
    210          0           0        3.579817    0.391403    1.653462
    211          0           0        3.836606    0.533680    0.697524
    212          0           0        3.708212    0.462541    1.175493
    213          0           0        3.678842    0.547296    1.284827
    214          0           0        3.730200    0.575752    1.093640
    215          0           0        3.653163    0.533069    1.380421
    216          0           0        3.755878    0.589979    0.998046
    217          0           0        3.627484    0.518841    1.476015
    218          0           0        3.781557    0.604207    0.902452
    219          0           0        3.601805    0.504614    1.571609
    220          0           0        3.807236    0.618435    0.806858
    221          0           0        3.576126    0.490386    1.667202
    222          0           0        3.832915    0.632662    0.711265
    223          0           0        3.704521    0.561524    1.189233
    224          0           0        3.675151    0.646279    1.298568
    225          0           0        3.726509    0.674735    1.107380
    226          0           0        3.649472    0.632052    1.394162
    227          0           0        3.752187    0.688962    1.011786
    228          0           0        3.623793    0.617824    1.489755
    229          0           0        3.777866    0.703190    0.916193
    230          0           0        3.598114    0.603596    1.585349
    231          0           0        3.803545    0.717417    0.820599
    232          0           0        3.572435    0.589369    1.680943
    233          0           0        3.829224    0.731645    0.725005
    234          0           0        3.700830    0.660507    1.202974
    235          0           0        3.671460    0.745262    1.312308
    236          0           0        3.722817    0.773717    1.121121
 ---------------------------------------------------------------------
 Rotational constants (GHZ):      0.4529074      0.2836956      0.1879557
 Standard basis: 6-311+G(d,p) (5D, 7F)
 Warning:  center  37 has no basis functions!
 Warning:  center  38 has no basis functions!
 Warning:  center  39 has no basis functions!
 Warning:  center  40 has no basis functions!
 Warning:  center  41 has no basis functions!
 Warning:  center  42 has no basis functions!
 Warning:  center  43 has no basis functions!
 Warning:  center  44 has no basis functions!
 Warning:  center  45 has no basis functions!
 Warning:  center  46 has no basis functions!
 Warning:  center  47 has no basis functions!
 Warning:  center  48 has no basis functions!
 Warning:  center  49 has no basis functions!
 Warning:  center  50 has no basis functions!
 Warning:  center  51 has no basis functions!
 Warning:  center  52 has no basis functions!
 Warning:  center  53 has no basis functions!
 Warning:  center  54 has no basis functions!
 Warning:  center  55 has no basis functions!
 Warning:  center  56 has no basis functions!
 Warning:  center  57 has no basis functions!
 Warning:  center  58 has no basis functions!
 Warning:  center  59 has no basis functions!
 Warning:  center  60 has no basis functions!
 Warning:  center  61 has no basis functions!
 Warning:  center  62 has no basis functions!
 Warning:  center  63 has no basis functions!
 Warning:  center  64 has no basis functions!
 Warning:  center  65 has no basis functions!
 Warning:  center  66 has no basis functions!
 Warning:  center  67 has no basis functions!
 Warning:  center  68 has no basis functions!
 Warning:  center  69 has no basis functions!
 Warning:  center  70 has no basis functions!
 Warning:  center  71 has no basis functions!
 Warning:  center  72 has no basis functions!
 Warning:  center  73 has no basis functions!
 Warning:  center  74 has no basis functions!
 Warning:  center  75 has no basis functions!
 Warning:  center  76 has no basis functions!
 Warning:  center  77 has no basis functions!
 Warning:  center  78 has no basis functions!
 Warning:  center  79 has no basis functions!
 Warning:  center  80 has no basis functions!
 Warning:  center  81 has no basis functions!
 Warning:  center  82 has no basis functions!
 Warning:  center  83 has no basis functions!
 Warning:  center  84 has no basis functions!
 Warning:  center  85 has no basis functions!
 Warning:  center  86 has no basis functions!
 Warning:  center  87 has no basis functions!
 Warning:  center  88 has no basis functions!
 Warning:  center  89 has no basis functions!
 Warning:  center  90 has no basis functions!
 Warning:  center  91 has no basis functions!
 Warning:  center  92 has no basis functions!
 Warning:  center  93 has no basis functions!
 Warning:  center  94 has no basis functions!
 Warning:  center  95 has no basis functions!
 Warning:  center  96 has no basis functions!
 Warning:  center  97 has no basis functions!
 Warning:  center  98 has no basis functions!
 Warning:  center  99 has no basis functions!
 Warning:  center 100 has no basis functions!
 Warning:  center 101 has no basis functions!
 Warning:  center 102 has no basis functions!
 Warning:  center 103 has no basis functions!
 Warning:  center 104 has no basis functions!
 Warning:  center 105 has no basis functions!
 Warning:  center 106 has no basis functions!
 Warning:  center 107 has no basis functions!
 Warning:  center 108 has no basis functions!
 Warning:  center 109 has no basis functions!
 Warning:  center 110 has no basis functions!
 Warning:  center 111 has no basis functions!
 Warning:  center 112 has no basis functions!
 Warning:  center 113 has no basis functions!
 Warning:  center 114 has no basis functions!
 Warning:  center 115 has no basis functions!
 Warning:  center 116 has no basis functions!
 Warning:  center 117 has no basis functions!
 Warning:  center 118 has no basis functions!
 Warning:  center 119 has no basis functions!
 Warning:  center 120 has no basis functions!
 Warning:  center 121 has no basis functions!
 Warning:  center 122 has no basis functions!
 Warning:  center 123 has no basis functions!
 Warning:  center 124 has no basis functions!
 Warning:  center 125 has no basis functions!
 Warning:  center 126 has no basis functions!
 Warning:  center 127 has no basis functions!
 Warning:  center 128 has no basis functions!
 Warning:  center 129 has no basis functions!
 Warning:  center 130 has no basis functions!
 Warning:  center 131 has no basis functions!
 Warning:  center 132 has no basis functions!
 Warning:  center 133 has no basis functions!
 Warning:  center 134 has no basis functions!
 Warning:  center 135 has no basis functions!
 Warning:  center 136 has no basis functions!
 Warning:  center 137 has no basis functions!
 Warning:  center 138 has no basis functions!
 Warning:  center 139 has no basis functions!
 Warning:  center 140 has no basis functions!
 Warning:  center 141 has no basis functions!
 Warning:  center 142 has no basis functions!
 Warning:  center 143 has no basis functions!
 Warning:  center 144 has no basis functions!
 Warning:  center 145 has no basis functions!
 Warning:  center 146 has no basis functions!
 Warning:  center 147 has no basis functions!
 Warning:  center 148 has no basis functions!
 Warning:  center 149 has no basis functions!
 Warning:  center 150 has no basis functions!
 Warning:  center 151 has no basis functions!
 Warning:  center 152 has no basis functions!
 Warning:  center 153 has no basis functions!
 Warning:  center 154 has no basis functions!
 Warning:  center 155 has no basis functions!
 Warning:  center 156 has no basis functions!
 Warning:  center 157 has no basis functions!
 Warning:  center 158 has no basis functions!
 Warning:  center 159 has no basis functions!
 Warning:  center 160 has no basis functions!
 Warning:  center 161 has no basis functions!
 Warning:  center 162 has no basis functions!
 Warning:  center 163 has no basis functions!
 Warning:  center 164 has no basis functions!
 Warning:  center 165 has no basis functions!
 Warning:  center 166 has no basis functions!
 Warning:  center 167 has no basis functions!
 Warning:  center 168 has no basis functions!
 Warning:  center 169 has no basis functions!
 Warning:  center 170 has no basis functions!
 Warning:  center 171 has no basis functions!
 Warning:  center 172 has no basis functions!
 Warning:  center 173 has no basis functions!
 Warning:  center 174 has no basis functions!
 Warning:  center 175 has no basis functions!
 Warning:  center 176 has no basis functions!
 Warning:  center 177 has no basis functions!
 Warning:  center 178 has no basis functions!
 Warning:  center 179 has no basis functions!
 Warning:  center 180 has no basis functions!
 Warning:  center 181 has no basis functions!
 Warning:  center 182 has no basis functions!
 Warning:  center 183 has no basis functions!
 Warning:  center 184 has no basis functions!
 Warning:  center 185 has no basis functions!
 Warning:  center 186 has no basis functions!
 Warning:  center 187 has no basis functions!
 Warning:  center 188 has no basis functions!
 Warning:  center 189 has no basis functions!
 Warning:  center 190 has no basis functions!
 Warning:  center 191 has no basis functions!
 Warning:  center 192 has no basis functions!
 Warning:  center 193 has no basis functions!
 Warning:  center 194 has no basis functions!
 Warning:  center 195 has no basis functions!
 Warning:  center 196 has no basis functions!
 Warning:  center 197 has no basis functions!
 Warning:  center 198 has no basis functions!
 Warning:  center 199 has no basis functions!
 Warning:  center 200 has no basis functions!
 Warning:  center 201 has no basis functions!
 Warning:  center 202 has no basis functions!
 Warning:  center 203 has no basis functions!
 Warning:  center 204 has no basis functions!
 Warning:  center 205 has no basis functions!
 Warning:  center 206 has no basis functions!
 Warning:  center 207 has no basis functions!
 Warning:  center 208 has no basis functions!
 Warning:  center 209 has no basis functions!
 Warning:  center 210 has no basis functions!
 Warning:  center 211 has no basis functions!
 Warning:  center 212 has no basis functions!
 Warning:  center 213 has no basis functions!
 Warning:  center 214 has no basis functions!
 Warning:  center 215 has no basis functions!
 Warning:  center 216 has no basis functions!
 Warning:  center 217 has no basis functions!
 Warning:  center 218 has no basis functions!
 Warning:  center 219 has no basis functions!
 Warning:  center 220 has no basis functions!
 Warning:  center 221 has no basis functions!
 Warning:  center 222 has no basis functions!
 Warning:  center 223 has no basis functions!
 Warning:  center 224 has no basis functions!
 Warning:  center 225 has no basis functions!
 Warning:  center 226 has no basis functions!
 Warning:  center 227 has no basis functions!
 Warning:  center 228 has no basis functions!
 Warning:  center 229 has no basis functions!
 Warning:  center 230 has no basis functions!
 Warning:  center 231 has no basis functions!
 Warning:  center 232 has no basis functions!
 Warning:  center 233 has no basis functions!
 Warning:  center 234 has no basis functions!
 Warning:  center 235 has no basis functions!
 Warning:  center 236 has no basis functions!
   568 basis functions,   904 primitive gaussians,   590 cartesian basis functions
    73 alpha electrons       73 beta electrons
       nuclear repulsion energy      1610.9176155625 Hartrees.
 NAtoms=  236 NActive=  236 NUniq=  236 SFac= 1.00D+00 NAtFMM=   60 NAOKFM=T Big=T
 Integral buffers will be    131072 words long.
 Raffenetti 2 integral format.
 Two-electron integral symmetry is turned off.
 One-electron integrals computed using PRISM.
 NBasis=   568 RedAO= T EigKep=  1.78D-06  NBF=   568
 NBsUse=   556 1.00D-06 EigRej=  9.09D-07 NBFU=   556
 ExpMin= 4.38D-02 ExpMax= 4.56D+03 ExpMxC= 6.82D+02 IAcc=2 IRadAn=         4 AccDes= 0.00D+00
 Harris functional with IExCor=  402 and IRadAn=       4 diagonalized for initial guess.
 HarFok:  IExCor=  402 AccDes= 0.00D+00 IRadAn=         4 IDoV= 1 UseB2=F ITyADJ=14
 ICtDFT=  3500011 ScaDFX=  1.000000  1.000000  1.000000  1.000000
 FoFCou: FMM=F IPFlag=           0 FMFlag=      100000 FMFlg1=        2001
         NFxFlg=           0 DoJE=T BraDBF=F KetDBF=T FulRan=T
         wScrn=  0.000000 ICntrl=     500 IOpCl=  0 I1Cent=   200000004 NGrid=           0
         NMat0=    1 NMatS0=      1 NMatT0=    0 NMatD0=    1 NMtDS0=    0 NMtDT0=    0
 Symmetry not used in FoFCou.
 Requested convergence on RMS density matrix=1.00D-08 within 128 cycles.
 Requested convergence on MAX density matrix=1.00D-06.
 Requested convergence on             energy=1.00D-06.
 No special actions if energy rises.
 SCF Done:  E(RB3LYP) =  -847.003289847     A.U. after   15 cycles
            NFock= 15  Conv=0.76D-08     -V/T= 2.0040
 DoSCS=F DFT=T ScalE2(SS,OS)=  1.000000  1.000000
 Range of M.O.s used for correlation:     1   556
 NBasis=   568 NAE=    73 NBE=    73 NFC=     0 NFV=     0
 NROrb=    556 NOA=    73 NOB=    73 NVA=   483 NVB=   483

 **** Warning!!: The largest alpha MO coefficient is  0.10971035D+03

          Differentiating once with respect to magnetic field using GIAOs.
          Electric field/nuclear overlap derivatives assumed to be zero.
 FoFCou: FMM=F IPFlag=           0 FMFlag=      100000 FMFlg1=        2001
         NFxFlg=           0 DoJE=F BraDBF=F KetDBF=T FulRan=T
         wScrn=  0.000000 ICntrl=    6100 IOpCl=  0 I1Cent=           7 NGrid=         236
         NMat0=    1 NMatS0=      1 NMatT0=    0 NMatD0=    1 NMtDS0=    0 NMtDT0=    0
 Symmetry not used in FoFCou.
 FoFJK:  IHMeth= 1 ICntrl=    6127 DoSepK=F KAlg= 0 I1Cent=   0 FoldK=F
 IRaf=         1 NMat=   1 IRICut=       1 DoRegI=T DoRafI=F ISym2E= 0.
          There are     3 degrees of freedom in the 1st order CPHF.  IDoFFX=0 NUNeed=     3.
      3 vectors produced by pass  0 Test12= 1.18D-12 3.33D-08 XBig12= 2.07D+03 9.18D+00.
 AX will form     3 AO Fock derivatives at one time.
      3 vectors produced by pass  1 Test12= 1.18D-12 3.33D-08 XBig12= 3.56D+00 8.03D-01.
      3 vectors produced by pass  2 Test12= 1.18D-12 3.33D-08 XBig12= 2.10D-02 6.92D-02.
      3 vectors produced by pass  3 Test12= 1.18D-12 3.33D-08 XBig12= 5.45D-05 1.89D-03.
      3 vectors produced by pass  4 Test12= 1.18D-12 3.33D-08 XBig12= 1.20D-07 7.79D-05.
      3 vectors produced by pass  5 Test12= 1.18D-12 3.33D-08 XBig12= 4.02D-10 4.73D-06.
      3 vectors produced by pass  6 Test12= 1.18D-12 3.33D-08 XBig12= 1.32D-12 2.61D-07.
 InvSVY:  IOpt=1 It=  1 EMax= 7.11D-15
 Solved reduced A of dimension    21 with     3 vectors.
 Calculating GIAO nuclear magnetic shielding tensors.
 SCF GIAO Magnetic shielding tensor (ppm):
      1  C    Isotropic =    53.8139   Anisotropy =   178.0260
   XX=   -41.4327   YX=   -32.3458   ZX=    10.0287
   XY=   -28.3572   YY=    59.0527   ZY=    55.1899
   XZ=    13.1759   YZ=    58.7550   ZZ=   143.8218
   Eigenvalues:   -53.8775    42.8214   172.4979
      2  H    Isotropic =    24.3095   Anisotropy =     4.8536
   XX=    25.5771   YX=    -1.0289   ZX=     0.5661
   XY=    -0.7431   YY=    26.1829   ZY=    -2.3306
   XZ=    -0.1707   YZ=    -2.4411   ZZ=    21.1687
   Eigenvalues:    20.2108    25.1725    27.5453
      3  C    Isotropic =    51.4055   Anisotropy =   157.8639
   XX=   -31.5399   YX=    38.5015   ZX=   -17.9316
   XY=    34.3519   YY=    49.9437   ZY=    49.6392
   XZ=    -9.8383   YZ=    44.6006   ZZ=   135.8127
   Eigenvalues:   -50.5747    48.1432   156.6481
      4  H    Isotropic =    23.8290   Anisotropy =     7.1838
   XX=    25.3635   YX=     1.8486   ZX=    -0.3559
   XY=     1.9656   YY=    26.4581   ZY=    -2.4103
   XZ=    -1.2941   YZ=    -2.6614   ZZ=    19.6654
   Eigenvalues:    18.8176    24.0511    28.6182
      5  C    Isotropic =    46.0697   Anisotropy =   207.6751
   XX=   -19.2123   YX=    -4.8852   ZX=    -1.6475
   XY=     2.8938   YY=    -2.9860   ZY=    66.5656
   XZ=     2.5356   YZ=    67.9144   ZZ=   160.4073
   Eigenvalues:   -27.2455   -19.0652   184.5197
      6  C    Isotropic =    47.5218   Anisotropy =   196.9389
   XX=   -28.1552   YX=    -2.7889   ZX=    12.0660
   XY=   -14.3886   YY=    21.2063   ZY=    74.2521
   XZ=   -18.6356   YZ=    61.1113   ZZ=   149.5144
   Eigenvalues:   -30.2925    -5.9564   178.8144
      7  C    Isotropic =    49.3915   Anisotropy =   179.8333
   XX=   -12.5211   YX=    28.7048   ZX=   -24.6745
   XY=    31.5123   YY=    29.7000   ZY=    77.7459
   XZ=   -40.0095   YZ=    65.3072   ZZ=   130.9956
   Eigenvalues:   -52.1299    31.0240   169.2804
      8  H    Isotropic =    23.1586   Anisotropy =    13.5525
   XX=    28.5711   YX=     1.5482   ZX=    -3.6986
   XY=     3.2466   YY=    22.7592   ZY=    -2.1157
   XZ=    -8.3753   YZ=    -1.0821   ZZ=    18.1456
   Eigenvalues:    15.3521    21.9301    32.1936
      9  C    Isotropic =    55.1460   Anisotropy =   174.7426
   XX=    46.7071   YX=    -2.6162   ZX=    -2.8420
   XY=     0.6223   YY=    -1.6258   ZY=    92.8272
   XZ=     0.5159   YZ=    95.6598   ZZ=   120.3568
   Eigenvalues:   -52.8932    46.6901   171.6411
     10  H    Isotropic =    24.6278   Anisotropy =     7.1815
   XX=    29.1040   YX=     0.1399   ZX=    -0.3694
   XY=     0.3642   YY=    23.4778   ZY=    -1.0805
   XZ=    -2.4493   YZ=    -2.9465   ZZ=    21.3016
   Eigenvalues:    19.9703    24.4977    29.4155
     11  C    Isotropic =    51.5607   Anisotropy =   151.2142
   XX=     2.1639   YX=    40.9287   ZX=   -26.0048
   XY=    49.9131   YY=    12.2331   ZY=    42.1342
   XZ=   -15.6145   YZ=    38.6614   ZZ=   140.2851
   Eigenvalues:   -48.1951    50.5071   152.3701
     12  H    Isotropic =    23.8537   Anisotropy =     7.3815
   XX=    25.9672   YX=     2.3738   ZX=    -0.2390
   XY=     2.4320   YY=    26.3975   ZY=    -1.8291
   XZ=     0.3529   YZ=    -1.7731   ZZ=    19.1964
   Eigenvalues:    18.7149    24.0714    28.7747
     13  C    Isotropic =    52.8653   Anisotropy =   147.4265
   XX=    51.2944   YX=    19.9221   ZX=   -13.4678
   XY=    11.5478   YY=   -34.0176   ZY=    42.5079
   XZ=    -9.2241   YZ=    40.0716   ZZ=   141.3192
   Eigenvalues:   -46.5152    53.9616   151.1497
     14  H    Isotropic =    24.0156   Anisotropy =     7.3485
   XX=    28.6644   YX=     0.6281   ZX=     1.0808
   XY=     0.5926   YY=    24.4325   ZY=    -1.0823
   XZ=     1.6846   YZ=    -0.3842   ZZ=    18.9500
   Eigenvalues:    18.6430    24.4892    28.9146
     15  C    Isotropic =    46.2221   Anisotropy =   203.9048
   XX=   -27.2215   YX=    -0.0442   ZX=   -28.9124
   XY=     4.6427   YY=   -10.5571   ZY=    28.3830
   XZ=   -10.2704   YZ=    26.7376   ZZ=   176.4448
   Eigenvalues:   -30.5512   -12.9411   182.1586
     16  C    Isotropic =    51.9375   Anisotropy =   188.2004
   XX=   -19.4441   YX=     5.5046   ZX=    15.7858
   XY=    -8.3874   YY=     2.4863   ZY=    22.9264
   XZ=   -50.6243   YZ=    23.3340   ZZ=   172.7704
   Eigenvalues:   -21.0294    -0.5625   177.4045
     17  C    Isotropic =    51.9482   Anisotropy =   149.1264
   XX=    50.7296   YX=   -23.9353   ZX=   -18.4207
   XY=   -16.7271   YY=   -41.8764   ZY=    17.8662
   XZ=   -14.3278   YZ=    11.4871   ZZ=   146.9915
   Eigenvalues:   -46.7796    51.2584   151.3658
     18  H    Isotropic =    24.0122   Anisotropy =     7.5163
   XX=    28.5811   YX=    -0.0866   ZX=     1.5071
   XY=    -0.2466   YY=    24.3342   ZY=    -0.7657
   XZ=     2.5088   YZ=    -1.5208   ZZ=    19.1214
   Eigenvalues:    18.5094    24.5041    29.0231
     19  C    Isotropic =    51.7356   Anisotropy =   148.5924
   XX=     2.4559   YX=   -45.6913   ZX=   -31.2531
   XY=   -53.4448   YY=     7.4698   ZY=    -1.8888
   XZ=   -23.5601   YZ=    -1.2765   ZZ=   145.2810
   Eigenvalues:   -46.9894    51.3989   150.7972
     20  H    Isotropic =    23.9071   Anisotropy =     7.6651
   XX=    25.5796   YX=    -2.0226   ZX=     1.4905
   XY=    -1.9998   YY=    27.3706   ZY=    -0.5164
   XZ=     2.7276   YZ=    -1.1179   ZZ=    18.7711
   Eigenvalues:    18.1643    24.5398    29.0172
     21  C    Isotropic =    45.9767   Anisotropy =   203.9316
   XX=   -16.2108   YX=    13.1802   ZX=   -44.5913
   XY=     6.5714   YY=   -20.6329   ZY=     0.0949
   XZ=   -28.8984   YZ=   -13.0883   ZZ=   174.7736
   Eigenvalues:   -30.5796   -13.4215   181.9311
     22  C    Isotropic =    52.0450   Anisotropy =   188.1157
   XX=    -0.0787   YX=     2.5023   ZX=   -16.3451
   XY=    18.9327   YY=   -14.4798   ZY=   -34.4335
   XZ=   -50.6032   YZ=    19.9104   ZZ=   170.6934
   Eigenvalues:   -20.7705    -0.5500   177.4554
     23  C    Isotropic =    53.2392   Anisotropy =   146.7412
   XX=   -22.0674   YX=   -32.0012   ZX=   -49.4857
   XY=   -23.2043   YY=    44.3661   ZY=   -15.6400
   XZ=   -43.8090   YZ=   -20.2525   ZZ=   137.4189
   Eigenvalues:   -45.6776    54.3286   151.0667
     24  H    Isotropic =    23.8249   Anisotropy =     7.5289
   XX=    25.1073   YX=    -1.7330   ZX=     1.5380
   XY=    -1.5944   YY=    28.0047   ZY=     0.0879
   XZ=     1.2557   YZ=    -0.8283   ZZ=    18.3628
   Eigenvalues:    18.0848    24.5458    28.8442
     25  C    Isotropic =    51.4969   Anisotropy =   150.1066
   XX=   -28.4915   YX=    33.9684   ZX=   -52.3137
   XY=    22.0311   YY=    46.6072   ZY=    -3.8075
   XZ=   -44.5594   YZ=   -10.6355   ZZ=   136.3748
   Eigenvalues:   -48.3857    51.3083   151.5679
     26  H    Isotropic =    23.7431   Anisotropy =     7.4052
   XX=    24.0663   YX=     1.1141   ZX=     1.9989
   XY=     0.9693   YY=    28.1000   ZY=     1.6568
   XZ=     2.0795   YZ=     0.8886   ZZ=    19.0630
   Eigenvalues:    18.2615    24.2880    28.6799
     27  C    Isotropic =    45.8108   Anisotropy =   207.2710
   XX=    -2.7702   YX=    13.7697   ZX=   -61.4651
   XY=     6.5593   YY=   -12.0335   ZY=   -41.6456
   XZ=   -62.6381   YZ=   -44.9232   ZZ=   152.2361
   Eigenvalues:   -28.0803   -18.4787   183.9915
     28  C    Isotropic =    47.8398   Anisotropy =   197.2870
   XX=    19.6900   YX=    14.4398   ZX=   -60.5682
   XY=    28.5650   YY=   -19.3566   ZY=   -56.7015
   XZ=   -63.1331   YZ=   -24.4782   ZZ=   143.1859
   Eigenvalues:   -30.5979    -5.2472   179.3644
     29  C    Isotropic =    49.3441   Anisotropy =   179.7793
   XX=    -3.4110   YX=    38.3775   ZX=   -80.8875
   XY=    36.1252   YY=    25.9805   ZY=   -23.7573
   XZ=   -78.1065   YZ=    -3.9802   ZZ=   125.4627
   Eigenvalues:   -51.6645    30.4997   169.1970
     30  H    Isotropic =    23.1387   Anisotropy =    13.3222
   XX=    22.4354   YX=    -0.7013   ZX=    -0.2375
   XY=    -2.1539   YY=    28.3546   ZY=     4.5555
   XZ=    -3.4181   YZ=     8.3231   ZZ=    18.6259
   Eigenvalues:    15.2751    22.1208    32.0201
     31  C    Isotropic =    55.4410   Anisotropy =   174.9390
   XX=    17.1871   YX=   -14.0890   ZX=   -84.0024
   XY=   -17.9030   YY=    37.4745   ZY=   -50.3662
   XZ=   -84.6557   YZ=   -54.8325   ZZ=   111.6615
   Eigenvalues:   -51.9248    46.1808   172.0670
     32  H    Isotropic =    24.5337   Anisotropy =     7.2554
   XX=    24.6185   YX=    -2.5264   ZX=     0.7632
   XY=    -2.7385   YY=    27.4630   ZY=     1.0335
   XZ=     1.1913   YZ=     3.7573   ZZ=    21.5194
   Eigenvalues:    19.8987    24.3316    29.3706
     33  C    Isotropic =    53.1814   Anisotropy =   179.0596
   XX=    60.9231   YX=    35.2256   ZX=   -42.9515
   XY=    32.0226   YY=   -38.1801   ZY=   -45.5652
   XZ=   -44.2248   YZ=   -50.7831   ZZ=   136.8014
   Eigenvalues:   -55.1197    42.1095   172.5545
     34  H    Isotropic =    24.2825   Anisotropy =     5.1861
   XX=    26.7643   YX=    -0.0934   ZX=     2.5955
   XY=    -0.2993   YY=    24.8157   ZY=     0.8589
   XZ=     2.3715   YZ=     1.4580   ZZ=    21.2676
   Eigenvalues:    20.0339    25.0737    27.7399
     35  C    Isotropic =    51.5295   Anisotropy =   155.1748
   XX=    -0.5131   YX=    52.5760   ZX=   -52.1551
   XY=    55.6135   YY=    25.1843   ZY=   -14.2643
   XZ=   -45.7255   YZ=   -17.1625   ZZ=   129.9171
   Eigenvalues:   -48.3147    47.9237   154.9793
     36  H    Isotropic =    23.8384   Anisotropy =     7.3073
   XX=    24.2302   YX=     1.4459   ZX=     2.1759
   XY=     1.2147   YY=    27.1572   ZY=     2.0665
   XZ=     1.6853   YZ=     2.7775   ZZ=    20.1277
   Eigenvalues:    18.9464    23.8588    28.7099
     37  Bq   Isotropic =    16.1466   Anisotropy =     6.1439
   XX=    12.5868   YX=     1.8045   ZX=   -15.5760
   XY=    -1.7101   YY=    19.8973   ZY=     2.2957
   XZ=     6.7369   YZ=    -0.6937   ZZ=    15.9556
   Eigenvalues:     9.5181    18.6792    20.2425
     38  Bq   Isotropic =    11.9989   Anisotropy =    20.2455
   XX=     0.7987   YX=     9.2265   ZX=   -28.3318
   XY=     1.8274   YY=    20.5414   ZY=     5.6051
   XZ=    -4.0746   YZ=     3.4091   ZZ=    14.6565
   Eigenvalues:   -11.4685    21.9692    25.4958
     39  Bq   Isotropic =    15.1650   Anisotropy =     4.1080
   XX=    12.0649   YX=     0.3448   ZX=   -10.6526
   XY=    -2.3390   YY=    17.1900   ZY=     0.6561
   XZ=     9.9711   YZ=    -2.6625   ZZ=    16.2401
   Eigenvalues:    11.8144    15.7769    17.9037
     40  Bq   Isotropic =     5.7280   Anisotropy =    30.1277
   XX=   -14.5042   YX=    15.4310   ZX=   -32.6197
   XY=     4.8617   YY=    17.2848   ZY=     6.1999
   XZ=   -10.2757   YZ=     4.6340   ZZ=    14.4035
   Eigenvalues:   -28.7853    20.1563    25.8132
     41  Bq   Isotropic =    13.3361   Anisotropy =     7.8846
   XX=     9.8483   YX=    -0.2657   ZX=    -7.1251
   XY=    -2.5313   YY=    14.0323   ZY=    -0.6486
   XZ=    11.8515   YZ=    -4.2236   ZZ=    16.1278
   Eigenvalues:     8.9833    12.4325    18.5925
     42  Bq   Isotropic =    -1.7893   Anisotropy =    39.1461
   XX=   -33.1548   YX=    21.5289   ZX=   -31.0300
   XY=     8.0333   YY=    12.7896   ZY=     5.3000
   XZ=   -14.9897   YZ=     4.8070   ZZ=    14.9972
   Eigenvalues:   -46.4881    16.8120    24.3081
     43  Bq   Isotropic =    11.2690   Anisotropy =    11.6162
   XX=     7.1445   YX=    -0.4113   ZX=    -4.7379
   XY=    -2.4885   YY=    10.9782   ZY=    -1.5879
   XZ=    12.7323   YZ=    -5.3296   ZZ=    15.6844
   Eigenvalues:     5.5641     9.2298    19.0132
     44  Bq   Isotropic =    -6.7558   Anisotropy =    43.8198
   XX=   -46.9998   YX=    24.3389   ZX=   -21.9041
   XY=    10.1524   YY=     9.9728   ZY=     3.0245
   XZ=   -17.0735   YZ=     3.9091   ZZ=    16.7596
   Eigenvalues:   -57.0749    14.3501    22.4574
     45  Bq   Isotropic =     9.2980   Anisotropy =    14.1576
   XX=     4.5789   YX=    -0.3346   ZX=    -3.1762
   XY=    -2.3391   YY=     8.2989   ZY=    -2.2081
   XZ=    12.9460   YZ=    -6.0301   ZZ=    15.0163
   Eigenvalues:     2.6326     6.5249    18.7364
     46  Bq   Isotropic =    -5.8538   Anisotropy =    42.0747
   XX=   -48.5607   YX=    21.6901   ZX=    -8.1740
   XY=    10.2414   YY=    11.2293   ZY=     0.3116
   XZ=   -16.1650   YZ=     2.0479   ZZ=    19.7698
   Eigenvalues:   -54.5261    14.7686    22.1960
     47  Bq   Isotropic =    15.3954   Anisotropy =    11.9580
   XX=     9.5409   YX=     4.6195   ZX=   -21.8014
   XY=    -0.3902   YY=    21.3114   ZY=     4.0856
   XZ=     1.9582   YZ=     1.4662   ZZ=    15.3340
   Eigenvalues:     1.5307    21.2881    23.3674
     48  Bq   Isotropic =    16.3128   Anisotropy =     8.6674
   XX=    12.4596   YX=    -1.7789   ZX=   -15.0996
   XY=    -3.3681   YY=    21.3842   ZY=    -0.6839
   XZ=     7.9177   YZ=    -0.5746   ZZ=    15.0947
   Eigenvalues:     9.4366    17.4109    22.0911
     49  Bq   Isotropic =    11.0005   Anisotropy =    19.4626
   XX=    -1.2119   YX=     1.6649   ZX=   -28.8181
   XY=    -2.6904   YY=    22.8329   ZY=     0.2842
   XZ=    -3.5668   YZ=     2.2023   ZZ=    11.3805
   Eigenvalues:   -12.2914    21.3174    23.9755
     50  Bq   Isotropic =    15.5593   Anisotropy =     6.8568
   XX=    12.2438   YX=    -2.0784   ZX=   -10.0756
   XY=    -3.3141   YY=    18.2762   ZY=    -1.3214
   XZ=    11.1396   YZ=    -2.1468   ZZ=    16.1579
   Eigenvalues:    11.2111    15.3363    20.1305
     51  Bq   Isotropic =     3.7288   Anisotropy =    27.7469
   XX=   -18.3367   YX=     5.1756   ZX=   -34.0220
   XY=    -1.9651   YY=    19.7357   ZY=     0.3235
   XZ=   -10.5966   YZ=     2.7258   ZZ=     9.7873
   Eigenvalues:   -30.7369    19.6965    22.2267
     52  Bq   Isotropic =    13.8197   Anisotropy =     9.4539
   XX=    10.1255   YX=    -1.9152   ZX=    -6.5764
   XY=    -3.1090   YY=    14.7887   ZY=    -1.8847
   XZ=    12.9019   YZ=    -3.4876   ZZ=    16.5449
   Eigenvalues:     8.4904    12.8464    20.1223
     53  Bq   Isotropic =    -4.8455   Anisotropy =    37.1272
   XX=   -39.0033   YX=     8.8981   ZX=   -33.3546
   XY=    -1.2063   YY=    15.0840   ZY=     0.0585
   XZ=   -16.3592   YZ=     2.3898   ZZ=     9.3827
   Eigenvalues:   -49.7462    15.3037    19.9059
     54  Bq   Isotropic =    11.7621   Anisotropy =    12.6783
   XX=     7.4171   YX=    -1.5493   ZX=    -4.2766
   XY=    -2.8385   YY=    11.4822   ZY=    -2.3151
   XZ=    13.6246   YZ=    -4.5006   ZZ=    16.3868
   Eigenvalues:     5.3301     9.7418    20.2143
     55  Bq   Isotropic =   -10.4224   Anisotropy =    42.3726
   XX=   -53.9912   YX=    10.5885   ZX=   -24.7676
   XY=    -0.7717   YY=    11.9047   ZY=    -0.3129
   XZ=   -19.4095   YZ=     1.1502   ZZ=    10.8192
   Eigenvalues:   -61.1207    12.0274    17.8260
     56  Bq   Isotropic =     9.7601   Anisotropy =    14.9751
   XX=     4.8056   YX=    -1.1322   ZX=    -2.8186
   XY=    -2.5575   YY=     8.6186   ZY=    -2.6033
   XZ=    13.6782   YZ=    -5.1888   ZZ=    15.8560
   Eigenvalues:     2.5730     6.9637    19.7435
     57  Bq   Isotropic =    -9.2497   Anisotropy =    40.7113
   XX=   -54.9565   YX=     8.4357   ZX=   -10.9867
   XY=    -1.0555   YY=    12.8066   ZY=    -0.4946
   XZ=   -18.9706   YZ=    -0.8239   ZZ=    14.4008
   Eigenvalues:   -58.2237    12.5834    17.8912
     58  Bq   Isotropic =    15.1204   Anisotropy =    13.3314
   XX=     8.7441   YX=    -0.6510   ZX=   -21.6509
   XY=    -3.1770   YY=    23.2312   ZY=    -0.0937
   XZ=     2.9524   YZ=     0.9912   ZZ=    13.3857
   Eigenvalues:     1.3623    19.9908    24.0080
     59  Bq   Isotropic =    16.6795   Anisotropy =    11.3346
   XX=    13.4542   YX=    -4.9238   ZX=   -12.9020
   XY=    -4.6655   YY=    21.8138   ZY=    -3.7120
   XZ=     9.4809   YZ=    -1.0750   ZZ=    14.7706
   Eigenvalues:     9.8976    15.9051    24.2360
     60  Bq   Isotropic =    11.8577   Anisotropy =    20.3876
   XX=     1.6980   YX=    -5.6263   ZX=   -25.3484
   XY=    -6.5194   YY=    23.7923   ZY=    -5.0990
   XZ=    -1.6112   YZ=     0.0006   ZZ=    10.0828
   Eigenvalues:    -9.4618    19.5854    25.4494
     61  Bq   Isotropic =    15.8901   Anisotropy =     9.8809
   XX=    12.8773   YX=    -4.1242   ZX=    -8.4218
   XY=    -4.0367   YY=    18.5682   ZY=    -3.3333
   XZ=    12.4570   YZ=    -2.0723   ZZ=    16.2247
   Eigenvalues:    10.6828    14.5101    22.4774
     62  Bq   Isotropic =     5.2772   Anisotropy =    25.7595
   XX=   -13.4003   YX=    -5.2318   ZX=   -30.2791
   XY=    -7.8968   YY=    21.1583   ZY=    -5.6406
   XZ=    -8.6784   YZ=    -0.3238   ZZ=     8.0737
   Eigenvalues:   -25.9954    19.3768    22.4503
     63  Bq   Isotropic =    14.1438   Anisotropy =    11.5514
   XX=    10.5501   YX=    -3.2662   ZX=    -5.3540
   XY=    -3.5142   YY=    14.9852   ZY=    -3.1401
   XZ=    13.9894   YZ=    -3.0466   ZZ=    16.8963
   Eigenvalues:     7.8796    12.7072    21.8448
     64  Bq   Isotropic =    -2.3596   Anisotropy =    30.5986
   XX=   -31.5890   YX=    -4.5582   ZX=   -30.2187
   XY=    -9.4053   YY=    17.0070   ZY=    -5.3550
   XZ=   -14.7376   YZ=    -1.2367   ZZ=     7.5032
   Eigenvalues:   -42.8268    17.7086    18.0395
     65  Bq   Isotropic =    12.0785   Anisotropy =    14.0310
   XX=     7.7060   YX=    -2.4624   ZX=    -3.3872
   XY=    -3.0733   YY=    11.6076   ZY=    -3.0492
   XZ=    14.5087   YZ=    -3.8566   ZZ=    16.9219
   Eigenvalues:     4.8951     9.9079    21.4325
     66  Bq   Isotropic =    -7.2231   Anisotropy =    35.4344
   XX=   -44.7331   YX=    -4.4847   ZX=   -23.1799
   XY=   -10.6385   YY=    14.0048   ZY=    -3.9248
   XZ=   -18.0900   YZ=    -2.6610   ZZ=     9.0588
   Eigenvalues:   -52.7489    14.6797    16.3998
     67  Bq   Isotropic =    10.0605   Anisotropy =    15.9248
   XX=     4.9989   YX=    -1.7651   ZX=    -2.1829
   XY=    -2.7005   YY=     8.6896   ZY=    -2.9963
   XZ=    14.3873   YZ=    -4.4546   ZZ=    16.4930
   Eigenvalues:     2.3015     7.2030    20.6770
     68  Bq   Isotropic =    -6.0486   Anisotropy =    34.3060
   XX=   -45.2957   YX=    -5.8330   ZX=   -11.1925
   XY=   -11.2826   YY=    14.4395   ZY=    -1.6174
   XZ=   -17.8440   YZ=    -4.2427   ZZ=    12.7103
   Eigenvalues:   -49.9847    15.0168    16.8220
     69  Bq   Isotropic =    15.6226   Anisotropy =    15.2938
   XX=    10.4114   YX=    -5.4900   ZX=   -18.8106
   XY=    -5.4597   YY=    23.8696   ZY=    -4.3304
   XZ=     4.7496   YZ=    -0.2962   ZZ=    12.5869
   Eigenvalues:     2.8450    18.2045    25.8185
     70  Bq   Isotropic =    17.3229   Anisotropy =    13.5679
   XX=    15.4142   YX=    -6.9427   ZX=    -9.4947
   XY=    -5.3099   YY=    21.2695   ZY=    -5.8810
   XZ=    11.1756   YZ=    -1.7644   ZZ=    15.2850
   Eigenvalues:    11.0187    14.5818    26.3682
     71  Bq   Isotropic =    14.3748   Anisotropy =    20.7492
   XX=     8.3983   YX=   -10.4617   ZX=   -19.1370
   XY=    -8.5261   YY=    23.5554   ZY=    -8.6853
   XZ=     1.3335   YZ=    -2.1541   ZZ=    11.1706
   Eigenvalues:    -3.5131    18.4299    28.2076
     72  Bq   Isotropic =    16.2363   Anisotropy =    12.5635
   XX=    13.9248   YX=    -5.4120   ZX=    -6.0095
   XY=    -4.3706   YY=    18.1157   ZY=    -4.8067
   XZ=    13.7539   YZ=    -2.2029   ZZ=    16.6684
   Eigenvalues:    10.2822    13.8147    24.6120
     73  Bq   Isotropic =     9.7312   Anisotropy =    24.9518
   XX=    -2.0525   YX=   -12.2094   ZX=   -22.9187
   XY=   -10.9959   YY=    21.5890   ZY=    -9.4888
   XZ=    -4.9916   YZ=    -3.1564   ZZ=     9.6572
   Eigenvalues:   -15.9511    18.7791    26.3658
     74  Bq   Isotropic =    14.3700   Anisotropy =    13.6969
   XX=    11.1189   YX=    -4.1049   ZX=    -3.6576
   XY=    -3.6862   YY=    14.6476   ZY=    -4.0666
   XZ=    15.0019   YZ=    -2.7859   ZZ=    17.3436
   Eigenvalues:     7.2950    12.3138    23.5013
     75  Bq   Isotropic =     4.3916   Anisotropy =    28.4039
   XX=   -14.7627   YX=   -13.6929   ZX=   -22.9898
   XY=   -13.7005   YY=    18.3391   ZY=    -8.8271
   XZ=   -10.4719   YZ=    -4.4756   ZZ=     9.5983
   Eigenvalues:   -28.2518    18.0990    23.3275
     76  Bq   Isotropic =    12.2604   Anisotropy =    15.4898
   XX=     8.0162   YX=    -3.0269   ZX=    -2.1975
   XY=    -3.1670   YY=    11.3658   ZY=    -3.5834
   XZ=    15.3102   YZ=    -3.3528   ZZ=    17.3992
   Eigenvalues:     4.4070     9.7873    22.5869
     77  Bq   Isotropic =     1.1008   Anisotropy =    30.1334
   XX=   -23.9735   YX=   -14.7809   ZX=   -17.8490
   XY=   -15.8611   YY=    15.8705   ZY=    -6.3078
   XZ=   -13.5262   YZ=    -5.7891   ZZ=    11.4054
   Eigenvalues:   -35.2356    17.3483    21.1897
     78  Bq   Isotropic =    10.2258   Anisotropy =    16.9289
   XX=     5.1634   YX=    -2.1590   ZX=    -1.3523
   XY=    -2.7574   YY=     8.5152   ZY=    -3.2666
   XZ=    15.0236   YZ=    -3.8198   ZZ=    16.9988
   Eigenvalues:     1.9355     7.2301    21.5117
     79  Bq   Isotropic =     2.0828   Anisotropy =    29.3466
   XX=   -24.2879   YX=   -15.3724   ZX=    -8.8098
   XY=   -16.6730   YY=    15.9534   ZY=    -2.4890
   XZ=   -13.5142   YZ=    -6.6489   ZZ=    14.5828
   Eigenvalues:   -32.9412    17.5423    21.6472
     80  Bq   Isotropic =    16.9138   Anisotropy =    16.6485
   XX=    14.0871   YX=    -8.6552   ZX=   -14.0940
   XY=    -6.6419   YY=    23.3492   ZY=    -7.2657
   XZ=     6.9938   YZ=    -1.6887   ZZ=    13.3051
   Eigenvalues:     5.8898    16.8389    28.0129
     81  Bq   Isotropic =    18.1335   Anisotropy =    15.1533
   XX=    17.7883   YX=    -7.5401   ZX=    -5.6609
   XY=    -5.2497   YY=    20.1479   ZY=    -6.6987
   XZ=    12.7540   YZ=    -2.2416   ZZ=    16.4642
   Eigenvalues:    12.4534    13.7113    28.2357
     82  Bq   Isotropic =    17.6264   Anisotropy =    19.9647
   XX=    16.3111   YX=   -12.0104   ZX=   -12.1565
   XY=    -8.5511   YY=    22.7724   ZY=    -9.7055
   XZ=     4.5337   YZ=    -3.4320   ZZ=    13.7959
   Eigenvalues:     3.7639    18.1792    30.9362
     83  Bq   Isotropic =    16.5966   Anisotropy =    14.6939
   XX=    15.1538   YX=    -5.7728   ZX=    -3.3093
   XY=    -4.2960   YY=    17.1828   ZY=    -5.3948
   XZ=    14.8913   YZ=    -2.2883   ZZ=    17.4533
   Eigenvalues:     9.8966    13.5008    26.3926
     84  Bq   Isotropic =    15.2236   Anisotropy =    22.7651
   XX=    10.8777   YX=   -14.4475   ZX=   -14.6151
   XY=   -11.0303   YY=    21.6361   ZY=   -10.3757
   XZ=    -0.6723   YZ=    -4.6748   ZZ=    13.1571
   Eigenvalues:    -4.0576    19.3282    30.4003
     85  Bq   Isotropic =    14.5299   Anisotropy =    15.5752
   XX=    11.7378   YX=    -4.3340   ZX=    -1.7716
   XY=    -3.6208   YY=    13.9409   ZY=    -4.4333
   XZ=    15.8592   YZ=    -2.5618   ZZ=    17.9110
   Eigenvalues:     6.7706    11.9057    24.9134
     86  Bq   Isotropic =    12.3528   Anisotropy =    24.8343
   XX=     3.8394   YX=   -16.5662   ZX=   -14.5971
   XY=   -13.7068   YY=    19.4875   ZY=    -9.4864
   XZ=    -5.1489   YZ=    -6.0065   ZZ=    13.7313
   Eigenvalues:   -11.5349    19.6842    28.9090
     87  Bq   Isotropic =    12.3424   Anisotropy =    16.8592
   XX=     8.3107   YX=    -3.1856   ZX=    -0.8828
   XY=    -3.1216   YY=    10.8550   ZY=    -3.7704
   XZ=    15.9800   YZ=    -2.9143   ZZ=    17.8613
   Eigenvalues:     3.9271     9.5182    23.5819
     88  Bq   Isotropic =    10.6650   Anisotropy =    25.6186
   XX=    -1.3423   YX=   -17.8652   ZX=   -11.1745
   XY=   -15.8278   YY=    17.7733   ZY=    -6.7279
   XZ=    -7.7189   YZ=    -7.0042   ZZ=    15.5639
   Eigenvalues:   -15.5032    19.7540    27.7441
     89  Bq   Isotropic =    10.2844   Anisotropy =    17.8879
   XX=     5.2854   YX=    -2.2790   ZX=    -0.4375
   XY=    -2.7318   YY=     8.1524   ZY=    -3.3234
   XZ=    15.5547   YZ=    -3.2511   ZZ=    17.4154
   Eigenvalues:     1.5380     7.1055    22.2097
     90  Bq   Isotropic =    11.4157   Anisotropy =    24.8630
   XX=    -1.4280   YX=   -17.9226   ZX=    -5.1413
   XY=   -16.5706   YY=    17.7332   ZY=    -2.7087
   XZ=    -8.0945   YZ=    -7.2960   ZZ=    17.9420
   Eigenvalues:   -13.7225    19.9787    27.9911
     91  Bq   Isotropic =    18.6186   Anisotropy =    17.1450
   XX=    18.5356   YX=    -9.6412   ZX=    -8.7813
   XY=    -6.6226   YY=    22.2151   ZY=    -8.2541
   XZ=     9.2487   YZ=    -2.5904   ZZ=    15.1051
   Eigenvalues:     9.7031    16.1040    30.0486
     92  Bq   Isotropic =    18.9146   Anisotropy =    16.1636
   XX=    19.9618   YX=    -6.8340   ZX=    -2.1187
   XY=    -4.6377   YY=    18.8949   ZY=    -6.1959
   XZ=    14.0538   YZ=    -2.3066   ZZ=    17.8872
   Eigenvalues:    12.7695    14.2840    29.6904
     93  Bq   Isotropic =    20.6494   Anisotropy =    18.5245
   XX=    23.1962   YX=   -10.7679   ZX=    -5.9940
   XY=    -7.1707   YY=    22.0138   ZY=    -8.5503
   XZ=     7.3561   YZ=    -3.6275   ZZ=    16.7381
   Eigenvalues:    10.5472    18.4018    32.9990
     94  Bq   Isotropic =    16.9136   Anisotropy =    16.2485
   XX=    16.2706   YX=    -5.2642   ZX=    -0.7738
   XY=    -3.8935   YY=    16.0941   ZY=    -5.0633
   XZ=    15.7960   YZ=    -2.1721   ZZ=    18.3760
   Eigenvalues:     9.4782    13.5167    27.7459
     95  Bq   Isotropic =    20.1048   Anisotropy =    19.9764
   XX=    21.6880   YX=   -12.8516   ZX=    -7.4325
   XY=    -9.0215   YY=    21.7800   ZY=    -8.9040
   XZ=     3.2024   YZ=    -4.7283   ZZ=    16.8465
   Eigenvalues:     6.7016    20.1905    33.4224
     96  Bq   Isotropic =    14.6247   Anisotropy =    17.0503
   XX=    12.2717   YX=    -3.9822   ZX=     0.0206
   XY=    -3.3625   YY=    13.0841   ZY=    -4.1880
   XZ=    16.5277   YZ=    -2.2657   ZZ=    18.5185
   Eigenvalues:     6.2970    11.5856    25.9916
     97  Bq   Isotropic =    19.1428   Anisotropy =    20.8962
   XX=    18.8570   YX=   -14.5751   ZX=    -7.3611
   XY=   -10.9830   YY=    20.7646   ZY=    -7.9794
   XZ=    -0.3512   YZ=    -5.7915   ZZ=    17.8067
   Eigenvalues:     3.1065    21.2483    33.0736
     98  Bq   Isotropic =    12.3455   Anisotropy =    18.0036
   XX=     8.5302   YX=    -2.9527   ZX=     0.3779
   XY=    -2.9622   YY=    10.2160   ZY=    -3.5622
   XZ=    16.4999   YZ=    -2.4733   ZZ=    18.2904
   Eigenvalues:     3.4734     9.2152    24.3479
     99  Bq   Isotropic =    18.6295   Anisotropy =    21.0249
   XX=    16.5886   YX=   -15.4752   ZX=    -5.2480
   XY=   -12.5167   YY=    19.8753   ZY=    -5.6135
   XZ=    -2.5245   YZ=    -6.4609   ZZ=    19.4247
   Eigenvalues:     1.4593    21.7831    32.6461
    100  Bq   Isotropic =    10.2607   Anisotropy =    18.7136
   XX=     5.3410   YX=    -2.1321   ZX=     0.4466
   XY=    -2.6380   YY=     7.6888   ZY=    -3.1300
   XZ=    15.9679   YZ=    -2.7106   ZZ=    17.7524
   Eigenvalues:     1.1393     6.9064    22.7365
    101  Bq   Isotropic =    19.1933   Anisotropy =    20.3306
   XX=    16.6980   YX=   -15.1953   ZX=    -1.5437
   XY=   -13.0277   YY=    19.8809   ZY=    -2.3102
   XZ=    -3.2729   YZ=    -6.4929   ZZ=    21.0009
   Eigenvalues:     2.8502    21.9826    32.7470
    102  Bq   Isotropic =    20.2586   Anisotropy =    17.0445
   XX=    22.5362   YX=    -8.6933   ZX=    -3.9753
   XY=    -5.7006   YY=    21.0137   ZY=    -7.4676
   XZ=    11.1787   YZ=    -2.7800   ZZ=    17.2260
   Eigenvalues:    13.2882    15.8662    31.6216
    103  Bq   Isotropic =    19.4851   Anisotropy =    16.7498
   XX=    21.4928   YX=    -5.1762   ZX=     0.6660
   XY=    -3.7041   YY=    17.8178   ZY=    -4.7302
   XZ=    15.0253   YZ=    -1.9628   ZZ=    19.1445
   Eigenvalues:    12.3484    15.4551    30.6516
    104  Bq   Isotropic =    22.8473   Anisotropy =    16.9714
   XX=    27.9177   YX=    -7.7372   ZX=    -1.4338
   XY=    -5.1048   YY=    21.5023   ZY=    -6.0846
   XZ=     9.4897   YZ=    -2.9914   ZZ=    19.1220
   Eigenvalues:    15.5363    18.8441    34.1616
    105  Bq   Isotropic =    17.1127   Anisotropy =    17.2831
   XX=    17.0321   YX=    -4.0890   ZX=     1.2719
   XY=    -3.2882   YY=    15.1057   ZY=    -4.0072
   XZ=    16.4623   YZ=    -1.8167   ZZ=    19.2003
   Eigenvalues:     9.0412    13.6622    28.6348
    106  Bq   Isotropic =    23.5380   Anisotropy =    17.2147
   XX=    28.8772   YX=    -8.9863   ZX=    -2.2578
   XY=    -6.1255   YY=    22.0688   ZY=    -6.1499
   XZ=     6.1028   YZ=    -3.7746   ZZ=    19.6679
   Eigenvalues:    14.7255    20.8739    35.0144
    107  Bq   Isotropic =    14.6366   Anisotropy =    18.0919
   XX=    12.5948   YX=    -3.1669   ZX=     1.4985
   XY=    -2.9790   YY=    12.2686   ZY=    -3.4284
   XZ=    17.0146   YZ=    -1.8511   ZZ=    19.0462
   Eigenvalues:     5.8490    11.3629    26.6978
    108  Bq   Isotropic =    23.7667   Anisotropy =    17.1322
   XX=    28.5554   YX=    -9.9116   ZX=    -2.2133
   XY=    -7.1975   YY=    22.0049   ZY=    -5.3862
   XZ=     3.1857   YZ=    -4.4931   ZZ=    20.7399
   Eigenvalues:    13.8633    22.2487    35.1882
    109  Bq   Isotropic =    12.2780   Anisotropy =    18.8534
   XX=     8.6149   YX=    -2.3974   ZX=     1.4366
   XY=    -2.7254   YY=     9.5829   ZY=    -3.0043
   XZ=    16.8762   YZ=    -1.9898   ZZ=    18.6362
   Eigenvalues:     3.0430     8.9441    24.8470
    110  Bq   Isotropic =    23.9411   Anisotropy =    16.6903
   XX=    27.9535   YX=   -10.2250   ZX=    -0.9668
   XY=    -8.0111   YY=    21.8187   ZY=    -3.7383
   XZ=     1.2580   YZ=    -4.9100   ZZ=    22.0512
   Eigenvalues:    13.7852    22.9702    35.0680
    111  Bq   Isotropic =    10.1725   Anisotropy =    19.3449
   XX=     5.3064   YX=    -1.7597   ZX=     1.2009
   XY=    -2.4955   YY=     7.2141   ZY=    -2.7065
   XZ=    16.2658   YZ=    -2.1698   ZZ=    17.9970
   Eigenvalues:     0.7530     6.6954    23.0691
    112  Bq   Isotropic =    24.3616   Anisotropy =    16.0389
   XX=    28.1456   YX=    -9.7310   ZX=     1.2470
   XY=    -8.2150   YY=    21.9390   ZY=    -1.5387
   XZ=     0.2486   YZ=    -4.8836   ZZ=    23.0003
   Eigenvalues:    14.9340    23.0966    35.0542
    113  Bq   Isotropic =    21.4765   Anisotropy =    16.6926
   XX=    25.3423   YX=    -6.4152   ZX=    -0.3070
   XY=    -4.2920   YY=    20.0539   ZY=    -5.4988
   XZ=    12.6369   YZ=    -2.3531   ZZ=    19.0333
   Eigenvalues:    15.0945    16.7301    32.6049
    114  Bq   Isotropic =    19.7287   Anisotropy =    17.0080
   XX=    22.1634   YX=    -2.9610   ZX=     2.4784
   XY=    -2.6511   YY=    17.0566   ZY=    -2.7332
   XZ=    15.6985   YZ=    -1.3258   ZZ=    19.9662
   Eigenvalues:    11.8842    16.2346    31.0674
    115  Bq   Isotropic =    23.9996   Anisotropy =    15.6722
   XX=    30.2216   YX=    -3.8147   ZX=     1.3309
   XY=    -2.8636   YY=    21.2291   ZY=    -3.0636
   XZ=    10.9001   YZ=    -1.8916   ZZ=    20.5480
   Eigenvalues:    17.3732    20.1779    34.4477
    116  Bq   Isotropic =    17.1333   Anisotropy =    17.8587
   XX=    17.2915   YX=    -2.4970   ZX=     2.6487
   XY=    -2.5981   YY=    14.3619   ZY=    -2.5109
   XZ=    16.9249   YZ=    -1.2675   ZZ=    19.7465
   Eigenvalues:     8.5733    13.7874    29.0391
    117  Bq   Isotropic =    25.3228   Anisotropy =    14.9377
   XX=    32.3632   YX=    -4.0888   ZX=     0.7858
   XY=    -3.0682   YY=    22.3557   ZY=    -2.9348
   XZ=     7.9557   YZ=    -2.3331   ZZ=    21.2495
   Eigenvalues:    18.9473    21.7399    35.2812
    118  Bq   Isotropic =    14.5433   Anisotropy =    18.7130
   XX=    12.6215   YX=    -2.0454   ZX=     2.5239
   XY=    -2.5370   YY=    11.6200   ZY=    -2.3315
   XZ=    17.3475   YZ=    -1.3257   ZZ=    19.3885
   Eigenvalues:     5.3998    11.2115    27.0187
    119  Bq   Isotropic =    26.1146   Anisotropy =    13.9771
   XX=    33.1628   YX=    -4.1373   ZX=     0.7625
   XY=    -3.2934   YY=    22.9205   ZY=    -2.4538
   XZ=     5.3736   YZ=    -2.7386   ZZ=    22.2604
   Eigenvalues:    19.9706    22.9404    35.4326
    120  Bq   Isotropic =    12.1406   Anisotropy =    19.3841
   XX=     8.5227   YX=    -1.6187   ZX=     2.1917
   XY=    -2.4477   YY=     9.0538   ZY=    -2.2034
   XZ=    17.1266   YZ=    -1.4550   ZZ=    18.8453
   Eigenvalues:     2.6269     8.7316    25.0633
    121  Bq   Isotropic =    26.5667   Anisotropy =    12.9915
   XX=    33.2165   YX=    -3.8618   ZX=     1.5311
   XY=    -3.4178   YY=    23.1976   ZY=    -1.6219
   XZ=     3.5480   YZ=    -2.9763   ZZ=    23.2859
   Eigenvalues:    20.8612    23.6112    35.2277
    122  Bq   Isotropic =    10.0313   Anisotropy =    19.7479
   XX=     5.1656   YX=    -1.2250   ZX=     1.7527
   XY=    -2.3235   YY=     6.7999   ZY=    -2.1159
   XZ=    16.4580   YZ=    -1.6156   ZZ=    18.1284
   Eigenvalues:     0.3856     6.5118    23.1966
    123  Bq   Isotropic =    26.8514   Anisotropy =    12.4121
   XX=    33.3059   YX=    -3.2213   ZX=     2.9848
   XY=    -3.2868   YY=    23.4304   ZY=    -0.5933
   XZ=     2.3788   YZ=    -2.9711   ZZ=    23.8180
   Eigenvalues:    21.7726    23.6556    35.1262
    124  Bq   Isotropic =    22.0935   Anisotropy =    16.2953
   XX=    26.6803   YX=    -3.4146   ZX=     1.9968
   XY=    -2.7281   YY=    19.4280   ZY=    -2.9508
   XZ=    13.6292   YZ=    -1.5347   ZZ=    20.1721
   Eigenvalues:    14.9554    18.3681    32.9570
    125  Bq   Isotropic =    19.6005   Anisotropy =    16.9543
[...]
   140  Bq   0.000000
   141  Bq   0.000000
   142  Bq   0.000000
   143  Bq   0.000000
   144  Bq   0.000000
   145  Bq   0.000000
   146  Bq   0.000000
   147  Bq   0.000000
   148  Bq   0.000000
   149  Bq   0.000000
   150  Bq   0.000000
   151  Bq   0.000000
   152  Bq   0.000000
   153  Bq   0.000000
   154  Bq   0.000000
   155  Bq   0.000000
   156  Bq   0.000000
   157  Bq   0.000000
   158  Bq   0.000000
   159  Bq   0.000000
   160  Bq   0.000000
   161  Bq   0.000000
   162  Bq   0.000000
   163  Bq   0.000000
   164  Bq   0.000000
   165  Bq   0.000000
   166  Bq   0.000000
   167  Bq   0.000000
   168  Bq   0.000000
   169  Bq   0.000000
   170  Bq   0.000000
   171  Bq   0.000000
   172  Bq   0.000000
   173  Bq   0.000000
   174  Bq   0.000000
   175  Bq   0.000000
   176  Bq   0.000000
   177  Bq   0.000000
   178  Bq   0.000000
   179  Bq   0.000000
   180  Bq   0.000000
   181  Bq   0.000000
   182  Bq   0.000000
   183  Bq   0.000000
   184  Bq   0.000000
   185  Bq   0.000000
   186  Bq   0.000000
   187  Bq   0.000000
   188  Bq   0.000000
   189  Bq   0.000000
   190  Bq   0.000000
   191  Bq   0.000000
   192  Bq   0.000000
   193  Bq   0.000000
   194  Bq   0.000000
   195  Bq   0.000000
   196  Bq   0.000000
   197  Bq   0.000000
   198  Bq   0.000000
   199  Bq   0.000000
   200  Bq   0.000000
   201  Bq   0.000000
   202  Bq   0.000000
   203  Bq   0.000000
   204  Bq   0.000000
   205  Bq   0.000000
   206  Bq   0.000000
   207  Bq   0.000000
   208  Bq   0.000000
   209  Bq   0.000000
   210  Bq   0.000000
   211  Bq   0.000000
   212  Bq   0.000000
   213  Bq   0.000000
   214  Bq   0.000000
   215  Bq   0.000000
   216  Bq   0.000000
   217  Bq   0.000000
   218  Bq   0.000000
   219  Bq   0.000000
   220  Bq   0.000000
   221  Bq   0.000000
   222  Bq   0.000000
   223  Bq   0.000000
   224  Bq   0.000000
   225  Bq   0.000000
   226  Bq   0.000000
   227  Bq   0.000000
   228  Bq   0.000000
   229  Bq   0.000000
   230  Bq   0.000000
   231  Bq   0.000000
   232  Bq   0.000000
   233  Bq   0.000000
   234  Bq   0.000000
   235  Bq   0.000000
   236  Bq   0.000000
 Sum of Mulliken charges =   0.00000
 Mulliken charges with hydrogens summed into heavy atoms:
               1
     1  C   -0.255498
     3  C    0.169409
     5  C    0.448258
     6  C    0.064351
     7  C   -0.333926
     9  C   -0.139521
    11  C   -0.205988
    13  C   -0.119315
    15  C    0.653397
    16  C    0.034822
    17  C   -0.317410
    19  C   -0.316854
    21  C    0.651066
    22  C    0.037784
    23  C   -0.233803
    25  C   -0.321531
    27  C    0.448331
    28  C    0.061983
    29  C   -0.333381
    31  C   -0.139505
    33  C   -0.255977
    35  C    0.170579
    37  Bq   0.000000
    38  Bq   0.000000
    39  Bq   0.000000
    40  Bq   0.000000
    41  Bq   0.000000
    42  Bq   0.000000
    43  Bq   0.000000
    44  Bq   0.116215
    45  Bq   0.000000
    46  Bq   0.000000
    47  Bq   0.000000
    48  Bq   0.000000
    49  Bq   0.000000
    50  Bq   0.000000
    51  Bq   0.000000
    52  Bq   0.000000
    53  Bq   0.000000
    54  Bq   0.000000
    55  Bq   0.000000
    56  Bq   0.000000
    57  Bq   0.000000
    58  Bq   0.000000
    59  Bq   0.000000
    60  Bq   0.000000
    61  Bq   0.000000
    62  Bq   0.000000
    63  Bq   0.000000
    64  Bq   0.000000
    65  Bq   0.000000
    66  Bq   0.000000
    67  Bq   0.000000
    68  Bq   0.000000
    69  Bq   0.000000
    70  Bq   0.000000
    71  Bq   0.000000
    72  Bq   0.000000
    73  Bq   0.000000
    74  Bq   0.000000
    75  Bq   0.000000
    76  Bq   0.000000
    77  Bq   0.000000
    78  Bq   0.000000
    79  Bq   0.000000
    80  Bq   0.000000
    81  Bq   0.000000
    82  Bq   0.000000
    83  Bq   0.000000
    84  Bq   0.000000
    85  Bq   0.000000
    86  Bq   0.000000
    87  Bq   0.000000
    88  Bq   0.000000
    89  Bq   0.000000
    90  Bq   0.000000
    91  Bq   0.000000
    92  Bq   0.000000
    93  Bq   0.000000
    94  Bq   0.000000
    95  Bq   0.000000
    96  Bq   0.000000
    97  Bq   0.000000
    98  Bq   0.000000
    99  Bq   0.000000
   100  Bq   0.000000
   101  Bq   0.000000
   102  Bq   0.000000
   103  Bq   0.000000
   104  Bq   0.000000
   105  Bq   0.000000
   106  Bq   0.000000
   107  Bq   0.000000
   108  Bq   0.000000
   109  Bq   0.000000
   110  Bq   0.000000
   111  Bq   0.000000
   112  Bq   0.000000
   113  Bq   0.000000
   114  Bq   0.000000
   115  Bq   0.000000
   116  Bq   0.000000
   117  Bq   0.000000
   118  Bq   0.000000
   119  Bq   0.000000
   120  Bq   0.000000
   121  Bq   0.000000
   122  Bq   0.000000
   123  Bq   0.000000
   124  Bq   0.000000
   125  Bq   0.000000
   126  Bq   0.000000
   127  Bq   0.000000
   128  Bq   0.000000
   129  Bq   0.000000
   130  Bq   0.000000
   131  Bq   0.000000
   132  Bq   0.000000
   133  Bq   0.000000
   134  Bq   0.000000
   135  Bq   0.000000
   136  Bq   0.000000
   137  Bq   0.000000
   138  Bq   0.000000
   139  Bq   0.000000
   140  Bq   0.000000
   141  Bq   0.000000
   142  Bq   0.000000
   143  Bq   0.000000
   144  Bq   0.000000
   145  Bq   0.000000
   146  Bq   0.000000
   147  Bq   0.000000
   148  Bq   0.000000
   149  Bq   0.000000
   150  Bq   0.000000
   151  Bq   0.000000
   152  Bq   0.000000
   153  Bq   0.000000
   154  Bq   0.000000
   155  Bq   0.000000
   156  Bq   0.000000
   157  Bq   0.000000
   158  Bq   0.000000
   159  Bq   0.000000
   160  Bq   0.000000
   161  Bq   0.000000
   162  Bq   0.000000
   163  Bq   0.000000
   164  Bq   0.000000
   165  Bq   0.000000
   166  Bq   0.000000
   167  Bq   0.000000
   168  Bq   0.000000
   169  Bq   0.000000
   170  Bq   0.000000
   171  Bq   0.000000
   172  Bq   0.000000
   173  Bq   0.000000
   174  Bq   0.000000
   175  Bq   0.000000
   176  Bq   0.000000
   177  Bq   0.000000
   178  Bq   0.000000
   179  Bq   0.000000
   180  Bq   0.000000
   181  Bq   0.000000
   182  Bq   0.000000
   183  Bq   0.000000
   184  Bq   0.000000
   185  Bq   0.000000
   186  Bq   0.000000
   187  Bq   0.000000
   188  Bq   0.000000
   189  Bq   0.000000
   190  Bq   0.000000
   191  Bq   0.000000
   192  Bq   0.000000
   193  Bq   0.000000
   194  Bq   0.000000
   195  Bq   0.000000
   196  Bq   0.000000
   197  Bq   0.000000
   198  Bq   0.000000
   199  Bq   0.000000
   200  Bq   0.000000
   201  Bq   0.000000
   202  Bq   0.000000
   203  Bq   0.000000
   204  Bq   0.000000
   205  Bq   0.000000
   206  Bq   0.000000
   207  Bq   0.000000
   208  Bq   0.000000
   209  Bq   0.000000
   210  Bq   0.000000
   211  Bq   0.000000
   212  Bq   0.000000
   213  Bq   0.000000
   214  Bq   0.000000
   215  Bq   0.000000
   216  Bq   0.000000
   217  Bq   0.000000
   218  Bq   0.000000
   219  Bq   0.000000
   220  Bq   0.000000
   221  Bq   0.000000
   222  Bq   0.000000
   223  Bq   0.000000
   224  Bq   0.000000
   225  Bq   0.000000
   226  Bq   0.000000
   227  Bq   0.000000
   228  Bq   0.000000
   229  Bq   0.000000
   230  Bq   0.000000
   231  Bq   0.000000
   232  Bq   0.000000
   233  Bq   0.116514
   234  Bq   0.000000
   235  Bq   0.000000
   236  Bq   0.000000
 Electronic spatial extent (au):  <R**2>=           5736.9264
 Charge=              0.0000 electrons
 Dipole moment (field-independent basis, Debye):
    X=              0.0475    Y=              0.0856    Z=              0.0029  Tot=              0.0979
 Quadrupole moment (field-independent basis, Debye-Ang):
   XX=           -113.7056   YY=           -113.9456   ZZ=           -133.2669
   XY=             -0.3834   XZ=              3.2102   YZ=             -1.1839
 Traceless Quadrupole moment (field-independent basis, Debye-Ang):
   XX=              6.6005   YY=              6.3604   ZZ=            -12.9609
   XY=             -0.3834   XZ=              3.2102   YZ=             -1.1839
 Octapole moment (field-independent basis, Debye-Ang**2):
  XXX=            -16.4668  YYY=            -16.1860  ZZZ=             -1.7007  XYY=              2.5576
  XXY=             -6.5650  XXZ=             13.6547  XZZ=             -8.9478  YZZ=            -17.7168
  YYZ=            -13.2941  XYZ=              8.8036
 Hexadecapole moment (field-independent basis, Debye-Ang**3):
 XXXX=          -3951.1638 YYYY=          -3112.2161 ZZZZ=           -504.8311 XXXY=            340.6935
 XXXZ=            156.4968 YYYX=            335.5625 YYYZ=            -87.0893 ZZZX=            120.2262
 ZZZY=           -108.7373 XXYY=          -1176.4844 XXZZ=           -856.7291 YYZZ=           -665.7275
 XXYZ=            -68.9016 YYXZ=             48.1602 ZZXY=            153.0375
 N-N= 1.610917615562D+03 E-N=-5.186891130729D+03  KE= 8.436329774448D+02
 1\1\GINC-XHYSTOS\SP\RB3LYP\6-311+G(d,p)\C22H14\YANNICK\22-Aug-2020\0\\
 # rb3lyp/6-311+g** NMR geom=connectivity\\Title\\0,1\C,0,-4.0500558,-0
 .5771862,0.8136712\H,0,-5.0263804,-1.0082727,1.002476\C,0,-3.9381552,0
 .6617804,0.2400876\H,0,-4.8252424,1.233889,-0.0111295\C,0,-2.676841,1.
 2433246,0.0057578\C,0,-1.4974121,0.5051527,0.2848253\C,0,-1.6508332,-0
 .7338728,0.9404026\H,0,-0.7713646,-1.2730967,1.2633753\C,0,-2.8898548,
 -1.2624035,1.1994307\H,0,-2.9683706,-2.2124563,1.7152676\C,0,-2.577318
 5,2.5963696,-0.419293\H,0,-3.4870728,3.1412239,-0.6474055\C,0,-1.37418
 95,3.2147896,-0.436403\H,0,-1.2997315,4.2742019,-0.6578144\C,0,-0.1719
 488,2.499409,-0.1734588\C,0,-0.2043917,1.1018437,0.0192689\C,0,1.05134
 91,3.204256,-0.0676222\H,0,1.0427344,4.2819499,-0.1896997\C,0,2.194209
 1,2.5487446,0.2579577\H,0,3.1168527,3.0912848,0.4334727\C,0,2.2216473,
 1.1336562,0.293499\C,0,1.0486931,0.3945528,0.0302412\C,0,3.4483363,0.4
 614633,0.5573939\H,0,4.3095794,1.0606054,0.8334846\C,0,3.5427346,-0.88
 55926,0.4749463\H,0,4.4731467,-1.3939704,0.7038822\C,0,2.4490052,-1.64
 74447,-0.0196319\C,0,1.2150704,-1.0057258,-0.3013573\C,0,0.2531113,-1.
 743444,-1.0216591\H,0,-0.6541356,-1.2535051,-1.3462847\C,0,0.4494193,-
 3.0628597,-1.3413779\H,0,-0.3083162,-3.5944309,-1.905406\C,0,1.6251726
 ,-3.7207967,-0.9552541\H,0,1.7670048,-4.7687404,-1.1927019\C,0,2.61098
 72,-3.0144177,-0.318305\H,0,3.5525612,-3.4902813,-0.0646367\Bq,0,3.737
 8986519,-1.0364266124,1.0649785763\Bq,0,3.7892563805,-1.0079712944,0.8
 737910281\Bq,0,3.7122197876,-1.0506542714,1.1605723504\Bq,0,3.81493524
 49,-0.9937436353,0.778197254\Bq,0,3.6865409232,-1.0648819305,1.2561661
 245\Bq,0,3.8406141092,-0.9795159763,0.6826034799\Bq,0,3.6608620589,-1.
 0791095895,1.3517598986\Bq,0,3.8662929735,-0.9652883173,0.5870097058\B
 q,0,3.6351831946,-1.0933372485,1.4473536727\Bq,0,3.8919718378,-0.95106
 06583,0.4914159317\Bq,0,3.7635775162,-1.0221989534,0.9693848022\Bq,0,3
 .7342076014,-0.9374439184,1.0787191158\Bq,0,3.78556533,-0.9089886003,0
 .8875315676\Bq,0,3.708528737,-0.9516715774,1.1743128899\Bq,0,3.8112441
 943,-0.8947609413,0.7919377936\Bq,0,3.6828498727,-0.9658992364,1.26990
 6664\Bq,0,3.8369230586,-0.8805332823,0.6963440195\Bq,0,3.6571710084,-0
 .9801268955,1.3655004381\Bq,0,3.862601923,-0.8663056232,0.6007502454\B
 q,0,3.6314921441,-0.9943545545,1.4610942122\Bq,0,3.8882807873,-0.85207
 79642,0.5051564713\Bq,0,3.7598864657,-0.9232162594,0.9831253417\Bq,0,3
 .7305165508,-0.8384612243,1.0924596554\Bq,0,3.7818742795,-0.8100059063
 ,0.9012721072\Bq,0,3.7048376865,-0.8526888834,1.1880534295\Bq,0,3.8075
 531438,-0.7957782473,0.8056783331\Bq,0,3.6791588222,-0.8669165424,1.28
 36472036\Bq,0,3.8332320081,-0.7815505882,0.710084559\Bq,0,3.6534799579
 ,-0.8811442014,1.3792409777\Bq,0,3.8589108724,-0.7673229292,0.61449078
 49\Bq,0,3.6278010935,-0.8953718605,1.4748347518\Bq,0,3.8845897368,-0.7
 530952702,0.5188970108\Bq,0,3.7561954151,-0.8242335653,0.9968658813\Bq
 ,0,3.7268255003,-0.7394785303,1.106200195\Bq,0,3.7781832289,-0.7110232
 123,0.9150126468\Bq,0,3.701146636,-0.7537061893,1.2017939691\Bq,0,3.80
 38620933,-0.6967955532,0.8194188727\Bq,0,3.6754677716,-0.7679338484,1.
 2973877431\Bq,0,3.8295409576,-0.6825678942,0.7238250986\Bq,0,3.6497889
 073,-0.7821615074,1.3929815172\Bq,0,3.8552198219,-0.6683402352,0.62823
 13245\Bq,0,3.624110043,-0.7963891664,1.4885752913\Bq,0,3.8808986862,-0
 .6541125761,0.5326375504\Bq,0,3.7525043646,-0.7252508713,1.0106064209\
 Bq,0,3.7231344497,-0.6404958363,1.1199407345\Bq,0,3.7744921784,-0.6120
 405182,0.9287531863\Bq,0,3.6974555854,-0.6547234953,1.2155345086\Bq,0,
 3.8001710427,-0.5978128592,0.8331594122\Bq,0,3.6717767211,-0.668951154
 3,1.3111282827\Bq,0,3.825849907,-0.5835852002,0.7375656381\Bq,0,3.6460
 978568,-0.6831788134,1.4067220568\Bq,0,3.8515287714,-0.5693575411,0.64
 1971864\Bq,0,3.6204189925,-0.6974064724,1.5023158309\Bq,0,3.8772076357
 ,-0.5551298821,0.5463780899\Bq,0,3.7488133141,-0.6262681772,1.02434696
 04\Bq,0,3.7194433992,-0.5415131422,1.1336812741\Bq,0,3.7708011279,-0.5
 130578242,0.9424937259\Bq,0,3.6937645349,-0.5557408013,1.2292750482\Bq
 ,0,3.7964799922,-0.4988301652,0.8468999518\Bq,0,3.6680856706,-0.569968
 4603,1.3248688223\Bq,0,3.8221588565,-0.4846025061,0.7513061777\Bq,0,3.
 6424068062,-0.5841961193,1.4204625964\Bq,0,3.8478377208,-0.4703748471,
 0.6557124036\Bq,0,3.6167279419,-0.5984237784,1.5160563705\Bq,0,3.87351
 65851,-0.4561471881,0.5601186295\Bq,0,3.7451222635,-0.5272854832,1.038
 0875\Bq,0,3.7157523487,-0.4425304482,1.1474218136\Bq,0,3.7671100773,-0
 .4140751301,0.9562342654\Bq,0,3.6900734844,-0.4567581072,1.2430155877\
 Bq,0,3.7927889416,-0.3998474711,0.8606404913\Bq,0,3.66439462,-0.470985
 7663,1.3386093618\Bq,0,3.818467806,-0.3856198121,0.7650467173\Bq,0,3.6
 387157557,-0.4852134253,1.4342031359\Bq,0,3.8441466703,-0.3713921531,0
 .6694529432\Bq,0,3.6130368914,-0.4994410843,1.52979691\Bq,0,3.86982553
 46,-0.357164494,0.5738591691\Bq,0,3.741431213,-0.4283027892,1.05182803
 95\Bq,0,3.7120612981,-0.3435477542,1.1611623532\Bq,0,3.7634190268,-0.3
 150924361,0.969974805\Bq,0,3.6863824338,-0.3577754132,1.2567561273\Bq,
 0,3.7890978911,-0.3008647771,0.8743810309\Bq,0,3.6607035695,-0.3720030
 722,1.3523499014\Bq,0,3.8147767554,-0.2866371181,0.7787872568\Bq,0,3.6
 350247052,-0.3862307313,1.4479436755\Bq,0,3.8404556198,-0.272409459,0.
 6831934827\Bq,0,3.6093458409,-0.4004583903,1.5435374496\Bq,0,3.8661344
 841,-0.2581818,0.5875997086\Bq,0,3.7377401625,-0.3293200951,1.06556857
 91\Bq,0,3.7083702476,-0.2445650601,1.1749028928\Bq,0,3.7597279763,-0.2
 161097421,0.9837153446\Bq,0,3.6826913833,-0.2587927192,1.2704966668\Bq
 ,0,3.7854068406,-0.201882083,0.8881215705\Bq,0,3.657012519,-0.27302037
 82,1.3660904409\Bq,0,3.8110857049,-0.187654424,0.7925277964\Bq,0,3.631
 3336546,-0.2872480372,1.461684215\Bq,0,3.8367645692,-0.173426765,0.696
 9340223\Bq,0,3.6056547903,-0.3014756962,1.5572779891\Bq,0,3.8624434335
 ,-0.159199106,0.6013402482\Bq,0,3.7340491119,-0.2303374011,1.079309118
 7\Bq,0,3.7046791971,-0.1455823661,1.1886434323\Bq,0,3.7560369257,-0.11
 7127048,0.9974558841\Bq,0,3.6790003327,-0.1598100251,1.2842372064\Bq,0
 ,3.78171579,-0.102899389,0.90186211\Bq,0,3.6533214684,-0.1740376842,1.
 3798309805\Bq,0,3.8073946544,-0.08867173,0.8062683359\Bq,0,3.627642604
 1,-0.1882653432,1.4754247546\Bq,0,3.8330735187,-0.074444071,0.71067456
 18\Bq,0,3.6019637398,-0.2024930022,1.5710185287\Bq,0,3.858752383,-0.06
 02164119,0.6150807877\Bq,0,3.7303580614,-0.1313547071,1.0930496582\Bq,
 0,3.7009881465,-0.0465996721,1.2023839719\Bq,0,3.7523458752,-0.0181443
 54,1.0111964237\Bq,0,3.6753092822,-0.0608273311,1.297977746\Bq,0,3.778
 0247395,-0.003916695,0.9156026496\Bq,0,3.6496304179,-0.0750549901,1.39
 35715201\Bq,0,3.8037036038,0.0103109641,0.8200088755\Bq,0,3.6239515536
 ,-0.0892826491,1.4891652942\Bq,0,3.8293824681,0.0245386231,0.724415101
 4\Bq,0,3.5982726892,-0.1035103082,1.5847590682\Bq,0,3.8550613325,0.038
 7662821,0.6288213273\Bq,0,3.7266670109,-0.032372013,1.1067901978\Bq,0,
 3.697297096,0.052383022,1.2161245114\Bq,0,3.7486548246,0.08083834,1.02
 49369632\Bq,0,3.6716182317,0.0381553629,1.3117182855\Bq,0,3.774333689,
 0.0950659991,0.9293431891\Bq,0,3.6459393674,0.0239277039,1.4073120596\
 Bq,0,3.8000125533,0.1092936581,0.833749415\Bq,0,3.620260503,0.00970004
 49,1.5029058337\Bq,0,3.8256914176,0.1235213171,0.738155641\Bq,0,3.5945
 816387,-0.0045276141,1.5984996078\Bq,0,3.8513702819,0.1377489761,0.642
 5618669\Bq,0,3.7229759603,0.066610681,1.1205307373\Bq,0,3.6936060455,0
 .151365716,1.229865051\Bq,0,3.7449637741,0.1798210341,1.0386775028\Bq,
 0,3.6679271811,0.137138057,1.3254588251\Bq,0,3.7706426384,0.1940486931
 ,0.9430837287\Bq,0,3.6422483168,0.122910398,1.4210525992\Bq,0,3.796321
 5028,0.2082763521,0.8474899546\Bq,0,3.6165694525,0.1086827389,1.516646
 3733\Bq,0,3.8220003671,0.2225040112,0.7518961805\Bq,0,3.5908905882,0.0
 944550799,1.6122401474\Bq,0,3.8476792314,0.2367316702,0.6563024064\Bq,
 0,3.7192849098,0.165593375,1.1342712769\Bq,0,3.6899149949,0.25034841,1
 .2436055905\Bq,0,3.7412727236,0.2788037281,1.0524180424\Bq,0,3.6642361
 306,0.236120751,1.3391993646\Bq,0,3.7669515879,0.2930313871,0.95682426
 83\Bq,0,3.6385572663,0.221893092,1.4347931387\Bq,0,3.7926304522,0.3072
 590462,0.8612304942\Bq,0,3.612878402,0.207665433,1.5303869128\Bq,0,3.8
 183093165,0.3214867052,0.7656367201\Bq,0,3.5871995376,0.1934377739,1.6
 259806869\Bq,0,3.8439881809,0.3357143642,0.670042946\Bq,0,3.7155938593
 ,0.2645760691,1.1480118165\Bq,0,3.6862239444,0.3493311041,1.2573461301
 \Bq,0,3.737581673,0.3777864221,1.0661585819\Bq,0,3.6605450801,0.335103
 4451,1.3529399042\Bq,0,3.7632605374,0.3920140812,0.9705648078\Bq,0,3.6
 348662157,0.320875786,1.4485336783\Bq,0,3.7889394017,0.4062417402,0.87
 49710337\Bq,0,3.6091873514,0.306648127,1.5441274524\Bq,0,3.814618266,0
 .4204693992,0.7793772596\Bq,0,3.5835084871,0.292420468,1.6397212265\Bq
 ,0,3.8402971303,0.4346970583,0.6837834855\Bq,0,3.7119028087,0.36355876
 31,1.161752356\Bq,0,3.6825328939,0.4483137981,1.2710866697\Bq,0,3.7338
 906225,0.4767691162,1.0798991215\Bq,0,3.6568540295,0.4340861391,1.3666
 804438\Bq,0,3.7595694868,0.4909967752,0.9843053474\Bq,0,3.6311751652,0
 .4198584801,1.4622742179\Bq,0,3.7852483511,0.5052244342,0.8887115733\B
 q,0,3.6054963009,0.405630821,1.5578679919\Bq,0,3.8109272155,0.51945209
 33,0.7931177992\Bq,0,3.5798174366,0.391403162,1.653461766\Bq,0,3.83660
 60798,0.5336797523,0.6975240251\Bq,0,3.7082117582,0.4625414571,1.17549
 28956\Bq,0,3.6788418433,0.5472964922,1.2848272092\Bq,0,3.730199572,0.5
 757518102,1.093639661\Bq,0,3.653162979,0.5330688331,1.3804209833\Bq,0,
 3.7558784363,0.5899794692,0.9980458869\Bq,0,3.6274841147,0.5188411741,
 1.4760147574\Bq,0,3.7815573006,0.6042071283,0.9024521128\Bq,0,3.601805
 2504,0.5046135151,1.5716085315\Bq,0,3.8072361649,0.6184347873,0.806858
 3387\Bq,0,3.576126386,0.490385856,1.6672023056\Bq,0,3.8329150293,0.632
 6624463,0.7112645647\Bq,0,3.7045207076,0.5615241512,1.1892334351\Bq,0,
 3.6751507928,0.6462791862,1.2985677488\Bq,0,3.7265085214,0.6747345042,
 1.1073802006\Bq,0,3.6494719285,0.6320515272,1.3941615229\Bq,0,3.752187
 3858,0.6889621633,1.0117864265\Bq,0,3.6237930641,0.6178238681,1.489755
 297\Bq,0,3.7778662501,0.7031898223,0.9161926524\Bq,0,3.5981141998,0.60
 35962091,1.5853490711\Bq,0,3.8035451144,0.7174174813,0.8205988783\Bq,0
 ,3.5724353355,0.5893685501,1.6809428452\Bq,0,3.8292239787,0.7316451404
 ,0.7250051042\Bq,0,3.7008296571,0.6605068452,1.2029739747\Bq,0,3.67145
 97423,0.7452618802,1.3123082883\Bq,0,3.7228174709,0.7737171983,1.12112
 07402\\Version=ES64L-G09RevD.01\HF=-847.0032898\RMSD=7.559e-09\Dipole=
 0.0186808,0.0336671,0.0011595\Quadrupole=4.9072795,4.7288219,-9.636101
 4,-0.2850201,2.3867064,-0.880172\PG=C01 [X(C22H14)]\\@


 WE MIGHT AS WELL ATTEMPT TO INTRODUCE A NEW PLANET 
 INTO THE SOLAR SYSTEM, OR TO ANNIHILATE ONE ALREADYIN EXISTENCE, 
 AS TO CREATE OR DESTROY A PARTICLE OF HYDROGEN.
 ALL THE CHANGES WE CAN PRODUCE CONSIST IN SEPARATING PARTICLES
 THAT ARE IN A STATE OF ... COMBINATION, AND JOINING 
 THOSE THAT WERE PREVIOUSLY AT A DISTANCE.

                                    -- JOHN DALTON, 1810
 Job cpu time:       0 days  2 hours 35 minutes 30.2 seconds.
 File lengths (MBytes):  RWF=    184 Int=      0 D2E=      0 Chk=     19 Scr=      1
 Normal termination of Gaussian 09 at Sat Aug 22 21:20:14 2020.
