 Entering Gaussian System, Link 0=g09
 Input=input_cycle_04_batch_16800.com
 Output=input_cycle_04_batch_16800.log
 Initial command:
 /share/programs/GAUSSIAN/64/g09/l1.exe "/scratch/yannick.30532/Gau-2736121.inp" -scrdir="/scratch/yannick.30532/"
 Entering Link 1 = /share/programs/GAUSSIAN/64/g09/l1.exe PID=   2736122.
  
 Copyright (c) 1988,1990,1992,1993,1995,1998,2003,2009,2013,
            Gaussian, Inc.  All Rights Reserved.
  
 This is part of the Gaussian(R) 09 program.  It is based on
 the Gaussian(R) 03 system (copyright 2003, Gaussian, Inc.),
 the Gaussian(R) 98 system (copyright 1998, Gaussian, Inc.),
 the Gaussian(R) 94 system (copyright 1995, Gaussian, Inc.),
 the Gaussian 92(TM) system (copyright 1992, Gaussian, Inc.),
 the Gaussian 90(TM) system (copyright 1990, Gaussian, Inc.),
 the Gaussian 88(TM) system (copyright 1988, Gaussian, Inc.),
 the Gaussian 86(TM) system (copyright 1986, Carnegie Mellon
 University), and the Gaussian 82(TM) system (copyright 1983,
 Carnegie Mellon University). Gaussian is a federally registered
 trademark of Gaussian, Inc.
  
 This software contains proprietary and confidential information,
 including trade secrets, belonging to Gaussian, Inc.
  
 This software is provided under written license and may be
 used, copied, transmitted, or stored only in accord with that
 written license.
  
 The following legend is applicable only to US Government
 contracts under FAR:
  
                    RESTRICTED RIGHTS LEGEND
  
 Use, reproduction and disclosure by the US Government is
 subject to restrictions as set forth in subparagraphs (a)
 and (c) of the Commercial Computer Software - Restricted
 Rights clause in FAR 52.227-19.
  
 Gaussian, Inc.
 340 Quinnipiac St., Bldg. 40, Wallingford CT 06492
  
  
 ---------------------------------------------------------------
 Warning -- This program may not be used in any manner that
 competes with the business of Gaussian, Inc. or will provide
 assistance to any competitor of Gaussian, Inc.  The licensee
 of this program is prohibited from giving any competitor of
 Gaussian, Inc. access to this program.  By using this program,
 the user acknowledges that Gaussian, Inc. is engaged in the
 business of creating and licensing software in the field of
 computational chemistry and represents and warrants to the
 licensee that it is not a competitor of Gaussian, Inc. and that
 it will not use this program in any manner prohibited above.
 ---------------------------------------------------------------
  

 Cite this work as:
 Gaussian 09, Revision D.01,
 M. J. Frisch, G. W. Trucks, H. B. Schlegel, G. E. Scuseria, 
 M. A. Robb, J. R. Cheeseman, G. Scalmani, V. Barone, B. Mennucci, 
 G. A. Petersson, H. Nakatsuji, M. Caricato, X. Li, H. P. Hratchian, 
 A. F. Izmaylov, J. Bloino, G. Zheng, J. L. Sonnenberg, M. Hada, 
 M. Ehara, K. Toyota, R. Fukuda, J. Hasegawa, M. Ishida, T. Nakajima, 
 Y. Honda, O. Kitao, H. Nakai, T. Vreven, J. A. Montgomery, Jr., 
 J. E. Peralta, F. Ogliaro, M. Bearpark, J. J. Heyd, E. Brothers, 
 K. N. Kudin, V. N. Staroverov, T. Keith, R. Kobayashi, J. Normand, 
 K. Raghavachari, A. Rendell, J. C. Burant, S. S. Iyengar, J. Tomasi, 
 M. Cossi, N. Rega, J. M. Millam, M. Klene, J. E. Knox, J. B. Cross, 
 V. Bakken, C. Adamo, J. Jaramillo, R. Gomperts, R. E. Stratmann, 
 O. Yazyev, A. J. Austin, R. Cammi, C. Pomelli, J. W. Ochterski, 
 R. L. Martin, K. Morokuma, V. G. Zakrzewski, G. A. Voth, 
 P. Salvador, J. J. Dannenberg, S. Dapprich, A. D. Daniels, 
 O. Farkas, J. B. Foresman, J. V. Ortiz, J. Cioslowski, 
 and D. J. Fox, Gaussian, Inc., Wallingford CT, 2013.
 
 ******************************************
 Gaussian 09:  ES64L-G09RevD.01 24-Apr-2013
                22-Aug-2020 
 ******************************************
 %nproc=8
 Will use up to    8 processors via shared memory.
 %mem=1000MB
 ----------------------------------------
 # rb3lyp/6-311+g** NMR geom=connectivity
 ----------------------------------------
 1/38=1,57=2/1;
 2/12=2,17=6,18=5,40=1/2;
 3/5=4,6=6,7=111,11=2,16=1,25=1,30=1,74=-5,116=1/1,2,8,3;
 4//1;
 5/5=2,38=5/2;
 8/6=1,10=90,11=11/1;
 10/13=100,45=16/2;
 6/7=2,8=2,9=2,10=2,28=1/1;
 99/9=1/99;
 -----
 Title
 -----
 Symbolic Z-matrix:
 Charge =  0 Multiplicity = 1
 C                    -4.05006  -0.57719   0.81367 
 H                    -5.02638  -1.00827   1.00248 
 C                    -3.93816   0.66178   0.24009 
 H                    -4.82524   1.23389  -0.01113 
 C                    -2.67684   1.24332   0.00576 
 C                    -1.49741   0.50515   0.28483 
 C                    -1.65083  -0.73387   0.9404 
 H                    -0.77136  -1.2731    1.26338 
 C                    -2.88985  -1.2624    1.19943 
 H                    -2.96837  -2.21246   1.71527 
 C                    -2.57732   2.59637  -0.41929 
 H                    -3.48707   3.14122  -0.64741 
 C                    -1.37419   3.21479  -0.4364 
 H                    -1.29973   4.2742   -0.65781 
 C                    -0.17195   2.49941  -0.17346 
 C                    -0.20439   1.10184   0.01927 
 C                     1.05135   3.20426  -0.06762 
 H                     1.04273   4.28195  -0.1897 
 C                     2.19421   2.54874   0.25796 
 H                     3.11685   3.09128   0.43347 
 C                     2.22165   1.13366   0.2935 
 C                     1.04869   0.39455   0.03024 
 C                     3.44834   0.46146   0.55739 
 H                     4.30958   1.06061   0.83348 
 C                     3.54273  -0.88559   0.47495 
 H                     4.47315  -1.39397   0.70388 
 C                     2.44901  -1.64744  -0.01963 
 C                     1.21507  -1.00573  -0.30136 
 C                     0.25311  -1.74344  -1.02166 
 H                    -0.65414  -1.25351  -1.34628 
 C                     0.44942  -3.06286  -1.34138 
 H                    -0.30832  -3.59443  -1.90541 
 C                     1.62517  -3.7208   -0.95525 
 H                     1.767    -4.76874  -1.1927 
 C                     2.61099  -3.01442  -0.31831 
 H                     3.55256  -3.49028  -0.06464 
 Bq                    2.44257   1.91883   1.26148 
 Bq                    2.54529   1.97574   0.8791 
 Bq                    2.41689   1.9046    1.35707 
 Bq                    2.57097   1.98996   0.78351 
 Bq                    2.39122   1.89037   1.45266 
 Bq                    2.59665   2.00419   0.68791 
 Bq                    2.36554   1.87614   1.54826 
 Bq                    2.62233   2.01842   0.59232 
 Bq                    2.49393   1.94728   1.07029 
 Bq                    2.46456   2.03204   1.17962 
 Bq                    2.51592   2.06049   0.98843 
 Bq                    2.43888   2.01781   1.27522 
 Bq                    2.5416    2.07472   0.89284 
 Bq                    2.4132    2.00358   1.37081 
 Bq                    2.56728   2.08895   0.79725 
 Bq                    2.38752   1.98935   1.4664 
 Bq                    2.59296   2.10318   0.70165 
 Bq                    2.36185   1.97513   1.562 
 Bq                    2.61863   2.1174    0.60606 
 Bq                    2.49024   2.04626   1.08403 
 Bq                    2.46087   2.13102   1.19336 
 Bq                    2.51223   2.15947   1.00217 
 Bq                    2.43519   2.11679   1.28896 
 Bq                    2.53791   2.1737    0.90658 
 Bq                    2.40951   2.10256   1.38455 
 Bq                    2.56359   2.18793   0.81099 
 Bq                    2.38383   2.08834   1.48014 
 Bq                    2.58926   2.20216   0.71539 
 Bq                    2.35815   2.07411   1.57574 
 Bq                    2.61494   2.21639   0.6198 
 Bq                    2.48655   2.14525   1.09777 
 Bq                    2.742    -2.81812   0.53228 
 Bq                    2.79336  -2.78966   0.34109 
 Bq                    2.71632  -2.83234   0.62787 
 Bq                    2.81904  -2.77543   0.2455 
 Bq                    2.69064  -2.84657   0.72347 
 Bq                    2.84471  -2.7612    0.1499 
 Bq                    2.66496  -2.8608    0.81906 
 Bq                    2.87039  -2.74698   0.05431 
 Bq                    2.63928  -2.87503   0.91465 
 Bq                    2.89607  -2.73275  -0.04128 
 Bq                    2.76768  -2.80389   0.43668 
 Bq                    2.73831  -2.71913   0.54602 
 Bq                    2.78967  -2.69068   0.35483 
 Bq                    2.71263  -2.73336   0.64161 
 Bq                    2.81534  -2.67645   0.25924 
 Bq                    2.68695  -2.74759   0.73721 
 Bq                    2.84102  -2.66222   0.16364 
 Bq                    2.66127  -2.76182   0.8328 
 Bq                    2.8667   -2.64799   0.06805 
 Bq                    2.63559  -2.77604   0.92839 
 Bq                    2.89238  -2.63377  -0.02754 
 Bq                    2.76399  -2.7049    0.45043 
 Bq                    2.73462  -2.62015   0.55976 
 Bq                    2.78597  -2.59169   0.36857 
 Bq                    2.70894  -2.63438   0.65535 
 Bq                    2.81165  -2.57747   0.27298 
 Bq                    2.68326  -2.64861   0.75095 
 Bq                    2.83733  -2.56324   0.17738 
 Bq                    2.65758  -2.66283   0.84654 
 Bq                    2.86301  -2.54901   0.08179 
 Bq                    2.6319   -2.67706   0.94213 
 Bq                    2.88869  -2.53478  -0.0138 
 Bq                    2.7603   -2.60592   0.46417 
 Bq                    2.73093  -2.52117   0.5735 
 Bq                    2.78228  -2.49271   0.38231 
 Bq                    2.70525  -2.53539   0.66909 
 Bq                    2.80796  -2.47848   0.28672 
 Bq                    2.67957  -2.54962   0.76469 
 Bq                    2.83364  -2.46426   0.19112 
 Bq                    2.65389  -2.56385   0.86028 
 Bq                    2.85932  -2.45003   0.09553 
 Bq                    2.62821  -2.57808   0.95587 
 Bq                    2.885    -2.4358   -0.00006 
 Bq                    2.7566   -2.50694   0.47791 
 Bq                    2.72723  -2.42218   0.58724 
 Bq                    2.77859  -2.39373   0.39605 
 Bq                    2.70156  -2.43641   0.68283 
 Bq                    2.80427  -2.3795    0.30046 
 Bq                    2.67588  -2.45064   0.77843 
 Bq                    2.82995  -2.36527   0.20487 
 Bq                    2.6502   -2.46487   0.87402 
 Bq                    2.85563  -2.35105   0.10927 
 Bq                    2.62452  -2.47909   0.96962 
 Bq                    2.88131  -2.33682   0.01368 
 Bq                    2.75291  -2.40796   0.49165 
 Bq                    2.72354  -2.3232    0.60098 
 Bq                    2.7749   -2.29475   0.40979 
 Bq                    2.69786  -2.33743   0.69657 
 Bq                    2.80058  -2.28052   0.3142 
 Bq                    2.67219  -2.35166   0.79217 
 Bq                    2.82626  -2.26629   0.21861 
 Bq                    2.64651  -2.36588   0.88776 
 Bq                    2.85194  -2.25206   0.12301 
 Bq                    2.62083  -2.38011   0.98336 
 Bq                    2.87762  -2.23784   0.02742 
 Bq                    2.74922  -2.30897   0.50539 
 Bq                    2.71985  -2.22422   0.61472 
 Bq                    2.77121  -2.19576   0.42353 
 Bq                    2.69417  -2.23845   0.71032 
 Bq                    2.79689  -2.18154   0.32794 
 Bq                    2.66849  -2.25267   0.80591 
 Bq                    2.82257  -2.16731   0.23235 
 Bq                    2.64282  -2.2669    0.9015 
 Bq                    2.84825  -2.15308   0.13675 
 Bq                    2.61714  -2.28113   0.9971 
 Bq                    2.87393  -2.13885   0.04116 
 Bq                    2.74553  -2.20999   0.51913 
 Bq                    2.71616  -2.12524   0.62846 
 Bq                    2.76752  -2.09678   0.43727 
 Bq                    2.69048  -2.13946   0.72406 
 Bq                    2.7932   -2.08255   0.34168 
 Bq                    2.6648   -2.15369   0.81965 
 Bq                    2.81888  -2.06833   0.24609 
 Bq                    2.63912  -2.16792   0.91524 
 Bq                    2.84456  -2.0541    0.15049 
 Bq                    2.61345  -2.18215   1.01084 
 Bq                    2.87023  -2.03987   0.0549 
 Bq                    2.74184  -2.11101   0.53287 
 Bq                    2.71247  -2.02625   0.6422 
 Bq                    2.76383  -1.9978    0.45102 
 Bq                    2.68679  -2.04048   0.7378 
 Bq                    2.78951  -1.98357   0.35542 
 Bq                    2.66111  -2.05471   0.83339 
 Bq                    2.81519  -1.96934   0.25983 
 Bq                    2.63543  -2.06894   0.92898 
 Bq                    2.84086  -1.95512   0.16423 
 Bq                    2.60975  -2.08316   1.02458 
 Bq                    2.86654  -1.94089   0.06864 
 Bq                    2.73815  -2.01203   0.54661 
 Bq                    2.70878  -1.92727   0.65594 
 Bq                    2.76014  -1.89882   0.46476 
 Bq                    2.6831   -1.9415    0.75154 
 Bq                    2.78582  -1.88459   0.36916 
 Bq                    2.65742  -1.95573   0.84713 
 Bq                    2.81149  -1.87036   0.27357 
 Bq                    2.63174  -1.96995   0.94272 
 Bq                    2.83717  -1.85613   0.17797 
 Bq                    2.60606  -1.98418   1.03832 
 Bq                    2.86285  -1.8419    0.08238 
 Bq                    2.73446  -1.91304   0.56035 
 Bq                    2.70509  -1.82829   0.66968 
 Bq                    2.75645  -1.79983   0.4785 
 Bq                    2.67941  -1.84252   0.76528 
 Bq                    2.78212  -1.78561   0.3829 
 Bq                    2.65373  -1.85674   0.86087 
 Bq                    2.8078   -1.77138   0.28731 
 Bq                    2.62805  -1.87097   0.95646 
 Bq                    2.83348  -1.75715   0.19171 
 Bq                    2.60237  -1.8852    1.05206 
 Bq                    2.85916  -1.74292   0.09612 
 Bq                    2.73077  -1.81406   0.57409 
 Bq                    2.7014   -1.72931   0.68342 
 Bq                    2.75275  -1.70085   0.49224 
 Bq                    2.67572  -1.74353   0.77902 
 Bq                    2.77843  -1.68662   0.39664 
 Bq                    2.65004  -1.75776   0.87461 
 Bq                    2.80411  -1.67239   0.30105 
 Bq                    2.62436  -1.77199   0.97021 
 Bq                    2.82979  -1.65817   0.20546 
 Bq                    2.59868  -1.78622   1.0658 
 Bq                    2.85547  -1.64394   0.10986 
 Bq                    2.72708  -1.71508   0.58783 
 Bq                    2.69771  -1.63032   0.69716 
 Bq                    2.74906  -1.60187   0.50598 
 Bq                    2.67203  -1.64455   0.79276 
 Bq                    2.77474  -1.58764   0.41038 
 Bq                    2.64635  -1.65878   0.88835 
 Bq                    2.80042  -1.57341   0.31479 
 Bq                    2.62067  -1.67301   0.98395 
 Bq                    2.8261   -1.55918   0.2192 
 Bq                    2.59499  -1.68723   1.07954 
 Bq                    2.85178  -1.54496   0.1236 
 Bq                    2.72339  -1.6161    0.60157 
 Bq                    2.69402  -1.53134   0.71091 
 Bq                    2.74537  -1.50288   0.51972 
 Bq                    2.66834  -1.54557   0.8065 
 Bq                    2.77105  -1.48866   0.42412 
 Bq                    2.64266  -1.5598    0.90209 
 Bq                    2.79673  -1.47443   0.32853 
 Bq                    2.61698  -1.57402   0.99769 
 Bq                    2.82241  -1.4602    0.23294 
 Bq                    2.5913   -1.58825   1.09328 
 Bq                    2.84809  -1.44597   0.13734 
 Bq                    2.71969  -1.51711   0.61531 
 Bq                    2.69032  -1.43236   0.72465 
 Bq                    2.74168  -1.4039    0.53346 
 Bq                    2.66465  -1.44659   0.82024 
 Bq                    2.76736  -1.38967   0.43786 
 Bq                    2.63897  -1.46081   0.91583 
 Bq                    2.79304  -1.37545   0.34227 
 Bq                    2.61329  -1.47504   1.01143 
 Bq                    2.81872  -1.36122   0.24668 
 Bq                    2.58761  -1.48927   1.10702 
 Bq                    2.8444   -1.34699   0.15108 
 Bq                    2.716    -1.41813   0.62905 
 Bq                    2.68663  -1.33337   0.73839 
 Bq                    2.73799  -1.30492   0.5472 
 Bq                    2.66095  -1.3476    0.83398 
 Bq                    2.76367  -1.29069   0.45161 
 
 Symmetry turned off:
 Cannot cope with ghost atoms or with translation vectors.
 Stoichiometry    C22H14
 Framework group  C1[X(C22H14)]
 NUMDOF-- NAT=    36 NAtoms=   236
 Deg. of freedom     0
 Full point group                 C1      NOp   1
                          Input orientation:                          
 ---------------------------------------------------------------------
 Center     Atomic      Atomic             Coordinates (Angstroms)
 Number     Number       Type             X           Y           Z
 ---------------------------------------------------------------------
      1          6           0       -4.050056   -0.577186    0.813671
      2          1           0       -5.026380   -1.008273    1.002476
      3          6           0       -3.938155    0.661780    0.240088
      4          1           0       -4.825242    1.233889   -0.011130
      5          6           0       -2.676841    1.243325    0.005758
      6          6           0       -1.497412    0.505153    0.284825
      7          6           0       -1.650833   -0.733873    0.940403
      8          1           0       -0.771365   -1.273097    1.263375
      9          6           0       -2.889855   -1.262404    1.199431
     10          1           0       -2.968371   -2.212456    1.715268
     11          6           0       -2.577319    2.596370   -0.419293
     12          1           0       -3.487073    3.141224   -0.647406
     13          6           0       -1.374190    3.214790   -0.436403
     14          1           0       -1.299732    4.274202   -0.657814
     15          6           0       -0.171949    2.499409   -0.173459
     16          6           0       -0.204392    1.101844    0.019269
     17          6           0        1.051349    3.204256   -0.067622
     18          1           0        1.042734    4.281950   -0.189700
     19          6           0        2.194209    2.548745    0.257958
     20          1           0        3.116853    3.091285    0.433473
     21          6           0        2.221647    1.133656    0.293499
     22          6           0        1.048693    0.394553    0.030241
     23          6           0        3.448336    0.461463    0.557394
     24          1           0        4.309579    1.060605    0.833485
     25          6           0        3.542735   -0.885593    0.474946
     26          1           0        4.473147   -1.393970    0.703882
     27          6           0        2.449005   -1.647445   -0.019632
     28          6           0        1.215070   -1.005726   -0.301357
     29          6           0        0.253111   -1.743444   -1.021659
     30          1           0       -0.654136   -1.253505   -1.346285
     31          6           0        0.449419   -3.062860   -1.341378
     32          1           0       -0.308316   -3.594431   -1.905406
     33          6           0        1.625173   -3.720797   -0.955254
     34          1           0        1.767005   -4.768740   -1.192702
     35          6           0        2.610987   -3.014418   -0.318305
     36          1           0        3.552561   -3.490281   -0.064637
     37          0           0        2.442573    1.918827    1.261475
     38          0           0        2.545289    1.975737    0.879100
     39          0           0        2.416894    1.904599    1.357069
     40          0           0        2.570968    1.989965    0.783506
     41          0           0        2.391216    1.890371    1.452663
     42          0           0        2.596646    2.004193    0.687913
     43          0           0        2.365537    1.876144    1.548256
     44          0           0        2.622325    2.018420    0.592319
     45          0           0        2.493931    1.947282    1.070288
     46          0           0        2.464561    2.032037    1.179622
     47          0           0        2.515919    2.060492    0.988434
     48          0           0        2.438882    2.017809    1.275216
     49          0           0        2.541598    2.074720    0.892841
     50          0           0        2.413203    2.003582    1.370809
     51          0           0        2.567277    2.088948    0.797247
     52          0           0        2.387524    1.989354    1.466403
     53          0           0        2.592955    2.103175    0.701653
     54          0           0        2.361846    1.975126    1.561997
     55          0           0        2.618634    2.117403    0.606059
     56          0           0        2.490240    2.046265    1.084028
     57          0           0        2.460870    2.131020    1.193362
     58          0           0        2.512228    2.159475    1.002175
     59          0           0        2.435191    2.116792    1.288956
     60          0           0        2.537907    2.173703    0.906581
     61          0           0        2.409512    2.102564    1.384550
     62          0           0        2.563585    2.187930    0.810987
     63          0           0        2.383833    2.088337    1.480144
     64          0           0        2.589264    2.202158    0.715394
     65          0           0        2.358155    2.074109    1.575738
     66          0           0        2.614943    2.216386    0.619800
     67          0           0        2.486549    2.145247    1.097769
     68          0           0        2.741999   -2.818115    0.532278
     69          0           0        2.793357   -2.789660    0.341091
     70          0           0        2.716320   -2.832343    0.627872
     71          0           0        2.819035   -2.775432    0.245497
     72          0           0        2.690641   -2.846570    0.723466
     73          0           0        2.844714   -2.761204    0.149903
     74          0           0        2.664962   -2.860798    0.819060
     75          0           0        2.870393   -2.746977    0.054309
     76          0           0        2.639283   -2.875026    0.914653
     77          0           0        2.896072   -2.732749   -0.041284
     78          0           0        2.767678   -2.803887    0.436684
     79          0           0        2.738308   -2.719132    0.546019
     80          0           0        2.789665   -2.690677    0.354831
     81          0           0        2.712629   -2.733360    0.641613
     82          0           0        2.815344   -2.676449    0.259237
     83          0           0        2.686950   -2.747588    0.737206
     84          0           0        2.841023   -2.662222    0.163644
     85          0           0        2.661271   -2.761815    0.832800
     86          0           0        2.866702   -2.647994    0.068050
     87          0           0        2.635592   -2.776043    0.928394
     88          0           0        2.892381   -2.633766   -0.027544
     89          0           0        2.763987   -2.704905    0.450425
     90          0           0        2.734617   -2.620150    0.559759
     91          0           0        2.785974   -2.591694    0.368572
     92          0           0        2.708938   -2.634377    0.655353
     93          0           0        2.811653   -2.577467    0.272978
     94          0           0        2.683259   -2.648605    0.750947
     95          0           0        2.837332   -2.563239    0.177384
     96          0           0        2.657580   -2.662833    0.846541
     97          0           0        2.863011   -2.549011    0.081790
     98          0           0        2.631901   -2.677060    0.942134
     99          0           0        2.888690   -2.534784   -0.013803
    100          0           0        2.760296   -2.605922    0.464166
    101          0           0        2.730926   -2.521167    0.573500
    102          0           0        2.782283   -2.492712    0.382312
    103          0           0        2.705247   -2.535395    0.669094
    104          0           0        2.807962   -2.478484    0.286719
    105          0           0        2.679568   -2.549622    0.764687
    106          0           0        2.833641   -2.464256    0.191125
    107          0           0        2.653889   -2.563850    0.860281
    108          0           0        2.859320   -2.450029    0.095531
    109          0           0        2.628210   -2.578078    0.955875
    110          0           0        2.884999   -2.435801   -0.000063
    111          0           0        2.756605   -2.506939    0.477906
    112          0           0        2.727235   -2.422184    0.587240
    113          0           0        2.778592   -2.393729    0.396053
    114          0           0        2.701556   -2.436412    0.682834
    115          0           0        2.804271   -2.379501    0.300459
    116          0           0        2.675877   -2.450640    0.778428
    117          0           0        2.829950   -2.365274    0.204865
    118          0           0        2.650198   -2.464867    0.874022
    119          0           0        2.855629   -2.351046    0.109272
    120          0           0        2.624519   -2.479095    0.969616
    121          0           0        2.881308   -2.336818    0.013678
    122          0           0        2.752913   -2.407957    0.491647
    123          0           0        2.723544   -2.323202    0.600981
    124          0           0        2.774901   -2.294746    0.409793
    125          0           0        2.697865   -2.337429    0.696575
    126          0           0        2.800580   -2.280519    0.314200
    127          0           0        2.672186   -2.351657    0.792169
    128          0           0        2.826259   -2.266291    0.218606
    129          0           0        2.646507   -2.365885    0.887762
    130          0           0        2.851938   -2.252063    0.123012
    131          0           0        2.620828   -2.380112    0.983356
    132          0           0        2.877617   -2.237836    0.027418
    133          0           0        2.749222   -2.308974    0.505387
    134          0           0        2.719853   -2.224219    0.614722
    135          0           0        2.771210   -2.195764    0.423534
    136          0           0        2.694174   -2.238447    0.710315
    137          0           0        2.796889   -2.181536    0.327940
    138          0           0        2.668495   -2.252674    0.805909
    139          0           0        2.822568   -2.167308    0.232346
    140          0           0        2.642816   -2.266902    0.901503
    141          0           0        2.848247   -2.153081    0.136753
    142          0           0        2.617137   -2.281130    0.997097
    143          0           0        2.873926   -2.138853    0.041159
    144          0           0        2.745531   -2.209991    0.519128
    145          0           0        2.716161   -2.125236    0.628462
    146          0           0        2.767519   -2.096781    0.437274
    147          0           0        2.690483   -2.139464    0.724056
    148          0           0        2.793198   -2.082553    0.341681
    149          0           0        2.664804   -2.153692    0.819650
    150          0           0        2.818877   -2.068326    0.246087
    151          0           0        2.639125   -2.167919    0.915243
    152          0           0        2.844556   -2.054098    0.150493
    153          0           0        2.613446   -2.182147    1.010837
    154          0           0        2.870235   -2.039870    0.054899
    155          0           0        2.741840   -2.111009    0.532868
    156          0           0        2.712470   -2.026254    0.642203
    157          0           0        2.763828   -1.997798    0.451015
    158          0           0        2.686792   -2.040481    0.737796
    159          0           0        2.789507   -1.983571    0.355421
    160          0           0        2.661113   -2.054709    0.833390
    161          0           0        2.815186   -1.969343    0.259827
    162          0           0        2.635434   -2.068937    0.928984
    163          0           0        2.840865   -1.955115    0.164234
    164          0           0        2.609755   -2.083164    1.024578
    165          0           0        2.866544   -1.940888    0.068640
    166          0           0        2.738149   -2.012026    0.546609
    167          0           0        2.708779   -1.927271    0.655943
    168          0           0        2.760137   -1.898816    0.464756
    169          0           0        2.683100   -1.941499    0.751537
    170          0           0        2.785816   -1.884588    0.369162
    171          0           0        2.657422   -1.955726    0.847131
    172          0           0        2.811495   -1.870360    0.273568
    173          0           0        2.631743   -1.969954    0.942724
    174          0           0        2.837174   -1.856133    0.177974
    175          0           0        2.606064   -1.984181    1.038318
    176          0           0        2.862853   -1.841905    0.082380
    177          0           0        2.734458   -1.913043    0.560349
    178          0           0        2.705088   -1.828288    0.669684
    179          0           0        2.756446   -1.799833    0.478496
    180          0           0        2.679409   -1.842516    0.765277
    181          0           0        2.782125   -1.785605    0.382902
    182          0           0        2.653731   -1.856743    0.860871
    183          0           0        2.807804   -1.771378    0.287309
    184          0           0        2.628052   -1.870971    0.956465
    185          0           0        2.833483   -1.757150    0.191715
    186          0           0        2.602373   -1.885199    1.052059
    187          0           0        2.859161   -1.742922    0.096121
    188          0           0        2.730767   -1.814061    0.574090
    189          0           0        2.701397   -1.729305    0.683424
    190          0           0        2.752755   -1.700850    0.492237
    191          0           0        2.675718   -1.743533    0.779018
    192          0           0        2.778434   -1.686622    0.396643
    193          0           0        2.650040   -1.757761    0.874612
    194          0           0        2.804113   -1.672395    0.301049
    195          0           0        2.624361   -1.771988    0.970206
    196          0           0        2.829792   -1.658167    0.205455
    197          0           0        2.598682   -1.786216    1.065799
    198          0           0        2.855470   -1.643940    0.109862
    199          0           0        2.727076   -1.715078    0.587830
    200          0           0        2.697706   -1.630323    0.697165
    201          0           0        2.749064   -1.601867    0.505977
    202          0           0        2.672027   -1.644550    0.792759
    203          0           0        2.774743   -1.587640    0.410383
    204          0           0        2.646348   -1.658778    0.888352
    205          0           0        2.800422   -1.573412    0.314790
    206          0           0        2.620670   -1.673006    0.983946
    207          0           0        2.826101   -1.559184    0.219196
    208          0           0        2.594991   -1.687233    1.079540
    209          0           0        2.851779   -1.544957    0.123602
    210          0           0        2.723385   -1.616095    0.601571
    211          0           0        2.694015   -1.531340    0.710905
    212          0           0        2.745373   -1.502885    0.519718
    213          0           0        2.668336   -1.545568    0.806499
    214          0           0        2.771052   -1.488657    0.424124
    215          0           0        2.642657   -1.559795    0.902093
    216          0           0        2.796731   -1.474429    0.328530
    217          0           0        2.616979   -1.574023    0.997687
    218          0           0        2.822409   -1.460202    0.232936
    219          0           0        2.591300   -1.588251    1.093280
    220          0           0        2.848088   -1.445974    0.137343
    221          0           0        2.719694   -1.517112    0.615312
    222          0           0        2.690324   -1.432357    0.724646
    223          0           0        2.741682   -1.403902    0.533458
    224          0           0        2.664645   -1.446585    0.820240
    225          0           0        2.767361   -1.389674    0.437864
    226          0           0        2.638966   -1.460813    0.915833
    227          0           0        2.793040   -1.375447    0.342271
    228          0           0        2.613288   -1.475040    1.011427
    229          0           0        2.818718   -1.361219    0.246677
    230          0           0        2.587609   -1.489268    1.107021
    231          0           0        2.844397   -1.346991    0.151083
    232          0           0        2.716003   -1.418130    0.629052
    233          0           0        2.686633   -1.333375    0.738386
    234          0           0        2.737991   -1.304919    0.547199
    235          0           0        2.660954   -1.347602    0.833980
    236          0           0        2.763670   -1.290692    0.451605
 ---------------------------------------------------------------------
 Rotational constants (GHZ):      0.4529074      0.2836956      0.1879557
 Standard basis: 6-311+G(d,p) (5D, 7F)
 Warning:  center  37 has no basis functions!
 Warning:  center  38 has no basis functions!
 Warning:  center  39 has no basis functions!
 Warning:  center  40 has no basis functions!
 Warning:  center  41 has no basis functions!
 Warning:  center  42 has no basis functions!
 Warning:  center  43 has no basis functions!
 Warning:  center  44 has no basis functions!
 Warning:  center  45 has no basis functions!
 Warning:  center  46 has no basis functions!
 Warning:  center  47 has no basis functions!
 Warning:  center  48 has no basis functions!
 Warning:  center  49 has no basis functions!
 Warning:  center  50 has no basis functions!
 Warning:  center  51 has no basis functions!
 Warning:  center  52 has no basis functions!
 Warning:  center  53 has no basis functions!
 Warning:  center  54 has no basis functions!
 Warning:  center  55 has no basis functions!
 Warning:  center  56 has no basis functions!
 Warning:  center  57 has no basis functions!
 Warning:  center  58 has no basis functions!
 Warning:  center  59 has no basis functions!
 Warning:  center  60 has no basis functions!
 Warning:  center  61 has no basis functions!
 Warning:  center  62 has no basis functions!
 Warning:  center  63 has no basis functions!
 Warning:  center  64 has no basis functions!
 Warning:  center  65 has no basis functions!
 Warning:  center  66 has no basis functions!
 Warning:  center  67 has no basis functions!
 Warning:  center  68 has no basis functions!
 Warning:  center  69 has no basis functions!
 Warning:  center  70 has no basis functions!
 Warning:  center  71 has no basis functions!
 Warning:  center  72 has no basis functions!
 Warning:  center  73 has no basis functions!
 Warning:  center  74 has no basis functions!
 Warning:  center  75 has no basis functions!
 Warning:  center  76 has no basis functions!
 Warning:  center  77 has no basis functions!
 Warning:  center  78 has no basis functions!
 Warning:  center  79 has no basis functions!
 Warning:  center  80 has no basis functions!
 Warning:  center  81 has no basis functions!
 Warning:  center  82 has no basis functions!
 Warning:  center  83 has no basis functions!
 Warning:  center  84 has no basis functions!
 Warning:  center  85 has no basis functions!
 Warning:  center  86 has no basis functions!
 Warning:  center  87 has no basis functions!
 Warning:  center  88 has no basis functions!
 Warning:  center  89 has no basis functions!
 Warning:  center  90 has no basis functions!
 Warning:  center  91 has no basis functions!
 Warning:  center  92 has no basis functions!
 Warning:  center  93 has no basis functions!
 Warning:  center  94 has no basis functions!
 Warning:  center  95 has no basis functions!
 Warning:  center  96 has no basis functions!
 Warning:  center  97 has no basis functions!
 Warning:  center  98 has no basis functions!
 Warning:  center  99 has no basis functions!
 Warning:  center 100 has no basis functions!
 Warning:  center 101 has no basis functions!
 Warning:  center 102 has no basis functions!
 Warning:  center 103 has no basis functions!
 Warning:  center 104 has no basis functions!
 Warning:  center 105 has no basis functions!
 Warning:  center 106 has no basis functions!
 Warning:  center 107 has no basis functions!
 Warning:  center 108 has no basis functions!
 Warning:  center 109 has no basis functions!
 Warning:  center 110 has no basis functions!
 Warning:  center 111 has no basis functions!
 Warning:  center 112 has no basis functions!
 Warning:  center 113 has no basis functions!
 Warning:  center 114 has no basis functions!
 Warning:  center 115 has no basis functions!
 Warning:  center 116 has no basis functions!
 Warning:  center 117 has no basis functions!
 Warning:  center 118 has no basis functions!
 Warning:  center 119 has no basis functions!
 Warning:  center 120 has no basis functions!
 Warning:  center 121 has no basis functions!
 Warning:  center 122 has no basis functions!
 Warning:  center 123 has no basis functions!
 Warning:  center 124 has no basis functions!
 Warning:  center 125 has no basis functions!
 Warning:  center 126 has no basis functions!
 Warning:  center 127 has no basis functions!
 Warning:  center 128 has no basis functions!
 Warning:  center 129 has no basis functions!
 Warning:  center 130 has no basis functions!
 Warning:  center 131 has no basis functions!
 Warning:  center 132 has no basis functions!
 Warning:  center 133 has no basis functions!
 Warning:  center 134 has no basis functions!
 Warning:  center 135 has no basis functions!
 Warning:  center 136 has no basis functions!
 Warning:  center 137 has no basis functions!
 Warning:  center 138 has no basis functions!
 Warning:  center 139 has no basis functions!
 Warning:  center 140 has no basis functions!
 Warning:  center 141 has no basis functions!
 Warning:  center 142 has no basis functions!
 Warning:  center 143 has no basis functions!
 Warning:  center 144 has no basis functions!
 Warning:  center 145 has no basis functions!
 Warning:  center 146 has no basis functions!
 Warning:  center 147 has no basis functions!
 Warning:  center 148 has no basis functions!
 Warning:  center 149 has no basis functions!
 Warning:  center 150 has no basis functions!
 Warning:  center 151 has no basis functions!
 Warning:  center 152 has no basis functions!
 Warning:  center 153 has no basis functions!
 Warning:  center 154 has no basis functions!
 Warning:  center 155 has no basis functions!
 Warning:  center 156 has no basis functions!
 Warning:  center 157 has no basis functions!
 Warning:  center 158 has no basis functions!
 Warning:  center 159 has no basis functions!
 Warning:  center 160 has no basis functions!
 Warning:  center 161 has no basis functions!
 Warning:  center 162 has no basis functions!
 Warning:  center 163 has no basis functions!
 Warning:  center 164 has no basis functions!
 Warning:  center 165 has no basis functions!
 Warning:  center 166 has no basis functions!
 Warning:  center 167 has no basis functions!
 Warning:  center 168 has no basis functions!
 Warning:  center 169 has no basis functions!
 Warning:  center 170 has no basis functions!
 Warning:  center 171 has no basis functions!
 Warning:  center 172 has no basis functions!
 Warning:  center 173 has no basis functions!
 Warning:  center 174 has no basis functions!
 Warning:  center 175 has no basis functions!
 Warning:  center 176 has no basis functions!
 Warning:  center 177 has no basis functions!
 Warning:  center 178 has no basis functions!
 Warning:  center 179 has no basis functions!
 Warning:  center 180 has no basis functions!
 Warning:  center 181 has no basis functions!
 Warning:  center 182 has no basis functions!
 Warning:  center 183 has no basis functions!
 Warning:  center 184 has no basis functions!
 Warning:  center 185 has no basis functions!
 Warning:  center 186 has no basis functions!
 Warning:  center 187 has no basis functions!
 Warning:  center 188 has no basis functions!
 Warning:  center 189 has no basis functions!
 Warning:  center 190 has no basis functions!
 Warning:  center 191 has no basis functions!
 Warning:  center 192 has no basis functions!
 Warning:  center 193 has no basis functions!
 Warning:  center 194 has no basis functions!
 Warning:  center 195 has no basis functions!
 Warning:  center 196 has no basis functions!
 Warning:  center 197 has no basis functions!
 Warning:  center 198 has no basis functions!
 Warning:  center 199 has no basis functions!
 Warning:  center 200 has no basis functions!
 Warning:  center 201 has no basis functions!
 Warning:  center 202 has no basis functions!
 Warning:  center 203 has no basis functions!
 Warning:  center 204 has no basis functions!
 Warning:  center 205 has no basis functions!
 Warning:  center 206 has no basis functions!
 Warning:  center 207 has no basis functions!
 Warning:  center 208 has no basis functions!
 Warning:  center 209 has no basis functions!
 Warning:  center 210 has no basis functions!
 Warning:  center 211 has no basis functions!
 Warning:  center 212 has no basis functions!
 Warning:  center 213 has no basis functions!
 Warning:  center 214 has no basis functions!
 Warning:  center 215 has no basis functions!
 Warning:  center 216 has no basis functions!
 Warning:  center 217 has no basis functions!
 Warning:  center 218 has no basis functions!
 Warning:  center 219 has no basis functions!
 Warning:  center 220 has no basis functions!
 Warning:  center 221 has no basis functions!
 Warning:  center 222 has no basis functions!
 Warning:  center 223 has no basis functions!
 Warning:  center 224 has no basis functions!
 Warning:  center 225 has no basis functions!
 Warning:  center 226 has no basis functions!
 Warning:  center 227 has no basis functions!
 Warning:  center 228 has no basis functions!
 Warning:  center 229 has no basis functions!
 Warning:  center 230 has no basis functions!
 Warning:  center 231 has no basis functions!
 Warning:  center 232 has no basis functions!
 Warning:  center 233 has no basis functions!
 Warning:  center 234 has no basis functions!
 Warning:  center 235 has no basis functions!
 Warning:  center 236 has no basis functions!
   568 basis functions,   904 primitive gaussians,   590 cartesian basis functions
    73 alpha electrons       73 beta electrons
       nuclear repulsion energy      1610.9176155625 Hartrees.
 NAtoms=  236 NActive=  236 NUniq=  236 SFac= 1.00D+00 NAtFMM=   60 NAOKFM=T Big=T
 Integral buffers will be    131072 words long.
 Raffenetti 2 integral format.
 Two-electron integral symmetry is turned off.
 One-electron integrals computed using PRISM.
 NBasis=   568 RedAO= T EigKep=  1.78D-06  NBF=   568
 NBsUse=   556 1.00D-06 EigRej=  9.09D-07 NBFU=   556
 ExpMin= 4.38D-02 ExpMax= 4.56D+03 ExpMxC= 6.82D+02 IAcc=2 IRadAn=         4 AccDes= 0.00D+00
 Harris functional with IExCor=  402 and IRadAn=       4 diagonalized for initial guess.
 HarFok:  IExCor=  402 AccDes= 0.00D+00 IRadAn=         4 IDoV= 1 UseB2=F ITyADJ=14
 ICtDFT=  3500011 ScaDFX=  1.000000  1.000000  1.000000  1.000000
 FoFCou: FMM=F IPFlag=           0 FMFlag=      100000 FMFlg1=        2001
         NFxFlg=           0 DoJE=T BraDBF=F KetDBF=T FulRan=T
         wScrn=  0.000000 ICntrl=     500 IOpCl=  0 I1Cent=   200000004 NGrid=           0
         NMat0=    1 NMatS0=      1 NMatT0=    0 NMatD0=    1 NMtDS0=    0 NMtDT0=    0
 Symmetry not used in FoFCou.
 Requested convergence on RMS density matrix=1.00D-08 within 128 cycles.
 Requested convergence on MAX density matrix=1.00D-06.
 Requested convergence on             energy=1.00D-06.
 No special actions if energy rises.
 SCF Done:  E(RB3LYP) =  -847.003289847     A.U. after   15 cycles
            NFock= 15  Conv=0.75D-08     -V/T= 2.0040
 DoSCS=F DFT=T ScalE2(SS,OS)=  1.000000  1.000000
 Range of M.O.s used for correlation:     1   556
 NBasis=   568 NAE=    73 NBE=    73 NFC=     0 NFV=     0
 NROrb=    556 NOA=    73 NOB=    73 NVA=   483 NVB=   483

 **** Warning!!: The largest alpha MO coefficient is  0.10971036D+03

          Differentiating once with respect to magnetic field using GIAOs.
          Electric field/nuclear overlap derivatives assumed to be zero.
 FoFCou: FMM=F IPFlag=           0 FMFlag=      100000 FMFlg1=        2001
         NFxFlg=           0 DoJE=F BraDBF=F KetDBF=T FulRan=T
         wScrn=  0.000000 ICntrl=    6100 IOpCl=  0 I1Cent=           7 NGrid=         236
         NMat0=    1 NMatS0=      1 NMatT0=    0 NMatD0=    1 NMtDS0=    0 NMtDT0=    0
 Symmetry not used in FoFCou.
 FoFJK:  IHMeth= 1 ICntrl=    6127 DoSepK=F KAlg= 0 I1Cent=   0 FoldK=F
 IRaf=         1 NMat=   1 IRICut=       1 DoRegI=T DoRafI=F ISym2E= 0.
          There are     3 degrees of freedom in the 1st order CPHF.  IDoFFX=0 NUNeed=     3.
      3 vectors produced by pass  0 Test12= 1.18D-12 3.33D-08 XBig12= 2.07D+03 9.18D+00.
 AX will form     3 AO Fock derivatives at one time.
      3 vectors produced by pass  1 Test12= 1.18D-12 3.33D-08 XBig12= 3.56D+00 8.03D-01.
      3 vectors produced by pass  2 Test12= 1.18D-12 3.33D-08 XBig12= 2.10D-02 6.92D-02.
      3 vectors produced by pass  3 Test12= 1.18D-12 3.33D-08 XBig12= 5.45D-05 1.89D-03.
      3 vectors produced by pass  4 Test12= 1.18D-12 3.33D-08 XBig12= 1.20D-07 7.79D-05.
      3 vectors produced by pass  5 Test12= 1.18D-12 3.33D-08 XBig12= 4.02D-10 4.73D-06.
      3 vectors produced by pass  6 Test12= 1.18D-12 3.33D-08 XBig12= 1.32D-12 2.61D-07.
 InvSVY:  IOpt=1 It=  1 EMax= 7.11D-15
 Solved reduced A of dimension    21 with     3 vectors.
 Calculating GIAO nuclear magnetic shielding tensors.
 SCF GIAO Magnetic shielding tensor (ppm):
      1  C    Isotropic =    53.8139   Anisotropy =   178.0260
   XX=   -41.4327   YX=   -32.3458   ZX=    10.0287
   XY=   -28.3572   YY=    59.0527   ZY=    55.1899
   XZ=    13.1759   YZ=    58.7550   ZZ=   143.8218
   Eigenvalues:   -53.8775    42.8214   172.4979
      2  H    Isotropic =    24.3095   Anisotropy =     4.8536
   XX=    25.5771   YX=    -1.0289   ZX=     0.5661
   XY=    -0.7431   YY=    26.1829   ZY=    -2.3306
   XZ=    -0.1707   YZ=    -2.4411   ZZ=    21.1687
   Eigenvalues:    20.2108    25.1725    27.5453
      3  C    Isotropic =    51.4055   Anisotropy =   157.8639
   XX=   -31.5399   YX=    38.5015   ZX=   -17.9316
   XY=    34.3519   YY=    49.9437   ZY=    49.6392
   XZ=    -9.8383   YZ=    44.6006   ZZ=   135.8127
   Eigenvalues:   -50.5747    48.1432   156.6481
      4  H    Isotropic =    23.8290   Anisotropy =     7.1838
   XX=    25.3635   YX=     1.8486   ZX=    -0.3559
   XY=     1.9656   YY=    26.4581   ZY=    -2.4103
   XZ=    -1.2941   YZ=    -2.6614   ZZ=    19.6654
   Eigenvalues:    18.8176    24.0511    28.6182
      5  C    Isotropic =    46.0697   Anisotropy =   207.6751
   XX=   -19.2123   YX=    -4.8852   ZX=    -1.6475
   XY=     2.8938   YY=    -2.9860   ZY=    66.5656
   XZ=     2.5356   YZ=    67.9144   ZZ=   160.4073
   Eigenvalues:   -27.2455   -19.0652   184.5197
      6  C    Isotropic =    47.5218   Anisotropy =   196.9389
   XX=   -28.1552   YX=    -2.7889   ZX=    12.0660
   XY=   -14.3886   YY=    21.2063   ZY=    74.2521
   XZ=   -18.6356   YZ=    61.1113   ZZ=   149.5144
   Eigenvalues:   -30.2925    -5.9564   178.8144
      7  C    Isotropic =    49.3915   Anisotropy =   179.8333
   XX=   -12.5211   YX=    28.7048   ZX=   -24.6745
   XY=    31.5123   YY=    29.7000   ZY=    77.7459
   XZ=   -40.0095   YZ=    65.3072   ZZ=   130.9956
   Eigenvalues:   -52.1299    31.0240   169.2804
      8  H    Isotropic =    23.1586   Anisotropy =    13.5525
   XX=    28.5711   YX=     1.5482   ZX=    -3.6986
   XY=     3.2466   YY=    22.7592   ZY=    -2.1157
   XZ=    -8.3753   YZ=    -1.0821   ZZ=    18.1456
   Eigenvalues:    15.3521    21.9301    32.1936
      9  C    Isotropic =    55.1460   Anisotropy =   174.7426
   XX=    46.7071   YX=    -2.6162   ZX=    -2.8420
   XY=     0.6223   YY=    -1.6258   ZY=    92.8272
   XZ=     0.5159   YZ=    95.6598   ZZ=   120.3568
   Eigenvalues:   -52.8932    46.6901   171.6411
     10  H    Isotropic =    24.6278   Anisotropy =     7.1815
   XX=    29.1040   YX=     0.1399   ZX=    -0.3694
   XY=     0.3642   YY=    23.4778   ZY=    -1.0805
   XZ=    -2.4493   YZ=    -2.9465   ZZ=    21.3016
   Eigenvalues:    19.9703    24.4977    29.4155
     11  C    Isotropic =    51.5607   Anisotropy =   151.2142
   XX=     2.1639   YX=    40.9287   ZX=   -26.0048
   XY=    49.9131   YY=    12.2331   ZY=    42.1342
   XZ=   -15.6145   YZ=    38.6614   ZZ=   140.2851
   Eigenvalues:   -48.1951    50.5071   152.3701
     12  H    Isotropic =    23.8537   Anisotropy =     7.3815
   XX=    25.9672   YX=     2.3738   ZX=    -0.2390
   XY=     2.4320   YY=    26.3975   ZY=    -1.8291
   XZ=     0.3529   YZ=    -1.7731   ZZ=    19.1964
   Eigenvalues:    18.7149    24.0714    28.7747
     13  C    Isotropic =    52.8653   Anisotropy =   147.4265
   XX=    51.2944   YX=    19.9221   ZX=   -13.4678
   XY=    11.5478   YY=   -34.0176   ZY=    42.5079
   XZ=    -9.2241   YZ=    40.0716   ZZ=   141.3192
   Eigenvalues:   -46.5152    53.9616   151.1497
     14  H    Isotropic =    24.0156   Anisotropy =     7.3485
   XX=    28.6644   YX=     0.6281   ZX=     1.0808
   XY=     0.5926   YY=    24.4325   ZY=    -1.0823
   XZ=     1.6846   YZ=    -0.3842   ZZ=    18.9500
   Eigenvalues:    18.6430    24.4892    28.9146
     15  C    Isotropic =    46.2221   Anisotropy =   203.9048
   XX=   -27.2215   YX=    -0.0442   ZX=   -28.9124
   XY=     4.6427   YY=   -10.5571   ZY=    28.3830
   XZ=   -10.2704   YZ=    26.7376   ZZ=   176.4448
   Eigenvalues:   -30.5512   -12.9411   182.1586
     16  C    Isotropic =    51.9375   Anisotropy =   188.2004
   XX=   -19.4441   YX=     5.5046   ZX=    15.7858
   XY=    -8.3874   YY=     2.4863   ZY=    22.9264
   XZ=   -50.6243   YZ=    23.3340   ZZ=   172.7704
   Eigenvalues:   -21.0294    -0.5625   177.4045
     17  C    Isotropic =    51.9482   Anisotropy =   149.1264
   XX=    50.7296   YX=   -23.9353   ZX=   -18.4207
   XY=   -16.7271   YY=   -41.8764   ZY=    17.8662
   XZ=   -14.3278   YZ=    11.4871   ZZ=   146.9915
   Eigenvalues:   -46.7796    51.2584   151.3658
     18  H    Isotropic =    24.0122   Anisotropy =     7.5163
   XX=    28.5811   YX=    -0.0866   ZX=     1.5071
   XY=    -0.2466   YY=    24.3342   ZY=    -0.7657
   XZ=     2.5088   YZ=    -1.5208   ZZ=    19.1214
   Eigenvalues:    18.5094    24.5041    29.0231
     19  C    Isotropic =    51.7356   Anisotropy =   148.5924
   XX=     2.4559   YX=   -45.6913   ZX=   -31.2531
   XY=   -53.4448   YY=     7.4698   ZY=    -1.8888
   XZ=   -23.5601   YZ=    -1.2765   ZZ=   145.2810
   Eigenvalues:   -46.9894    51.3989   150.7972
     20  H    Isotropic =    23.9071   Anisotropy =     7.6651
   XX=    25.5796   YX=    -2.0226   ZX=     1.4905
   XY=    -1.9998   YY=    27.3706   ZY=    -0.5164
   XZ=     2.7276   YZ=    -1.1179   ZZ=    18.7711
   Eigenvalues:    18.1643    24.5398    29.0172
     21  C    Isotropic =    45.9767   Anisotropy =   203.9316
   XX=   -16.2108   YX=    13.1802   ZX=   -44.5913
   XY=     6.5714   YY=   -20.6329   ZY=     0.0949
   XZ=   -28.8984   YZ=   -13.0883   ZZ=   174.7736
   Eigenvalues:   -30.5796   -13.4215   181.9311
     22  C    Isotropic =    52.0450   Anisotropy =   188.1157
   XX=    -0.0787   YX=     2.5023   ZX=   -16.3451
   XY=    18.9327   YY=   -14.4798   ZY=   -34.4335
   XZ=   -50.6032   YZ=    19.9104   ZZ=   170.6934
   Eigenvalues:   -20.7705    -0.5500   177.4554
     23  C    Isotropic =    53.2392   Anisotropy =   146.7412
   XX=   -22.0674   YX=   -32.0012   ZX=   -49.4857
   XY=   -23.2043   YY=    44.3661   ZY=   -15.6400
   XZ=   -43.8090   YZ=   -20.2525   ZZ=   137.4189
   Eigenvalues:   -45.6776    54.3286   151.0667
     24  H    Isotropic =    23.8249   Anisotropy =     7.5289
   XX=    25.1073   YX=    -1.7330   ZX=     1.5380
   XY=    -1.5944   YY=    28.0047   ZY=     0.0879
   XZ=     1.2557   YZ=    -0.8283   ZZ=    18.3628
   Eigenvalues:    18.0848    24.5458    28.8442
     25  C    Isotropic =    51.4969   Anisotropy =   150.1066
   XX=   -28.4915   YX=    33.9684   ZX=   -52.3137
   XY=    22.0311   YY=    46.6072   ZY=    -3.8075
   XZ=   -44.5594   YZ=   -10.6355   ZZ=   136.3748
   Eigenvalues:   -48.3857    51.3083   151.5679
     26  H    Isotropic =    23.7431   Anisotropy =     7.4052
   XX=    24.0663   YX=     1.1141   ZX=     1.9989
   XY=     0.9693   YY=    28.1000   ZY=     1.6568
   XZ=     2.0795   YZ=     0.8886   ZZ=    19.0630
   Eigenvalues:    18.2615    24.2880    28.6799
     27  C    Isotropic =    45.8108   Anisotropy =   207.2710
   XX=    -2.7702   YX=    13.7697   ZX=   -61.4651
   XY=     6.5593   YY=   -12.0335   ZY=   -41.6456
   XZ=   -62.6381   YZ=   -44.9232   ZZ=   152.2361
   Eigenvalues:   -28.0803   -18.4787   183.9915
     28  C    Isotropic =    47.8398   Anisotropy =   197.2870
   XX=    19.6900   YX=    14.4398   ZX=   -60.5682
   XY=    28.5650   YY=   -19.3566   ZY=   -56.7015
   XZ=   -63.1331   YZ=   -24.4782   ZZ=   143.1859
   Eigenvalues:   -30.5979    -5.2472   179.3644
     29  C    Isotropic =    49.3441   Anisotropy =   179.7793
   XX=    -3.4110   YX=    38.3775   ZX=   -80.8875
   XY=    36.1252   YY=    25.9805   ZY=   -23.7573
   XZ=   -78.1065   YZ=    -3.9802   ZZ=   125.4627
   Eigenvalues:   -51.6645    30.4997   169.1970
     30  H    Isotropic =    23.1387   Anisotropy =    13.3222
   XX=    22.4354   YX=    -0.7013   ZX=    -0.2375
   XY=    -2.1539   YY=    28.3546   ZY=     4.5555
   XZ=    -3.4181   YZ=     8.3231   ZZ=    18.6259
   Eigenvalues:    15.2751    22.1208    32.0201
     31  C    Isotropic =    55.4410   Anisotropy =   174.9390
   XX=    17.1871   YX=   -14.0890   ZX=   -84.0024
   XY=   -17.9030   YY=    37.4745   ZY=   -50.3662
   XZ=   -84.6557   YZ=   -54.8325   ZZ=   111.6615
   Eigenvalues:   -51.9248    46.1808   172.0670
     32  H    Isotropic =    24.5337   Anisotropy =     7.2554
   XX=    24.6185   YX=    -2.5264   ZX=     0.7632
   XY=    -2.7385   YY=    27.4630   ZY=     1.0335
   XZ=     1.1913   YZ=     3.7573   ZZ=    21.5194
   Eigenvalues:    19.8987    24.3316    29.3706
     33  C    Isotropic =    53.1814   Anisotropy =   179.0596
   XX=    60.9231   YX=    35.2256   ZX=   -42.9515
   XY=    32.0226   YY=   -38.1801   ZY=   -45.5652
   XZ=   -44.2248   YZ=   -50.7831   ZZ=   136.8014
   Eigenvalues:   -55.1197    42.1095   172.5545
     34  H    Isotropic =    24.2825   Anisotropy =     5.1861
   XX=    26.7643   YX=    -0.0934   ZX=     2.5955
   XY=    -0.2993   YY=    24.8157   ZY=     0.8589
   XZ=     2.3715   YZ=     1.4580   ZZ=    21.2676
   Eigenvalues:    20.0339    25.0737    27.7399
     35  C    Isotropic =    51.5295   Anisotropy =   155.1748
   XX=    -0.5131   YX=    52.5760   ZX=   -52.1551
   XY=    55.6135   YY=    25.1843   ZY=   -14.2643
   XZ=   -45.7255   YZ=   -17.1625   ZZ=   129.9171
   Eigenvalues:   -48.3147    47.9237   154.9793
     36  H    Isotropic =    23.8384   Anisotropy =     7.3073
   XX=    24.2302   YX=     1.4459   ZX=     2.1759
   XY=     1.2147   YY=    27.1572   ZY=     2.0665
   XZ=     1.6853   YZ=     2.7775   ZZ=    20.1277
   Eigenvalues:    18.9464    23.8588    28.7099
     37  Bq   Isotropic =     6.9103   Anisotropy =    17.6554
   XX=     3.1180   YX=    -2.9108   ZX=     2.5524
   XY=    -0.4534   YY=     6.5679   ZY=     0.5336
   XZ=    18.9638   YZ=     4.8717   ZZ=    11.0450
   Eigenvalues:    -5.1200     7.1703    18.6806
     38  Bq   Isotropic =    11.6291   Anisotropy =    14.1333
   XX=    13.5125   YX=    -0.6929   ZX=     2.9235
   XY=    -0.3887   YY=    13.9645   ZY=     0.7125
   XZ=    17.3218   YZ=     1.9149   ZZ=     7.4102
   Eigenvalues:    -0.2446    14.0806    21.0513
     39  Bq   Isotropic =     5.9404   Anisotropy =    18.1166
   XX=     1.2957   YX=    -2.9830   ZX=     2.0603
   XY=    -0.3057   YY=     4.9172   ZY=     0.7089
   XZ=    18.1235   YZ=     5.3416   ZZ=    11.6083
   Eigenvalues:    -5.7263     5.5294    18.0181
     40  Bq   Isotropic =    12.5678   Anisotropy =    13.0791
   XX=    15.7150   YX=     0.6244   ZX=     2.4201
   XY=     0.1354   YY=    15.5258   ZY=     1.1116
   XZ=    15.4161   YZ=     1.2292   ZZ=     6.4625
   Eigenvalues:     0.9976    15.4186    21.2872
     41  Bq   Isotropic =     5.1213   Anisotropy =    18.3778
   XX=    -0.0967   YX=    -2.9657   ZX=     1.5474
   XY=    -0.1662   YY=     3.4647   ZY=     0.8860
   XZ=    17.0423   YZ=     5.6579   ZZ=    11.9958
   Eigenvalues:    -6.0630     4.0536    17.3731
     42  Bq   Isotropic =    13.1774   Anisotropy =    12.6166
   XX=    17.0643   YX=     2.2530   ZX=     1.8528
   XY=     0.9878   YY=    16.8051   ZY=     1.5385
   XZ=    13.1574   YZ=     0.7294   ZZ=     5.6629
   Eigenvalues:     1.9330    16.0109    21.5885
     43  Bq   Isotropic =     4.4429   Anisotropy =    18.4489
   XX=    -1.1143   YX=    -2.8901   ZX=     1.0596
   XY=    -0.0446   YY=     2.2226   ZY=     1.0399
   XZ=    15.8433   YZ=     5.8311   ZZ=    12.2203
   Eigenvalues:    -6.1877     2.7741    16.7422
     44  Bq   Isotropic =    13.4096   Anisotropy =    13.3581
   XX=    17.3806   YX=     4.0434   ZX=     1.4928
   XY=     2.1132   YY=    17.8176   ZY=     1.8160
   XZ=    10.8257   YZ=     0.4452   ZZ=     5.0308
   Eigenvalues:     2.4829    15.4310    22.3151
     45  Bq   Isotropic =     9.2352   Anisotropy =    16.1865
   XX=     8.0051   YX=    -2.3107   ZX=     3.1978
   XY=    -0.6667   YY=    10.2824   ZY=     0.3547
   XZ=    19.3549   YZ=     3.5138   ZZ=     9.4181
   Eigenvalues:    -3.0233    10.7028    20.0262
     46  Bq   Isotropic =     7.9522   Anisotropy =    16.9109
   XX=     4.8742   YX=    -1.7997   ZX=     2.6529
   XY=     0.0682   YY=     8.3079   ZY=     0.9206
   XZ=    19.0727   YZ=     4.1756   ZZ=    10.6744
   Eigenvalues:    -3.8834     8.5138    19.2261
     47  Bq   Isotropic =    10.3977   Anisotropy =    14.4940
   XX=     9.8314   YX=    -0.1591   ZX=     2.3881
   XY=     0.4992   YY=    12.4544   ZY=     1.3646
   XZ=    18.3525   YZ=     2.7007   ZZ=     8.9073
   Eigenvalues:    -1.1466    12.2794    20.0604
     48  Bq   Isotropic =     6.8293   Anisotropy =    17.6824
   XX=     2.7625   YX=    -2.2014   ZX=     2.3958
   XY=     0.0462   YY=     6.4382   ZY=     0.9003
   XZ=    18.6108   YZ=     4.7745   ZZ=    11.2870
   Eigenvalues:    -4.8606     6.7308    18.6175
     49  Bq   Isotropic =    11.4949   Anisotropy =    13.2359
   XX=    12.1234   YX=     1.2327   ZX=     1.7185
   XY=     1.0683   YY=    14.5300   ZY=     1.8270
   XZ=    16.9807   YZ=     1.9511   ZZ=     7.8313
   Eigenvalues:     0.3432    13.8226    20.3188
     50  Bq   Isotropic =     5.8495   Anisotropy =    18.1582
   XX=     1.0527   YX=    -2.4222   ZX=     2.0079
   XY=     0.0776   YY=     4.7803   ZY=     0.9568
   XZ=    17.7863   YZ=     5.2396   ZZ=    11.7155
   Eigenvalues:    -5.5230     5.1165    17.9550
     51  Bq   Isotropic =    12.3020   Anisotropy =    12.9960
   XX=    13.7260   YX=     3.0563   ZX=     0.7281
   XY=     1.9792   YY=    16.4337   ZY=     2.3848
   XZ=    14.9547   YZ=     1.3137   ZZ=     6.7462
   Eigenvalues:     1.6509    14.2891    20.9659
     52  Bq   Isotropic =     5.0251   Anisotropy =    18.3765
   XX=    -0.2536   YX=    -2.5177   ZX=     1.5682
   XY=     0.1308   YY=     3.3521   ZY=     1.0495
   XZ=    16.7373   YZ=     5.5652   ZZ=    11.9767
   Eigenvalues:    -5.9030     3.7021    17.2761
     53  Bq   Isotropic =    12.6804   Anisotropy =    14.5195
   XX=    14.2076   YX=     5.2398   ZX=    -0.3536
   XY=     3.2475   YY=    18.0553   ZY=     2.8824
   XZ=    12.4640   YZ=     0.8789   ZZ=     5.7784
   Eigenvalues:     2.6091    13.0720    22.3601
     54  Bq   Isotropic =     4.3464   Anisotropy =    18.3829
   XX=    -1.2048   YX=    -2.5290   ZX=     1.1314
   XY=     0.1884   YY=     2.1500   ZY=     1.1483
   XZ=    15.5799   YZ=     5.7586   ZZ=    12.0940
   Eigenvalues:    -6.0593     2.4968    16.6017
     55  Bq   Isotropic =    12.5920   Anisotropy =    17.1873
   XX=    13.3786   YX=     7.5589   ZX=    -1.1123
   XY=     4.7594   YY=    19.3658   ZY=     3.0991
   XZ=     9.8270   YZ=     0.6975   ZZ=     5.0317
   Eigenvalues:     3.1364    10.5895    24.0503
     56  Bq   Isotropic =     9.1718   Anisotropy =    15.8282
   XX=     7.2999   YX=    -1.1459   ZX=     2.6821
   XY=     0.1949   YY=    10.3412   ZY=     1.0631
   XZ=    19.0280   YZ=     3.4677   ZZ=     9.8742
   Eigenvalues:    -2.6129    10.4043    19.7239
     57  Bq   Isotropic =     7.9705   Anisotropy =    16.6156
   XX=     4.4509   YX=    -1.1095   ZX=     2.1081
   XY=     0.6050   YY=     8.3485   ZY=     1.1659
   XZ=    18.6062   YZ=     4.2012   ZZ=    11.1121
   Eigenvalues:    -3.3740     8.2379    19.0476
     58  Bq   Isotropic =    10.4168   Anisotropy =    13.6447
   XX=     8.8439   YX=     0.8799   ZX=     1.1571
   XY=     1.3231   YY=    12.9314   ZY=     1.7248
   XZ=    17.8640   YZ=     2.6659   ZZ=     9.4751
   Eigenvalues:    -0.3977    12.1348    19.5133
     59  Bq   Isotropic =     6.8276   Anisotropy =    17.5442
   XX=     2.4981   YX=    -1.6373   ZX=     2.0583
   XY=     0.4724   YY=     6.3846   ZY=     1.0867
   XZ=    18.1572   YZ=     4.8038   ZZ=    11.6001
   Eigenvalues:    -4.4463     6.4054    18.5237
     60  Bq   Isotropic =    11.4532   Anisotropy =    12.5875
   XX=    10.6309   YX=     2.5020   ZX=    -0.0420
   XY=     2.0581   YY=    15.3640   ZY=     2.2257
   XZ=    16.4141   YZ=     1.8419   ZZ=     8.3648
   Eigenvalues:     1.2337    13.2811    19.8449
     61  Bq   Isotropic =     5.8276   Anisotropy =    18.0827
   XX=     0.8986   YX=    -1.9594   ZX=     1.8188
   XY=     0.4149   YY=     4.6894   ZY=     1.0921
   XZ=    17.3626   YZ=     5.2680   ZZ=    11.8947
   Eigenvalues:    -5.1897     4.7896    17.8827
     62  Bq   Isotropic =    12.1121   Anisotropy =    13.6165
   XX=    11.4619   YX=     4.5884   ZX=    -1.6873
   XY=     3.1289   YY=    17.6912   ZY=     2.7965
   XZ=    14.2009   YZ=     1.1045   ZZ=     7.1832
   Eigenvalues:     2.6784    12.4681    21.1898
     63  Bq   Isotropic =     4.9864   Anisotropy =    18.3039
   XX=    -0.3312   YX=    -2.1366   ZX=     1.4851
   XY=     0.3979   YY=     3.2613   ZY=     1.1449
   XZ=    16.3576   YZ=     5.5943   ZZ=    12.0292
   Eigenvalues:    -5.6371     3.4074    17.1890
     64  Bq   Isotropic =    12.2197   Anisotropy =    16.6358
   XX=    10.8009   YX=     7.0450   ZX=    -3.4715
   XY=     4.5207   YY=    19.7540   ZY=     3.2732
   XZ=    11.3924   YZ=     0.5715   ZZ=     6.1043
   Eigenvalues:     3.7318     9.6172    23.3103
     65  Bq   Isotropic =     4.2961   Anisotropy =    18.2817
   XX=    -1.2290   YX=    -2.2138   ZX=     1.1236
   XY=     0.4007   YY=     2.0809   ZY=     1.2157
   XZ=    15.2515   YZ=     5.7926   ZZ=    12.0364
   Eigenvalues:    -5.8478     2.2522    16.4839
     66  Bq   Isotropic =    11.7423   Anisotropy =    20.5609
   XX=     8.4348   YX=     9.5996   ZX=    -4.7934
   XY=     6.0744   YY=    21.4719   ZY=     3.4333
   XZ=     8.3540   YZ=     0.3452   ZZ=     5.3203
   Eigenvalues:     4.0746     5.7028    25.4496
     67  Bq   Isotropic =     9.2021   Anisotropy =    15.2646
   XX=     6.6477   YX=    -0.2992   ZX=     1.8487
   XY=     0.8650   YY=    10.5536   ZY=     1.3691
   XZ=    18.5582   YZ=     3.4756   ZZ=    10.4049
   Eigenvalues:    -1.9925    10.2202    19.3785
     68  Bq   Isotropic =    11.1210   Anisotropy =    10.7373
   XX=     8.0293   YX=    -1.9962   ZX=    -2.1418
   XY=    -4.3290   YY=    14.3202   ZY=    -2.4216
   XZ=    12.0076   YZ=    -2.1745   ZZ=    11.0136
   Eigenvalues:     4.2119    10.8719    18.2792
     69  Bq   Isotropic =    14.0045   Anisotropy =    13.1331
   XX=    13.9126   YX=    -4.9780   ZX=    -5.4534
   XY=    -5.1180   YY=    19.1888   ZY=    -3.8537
   XZ=     7.7405   YZ=    -0.9945   ZZ=     8.9121
   Eigenvalues:     8.3690    10.8847    22.7599
     70  Bq   Isotropic =     9.3652   Anisotropy =    11.6311
   XX=     4.8738   YX=    -0.9800   ZX=    -1.4493
   XY=    -4.0738   YY=    11.8265   ZY=    -2.2680
   XZ=    12.7118   YZ=    -3.1423   ZZ=    11.3954
   Eigenvalues:     1.5517     9.4247    17.1193
     71  Bq   Isotropic =    14.3587   Anisotropy =    16.0718
   XX=    15.0307   YX=    -6.9885   ZX=    -8.1798
   XY=    -5.9178   YY=    20.7181   ZY=    -5.2211
   XZ=     3.9354   YZ=    -1.3044   ZZ=     7.3273
   Eigenvalues:     5.0192    12.9836    25.0733
     72  Bq   Isotropic =     7.7217   Anisotropy =    12.9114
   XX=     2.1483   YX=    -0.2164   ZX=    -1.1654
   XY=    -3.8259   YY=     9.5898   ZY=    -2.3307
   XZ=    12.7559   YZ=    -4.1040   ZZ=    11.4268
   Eigenvalues:    -0.6556     7.4914    16.3292
     73  Bq   Isotropic =    13.4803   Anisotropy =    19.3257
   XX=    13.6538   YX=    -9.2863   ZX=   -11.1628
   XY=    -7.2320   YY=    20.9660   ZY=    -6.7514
   XZ=    -0.7283   YZ=    -2.4628   ZZ=     5.8209
   Eigenvalues:    -0.5552    14.6319    26.3640
     74  Bq   Isotropic =     6.2931   Anisotropy =    13.9826
   XX=    -0.0129   YX=     0.3451   ZX=    -1.1307
   XY=    -3.5654   YY=     7.6794   ZY=    -2.5055
   XZ=    12.3425   YZ=    -4.9596   ZZ=    11.2129
   Eigenvalues:    -2.3333     5.5979    15.6149
     75  Bq   Isotropic =    11.4090   Anisotropy =    22.1983
   XX=     9.4834   YX=   -11.6601   ZX=   -13.3955
   XY=    -9.1149   YY=    19.7538   ZY=    -7.8387
   XZ=    -5.5671   YZ=    -4.3315   ZZ=     4.9900
   Eigenvalues:    -7.2972    15.3164    26.2079
     76  Bq   Isotropic =     5.1115   Anisotropy =    14.6915
   XX=    -1.6082   YX=     0.7478   ZX=    -1.2279
   XY=    -3.2913   YY=     6.0985   ZY=    -2.7195
   XZ=    11.6373   YZ=    -5.6630   ZZ=    10.8443
   Eigenvalues:    -3.5036     3.9324    14.9059
     77  Bq   Isotropic =     8.9242   Anisotropy =    23.9831
   XX=     3.7197   YX=   -13.6587   ZX=   -13.5499
   XY=   -11.2171   YY=    17.6091   ZY=    -7.7071
   XZ=    -9.6126   YZ=    -6.3617   ZZ=     5.4438
   Eigenvalues:   -13.3493    15.2089    24.9130
     78  Bq   Isotropic =    12.7804   Anisotropy =    11.1734
   XX=    11.2616   YX=    -3.3161   ZX=    -3.4279
   XY=    -4.6431   YY=    16.8889   ZY=    -2.9160
   XZ=    10.4162   YZ=    -1.3751   ZZ=    10.1906
   Eigenvalues:     7.0606    11.0512    20.2293
     79  Bq   Isotropic =    10.8932   Anisotropy =    11.0364
   XX=     8.3228   YX=    -1.4889   ZX=    -0.4381
   XY=    -3.7772   YY=    13.7444   ZY=    -2.1251
   XZ=    12.7223   YZ=    -2.2635   ZZ=    10.6123
   Eigenvalues:     3.1795    11.2492    18.2507
     80  Bq   Isotropic =    14.1725   Anisotropy =    11.9629
   XX=    15.3800   YX=    -4.0130   ZX=    -2.0778
   XY=    -4.2136   YY=    17.8842   ZY=    -3.4801
   XZ=     8.8589   YZ=    -1.2854   ZZ=     9.2532
   Eigenvalues:     7.7137    12.6559    22.1477
     81  Bq   Isotropic =     9.1299   Anisotropy =    11.9812
   XX=     4.9486   YX=    -0.6220   ZX=    -0.2592
   XY=    -3.6593   YY=    11.5266   ZY=    -2.0000
   XZ=    13.3602   YZ=    -3.1670   ZZ=    10.9147
   Eigenvalues:     0.7177     9.5547    17.1174
     82  Bq   Isotropic =    15.1499   Anisotropy =    13.8405
   XX=    17.8698   YX=    -5.6998   ZX=    -3.6046
   XY=    -4.8003   YY=    19.1389   ZY=    -4.7506
   XZ=     5.5563   YZ=    -1.6304   ZZ=     8.4410
   Eigenvalues:     7.5361    13.5366    24.3768
     83  Bq   Isotropic =     7.5197   Anisotropy =    13.1278
   XX=     2.1096   YX=     0.0345   ZX=    -0.3429
   XY=    -3.5180   YY=     9.4786   ZY=    -2.0980
   XZ=    13.3527   YZ=    -4.1034   ZZ=    10.9709
   Eigenvalues:    -1.3310     7.6186    16.2716
     84  Bq   Isotropic =    15.3520   Anisotropy =    15.9893
   XX=    18.7446   YX=    -7.5961   ZX=    -5.3021
   XY=    -5.8540   YY=    19.3711   ZY=    -6.1267
   XZ=     1.6605   YZ=    -2.6625   ZZ=     7.9403
   Eigenvalues:     5.1301    14.9144    26.0115
     85  Bq   Isotropic =     6.1384   Anisotropy =    14.0928
   XX=    -0.1036   YX=     0.5215   ZX=    -0.5720
   XY=    -3.3357   YY=     7.6831   ZY=    -2.3137
   XZ=    12.8824   YZ=    -4.9624   ZZ=    10.8358
   Eigenvalues:    -2.8727     5.7544    15.5337
     86  Bq   Isotropic =    14.8017   Anisotropy =    17.7865
   XX=    17.7550   YX=    -9.5038   ZX=    -6.5617
   XY=    -7.4129   YY=    18.4987   ZY=    -7.0585
   XZ=    -2.2355   YZ=    -4.1678   ZZ=     8.1514
   Eigenvalues:     1.7839    15.9618    26.6594
     87  Bq   Isotropic =     5.0049   Anisotropy =    14.7554
   XX=    -1.7144   YX=     0.8733   ZX=    -0.8591
   XY=    -3.1167   YY=     6.1620   ZY=    -2.5696
   XZ=    12.1126   YZ=    -5.6850   ZZ=    10.5670
   Eigenvalues:    -3.9250     4.0978    14.8418
     88  Bq   Isotropic =    13.9368   Anisotropy =    18.7056
   XX=    15.5413   YX=   -11.0626   ZX=    -6.6375
   XY=    -9.1924   YY=    16.9392   ZY=    -6.8929
   XZ=    -5.4279   YZ=    -5.6084   ZZ=     9.3299
   Eigenvalues:    -1.1191    16.5222    26.4072
     89  Bq   Isotropic =    12.6547   Anisotropy =    10.9270
   XX=    11.9651   YX=    -2.6087   ZX=    -1.0116
   XY=    -3.9263   YY=    15.9592   ZY=    -2.5909
   XZ=    11.2611   YZ=    -1.5638   ZZ=    10.0399
   Eigenvalues:     5.7611    12.2637    19.9394
     90  Bq   Isotropic =    10.7394   Anisotropy =    10.9225
   XX=     8.5878   YX=    -0.4270   ZX=     0.9463
   XY=    -3.0442   YY=    13.2699   ZY=    -1.2992
   XZ=    13.3916   YZ=    -2.3255   ZZ=    10.3604
   Eigenvalues:     2.2496    11.9474    18.0210
     91  Bq   Isotropic =    14.3478   Anisotropy =    10.3058
   XX=    16.4766   YX=    -2.0101   ZX=     0.5757
   XY=    -2.8242   YY=    16.7748   ZY=    -2.0593
   XZ=     9.8460   YZ=    -1.1850   ZZ=     9.7919
   Eigenvalues:     6.9360    14.8890    21.2183
     92  Bq   Isotropic =     8.9632   Anisotropy =    12.0310
   XX=     5.0468   YX=     0.1324   ZX=     0.7209
   XY=    -3.1307   YY=    11.3044   ZY=    -1.3904
   XZ=    13.9746   YZ=    -3.2625   ZZ=    10.5385
   Eigenvalues:    -0.0522     9.9580    16.9839
     93  Bq   Isotropic =    15.8000   Anisotropy =    11.1333
   XX=    19.8877   YX=    -3.0563   ZX=    -0.0793
   XY=    -2.9190   YY=    17.8317   ZY=    -2.9634
   XZ=     6.9438   YZ=    -1.3091   ZZ=     9.6806
   Eigenvalues:     8.4701    15.7076    23.2222
     94  Bq   Isotropic =     7.3765   Anisotropy =    13.1740
   XX=     2.1172   YX=     0.5676   ZX=     0.3423
   XY=    -3.1333   YY=     9.4289   ZY=    -1.6599
   XZ=    13.9191   YZ=    -4.2280   ZZ=    10.5833
   Eigenvalues:    -1.9531     7.9234    16.1591
     95  Bq   Isotropic =    16.7801   Anisotropy =    12.3107
   XX=    22.2203   YX=    -4.2295   ZX=    -0.8751
   XY=    -3.3460   YY=    18.1355   ZY=    -3.9970
   XZ=     3.6580   YZ=    -1.9583   ZZ=     9.9845
   Eigenvalues:     9.0108    16.3424    24.9873
     96  Bq   Isotropic =     6.0322   Anisotropy =    14.1263
   XX=    -0.1404   YX=     0.8991   ZX=    -0.1019
   XY=    -3.0499   YY=     7.7348   ZY=    -2.0089
   XZ=    13.3929   YZ=    -5.1138   ZZ=    10.5022
   Eigenvalues:    -3.3643     6.0113    15.4498
     97  Bq   Isotropic =    17.2631   Anisotropy =    13.3037
   XX=    23.2130   YX=    -5.4066   ZX=    -1.4706
   XY=    -4.1622   YY=    17.6820   ZY=    -4.7470
   XZ=     0.4988   YZ=    -2.9208   ZZ=    10.8942
   Eigenvalues:     8.7176    16.9394    26.1322
     98  Bq   Isotropic =     4.9373   Anisotropy =    14.8014
   XX=    -1.7674   YX=     1.1427   ZX=    -0.5464
   XY=    -2.8979   YY=     6.2614   ZY=    -2.3662
   XZ=    12.5589   YZ=    -5.8587   ZZ=    10.3180
   Eigenvalues:    -4.3045     4.3115    14.8049
     99  Bq   Isotropic =    17.4342   Anisotropy =    13.7385
   XX=    23.1386   YX=    -6.3693   ZX=    -1.4703
   XY=    -5.2032   YY=    16.7746   ZY=    -4.7332
   XZ=    -2.0462   YZ=    -3.7594   ZZ=    12.3895
   Eigenvalues:     8.2832    17.4263    26.5932
    100  Bq   Isotropic =    12.5920   Anisotropy =    10.2307
   XX=    12.5287   YX=    -1.1343   ZX=     0.9219
   XY=    -2.9124   YY=    15.1680   ZY=    -1.4959
   XZ=    12.0325   YZ=    -1.5725   ZZ=    10.0792
   Eigenvalues:     4.7108    13.6527    19.4125
    101  Bq   Isotropic =    10.6456   Anisotropy =    10.6593
   XX=     8.7172   YX=     1.0443   ZX=     1.8316
   XY=    -2.2121   YY=    13.0531   ZY=    -0.0718
   XZ=    14.0231   YZ=    -2.3293   ZZ=    10.1666
   Eigenvalues:     1.4690    12.7160    17.7518
    102  Bq   Isotropic =    14.3932   Anisotropy =     9.7638
   XX=    16.9295   YX=     0.6901   ZX=     2.2541
   XY=    -1.1747   YY=    16.0283   ZY=     0.0632
   XZ=    10.7067   YZ=    -0.7352   ZZ=    10.2218
   Eigenvalues:     6.2761    16.0011    20.9024
    103  Bq   Isotropic =     8.8807   Anisotropy =    11.8102
   XX=     5.1166   YX=     1.1893   ZX=     1.3541
   XY=    -2.5375   YY=    11.2835   ZY=    -0.5172
   XZ=    14.5525   YZ=    -3.3982   ZZ=    10.2420
   Eigenvalues:    -0.7081    10.5960    16.7541
    104  Bq   Isotropic =    16.0863   Anisotropy =    10.1946
   XX=    20.7361   YX=     0.4353   ZX=     2.1519
   XY=    -0.6460   YY=    16.9031   ZY=    -0.3900
   XZ=     8.0757   YZ=    -0.4929   ZZ=    10.6197
   Eigenvalues:     8.4691    16.9071    22.8827
    105  Bq   Isotropic =     7.3212   Anisotropy =    13.0187
   XX=     2.1539   YX=     1.3225   ZX=     0.7900
   XY=    -2.7016   YY=     9.5300   ZY=    -1.0647
   XZ=    14.4439   YZ=    -4.4539   ZZ=    10.2796
   Eigenvalues:    -2.4753     8.4384    16.0003
    106  Bq   Isotropic =    17.4729   Anisotropy =    10.8545
   XX=    23.7307   YX=     0.0929   ZX=     1.9437
   XY=    -0.3056   YY=    17.2381   ZY=    -1.1036
   XZ=     5.2008   YZ=    -0.6712   ZZ=    11.4500
   Eigenvalues:    10.3860    17.3235    24.7092
    107  Bq   Isotropic =     6.0071   Anisotropy =    14.0557
   XX=    -0.1215   YX=     1.4392   ZX=     0.2080
   XY=    -2.7255   YY=     7.8943   ZY=    -1.6220
   XZ=    13.8575   YZ=    -5.3973   ZZ=    10.2485
   Eigenvalues:    -3.7664     6.4102    15.3776
    108  Bq   Isotropic =    18.4964   Anisotropy =    11.3257
   XX=    25.6577   YX=    -0.3311   ZX=     1.8218
   XY=    -0.2689   YY=    17.1003   ZY=    -1.8140
   XZ=     2.5338   YZ=    -1.1042   ZZ=    12.7313
   Eigenvalues:    11.9937    17.4487    26.0469
    109  Bq   Isotropic =     4.9393   Anisotropy =    14.8182
   XX=    -1.7573   YX=     1.5316   ZX=    -0.3403
   XY=    -2.6452   YY=     6.4334   ZY=    -2.1285
   XZ=    12.9581   YZ=    -6.1731   ZZ=    10.1417
   Eigenvalues:    -4.6065     4.6063    14.8180
    110  Bq   Isotropic =    19.2031   Anisotropy =    11.4012
   XX=    26.6213   YX=    -0.7705   ZX=     1.9857
   XY=    -0.5127   YY=    16.7208   ZY=    -2.1692
   XZ=     0.4145   YZ=    -1.4663   ZZ=    14.2673
   Eigenvalues:    13.2570    17.5484    26.8040
    111  Bq   Isotropic =    12.5276   Anisotropy =     9.8977
   XX=    12.7691   YX=     0.8836   ZX=     2.1493
   XY=    -1.7370   YY=    14.6923   ZY=     0.1568
   XZ=    12.7432   YZ=    -1.3885   ZZ=    10.1214
   Eigenvalues:     3.8786    14.5781    19.1260
    112  Bq   Isotropic =    10.6098   Anisotropy =    10.6214
   XX=     8.6455   YX=     2.7564   ZX=     2.1004
   XY=    -1.3552   YY=    13.2100   ZY=     1.3780
   XZ=    14.6003   YZ=    -2.2983   ZZ=     9.9741
   Eigenvalues:     0.8776    13.2611    17.6908
    113  Bq   Isotropic =    14.2314   Anisotropy =    12.0037
   XX=    16.5885   YX=     3.7830   ZX=     2.8315
   XY=     0.5707   YY=    15.7246   ZY=     2.5705
   XZ=    11.4318   YZ=    -0.0397   ZZ=    10.3812
   Eigenvalues:     5.7052    14.7551    22.2339
    114  Bq   Isotropic =     8.9010   Anisotropy =    11.3625
   XX=     5.1281   YX=     2.4292   ZX=     1.5464
   XY=    -1.9271   YY=    11.5604   ZY=     0.4906
   XZ=    15.0719   YZ=    -3.5812   ZZ=    10.0143
   Eigenvalues:    -1.1898    11.4167    16.4760
    115  Bq   Isotropic =    15.8985   Anisotropy =    13.1510
   XX=    20.2639   YX=     4.3874   ZX=     3.0127
   XY=     1.7863   YY=    16.3520   ZY=     2.5710
   XZ=     8.9444   YZ=     0.6389   ZZ=    11.0794
   Eigenvalues:     8.1322    14.8974    24.6658
    116  Bq   Isotropic =     7.3817   Anisotropy =    12.6554
   XX=     2.2131   YX=     2.2165   ZX=     0.9289
   XY=    -2.2517   YY=     9.8524   ZY=    -0.4026
   XZ=    14.9013   YZ=    -4.7799   ZZ=    10.0796
   Eigenvalues:    -2.8389     9.1654    15.8186
    117  Bq   Isotropic =    17.3251   Anisotropy =    14.0800
   XX=    23.2143   YX=     4.9012   ZX=     3.1797
   XY=     2.9507   YY=    16.5589   ZY=     2.0851
   XZ=     6.2911   YZ=     0.9265   ZZ=    12.2021
   Eigenvalues:    10.4454    14.8181    26.7118
    118  Bq   Isotropic =     6.0927   Anisotropy =    13.8824
   XX=    -0.0415   YX=     2.0857   ZX=     0.3049
   XY=    -2.3797   YY=     8.2078   ZY=    -1.2131
   XZ=    14.2493   YZ=    -5.8067   ZZ=    10.1117
   Eigenvalues:    -4.0288     6.9591    15.3476
    119  Bq   Isotropic =    18.4682   Anisotropy =    14.5553
   XX=    25.2523   YX=     5.1827   ZX=     3.4692
   XY=     3.8566   YY=    16.5079   ZY=     1.2407
   XZ=     3.9008   YZ=     0.9275   ZZ=    13.6444
   Eigenvalues:    12.5531    14.6798    28.1717
    120  Bq   Isotropic =     5.0377   Anisotropy =    14.8150
   XX=    -1.6739   YX=     2.0026   ZX=    -0.2794
   XY=    -2.3686   YY=     6.7049   ZY=    -1.8950
   XZ=    13.2847   YZ=    -6.6193   ZZ=    10.0820
   Eigenvalues:    -4.7910     4.9897    14.9143
    121  Bq   Isotropic =    19.3417   Anisotropy =    14.5381
   XX=    26.4879   YX=     5.1417   ZX=     3.9693
   XY=     4.3706   YY=    16.4374   ZY=     0.3304
   XZ=     2.0307   YZ=     0.8852   ZZ=    15.0999
   Eigenvalues:    13.9608    15.0306    29.0338
    122  Bq   Isotropic =    12.4258   Anisotropy =    10.9771
   XX=    12.5755   YX=     3.2145   ZX=     2.5374
   XY=    -0.5125   YY=    14.6477   ZY=     2.1256
   XZ=    13.3817   YZ=    -1.0646   ZZ=    10.0542
   Eigenvalues:     3.2362    14.2974    19.7439
    123  Bq   Isotropic =    10.6636   Anisotropy =    11.0923
   XX=     8.3696   YX=     4.5223   ZX=     1.6828
   XY=    -0.5395   YY=    13.8312   ZY=     2.8336
   XZ=    15.0579   YZ=    -2.2945   ZZ=     9.7900
   Eigenvalues:     0.5539    13.3785    18.0585
    124  Bq   Isotropic =    13.8624   Anisotropy =    15.3254
   XX=    15.3971   YX=     6.9807   ZX=     2.2164
   XY=     2.2908   YY=    15.9498   ZY=     5.1783
   XZ=    11.9376   YZ=     0.7748   ZZ=    10.2404
   Eigenvalues:     5.2811    12.2268    24.0794
    125  Bq   Isotropic =     9.0592   Anisotropy =    10.7107
[...]
   129  Bq   0.000000
   130  Bq   0.000000
   131  Bq   0.000000
   132  Bq   0.000000
   133  Bq   0.000000
   134  Bq   0.000000
   135  Bq   0.000000
   136  Bq   0.000000
   137  Bq   0.000000
   138  Bq   0.000000
   139  Bq   0.000000
   140  Bq   0.000000
   141  Bq   0.000000
   142  Bq   0.000000
   143  Bq   0.000000
   144  Bq   0.000000
   145  Bq   0.000000
   146  Bq   0.000000
   147  Bq   0.000000
   148  Bq   0.000000
   149  Bq   0.000000
   150  Bq   0.000000
   151  Bq   0.000000
   152  Bq   0.000000
   153  Bq   0.000000
   154  Bq   0.000000
   155  Bq   0.000000
   156  Bq   0.000000
   157  Bq   0.000000
   158  Bq   0.000000
   159  Bq   0.000000
   160  Bq   0.000000
   161  Bq   0.000000
   162  Bq   0.000000
   163  Bq   0.000000
   164  Bq   0.000000
   165  Bq   0.000000
   166  Bq   0.000000
   167  Bq   0.000000
   168  Bq   0.000000
   169  Bq   0.000000
   170  Bq   0.000000
   171  Bq   0.000000
   172  Bq   0.000000
   173  Bq   0.000000
   174  Bq   0.000000
   175  Bq   0.000000
   176  Bq   0.000000
   177  Bq   0.000000
   178  Bq   0.000000
   179  Bq   0.000000
   180  Bq   0.000000
   181  Bq   0.000000
   182  Bq   0.000000
   183  Bq   0.000000
   184  Bq   0.000000
   185  Bq   0.000000
   186  Bq   0.000000
   187  Bq   0.000000
   188  Bq   0.000000
   189  Bq   0.000000
   190  Bq   0.000000
   191  Bq   0.000000
   192  Bq   0.000000
   193  Bq   0.000000
   194  Bq   0.000000
   195  Bq   0.000000
   196  Bq   0.000000
   197  Bq   0.000000
   198  Bq   0.000000
   199  Bq   0.000000
   200  Bq   0.000000
   201  Bq   0.000000
   202  Bq   0.000000
   203  Bq   0.000000
   204  Bq   0.000000
   205  Bq   0.000000
   206  Bq   0.000000
   207  Bq   0.000000
   208  Bq   0.000000
   209  Bq   0.000000
   210  Bq   0.000000
   211  Bq   0.000000
   212  Bq   0.000000
   213  Bq   0.000000
   214  Bq   0.000000
   215  Bq   0.000000
   216  Bq   0.000000
   217  Bq   0.000000
   218  Bq   0.000000
   219  Bq   0.000000
   220  Bq   0.000000
   221  Bq   0.000000
   222  Bq   0.000000
   223  Bq   0.000000
   224  Bq   0.000000
   225  Bq   0.000000
   226  Bq   0.000000
   227  Bq   0.000000
   228  Bq   0.000000
   229  Bq   0.000000
   230  Bq   0.000000
   231  Bq   0.000000
   232  Bq   0.000000
   233  Bq   0.000000
   234  Bq   0.000000
   235  Bq   0.000000
   236  Bq   0.000000
 Sum of Mulliken charges =   0.00000
 Mulliken charges with hydrogens summed into heavy atoms:
               1
     1  C   -0.255498
     3  C    0.169409
     5  C    0.448258
     6  C    0.064351
     7  C   -0.333926
     9  C   -0.139521
    11  C   -0.205988
    13  C   -0.119315
    15  C    0.653397
    16  C    0.034822
    17  C   -0.317410
    19  C   -0.434284
    21  C    0.651066
    22  C    0.037784
    23  C   -0.117289
    25  C   -0.205316
    27  C    0.448331
    28  C    0.061983
    29  C   -0.333381
    31  C   -0.139505
    33  C   -0.255977
    35  C    0.055019
    37  Bq   0.000000
    38  Bq   0.000000
    39  Bq   0.000000
    40  Bq   0.000000
    41  Bq   0.000000
    42  Bq   0.000000
    43  Bq   0.000000
    44  Bq   0.000000
    45  Bq   0.000000
    46  Bq   0.000000
    47  Bq   0.000000
    48  Bq   0.000000
    49  Bq   0.000000
    50  Bq   0.000000
    51  Bq   0.000000
    52  Bq   0.000000
    53  Bq   0.000000
    54  Bq   0.000000
    55  Bq   0.000000
    56  Bq   0.000000
    57  Bq   0.000000
    58  Bq   0.000000
    59  Bq   0.000000
    60  Bq   0.000000
    61  Bq   0.000000
    62  Bq   0.000000
    63  Bq   0.000000
    64  Bq   0.000000
    65  Bq   0.000000
    66  Bq   0.117431
    67  Bq   0.000000
    68  Bq   0.000000
    69  Bq   0.000000
    70  Bq   0.000000
    71  Bq   0.000000
    72  Bq   0.000000
    73  Bq   0.000000
    74  Bq   0.000000
    75  Bq   0.000000
    76  Bq   0.000000
    77  Bq   0.115561
    78  Bq   0.000000
    79  Bq   0.000000
    80  Bq   0.000000
    81  Bq   0.000000
    82  Bq   0.000000
    83  Bq   0.000000
    84  Bq   0.000000
    85  Bq   0.000000
    86  Bq   0.000000
    87  Bq   0.000000
    88  Bq   0.000000
    89  Bq   0.000000
    90  Bq   0.000000
    91  Bq   0.000000
    92  Bq   0.000000
    93  Bq   0.000000
    94  Bq   0.000000
    95  Bq   0.000000
    96  Bq   0.000000
    97  Bq   0.000000
    98  Bq   0.000000
    99  Bq   0.000000
   100  Bq   0.000000
   101  Bq   0.000000
   102  Bq   0.000000
   103  Bq   0.000000
   104  Bq   0.000000
   105  Bq   0.000000
   106  Bq   0.000000
   107  Bq   0.000000
   108  Bq   0.000000
   109  Bq   0.000000
   110  Bq   0.000000
   111  Bq   0.000000
   112  Bq   0.000000
   113  Bq   0.000000
   114  Bq   0.000000
   115  Bq   0.000000
   116  Bq   0.000000
   117  Bq   0.000000
   118  Bq   0.000000
   119  Bq   0.000000
   120  Bq   0.000000
   121  Bq   0.000000
   122  Bq   0.000000
   123  Bq   0.000000
   124  Bq   0.000000
   125  Bq   0.000000
   126  Bq   0.000000
   127  Bq   0.000000
   128  Bq   0.000000
   129  Bq   0.000000
   130  Bq   0.000000
   131  Bq   0.000000
   132  Bq   0.000000
   133  Bq   0.000000
   134  Bq   0.000000
   135  Bq   0.000000
   136  Bq   0.000000
   137  Bq   0.000000
   138  Bq   0.000000
   139  Bq   0.000000
   140  Bq   0.000000
   141  Bq   0.000000
   142  Bq   0.000000
   143  Bq   0.000000
   144  Bq   0.000000
   145  Bq   0.000000
   146  Bq   0.000000
   147  Bq   0.000000
   148  Bq   0.000000
   149  Bq   0.000000
   150  Bq   0.000000
   151  Bq   0.000000
   152  Bq   0.000000
   153  Bq   0.000000
   154  Bq   0.000000
   155  Bq   0.000000
   156  Bq   0.000000
   157  Bq   0.000000
   158  Bq   0.000000
   159  Bq   0.000000
   160  Bq   0.000000
   161  Bq   0.000000
   162  Bq   0.000000
   163  Bq   0.000000
   164  Bq   0.000000
   165  Bq   0.000000
   166  Bq   0.000000
   167  Bq   0.000000
   168  Bq   0.000000
   169  Bq   0.000000
   170  Bq   0.000000
   171  Bq   0.000000
   172  Bq   0.000000
   173  Bq   0.000000
   174  Bq   0.000000
   175  Bq   0.000000
   176  Bq   0.000000
   177  Bq   0.000000
   178  Bq   0.000000
   179  Bq   0.000000
   180  Bq   0.000000
   181  Bq   0.000000
   182  Bq   0.000000
   183  Bq   0.000000
   184  Bq   0.000000
   185  Bq   0.000000
   186  Bq   0.000000
   187  Bq   0.000000
   188  Bq   0.000000
   189  Bq   0.000000
   190  Bq   0.000000
   191  Bq   0.000000
   192  Bq   0.000000
   193  Bq   0.000000
   194  Bq   0.000000
   195  Bq   0.000000
   196  Bq   0.000000
   197  Bq   0.000000
   198  Bq   0.000000
   199  Bq   0.000000
   200  Bq   0.000000
   201  Bq   0.000000
   202  Bq   0.000000
   203  Bq   0.000000
   204  Bq   0.000000
   205  Bq   0.000000
   206  Bq   0.000000
   207  Bq   0.000000
   208  Bq   0.000000
   209  Bq   0.000000
   210  Bq   0.000000
   211  Bq   0.000000
   212  Bq   0.000000
   213  Bq   0.000000
   214  Bq   0.000000
   215  Bq   0.000000
   216  Bq   0.000000
   217  Bq   0.000000
   218  Bq   0.000000
   219  Bq   0.000000
   220  Bq   0.000000
   221  Bq   0.000000
   222  Bq   0.000000
   223  Bq   0.000000
   224  Bq   0.000000
   225  Bq   0.000000
   226  Bq   0.000000
   227  Bq   0.000000
   228  Bq   0.000000
   229  Bq   0.000000
   230  Bq   0.000000
   231  Bq   0.000000
   232  Bq   0.000000
   233  Bq   0.000000
   234  Bq   0.000000
   235  Bq   0.000000
   236  Bq   0.000000
 Electronic spatial extent (au):  <R**2>=           5736.9264
 Charge=              0.0000 electrons
 Dipole moment (field-independent basis, Debye):
    X=              0.0475    Y=              0.0856    Z=              0.0029  Tot=              0.0979
 Quadrupole moment (field-independent basis, Debye-Ang):
   XX=           -113.7056   YY=           -113.9456   ZZ=           -133.2669
   XY=             -0.3834   XZ=              3.2102   YZ=             -1.1839
 Traceless Quadrupole moment (field-independent basis, Debye-Ang):
   XX=              6.6005   YY=              6.3604   ZZ=            -12.9609
   XY=             -0.3834   XZ=              3.2102   YZ=             -1.1839
 Octapole moment (field-independent basis, Debye-Ang**2):
  XXX=            -16.4668  YYY=            -16.1860  ZZZ=             -1.7007  XYY=              2.5576
  XXY=             -6.5650  XXZ=             13.6547  XZZ=             -8.9478  YZZ=            -17.7168
  YYZ=            -13.2941  XYZ=              8.8036
 Hexadecapole moment (field-independent basis, Debye-Ang**3):
 XXXX=          -3951.1638 YYYY=          -3112.2161 ZZZZ=           -504.8311 XXXY=            340.6935
 XXXZ=            156.4968 YYYX=            335.5625 YYYZ=            -87.0893 ZZZX=            120.2262
 ZZZY=           -108.7373 XXYY=          -1176.4844 XXZZ=           -856.7291 YYZZ=           -665.7275
 XXYZ=            -68.9016 YYXZ=             48.1602 ZZXY=            153.0375
 N-N= 1.610917615562D+03 E-N=-5.186891130729D+03  KE= 8.436329774448D+02
 1\1\GINC-PLANA\SP\RB3LYP\6-311+G(d,p)\C22H14\YANNICK\22-Aug-2020\0\\# 
 rb3lyp/6-311+g** NMR geom=connectivity\\Title\\0,1\C,0,-4.0500558,-0.5
 771862,0.8136712\H,0,-5.0263804,-1.0082727,1.002476\C,0,-3.9381552,0.6
 617804,0.2400876\H,0,-4.8252424,1.233889,-0.0111295\C,0,-2.676841,1.24
 33246,0.0057578\C,0,-1.4974121,0.5051527,0.2848253\C,0,-1.6508332,-0.7
 338728,0.9404026\H,0,-0.7713646,-1.2730967,1.2633753\C,0,-2.8898548,-1
 .2624035,1.1994307\H,0,-2.9683706,-2.2124563,1.7152676\C,0,-2.5773185,
 2.5963696,-0.419293\H,0,-3.4870728,3.1412239,-0.6474055\C,0,-1.3741895
 ,3.2147896,-0.436403\H,0,-1.2997315,4.2742019,-0.6578144\C,0,-0.171948
 8,2.499409,-0.1734588\C,0,-0.2043917,1.1018437,0.0192689\C,0,1.0513491
 ,3.204256,-0.0676222\H,0,1.0427344,4.2819499,-0.1896997\C,0,2.1942091,
 2.5487446,0.2579577\H,0,3.1168527,3.0912848,0.4334727\C,0,2.2216473,1.
 1336562,0.293499\C,0,1.0486931,0.3945528,0.0302412\C,0,3.4483363,0.461
 4633,0.5573939\H,0,4.3095794,1.0606054,0.8334846\C,0,3.5427346,-0.8855
 926,0.4749463\H,0,4.4731467,-1.3939704,0.7038822\C,0,2.4490052,-1.6474
 447,-0.0196319\C,0,1.2150704,-1.0057258,-0.3013573\C,0,0.2531113,-1.74
 3444,-1.0216591\H,0,-0.6541356,-1.2535051,-1.3462847\C,0,0.4494193,-3.
 0628597,-1.3413779\H,0,-0.3083162,-3.5944309,-1.905406\C,0,1.6251726,-
 3.7207967,-0.9552541\H,0,1.7670048,-4.7687404,-1.1927019\C,0,2.6109872
 ,-3.0144177,-0.318305\H,0,3.5525612,-3.4902813,-0.0646367\Bq,0,2.44257
 32709,1.9188265496,1.2614751557\Bq,0,2.5452887282,1.9757371857,0.87910
 00593\Bq,0,2.4168944066,1.9045988906,1.3570689298\Bq,0,2.5709675926,1.
 9899648448,0.7835062852\Bq,0,2.3912155423,1.8903712316,1.4526627039\Bq
 ,0,2.5966464569,2.0041925038,0.6879125111\Bq,0,2.365536678,1.876143572
 5,1.548256478\Bq,0,2.6223253212,2.0184201628,0.592318737\Bq,0,2.493930
 9996,1.9472818677,1.0702876075\Bq,0,2.4645610847,2.0320369027,1.179621
 9211\Bq,0,2.5159188134,2.0604922207,0.9884343729\Bq,0,2.4388822204,2.0
 178092437,1.2752156952\Bq,0,2.5415976777,2.0747198798,0.8928405989\Bq,
 0,2.4132033561,2.0035815846,1.3708094693\Bq,0,2.567276542,2.0889475388
 ,0.7972468248\Bq,0,2.3875244918,1.9893539256,1.4664032434\Bq,0,2.59295
 54063,2.1031751978,0.7016530507\Bq,0,2.3618456274,1.9751262666,1.56199
 70175\Bq,0,2.6186342707,2.1174028569,0.6060592766\Bq,0,2.4902399491,2.
 0462645617,1.084028147\Bq,0,2.4608700342,2.1310195967,1.1933624607\Bq,
 0,2.5122277628,2.1594749148,1.0021749125\Bq,0,2.4351911699,2.116791937
 7,1.2889562348\Bq,0,2.5379066272,2.1737025738,0.9065811384\Bq,0,2.4095
 123056,2.1025642787,1.3845500089\Bq,0,2.5635854915,2.1879302328,0.8109
 873643\Bq,0,2.3838334412,2.0883366196,1.480143783\Bq,0,2.5892643558,2.
 2021578919,0.7153935902\Bq,0,2.3581545769,2.0741089606,1.5757375571\Bq
 ,0,2.6149432201,2.2163855509,0.6197998161\Bq,0,2.4865488985,2.14524725
 58,1.0977686866\Bq,0,2.741998811,-2.8181151051,0.5322782645\Bq,0,2.793
 3565397,-2.789659787,0.3410907164\Bq,0,2.7163199467,-2.8323427641,0.62
 78720386\Bq,0,2.819035404,-2.775432128,0.2454969423\Bq,0,2.6906410824,
 -2.8465704231,0.7234658127\Bq,0,2.8447142683,-2.761204469,0.1499031682
 \Bq,0,2.664962218,-2.8607980821,0.8190595868\Bq,0,2.8703931326,-2.7469
 768099,0.0543093941\Bq,0,2.6392833537,-2.8750257412,0.9146533609\Bq,0,
 2.896071997,-2.7327491509,-0.04128438\Bq,0,2.7676776753,-2.803887446,0
 .4366844904\Bq,0,2.7383077605,-2.719132411,0.5460188041\Bq,0,2.7896654
 891,-2.690677093,0.3548312559\Bq,0,2.7126288962,-2.7333600701,0.641612
 5782\Bq,0,2.8153443534,-2.6764494339,0.2592374818\Bq,0,2.6869500318,-2
 .7475877291,0.7372063523\Bq,0,2.8410232178,-2.6622217749,0.1636437077\
 Bq,0,2.6612711675,-2.7618153881,0.8328001264\Bq,0,2.8667020821,-2.6479
 941159,0.0680499336\Bq,0,2.6355923032,-2.7760430471,0.9283939005\Bq,0,
 2.8923809464,-2.6337664569,-0.0275438405\Bq,0,2.7639866248,-2.70490475
 2,0.45042503\Bq,0,2.7346167099,-2.620149717,0.5597593437\Bq,0,2.785974
 4386,-2.5916943989,0.3685717955\Bq,0,2.7089378456,-2.634377376,0.65535
 31178\Bq,0,2.8116533029,-2.5774667399,0.2729780214\Bq,0,2.6832589813,-
 2.648605035,0.7509468918\Bq,0,2.8373321672,-2.5632390809,0.1773842473\
 Bq,0,2.657580117,-2.6628326941,0.8465406659\Bq,0,2.8630110316,-2.54901
 14219,0.0817904732\Bq,0,2.6319012527,-2.6770603531,0.94213444\Bq,0,2.8
 886898959,-2.5347837628,-0.0138033009\Bq,0,2.7602955743,-2.605922058,0
 .4641655696\Bq,0,2.7309256594,-2.521167023,0.5734998832\Bq,0,2.7822833
 881,-2.4927117049,0.382312335\Bq,0,2.7052467951,-2.535394682,0.6690936
 573\Bq,0,2.8079622524,-2.4784840459,0.2867185609\Bq,0,2.6795679308,-2.
 549622341,0.7646874314\Bq,0,2.8336411167,-2.4642563868,0.1911247868\Bq
 ,0,2.6538890664,-2.56385,0.8602812055\Bq,0,2.859319981,-2.4500287278,0
 .0955310127\Bq,0,2.6282102021,-2.5780776591,0.9558749796\Bq,0,2.884998
 8453,-2.4358010688,-0.0000627614\Bq,0,2.7566045237,-2.5069393639,0.477
 9061091\Bq,0,2.7272346089,-2.4221843289,0.5872404228\Bq,0,2.7785923375
 ,-2.3937290109,0.3960528746\Bq,0,2.7015557446,-2.4364119879,0.68283419
 69\Bq,0,2.8042712018,-2.3795013518,0.3004591005\Bq,0,2.6758768802,-2.4
 50639647,0.778427971\Bq,0,2.8299500662,-2.3652736928,0.2048653264\Bq,0
 ,2.6501980159,-2.464867306,0.8740217451\Bq,0,2.8556289305,-2.351046033
 8,0.1092715523\Bq,0,2.6245191516,-2.479094965,0.9696155192\Bq,0,2.8813
 077948,-2.3368183748,0.0136777782\Bq,0,2.7529134732,-2.4079566699,0.49
 16466487\Bq,0,2.7235435583,-2.3232016349,0.6009809623\Bq,0,2.774901287
 ,-2.2947463168,0.4097934141\Bq,0,2.697864694,-2.3374292939,0.696574736
 4\Bq,0,2.8005801513,-2.2805186578,0.3141996401\Bq,0,2.6721858297,-2.35
 16569529,0.7921685105\Bq,0,2.8262590156,-2.2662909988,0.218605866\Bq,0
 ,2.6465069654,-2.365884612,0.8877622846\Bq,0,2.85193788,-2.2520633397,
 0.1230120919\Bq,0,2.620828101,-2.380112271,0.9833560587\Bq,0,2.8776167
 443,-2.2378356807,0.0274183178\Bq,0,2.7492224227,-2.3089739759,0.50538
 71882\Bq,0,2.7198525078,-2.2242189408,0.6147215019\Bq,0,2.7712102364,-
 2.1957636228,0.4235339537\Bq,0,2.6941736435,-2.2384465999,0.710315276\
 Bq,0,2.7968891008,-2.1815359638,0.3279401796\Bq,0,2.6684947792,-2.2526
 742589,0.8059090501\Bq,0,2.8225679651,-2.1673083047,0.2323464055\Bq,0,
 2.6428159148,-2.2669019179,0.9015028242\Bq,0,2.8482468294,-2.153080645
 7,0.1367526314\Bq,0,2.6171370505,-2.281129577,0.9970965983\Bq,0,2.8739
 256937,-2.1388529867,0.0411588573\Bq,0,2.7455313721,-2.2099912818,0.51
 91277278\Bq,0,2.7161614573,-2.1252362468,0.6284620415\Bq,0,2.767519185
 9,-2.0967809288,0.4372744933\Bq,0,2.6904825929,-2.1394639058,0.7240558
 155\Bq,0,2.7931980502,-2.0825532697,0.3416807192\Bq,0,2.6648037286,-2.
 1536915649,0.8196495896\Bq,0,2.8188769146,-2.0683256107,0.2460869451\B
 q,0,2.6391248643,-2.1679192239,0.9152433637\Bq,0,2.8445557789,-2.05409
 79517,0.150493171\Bq,0,2.613446,-2.1821468829,1.0108371378\Bq,0,2.8702
 346432,-2.0398702926,0.0548993969\Bq,0,2.7418403216,-2.1110085878,0.53
 28682674\Bq,0,2.7124704067,-2.0262535528,0.642202581\Bq,0,2.7638281354
 ,-1.9977982347,0.4510150328\Bq,0,2.6867915424,-2.0404812118,0.73779635
 51\Bq,0,2.7895069997,-1.9835705757,0.3554212587\Bq,0,2.6611126781,-2.0
 547088708,0.8333901292\Bq,0,2.815185864,-1.9693429167,0.2598274846\Bq,
 0,2.6354338138,-2.0689365299,0.9289839033\Bq,0,2.8408647283,-1.9551152
 576,0.1642337105\Bq,0,2.6097549494,-2.0831641889,1.0245776774\Bq,0,2.8
 665435927,-1.9408875986,0.0686399364\Bq,0,2.7381492711,-2.0120258937,0
 .5466088069\Bq,0,2.7087793562,-1.9272708587,0.6559431206\Bq,0,2.760137
 0848,-1.8988155407,0.4647555724\Bq,0,2.6831004919,-1.9414985178,0.7515
 368947\Bq,0,2.7858159492,-1.8845878817,0.3691617983\Bq,0,2.6574216276,
 -1.9557261768,0.8471306688\Bq,0,2.8114948135,-1.8703602226,0.273568024
 2\Bq,0,2.6317427632,-1.9699538358,0.9427244429\Bq,0,2.8371736778,-1.85
 61325636,0.1779742501\Bq,0,2.6060638989,-1.9841814949,1.038318217\Bq,0
 ,2.8628525421,-1.8419049046,0.082380476\Bq,0,2.7344582205,-1.913043199
 7,0.5603493465\Bq,0,2.7050883057,-1.8282881647,0.6696836601\Bq,0,2.756
 4460343,-1.7998328466,0.4784961119\Bq,0,2.6794094413,-1.8425158237,0.7
 652774342\Bq,0,2.7821248986,-1.7856051876,0.3829023378\Bq,0,2.65373057
 7,-1.8567434828,0.8608712083\Bq,0,2.807803763,-1.7713775286,0.28730856
 38\Bq,0,2.6280517127,-1.8709711418,0.9564649824\Bq,0,2.8334826273,-1.7
 571498696,0.1917147897\Bq,0,2.6023728484,-1.8851988008,1.0520587565\Bq
 ,0,2.8591614916,-1.7429222105,0.0961210156\Bq,0,2.73076717,-1.81406050
 57,0.574089886\Bq,0,2.7013972551,-1.7293054707,0.6834241997\Bq,0,2.752
 7549838,-1.7008501526,0.4922366515\Bq,0,2.6757183908,-1.7435331297,0.7
 790179738\Bq,0,2.7784338481,-1.6866224936,0.3966428774\Bq,0,2.65003952
 65,-1.7577607887,0.8746117479\Bq,0,2.8041127124,-1.6723948346,0.301049
 1033\Bq,0,2.6243606622,-1.7719884478,0.970205522\Bq,0,2.8297915767,-1.
 6581671755,0.2054553292\Bq,0,2.5986817978,-1.7862161068,1.0657992961\B
 q,0,2.8554704411,-1.6439395165,0.1098615551\Bq,0,2.7270761194,-1.71507
 78116,0.5878304256\Bq,0,2.6977062046,-1.6303227766,0.6971647392\Bq,0,2
 .7490639332,-1.6018674586,0.5059771911\Bq,0,2.6720273403,-1.6445504357
 ,0.7927585133\Bq,0,2.7747427976,-1.5876397995,0.410383417\Bq,0,2.64634
 84759,-1.6587780947,0.8883522874\Bq,0,2.8004216619,-1.5734121405,0.314
 7896429\Bq,0,2.6206696116,-1.6730057537,0.9839460615\Bq,0,2.8261005262
 ,-1.5591844815,0.2191958688\Bq,0,2.5949907473,-1.6872334127,1.07953983
 56\Bq,0,2.8517793905,-1.5449568225,0.1236020947\Bq,0,2.7233850689,-1.6
 160951176,0.6015709652\Bq,0,2.6940151541,-1.5313400826,0.7109052788\Bq
 ,0,2.7453728827,-1.5028847645,0.5197177306\Bq,0,2.6683362897,-1.545567
 7416,0.8064990529\Bq,0,2.771051747,-1.4886571055,0.4241239565\Bq,0,2.6
 426574254,-1.5597954007,0.902092827\Bq,0,2.7967306113,-1.4744294465,0.
 3285301824\Bq,0,2.6169785611,-1.5740230597,0.9976866011\Bq,0,2.8224094
 757,-1.4602017875,0.2329364083\Bq,0,2.5912996968,-1.5882507187,1.09328
 03752\Bq,0,2.84808834,-1.4459741284,0.1373426342\Bq,0,2.7196940184,-1.
 5171124236,0.6153115047\Bq,0,2.6903241035,-1.4323573886,0.7246458184\B
 q,0,2.7416818322,-1.4039020705,0.5334582702\Bq,0,2.6646452392,-1.44658
 50476,0.8202395925\Bq,0,2.7673606965,-1.3896744115,0.4378644961\Bq,0,2
 .6389663749,-1.4608127066,0.9158333666\Bq,0,2.7930395608,-1.3754467524
 ,0.342270722\Bq,0,2.6132875106,-1.4750403656,1.0114271406\Bq,0,2.81871
 84251,-1.3612190934,0.2466769479\Bq,0,2.5876086462,-1.4892680247,1.107
 0209147\Bq,0,2.8443972895,-1.3469914344,0.1510831738\Bq,0,2.7160029678
 ,-1.4181297295,0.6290520443\Bq,0,2.686633053,-1.3333746945,0.738386357
 9\Bq,0,2.7379907816,-1.3049193765,0.5471988097\Bq,0,2.6609541887,-1.34
 76023536,0.833980132\Bq,0,2.763669646,-1.2906917174,0.4516050356\\Vers
 ion=ES64L-G09RevD.01\HF=-847.0032898\RMSD=7.511e-09\Dipole=0.0186808,0
 .0336671,0.0011595\Quadrupole=4.9072795,4.7288219,-9.6361014,-0.285020
 1,2.3867064,-0.880172\PG=C01 [X(C22H14)]\\@


 MICRO CREDO - NEVER TRUST A COMPUTER BIGGER
               BIGGER THAN YOU CAN LIFT.
 Job cpu time:       0 days  4 hours  9 minutes  9.8 seconds.
 File lengths (MBytes):  RWF=    184 Int=      0 D2E=      0 Chk=     19 Scr=      1
 Normal termination of Gaussian 09 at Sat Aug 22 19:06:15 2020.
