 Entering Gaussian System, Link 0=g09
 Input=input_cycle_01_batch_25000.com
 Output=input_cycle_01_batch_25000.log
 Initial command:
 /share/programs/GAUSSIAN/64/g09/l1.exe "/scratch/yannick.30014/Gau-26965.inp" -scrdir="/scratch/yannick.30014/"
 Entering Link 1 = /share/programs/GAUSSIAN/64/g09/l1.exe PID=     26966.
  
 Copyright (c) 1988,1990,1992,1993,1995,1998,2003,2009,2013,
            Gaussian, Inc.  All Rights Reserved.
  
 This is part of the Gaussian(R) 09 program.  It is based on
 the Gaussian(R) 03 system (copyright 2003, Gaussian, Inc.),
 the Gaussian(R) 98 system (copyright 1998, Gaussian, Inc.),
 the Gaussian(R) 94 system (copyright 1995, Gaussian, Inc.),
 the Gaussian 92(TM) system (copyright 1992, Gaussian, Inc.),
 the Gaussian 90(TM) system (copyright 1990, Gaussian, Inc.),
 the Gaussian 88(TM) system (copyright 1988, Gaussian, Inc.),
 the Gaussian 86(TM) system (copyright 1986, Carnegie Mellon
 University), and the Gaussian 82(TM) system (copyright 1983,
 Carnegie Mellon University). Gaussian is a federally registered
 trademark of Gaussian, Inc.
  
 This software contains proprietary and confidential information,
 including trade secrets, belonging to Gaussian, Inc.
  
 This software is provided under written license and may be
 used, copied, transmitted, or stored only in accord with that
 written license.
  
 The following legend is applicable only to US Government
 contracts under FAR:
  
                    RESTRICTED RIGHTS LEGEND
  
 Use, reproduction and disclosure by the US Government is
 subject to restrictions as set forth in subparagraphs (a)
 and (c) of the Commercial Computer Software - Restricted
 Rights clause in FAR 52.227-19.
  
 Gaussian, Inc.
 340 Quinnipiac St., Bldg. 40, Wallingford CT 06492
  
  
 ---------------------------------------------------------------
 Warning -- This program may not be used in any manner that
 competes with the business of Gaussian, Inc. or will provide
 assistance to any competitor of Gaussian, Inc.  The licensee
 of this program is prohibited from giving any competitor of
 Gaussian, Inc. access to this program.  By using this program,
 the user acknowledges that Gaussian, Inc. is engaged in the
 business of creating and licensing software in the field of
 computational chemistry and represents and warrants to the
 licensee that it is not a competitor of Gaussian, Inc. and that
 it will not use this program in any manner prohibited above.
 ---------------------------------------------------------------
  

 Cite this work as:
 Gaussian 09, Revision D.01,
 M. J. Frisch, G. W. Trucks, H. B. Schlegel, G. E. Scuseria, 
 M. A. Robb, J. R. Cheeseman, G. Scalmani, V. Barone, B. Mennucci, 
 G. A. Petersson, H. Nakatsuji, M. Caricato, X. Li, H. P. Hratchian, 
 A. F. Izmaylov, J. Bloino, G. Zheng, J. L. Sonnenberg, M. Hada, 
 M. Ehara, K. Toyota, R. Fukuda, J. Hasegawa, M. Ishida, T. Nakajima, 
 Y. Honda, O. Kitao, H. Nakai, T. Vreven, J. A. Montgomery, Jr., 
 J. E. Peralta, F. Ogliaro, M. Bearpark, J. J. Heyd, E. Brothers, 
 K. N. Kudin, V. N. Staroverov, T. Keith, R. Kobayashi, J. Normand, 
 K. Raghavachari, A. Rendell, J. C. Burant, S. S. Iyengar, J. Tomasi, 
 M. Cossi, N. Rega, J. M. Millam, M. Klene, J. E. Knox, J. B. Cross, 
 V. Bakken, C. Adamo, J. Jaramillo, R. Gomperts, R. E. Stratmann, 
 O. Yazyev, A. J. Austin, R. Cammi, C. Pomelli, J. W. Ochterski, 
 R. L. Martin, K. Morokuma, V. G. Zakrzewski, G. A. Voth, 
 P. Salvador, J. J. Dannenberg, S. Dapprich, A. D. Daniels, 
 O. Farkas, J. B. Foresman, J. V. Ortiz, J. Cioslowski, 
 and D. J. Fox, Gaussian, Inc., Wallingford CT, 2013.
 
 ******************************************
 Gaussian 09:  ES64L-G09RevD.01 24-Apr-2013
                21-Aug-2020 
 ******************************************
 %nproc=8
 Will use up to    8 processors via shared memory.
 %mem=1000MB
 ----------------------------------------
 # rb3lyp/6-311+g** NMR geom=connectivity
 ----------------------------------------
 1/38=1,57=2/1;
 2/12=2,17=6,18=5,40=1/2;
 3/5=4,6=6,7=111,11=2,16=1,25=1,30=1,74=-5,116=1/1,2,8,3;
 4//1;
 5/5=2,38=5/2;
 8/6=1,10=90,11=11/1;
 10/13=100,45=16/2;
 6/7=2,8=2,9=2,10=2,28=1/1;
 99/9=1/99;
 -----
 Title
 -----
 Symbolic Z-matrix:
 Charge =  0 Multiplicity = 1
 C                    -4.05006  -0.57719   0.81367 
 H                    -5.02638  -1.00827   1.00248 
 C                    -3.93816   0.66178   0.24009 
 H                    -4.82524   1.23389  -0.01113 
 C                    -2.67684   1.24332   0.00576 
 C                    -1.49741   0.50515   0.28483 
 C                    -1.65083  -0.73387   0.9404 
 H                    -0.77136  -1.2731    1.26338 
 C                    -2.88985  -1.2624    1.19943 
 H                    -2.96837  -2.21246   1.71527 
 C                    -2.57732   2.59637  -0.41929 
 H                    -3.48707   3.14122  -0.64741 
 C                    -1.37419   3.21479  -0.4364 
 H                    -1.29973   4.2742   -0.65781 
 C                    -0.17195   2.49941  -0.17346 
 C                    -0.20439   1.10184   0.01927 
 C                     1.05135   3.20426  -0.06762 
 H                     1.04273   4.28195  -0.1897 
 C                     2.19421   2.54874   0.25796 
 H                     3.11685   3.09128   0.43347 
 C                     2.22165   1.13366   0.2935 
 C                     1.04869   0.39455   0.03024 
 C                     3.44834   0.46146   0.55739 
 H                     4.30958   1.06061   0.83348 
 C                     3.54273  -0.88559   0.47495 
 H                     4.47315  -1.39397   0.70388 
 C                     2.44901  -1.64744  -0.01963 
 C                     1.21507  -1.00573  -0.30136 
 C                     0.25311  -1.74344  -1.02166 
 H                    -0.65414  -1.25351  -1.34628 
 C                     0.44942  -3.06286  -1.34138 
 H                    -0.30832  -3.59443  -1.90541 
 C                     1.62517  -3.7208   -0.95525 
 H                     1.767    -4.76874  -1.1927 
 C                     2.61099  -3.01442  -0.31831 
 H                     3.55256  -3.49028  -0.06464 
 Bq                    3.09084  -2.10322   0.28658 
 Bq                    2.73209  -2.34276   1.07646 
 Bq                    3.1307   -2.0766    0.19882 
 Bq                    2.93139  -2.20968   0.63764 
 Bq                    2.88053  -2.1399    0.74964 
 Bq                    2.96025  -2.08667   0.57411 
 Bq                    2.84066  -2.16652   0.8374 
 Bq                    3.00011  -2.06006   0.48634 
 Bq                    2.8008   -2.19313   0.92517 
 Bq                    3.03997  -2.03344   0.39858 
 Bq                    2.76094  -2.21975   1.01293 
 Bq                    3.07984  -2.00683   0.31081 
 Bq                    2.72108  -2.24637   1.1007 
 Bq                    3.1197   -1.98021   0.22305 
 Bq                    2.92039  -2.11329   0.66187 
 Bq                    2.86952  -2.04351   0.77387 
 Bq                    2.94924  -1.99028   0.59834 
 Bq                    2.82966  -2.07013   0.86164 
 Bq                    2.98911  -1.96366   0.51058 
 Bq                    2.7898   -2.09674   0.9494 
 Bq                    3.02897  -1.93705   0.42281 
 Bq                    2.74993  -2.12336   1.03717 
 Bq                    3.06883  -1.91043   0.33505 
 Bq                    2.71007  -2.14997   1.12493 
 Bq                    3.10869  -1.88382   0.24728 
 Bq                    2.90938  -2.01689   0.68611 
 Bq                    2.85851  -1.94712   0.7981 
 Bq                    2.93824  -1.89389   0.62258 
 Bq                    2.81865  -1.97373   0.88587 
 Bq                    2.9781   -1.86727   0.53481 
 Bq                    2.77879  -2.00035   0.97363 
 Bq                    3.01796  -1.84065   0.44705 
 Bq                    2.73893  -2.02696   1.0614 
 Bq                    3.05782  -1.81404   0.35928 
 Bq                    2.69907  -2.05358   1.14916 
 Bq                    3.09768  -1.78742   0.27152 
 Bq                    2.89838  -1.9205    0.71034 
 Bq                    2.84751  -1.85072   0.82234 
 Bq                    2.92723  -1.79749   0.64681 
 Bq                    2.80765  -1.87734   0.9101 
 Bq                    2.96709  -1.77088   0.55904 
 Bq                    2.76778  -1.90396   0.99787 
 Bq                    3.00695  -1.74426   0.47128 
 Bq                    2.72792  -1.93057   1.08563 
 Bq                    3.04682  -1.71765   0.38351 
 Bq                    2.68806  -1.95719   1.1734 
 Bq                    3.08668  -1.69103   0.29575 
 Bq                    2.88737  -1.82411   0.73457 
 Bq                    2.8365   -1.75433   0.84657 
 Bq                    2.91622  -1.7011    0.67104 
 Bq                    2.79664  -1.78095   0.93434 
 Bq                    2.95609  -1.67448   0.58328 
 Bq                    2.75678  -1.80756   1.0221 
 Bq                    2.99595  -1.64787   0.49551 
 Bq                    2.71692  -1.83418   1.10987 
 Bq                    3.03581  -1.62125   0.40775 
 Bq                    2.67705  -1.86079   1.19763 
 Bq                    3.07567  -1.59464   0.31998 
 Bq                    2.87636  -1.72772   0.75881 
 Bq                    2.82549  -1.65794   0.8708 
 Bq                    2.90522  -1.60471   0.69527 
 Bq                    2.78563  -1.68455   0.95857 
 Bq                    2.94508  -1.57809   0.60751 
 Bq                    2.74577  -1.71117   1.04633 
 Bq                    2.98494  -1.55148   0.51975 
 Bq                    2.70591  -1.73779   1.1341 
 Bq                    3.0248   -1.52486   0.43198 
 Bq                    2.66605  -1.7644    1.22186 
 Bq                    3.06466  -1.49824   0.34422 
 Bq                    2.86536  -1.63132   0.78304 
 Bq                    2.81449  -1.56155   0.89504 
 Bq                    2.89421  -1.50831   0.71951 
 Bq                    2.77463  -1.58816   0.9828 
 Bq                    2.93407  -1.4817    0.63174 
 Bq                    2.73476  -1.61478   1.07057 
 Bq                    2.97393  -1.45508   0.54398 
 Bq                    2.6949   -1.64139   1.15833 
 Bq                    3.0138   -1.42847   0.45621 
 Bq                    2.65504  -1.66801   1.2461 
 Bq                    3.05366  -1.40185   0.36845 
 Bq                    2.85435  -1.53493   0.80727 
 Bq                    2.80348  -1.46515   0.91927 
 Bq                    2.8832   -1.41192   0.74374 
 Bq                    2.76362  -1.49177   1.00704 
 Bq                    2.92307  -1.38531   0.65598 
 Bq                    2.72376  -1.51838   1.0948 
 Bq                    2.96293  -1.35869   0.56821 
 Bq                    2.6839   -1.545     1.18257 
 Bq                    3.00279  -1.33207   0.48045 
 Bq                    2.64403  -1.57162   1.27033 
 Bq                    3.04265  -1.30546   0.39268 
 Bq                    2.84334  -1.43854   0.83151 
 Bq                    2.79247  -1.36876   0.9435 
 Bq                    2.8722   -1.31553   0.76797 
 Bq                    2.75261  -1.39538   1.03127 
 Bq                    2.91206  -1.28891   0.68021 
 Bq                    2.71275  -1.42199   1.11903 
 Bq                    2.95192  -1.2623    0.59245 
 Bq                    2.67289  -1.44861   1.2068 
 Bq                    2.99178  -1.23568   0.50468 
 Bq                    2.63303  -1.47522   1.29456 
 Bq                    3.03165  -1.20907   0.41692 
 Bq                    2.83234  -1.34214   0.85574 
 Bq                    2.78147  -1.27237   0.96774 
 Bq                    2.86119  -1.21914   0.79221 
 Bq                    2.74161  -1.29898   1.0555 
 Bq                    2.90105  -1.19252   0.70444 
 Bq                    2.70174  -1.3256    1.14327 
 Bq                    2.94092  -1.1659    0.61668 
 Bq                    2.66188  -1.35221   1.23103 
 Bq                    2.98078  -1.13929   0.52891 
 Bq                    2.62202  -1.37883   1.3188 
 Bq                    3.02064  -1.11267   0.44115 
 Bq                    2.82133  -1.24575   0.87997 
 Bq                    2.77046  -1.17597   0.99197 
 Bq                    2.85019  -1.12274   0.81644 
 Bq                    2.7306   -1.20259   1.07974 
 Bq                    2.89005  -1.09613   0.72868 
 Bq                    2.69074  -1.2292    1.1675 
 Bq                    2.92991  -1.06951   0.64091 
 Bq                    2.65088  -1.25582   1.25526 
 Bq                    2.96977  -1.0429    0.55315 
 Bq                    2.61101  -1.28244   1.34303 
 Bq                    3.00963  -1.01628   0.46538 
 Bq                    2.81032  -1.14936   0.90421 
 Bq                    2.75946  -1.07958   1.0162 
 Bq                    2.83918  -1.02635   0.84067 
 Bq                    2.71959  -1.1062    1.10397 
 Bq                    2.87904  -0.99973   0.75291 
 Bq                    2.67973  -1.13281   1.19173 
 Bq                    2.9189   -0.97312   0.66515 
 Bq                    2.63987  -1.15943   1.2795 
 Bq                    2.95876  -0.9465    0.57738 
 Bq                    2.60001  -1.18604   1.36726 
 Bq                    2.99863  -0.91989   0.48962 
 Bq                    2.79932  -1.05296   0.92844 
 Bq                    2.74845  -0.98319   1.04044 
 Bq                    2.82817  -0.92996   0.86491 
 Bq                    2.70859  -1.0098    1.1282 
 Bq                    2.86803  -0.90334   0.77714 
 Bq                    2.66873  -1.03642   1.21597 
 Bq                    2.9079   -0.87673   0.68938 
 Bq                    2.62886  -1.06303   1.30373 
 Bq                    2.94776  -0.85011   0.60161 
 Bq                    2.589    -1.08965   1.3915 
 Bq                    2.98762  -0.82349   0.51385 
 Bq                    2.78831  -0.95657   0.95267 
 Bq                    2.73744  -0.88679   1.06467 
 Bq                    2.81717  -0.83356   0.88914 
 Bq                    2.69758  -0.91341   1.15244 
 Bq                    2.85703  -0.80695   0.80138 
 Bq                    2.65772  -0.94003   1.2402 
 Bq                    2.89689  -0.78033   0.71361 
 Bq                    2.61786  -0.96664   1.32796 
 Bq                    2.93675  -0.75372   0.62585 
 Bq                    2.578    -0.99326   1.41573 
 Bq                    2.97661  -0.7271    0.53808 
 Bq                    2.7773   -0.86018   0.97691 
 Bq                    2.72644  -0.7904    1.0889 
 Bq                    2.80616  -0.73717   0.91337 
 Bq                    2.68657  -0.81702   1.17667 
 Bq                    2.84602  -0.71055   0.82561 
 Bq                    2.64671  -0.84363   1.26443 
 Bq                    2.88588  -0.68394   0.73784 
 Bq                    2.60685  -0.87025   1.3522 
 Bq                    2.92574  -0.65732   0.65008 
 Bq                    2.56699  -0.89686   1.43996 
 Bq                    2.96561  -0.63071   0.56232 
 Bq                    2.7663   -0.76379   1.00114 
 Bq                    2.71543  -0.69401   1.11314 
 Bq                    2.79515  -0.64078   0.93761 
 Bq                    2.67557  -0.72062   1.2009 
 Bq                    2.83501  -0.61416   0.84984 
 Bq                    2.63571  -0.74724   1.28867 
 Bq                    2.87488  -0.58755   0.76208 
 Bq                    2.59584  -0.77386   1.37643 
 Bq                    2.91474  -0.56093   0.67431 
 Bq                    2.55598  -0.80047   1.4642 
 Bq                    2.9546   -0.53431   0.58655 
 Bq                    2.75529  -0.66739   1.02537 
 Bq                    2.70442  -0.59762   1.13737 
 Bq                    2.78415  -0.54438   0.96184 
 Bq                    2.66456  -0.62423   1.22513 
 Bq                    2.82401  -0.51777   0.87408 
 Bq                    2.6247   -0.65085   1.3129 
 Bq                    2.86387  -0.49115   0.78631 
 Bq                    2.58484  -0.67746   1.40066 
 Bq                    2.90373  -0.46454   0.69855 
 Bq                    2.54498  -0.70408   1.48843 
 Bq                    2.94359  -0.43792   0.61078 
 Bq                    2.74428  -0.571     1.04961 
 Bq                    2.69342  -0.50122   1.1616 
 Bq                    2.77314  -0.44799   0.98607 
 Bq                    2.65355  -0.52784   1.24937 
 Bq                    2.813    -0.42138   0.89831 
 Bq                    2.61369  -0.55445   1.33713 
 Bq                    2.85286  -0.39476   0.81054 
 Bq                    2.57383  -0.58107   1.4249 
 Bq                    2.89273  -0.36814   0.72278 
 Bq                    2.53397  -0.60769   1.51266 
 
 Symmetry turned off:
 Cannot cope with ghost atoms or with translation vectors.
 Stoichiometry    C22H14
 Framework group  C1[X(C22H14)]
 NUMDOF-- NAT=    36 NAtoms=   236
 Deg. of freedom     0
 Full point group                 C1      NOp   1
                          Input orientation:                          
 ---------------------------------------------------------------------
 Center     Atomic      Atomic             Coordinates (Angstroms)
 Number     Number       Type             X           Y           Z
 ---------------------------------------------------------------------
      1          6           0       -4.050056   -0.577186    0.813671
      2          1           0       -5.026380   -1.008273    1.002476
      3          6           0       -3.938155    0.661780    0.240088
      4          1           0       -4.825242    1.233889   -0.011130
      5          6           0       -2.676841    1.243325    0.005758
      6          6           0       -1.497412    0.505153    0.284825
      7          6           0       -1.650833   -0.733873    0.940403
      8          1           0       -0.771365   -1.273097    1.263375
      9          6           0       -2.889855   -1.262404    1.199431
     10          1           0       -2.968371   -2.212456    1.715268
     11          6           0       -2.577319    2.596370   -0.419293
     12          1           0       -3.487073    3.141224   -0.647406
     13          6           0       -1.374190    3.214790   -0.436403
     14          1           0       -1.299732    4.274202   -0.657814
     15          6           0       -0.171949    2.499409   -0.173459
     16          6           0       -0.204392    1.101844    0.019269
     17          6           0        1.051349    3.204256   -0.067622
     18          1           0        1.042734    4.281950   -0.189700
     19          6           0        2.194209    2.548745    0.257958
     20          1           0        3.116853    3.091285    0.433473
     21          6           0        2.221647    1.133656    0.293499
     22          6           0        1.048693    0.394553    0.030241
     23          6           0        3.448336    0.461463    0.557394
     24          1           0        4.309579    1.060605    0.833485
     25          6           0        3.542735   -0.885593    0.474946
     26          1           0        4.473147   -1.393970    0.703882
     27          6           0        2.449005   -1.647445   -0.019632
     28          6           0        1.215070   -1.005726   -0.301357
     29          6           0        0.253111   -1.743444   -1.021659
     30          1           0       -0.654136   -1.253505   -1.346285
     31          6           0        0.449419   -3.062860   -1.341378
     32          1           0       -0.308316   -3.594431   -1.905406
     33          6           0        1.625173   -3.720797   -0.955254
     34          1           0        1.767005   -4.768740   -1.192702
     35          6           0        2.610987   -3.014418   -0.318305
     36          1           0        3.552561   -3.490281   -0.064637
     37          0           0        3.090842   -2.103218    0.286581
     38          0           0        2.732086   -2.342759    1.076464
     39          0           0        3.130704   -2.076602    0.198817
     40          0           0        2.931395   -2.209681    0.637640
     41          0           0        2.880526   -2.139903    0.749638
     42          0           0        2.960250   -2.086672    0.574109
     43          0           0        2.840665   -2.166519    0.837403
     44          0           0        3.000112   -2.060056    0.486344
     45          0           0        2.800803   -2.193135    0.925168
     46          0           0        3.039974   -2.033441    0.398579
     47          0           0        2.760941   -2.219750    1.012932
     48          0           0        3.079835   -2.006825    0.310815
     49          0           0        2.721079   -2.246366    1.100697
     50          0           0        3.119697   -1.980210    0.223050
     51          0           0        2.920388   -2.113288    0.661873
     52          0           0        2.869520   -2.043510    0.773871
     53          0           0        2.949244   -1.990279    0.598342
     54          0           0        2.829658   -2.070126    0.861636
     55          0           0        2.989105   -1.963663    0.510577
     56          0           0        2.789796   -2.096742    0.949401
     57          0           0        3.028967   -1.937048    0.422813
     58          0           0        2.749935   -2.123357    1.037166
     59          0           0        3.068829   -1.910432    0.335048
     60          0           0        2.710073   -2.149973    1.124930
     61          0           0        3.108691   -1.883817    0.247283
     62          0           0        2.909382   -2.016895    0.686107
     63          0           0        2.858514   -1.947117    0.798105
     64          0           0        2.938237   -1.893886    0.622575
     65          0           0        2.818652   -1.973733    0.885869
     66          0           0        2.978099   -1.867270    0.534810
     67          0           0        2.778790   -2.000349    0.973634
     68          0           0        3.017961   -1.840655    0.447046
     69          0           0        2.738928   -2.026964    1.061399
     70          0           0        3.057822   -1.814039    0.359281
     71          0           0        2.699066   -2.053580    1.149164
     72          0           0        3.097684   -1.787424    0.271516
     73          0           0        2.898375   -1.920502    0.710340
     74          0           0        2.847507   -1.850724    0.822338
     75          0           0        2.927231   -1.797493    0.646808
     76          0           0        2.807645   -1.877340    0.910103
     77          0           0        2.967092   -1.770878    0.559044
     78          0           0        2.767784   -1.903956    0.997867
     79          0           0        3.006954   -1.744262    0.471279
     80          0           0        2.727922   -1.930571    1.085632
     81          0           0        3.046816   -1.717646    0.383514
     82          0           0        2.688060   -1.957187    1.173397
     83          0           0        3.086678   -1.691031    0.295750
     84          0           0        2.887369   -1.824109    0.734573
     85          0           0        2.836501   -1.754331    0.846571
     86          0           0        2.916224   -1.701100    0.671042
     87          0           0        2.796639   -1.780947    0.934336
     88          0           0        2.956086   -1.674485    0.583277
     89          0           0        2.756777   -1.807563    1.022101
     90          0           0        2.995948   -1.647869    0.495512
     91          0           0        2.716915   -1.834178    1.109865
     92          0           0        3.035809   -1.621253    0.407748
     93          0           0        2.677054   -1.860794    1.197630
     94          0           0        3.075671   -1.594638    0.319983
     95          0           0        2.876362   -1.727716    0.758806
     96          0           0        2.825494   -1.657938    0.870804
     97          0           0        2.905218   -1.604707    0.695275
     98          0           0        2.785632   -1.684554    0.958569
     99          0           0        2.945079   -1.578092    0.607510
    100          0           0        2.745771   -1.711170    1.046334
    101          0           0        2.984941   -1.551476    0.519746
    102          0           0        2.705909   -1.737785    1.134099
    103          0           0        3.024803   -1.524860    0.431981
    104          0           0        2.666047   -1.764401    1.221863
    105          0           0        3.064665   -1.498245    0.344216
    106          0           0        2.865356   -1.631323    0.783040
    107          0           0        2.814488   -1.561546    0.895038
    108          0           0        2.894211   -1.508314    0.719508
    109          0           0        2.774626   -1.588161    0.982802
    110          0           0        2.934073   -1.481699    0.631743
    111          0           0        2.734764   -1.614777    1.070567
    112          0           0        2.973935   -1.455083    0.543979
    113          0           0        2.694902   -1.641392    1.158332
    114          0           0        3.013796   -1.428467    0.456214
    115          0           0        2.655041   -1.668008    1.246097
    116          0           0        3.053658   -1.401852    0.368449
    117          0           0        2.854349   -1.534930    0.807273
    118          0           0        2.803481   -1.465153    0.919271
    119          0           0        2.883205   -1.411921    0.743741
    120          0           0        2.763619   -1.491768    1.007036
    121          0           0        2.923066   -1.385306    0.655977
    122          0           0        2.723758   -1.518384    1.094800
    123          0           0        2.962928   -1.358690    0.568212
    124          0           0        2.683896   -1.544999    1.182565
    125          0           0        3.002790   -1.332074    0.480447
    126          0           0        2.644034   -1.571615    1.270330
    127          0           0        3.042652   -1.305459    0.392683
    128          0           0        2.843343   -1.438537    0.831506
    129          0           0        2.792475   -1.368760    0.943504
    130          0           0        2.872198   -1.315528    0.767975
    131          0           0        2.752613   -1.395375    1.031269
    132          0           0        2.912060   -1.288913    0.680210
    133          0           0        2.712751   -1.421991    1.119034
    134          0           0        2.951922   -1.262297    0.592445
    135          0           0        2.672889   -1.448607    1.206798
    136          0           0        2.991783   -1.235681    0.504681
    137          0           0        2.633028   -1.475222    1.294563
    138          0           0        3.031645   -1.209066    0.416916
    139          0           0        2.832336   -1.342144    0.855739
    140          0           0        2.781468   -1.272367    0.967737
    141          0           0        2.861192   -1.219135    0.792208
    142          0           0        2.741606   -1.298982    1.055502
    143          0           0        2.901053   -1.192520    0.704443
    144          0           0        2.701745   -1.325598    1.143267
    145          0           0        2.940915   -1.165904    0.616679
    146          0           0        2.661883   -1.352214    1.231032
    147          0           0        2.980777   -1.139288    0.528914
    148          0           0        2.622021   -1.378829    1.318796
    149          0           0        3.020639   -1.112673    0.441149
    150          0           0        2.821330   -1.245751    0.879973
    151          0           0        2.770462   -1.175974    0.991971
    152          0           0        2.850185   -1.122742    0.816441
    153          0           0        2.730600   -1.202589    1.079735
    154          0           0        2.890047   -1.096127    0.728676
    155          0           0        2.690738   -1.229205    1.167500
    156          0           0        2.929909   -1.069511    0.640912
    157          0           0        2.650876   -1.255821    1.255265
    158          0           0        2.969771   -1.042895    0.553147
    159          0           0        2.611015   -1.282436    1.343030
    160          0           0        3.009632   -1.016280    0.465382
    161          0           0        2.810323   -1.149358    0.904206
    162          0           0        2.759455   -1.079581    1.016204
    163          0           0        2.839179   -1.026349    0.840674
    164          0           0        2.719593   -1.106196    1.103969
    165          0           0        2.879041   -0.999734    0.752910
    166          0           0        2.679732   -1.132812    1.191733
    167          0           0        2.918902   -0.973118    0.665145
    168          0           0        2.639870   -1.159428    1.279498
    169          0           0        2.958764   -0.946502    0.577380
    170          0           0        2.600008   -1.186043    1.367263
    171          0           0        2.998626   -0.919887    0.489616
    172          0           0        2.799317   -1.052965    0.928439
    173          0           0        2.748449   -0.983188    1.040437
    174          0           0        2.828172   -0.929956    0.864908
    175          0           0        2.708587   -1.009803    1.128202
    176          0           0        2.868034   -0.903341    0.777143
    177          0           0        2.668725   -1.036419    1.215967
    178          0           0        2.907896   -0.876725    0.689378
    179          0           0        2.628863   -1.063035    1.303731
    180          0           0        2.947758   -0.850109    0.601614
    181          0           0        2.589002   -1.089650    1.391496
    182          0           0        2.987619   -0.823494    0.513849
    183          0           0        2.788311   -0.956572    0.952672
    184          0           0        2.737442   -0.886795    1.064670
    185          0           0        2.817166   -0.833563    0.889141
    186          0           0        2.697581   -0.913410    1.152435
    187          0           0        2.857028   -0.806948    0.801376
    188          0           0        2.657719   -0.940026    1.240200
    189          0           0        2.896889   -0.780332    0.713612
    190          0           0        2.617857   -0.966642    1.327965
    191          0           0        2.936751   -0.753716    0.625847
    192          0           0        2.577995   -0.993257    1.415729
    193          0           0        2.976613   -0.727101    0.538082
    194          0           0        2.777304   -0.860179    0.976906
    195          0           0        2.726436   -0.790402    1.088904
    196          0           0        2.806159   -0.737170    0.913374
    197          0           0        2.686574   -0.817017    1.176668
    198          0           0        2.846021   -0.710555    0.825609
    199          0           0        2.646712   -0.843633    1.264433
    200          0           0        2.885883   -0.683939    0.737845
    201          0           0        2.606851   -0.870249    1.352198
    202          0           0        2.925745   -0.657323    0.650080
    203          0           0        2.566989   -0.896864    1.439963
    204          0           0        2.965606   -0.630708    0.562315
    205          0           0        2.766298   -0.763786    1.001139
    206          0           0        2.715429   -0.694009    1.113137
    207          0           0        2.795153   -0.640777    0.937607
    208          0           0        2.675568   -0.720624    1.200902
    209          0           0        2.835015   -0.614162    0.849843
    210          0           0        2.635706   -0.747240    1.288666
    211          0           0        2.874876   -0.587546    0.762078
    212          0           0        2.595844   -0.773856    1.376431
    213          0           0        2.914738   -0.560930    0.674313
    214          0           0        2.555982   -0.800471    1.464196
    215          0           0        2.954600   -0.534315    0.586549
    216          0           0        2.755291   -0.667393    1.025372
    217          0           0        2.704423   -0.597616    1.137370
    218          0           0        2.784146   -0.544384    0.961841
    219          0           0        2.664561   -0.624231    1.225135
    220          0           0        2.824008   -0.517769    0.874076
    221          0           0        2.624699   -0.650847    1.312900
    222          0           0        2.863870   -0.491153    0.786311
    223          0           0        2.584838   -0.677463    1.400664
    224          0           0        2.903732   -0.464537    0.698547
    225          0           0        2.544976   -0.704078    1.488429
    226          0           0        2.943593   -0.437922    0.610782
    227          0           0        2.744285   -0.571000    1.049605
    228          0           0        2.693416   -0.501223    1.161603
    229          0           0        2.773140   -0.447991    0.986074
    230          0           0        2.653555   -0.527838    1.249368
    231          0           0        2.813002   -0.421376    0.898309
    232          0           0        2.613693   -0.554454    1.337133
    233          0           0        2.852863   -0.394760    0.810545
    234          0           0        2.573831   -0.581070    1.424898
    235          0           0        2.892725   -0.368144    0.722780
    236          0           0        2.533969   -0.607685    1.512662
 ---------------------------------------------------------------------
 Rotational constants (GHZ):      0.4529074      0.2836956      0.1879557
 Standard basis: 6-311+G(d,p) (5D, 7F)
 Warning:  center  37 has no basis functions!
 Warning:  center  38 has no basis functions!
 Warning:  center  39 has no basis functions!
 Warning:  center  40 has no basis functions!
 Warning:  center  41 has no basis functions!
 Warning:  center  42 has no basis functions!
 Warning:  center  43 has no basis functions!
 Warning:  center  44 has no basis functions!
 Warning:  center  45 has no basis functions!
 Warning:  center  46 has no basis functions!
 Warning:  center  47 has no basis functions!
 Warning:  center  48 has no basis functions!
 Warning:  center  49 has no basis functions!
 Warning:  center  50 has no basis functions!
 Warning:  center  51 has no basis functions!
 Warning:  center  52 has no basis functions!
 Warning:  center  53 has no basis functions!
 Warning:  center  54 has no basis functions!
 Warning:  center  55 has no basis functions!
 Warning:  center  56 has no basis functions!
 Warning:  center  57 has no basis functions!
 Warning:  center  58 has no basis functions!
 Warning:  center  59 has no basis functions!
 Warning:  center  60 has no basis functions!
 Warning:  center  61 has no basis functions!
 Warning:  center  62 has no basis functions!
 Warning:  center  63 has no basis functions!
 Warning:  center  64 has no basis functions!
 Warning:  center  65 has no basis functions!
 Warning:  center  66 has no basis functions!
 Warning:  center  67 has no basis functions!
 Warning:  center  68 has no basis functions!
 Warning:  center  69 has no basis functions!
 Warning:  center  70 has no basis functions!
 Warning:  center  71 has no basis functions!
 Warning:  center  72 has no basis functions!
 Warning:  center  73 has no basis functions!
 Warning:  center  74 has no basis functions!
 Warning:  center  75 has no basis functions!
 Warning:  center  76 has no basis functions!
 Warning:  center  77 has no basis functions!
 Warning:  center  78 has no basis functions!
 Warning:  center  79 has no basis functions!
 Warning:  center  80 has no basis functions!
 Warning:  center  81 has no basis functions!
 Warning:  center  82 has no basis functions!
 Warning:  center  83 has no basis functions!
 Warning:  center  84 has no basis functions!
 Warning:  center  85 has no basis functions!
 Warning:  center  86 has no basis functions!
 Warning:  center  87 has no basis functions!
 Warning:  center  88 has no basis functions!
 Warning:  center  89 has no basis functions!
 Warning:  center  90 has no basis functions!
 Warning:  center  91 has no basis functions!
 Warning:  center  92 has no basis functions!
 Warning:  center  93 has no basis functions!
 Warning:  center  94 has no basis functions!
 Warning:  center  95 has no basis functions!
 Warning:  center  96 has no basis functions!
 Warning:  center  97 has no basis functions!
 Warning:  center  98 has no basis functions!
 Warning:  center  99 has no basis functions!
 Warning:  center 100 has no basis functions!
 Warning:  center 101 has no basis functions!
 Warning:  center 102 has no basis functions!
 Warning:  center 103 has no basis functions!
 Warning:  center 104 has no basis functions!
 Warning:  center 105 has no basis functions!
 Warning:  center 106 has no basis functions!
 Warning:  center 107 has no basis functions!
 Warning:  center 108 has no basis functions!
 Warning:  center 109 has no basis functions!
 Warning:  center 110 has no basis functions!
 Warning:  center 111 has no basis functions!
 Warning:  center 112 has no basis functions!
 Warning:  center 113 has no basis functions!
 Warning:  center 114 has no basis functions!
 Warning:  center 115 has no basis functions!
 Warning:  center 116 has no basis functions!
 Warning:  center 117 has no basis functions!
 Warning:  center 118 has no basis functions!
 Warning:  center 119 has no basis functions!
 Warning:  center 120 has no basis functions!
 Warning:  center 121 has no basis functions!
 Warning:  center 122 has no basis functions!
 Warning:  center 123 has no basis functions!
 Warning:  center 124 has no basis functions!
 Warning:  center 125 has no basis functions!
 Warning:  center 126 has no basis functions!
 Warning:  center 127 has no basis functions!
 Warning:  center 128 has no basis functions!
 Warning:  center 129 has no basis functions!
 Warning:  center 130 has no basis functions!
 Warning:  center 131 has no basis functions!
 Warning:  center 132 has no basis functions!
 Warning:  center 133 has no basis functions!
 Warning:  center 134 has no basis functions!
 Warning:  center 135 has no basis functions!
 Warning:  center 136 has no basis functions!
 Warning:  center 137 has no basis functions!
 Warning:  center 138 has no basis functions!
 Warning:  center 139 has no basis functions!
 Warning:  center 140 has no basis functions!
 Warning:  center 141 has no basis functions!
 Warning:  center 142 has no basis functions!
 Warning:  center 143 has no basis functions!
 Warning:  center 144 has no basis functions!
 Warning:  center 145 has no basis functions!
 Warning:  center 146 has no basis functions!
 Warning:  center 147 has no basis functions!
 Warning:  center 148 has no basis functions!
 Warning:  center 149 has no basis functions!
 Warning:  center 150 has no basis functions!
 Warning:  center 151 has no basis functions!
 Warning:  center 152 has no basis functions!
 Warning:  center 153 has no basis functions!
 Warning:  center 154 has no basis functions!
 Warning:  center 155 has no basis functions!
 Warning:  center 156 has no basis functions!
 Warning:  center 157 has no basis functions!
 Warning:  center 158 has no basis functions!
 Warning:  center 159 has no basis functions!
 Warning:  center 160 has no basis functions!
 Warning:  center 161 has no basis functions!
 Warning:  center 162 has no basis functions!
 Warning:  center 163 has no basis functions!
 Warning:  center 164 has no basis functions!
 Warning:  center 165 has no basis functions!
 Warning:  center 166 has no basis functions!
 Warning:  center 167 has no basis functions!
 Warning:  center 168 has no basis functions!
 Warning:  center 169 has no basis functions!
 Warning:  center 170 has no basis functions!
 Warning:  center 171 has no basis functions!
 Warning:  center 172 has no basis functions!
 Warning:  center 173 has no basis functions!
 Warning:  center 174 has no basis functions!
 Warning:  center 175 has no basis functions!
 Warning:  center 176 has no basis functions!
 Warning:  center 177 has no basis functions!
 Warning:  center 178 has no basis functions!
 Warning:  center 179 has no basis functions!
 Warning:  center 180 has no basis functions!
 Warning:  center 181 has no basis functions!
 Warning:  center 182 has no basis functions!
 Warning:  center 183 has no basis functions!
 Warning:  center 184 has no basis functions!
 Warning:  center 185 has no basis functions!
 Warning:  center 186 has no basis functions!
 Warning:  center 187 has no basis functions!
 Warning:  center 188 has no basis functions!
 Warning:  center 189 has no basis functions!
 Warning:  center 190 has no basis functions!
 Warning:  center 191 has no basis functions!
 Warning:  center 192 has no basis functions!
 Warning:  center 193 has no basis functions!
 Warning:  center 194 has no basis functions!
 Warning:  center 195 has no basis functions!
 Warning:  center 196 has no basis functions!
 Warning:  center 197 has no basis functions!
 Warning:  center 198 has no basis functions!
 Warning:  center 199 has no basis functions!
 Warning:  center 200 has no basis functions!
 Warning:  center 201 has no basis functions!
 Warning:  center 202 has no basis functions!
 Warning:  center 203 has no basis functions!
 Warning:  center 204 has no basis functions!
 Warning:  center 205 has no basis functions!
 Warning:  center 206 has no basis functions!
 Warning:  center 207 has no basis functions!
 Warning:  center 208 has no basis functions!
 Warning:  center 209 has no basis functions!
 Warning:  center 210 has no basis functions!
 Warning:  center 211 has no basis functions!
 Warning:  center 212 has no basis functions!
 Warning:  center 213 has no basis functions!
 Warning:  center 214 has no basis functions!
 Warning:  center 215 has no basis functions!
 Warning:  center 216 has no basis functions!
 Warning:  center 217 has no basis functions!
 Warning:  center 218 has no basis functions!
 Warning:  center 219 has no basis functions!
 Warning:  center 220 has no basis functions!
 Warning:  center 221 has no basis functions!
 Warning:  center 222 has no basis functions!
 Warning:  center 223 has no basis functions!
 Warning:  center 224 has no basis functions!
 Warning:  center 225 has no basis functions!
 Warning:  center 226 has no basis functions!
 Warning:  center 227 has no basis functions!
 Warning:  center 228 has no basis functions!
 Warning:  center 229 has no basis functions!
 Warning:  center 230 has no basis functions!
 Warning:  center 231 has no basis functions!
 Warning:  center 232 has no basis functions!
 Warning:  center 233 has no basis functions!
 Warning:  center 234 has no basis functions!
 Warning:  center 235 has no basis functions!
 Warning:  center 236 has no basis functions!
   568 basis functions,   904 primitive gaussians,   590 cartesian basis functions
    73 alpha electrons       73 beta electrons
       nuclear repulsion energy      1610.9176155625 Hartrees.
 NAtoms=  236 NActive=  236 NUniq=  236 SFac= 1.00D+00 NAtFMM=   60 NAOKFM=T Big=T
 Integral buffers will be    131072 words long.
 Raffenetti 2 integral format.
 Two-electron integral symmetry is turned off.
 One-electron integrals computed using PRISM.
 NBasis=   568 RedAO= T EigKep=  1.78D-06  NBF=   568
 NBsUse=   556 1.00D-06 EigRej=  9.09D-07 NBFU=   556
 ExpMin= 4.38D-02 ExpMax= 4.56D+03 ExpMxC= 6.82D+02 IAcc=2 IRadAn=         4 AccDes= 0.00D+00
 Harris functional with IExCor=  402 and IRadAn=       4 diagonalized for initial guess.
 HarFok:  IExCor=  402 AccDes= 0.00D+00 IRadAn=         4 IDoV= 1 UseB2=F ITyADJ=14
 ICtDFT=  3500011 ScaDFX=  1.000000  1.000000  1.000000  1.000000
 FoFCou: FMM=F IPFlag=           0 FMFlag=      100000 FMFlg1=        2001
         NFxFlg=           0 DoJE=T BraDBF=F KetDBF=T FulRan=T
         wScrn=  0.000000 ICntrl=     500 IOpCl=  0 I1Cent=   200000004 NGrid=           0
         NMat0=    1 NMatS0=      1 NMatT0=    0 NMatD0=    1 NMtDS0=    0 NMtDT0=    0
 Symmetry not used in FoFCou.
 Requested convergence on RMS density matrix=1.00D-08 within 128 cycles.
 Requested convergence on MAX density matrix=1.00D-06.
 Requested convergence on             energy=1.00D-06.
 No special actions if energy rises.
 SCF Done:  E(RB3LYP) =  -847.003289847     A.U. after   15 cycles
            NFock= 15  Conv=0.75D-08     -V/T= 2.0040
 DoSCS=F DFT=T ScalE2(SS,OS)=  1.000000  1.000000
 Range of M.O.s used for correlation:     1   556
 NBasis=   568 NAE=    73 NBE=    73 NFC=     0 NFV=     0
 NROrb=    556 NOA=    73 NOB=    73 NVA=   483 NVB=   483

 **** Warning!!: The largest alpha MO coefficient is  0.10971037D+03

          Differentiating once with respect to magnetic field using GIAOs.
          Electric field/nuclear overlap derivatives assumed to be zero.
 FoFCou: FMM=F IPFlag=           0 FMFlag=      100000 FMFlg1=        2001
         NFxFlg=           0 DoJE=F BraDBF=F KetDBF=T FulRan=T
         wScrn=  0.000000 ICntrl=    6100 IOpCl=  0 I1Cent=           7 NGrid=         236
         NMat0=    1 NMatS0=      1 NMatT0=    0 NMatD0=    1 NMtDS0=    0 NMtDT0=    0
 Symmetry not used in FoFCou.
 FoFJK:  IHMeth= 1 ICntrl=    6127 DoSepK=F KAlg= 0 I1Cent=   0 FoldK=F
 IRaf=         1 NMat=   1 IRICut=       1 DoRegI=T DoRafI=F ISym2E= 0.
          There are     3 degrees of freedom in the 1st order CPHF.  IDoFFX=0 NUNeed=     3.
      3 vectors produced by pass  0 Test12= 1.18D-12 3.33D-08 XBig12= 2.07D+03 9.18D+00.
 AX will form     3 AO Fock derivatives at one time.
      3 vectors produced by pass  1 Test12= 1.18D-12 3.33D-08 XBig12= 3.56D+00 8.03D-01.
      3 vectors produced by pass  2 Test12= 1.18D-12 3.33D-08 XBig12= 2.10D-02 6.92D-02.
      3 vectors produced by pass  3 Test12= 1.18D-12 3.33D-08 XBig12= 5.45D-05 1.89D-03.
      3 vectors produced by pass  4 Test12= 1.18D-12 3.33D-08 XBig12= 1.20D-07 7.79D-05.
      3 vectors produced by pass  5 Test12= 1.18D-12 3.33D-08 XBig12= 4.02D-10 4.73D-06.
      3 vectors produced by pass  6 Test12= 1.18D-12 3.33D-08 XBig12= 1.32D-12 2.61D-07.
 InvSVY:  IOpt=1 It=  1 EMax= 1.42D-14
 Solved reduced A of dimension    21 with     3 vectors.
 Calculating GIAO nuclear magnetic shielding tensors.
 SCF GIAO Magnetic shielding tensor (ppm):
      1  C    Isotropic =    53.8139   Anisotropy =   178.0260
   XX=   -41.4327   YX=   -32.3458   ZX=    10.0287
   XY=   -28.3572   YY=    59.0527   ZY=    55.1899
   XZ=    13.1759   YZ=    58.7550   ZZ=   143.8218
   Eigenvalues:   -53.8775    42.8214   172.4979
      2  H    Isotropic =    24.3095   Anisotropy =     4.8536
   XX=    25.5771   YX=    -1.0289   ZX=     0.5661
   XY=    -0.7431   YY=    26.1829   ZY=    -2.3306
   XZ=    -0.1707   YZ=    -2.4411   ZZ=    21.1687
   Eigenvalues:    20.2108    25.1725    27.5453
      3  C    Isotropic =    51.4055   Anisotropy =   157.8639
   XX=   -31.5399   YX=    38.5015   ZX=   -17.9316
   XY=    34.3519   YY=    49.9437   ZY=    49.6392
   XZ=    -9.8383   YZ=    44.6006   ZZ=   135.8127
   Eigenvalues:   -50.5747    48.1432   156.6481
      4  H    Isotropic =    23.8290   Anisotropy =     7.1838
   XX=    25.3635   YX=     1.8486   ZX=    -0.3559
   XY=     1.9656   YY=    26.4581   ZY=    -2.4103
   XZ=    -1.2941   YZ=    -2.6614   ZZ=    19.6654
   Eigenvalues:    18.8176    24.0511    28.6182
      5  C    Isotropic =    46.0697   Anisotropy =   207.6751
   XX=   -19.2123   YX=    -4.8852   ZX=    -1.6475
   XY=     2.8938   YY=    -2.9860   ZY=    66.5656
   XZ=     2.5356   YZ=    67.9144   ZZ=   160.4073
   Eigenvalues:   -27.2455   -19.0652   184.5197
      6  C    Isotropic =    47.5218   Anisotropy =   196.9389
   XX=   -28.1552   YX=    -2.7889   ZX=    12.0660
   XY=   -14.3886   YY=    21.2063   ZY=    74.2521
   XZ=   -18.6356   YZ=    61.1113   ZZ=   149.5144
   Eigenvalues:   -30.2925    -5.9564   178.8144
      7  C    Isotropic =    49.3915   Anisotropy =   179.8333
   XX=   -12.5211   YX=    28.7048   ZX=   -24.6745
   XY=    31.5123   YY=    29.7000   ZY=    77.7459
   XZ=   -40.0095   YZ=    65.3072   ZZ=   130.9956
   Eigenvalues:   -52.1299    31.0240   169.2804
      8  H    Isotropic =    23.1586   Anisotropy =    13.5525
   XX=    28.5711   YX=     1.5482   ZX=    -3.6986
   XY=     3.2466   YY=    22.7592   ZY=    -2.1157
   XZ=    -8.3753   YZ=    -1.0821   ZZ=    18.1456
   Eigenvalues:    15.3521    21.9301    32.1936
      9  C    Isotropic =    55.1460   Anisotropy =   174.7426
   XX=    46.7071   YX=    -2.6162   ZX=    -2.8420
   XY=     0.6223   YY=    -1.6258   ZY=    92.8272
   XZ=     0.5159   YZ=    95.6598   ZZ=   120.3568
   Eigenvalues:   -52.8932    46.6901   171.6411
     10  H    Isotropic =    24.6278   Anisotropy =     7.1815
   XX=    29.1040   YX=     0.1399   ZX=    -0.3694
   XY=     0.3642   YY=    23.4778   ZY=    -1.0805
   XZ=    -2.4493   YZ=    -2.9465   ZZ=    21.3016
   Eigenvalues:    19.9703    24.4977    29.4155
     11  C    Isotropic =    51.5607   Anisotropy =   151.2142
   XX=     2.1639   YX=    40.9287   ZX=   -26.0048
   XY=    49.9131   YY=    12.2331   ZY=    42.1342
   XZ=   -15.6145   YZ=    38.6614   ZZ=   140.2851
   Eigenvalues:   -48.1951    50.5071   152.3701
     12  H    Isotropic =    23.8537   Anisotropy =     7.3815
   XX=    25.9672   YX=     2.3738   ZX=    -0.2390
   XY=     2.4320   YY=    26.3975   ZY=    -1.8291
   XZ=     0.3529   YZ=    -1.7731   ZZ=    19.1964
   Eigenvalues:    18.7149    24.0714    28.7747
     13  C    Isotropic =    52.8653   Anisotropy =   147.4265
   XX=    51.2944   YX=    19.9221   ZX=   -13.4678
   XY=    11.5478   YY=   -34.0176   ZY=    42.5079
   XZ=    -9.2241   YZ=    40.0716   ZZ=   141.3192
   Eigenvalues:   -46.5152    53.9616   151.1497
     14  H    Isotropic =    24.0156   Anisotropy =     7.3485
   XX=    28.6644   YX=     0.6281   ZX=     1.0808
   XY=     0.5926   YY=    24.4325   ZY=    -1.0823
   XZ=     1.6846   YZ=    -0.3842   ZZ=    18.9500
   Eigenvalues:    18.6430    24.4892    28.9146
     15  C    Isotropic =    46.2221   Anisotropy =   203.9048
   XX=   -27.2215   YX=    -0.0442   ZX=   -28.9124
   XY=     4.6427   YY=   -10.5571   ZY=    28.3830
   XZ=   -10.2704   YZ=    26.7376   ZZ=   176.4448
   Eigenvalues:   -30.5512   -12.9411   182.1586
     16  C    Isotropic =    51.9375   Anisotropy =   188.2004
   XX=   -19.4441   YX=     5.5046   ZX=    15.7858
   XY=    -8.3874   YY=     2.4863   ZY=    22.9264
   XZ=   -50.6243   YZ=    23.3340   ZZ=   172.7704
   Eigenvalues:   -21.0294    -0.5625   177.4045
     17  C    Isotropic =    51.9482   Anisotropy =   149.1264
   XX=    50.7296   YX=   -23.9353   ZX=   -18.4207
   XY=   -16.7271   YY=   -41.8764   ZY=    17.8662
   XZ=   -14.3278   YZ=    11.4871   ZZ=   146.9915
   Eigenvalues:   -46.7796    51.2584   151.3658
     18  H    Isotropic =    24.0122   Anisotropy =     7.5163
   XX=    28.5811   YX=    -0.0866   ZX=     1.5071
   XY=    -0.2466   YY=    24.3342   ZY=    -0.7657
   XZ=     2.5088   YZ=    -1.5208   ZZ=    19.1214
   Eigenvalues:    18.5094    24.5041    29.0231
     19  C    Isotropic =    51.7356   Anisotropy =   148.5924
   XX=     2.4559   YX=   -45.6913   ZX=   -31.2531
   XY=   -53.4448   YY=     7.4698   ZY=    -1.8888
   XZ=   -23.5601   YZ=    -1.2765   ZZ=   145.2810
   Eigenvalues:   -46.9894    51.3989   150.7972
     20  H    Isotropic =    23.9071   Anisotropy =     7.6651
   XX=    25.5796   YX=    -2.0226   ZX=     1.4905
   XY=    -1.9998   YY=    27.3706   ZY=    -0.5164
   XZ=     2.7276   YZ=    -1.1179   ZZ=    18.7711
   Eigenvalues:    18.1643    24.5398    29.0172
     21  C    Isotropic =    45.9767   Anisotropy =   203.9316
   XX=   -16.2108   YX=    13.1802   ZX=   -44.5913
   XY=     6.5714   YY=   -20.6329   ZY=     0.0949
   XZ=   -28.8984   YZ=   -13.0883   ZZ=   174.7736
   Eigenvalues:   -30.5796   -13.4215   181.9311
     22  C    Isotropic =    52.0450   Anisotropy =   188.1157
   XX=    -0.0787   YX=     2.5023   ZX=   -16.3451
   XY=    18.9327   YY=   -14.4798   ZY=   -34.4335
   XZ=   -50.6032   YZ=    19.9104   ZZ=   170.6934
   Eigenvalues:   -20.7705    -0.5500   177.4554
     23  C    Isotropic =    53.2392   Anisotropy =   146.7412
   XX=   -22.0674   YX=   -32.0012   ZX=   -49.4857
   XY=   -23.2043   YY=    44.3661   ZY=   -15.6400
   XZ=   -43.8090   YZ=   -20.2525   ZZ=   137.4189
   Eigenvalues:   -45.6776    54.3286   151.0667
     24  H    Isotropic =    23.8249   Anisotropy =     7.5289
   XX=    25.1073   YX=    -1.7330   ZX=     1.5380
   XY=    -1.5944   YY=    28.0047   ZY=     0.0879
   XZ=     1.2557   YZ=    -0.8283   ZZ=    18.3628
   Eigenvalues:    18.0848    24.5458    28.8442
     25  C    Isotropic =    51.4969   Anisotropy =   150.1066
   XX=   -28.4915   YX=    33.9684   ZX=   -52.3137
   XY=    22.0311   YY=    46.6072   ZY=    -3.8075
   XZ=   -44.5594   YZ=   -10.6355   ZZ=   136.3748
   Eigenvalues:   -48.3857    51.3083   151.5679
     26  H    Isotropic =    23.7431   Anisotropy =     7.4052
   XX=    24.0663   YX=     1.1141   ZX=     1.9989
   XY=     0.9693   YY=    28.1000   ZY=     1.6568
   XZ=     2.0795   YZ=     0.8886   ZZ=    19.0630
   Eigenvalues:    18.2615    24.2880    28.6799
     27  C    Isotropic =    45.8108   Anisotropy =   207.2710
   XX=    -2.7702   YX=    13.7697   ZX=   -61.4651
   XY=     6.5593   YY=   -12.0335   ZY=   -41.6456
   XZ=   -62.6381   YZ=   -44.9232   ZZ=   152.2361
   Eigenvalues:   -28.0803   -18.4787   183.9915
     28  C    Isotropic =    47.8398   Anisotropy =   197.2870
   XX=    19.6900   YX=    14.4398   ZX=   -60.5682
   XY=    28.5650   YY=   -19.3566   ZY=   -56.7015
   XZ=   -63.1331   YZ=   -24.4782   ZZ=   143.1859
   Eigenvalues:   -30.5979    -5.2472   179.3644
     29  C    Isotropic =    49.3441   Anisotropy =   179.7793
   XX=    -3.4110   YX=    38.3775   ZX=   -80.8875
   XY=    36.1252   YY=    25.9805   ZY=   -23.7573
   XZ=   -78.1065   YZ=    -3.9802   ZZ=   125.4627
   Eigenvalues:   -51.6645    30.4997   169.1970
     30  H    Isotropic =    23.1387   Anisotropy =    13.3222
   XX=    22.4354   YX=    -0.7013   ZX=    -0.2375
   XY=    -2.1539   YY=    28.3546   ZY=     4.5555
   XZ=    -3.4181   YZ=     8.3231   ZZ=    18.6259
   Eigenvalues:    15.2751    22.1208    32.0201
     31  C    Isotropic =    55.4410   Anisotropy =   174.9390
   XX=    17.1871   YX=   -14.0890   ZX=   -84.0024
   XY=   -17.9030   YY=    37.4745   ZY=   -50.3662
   XZ=   -84.6557   YZ=   -54.8325   ZZ=   111.6615
   Eigenvalues:   -51.9248    46.1808   172.0670
     32  H    Isotropic =    24.5337   Anisotropy =     7.2554
   XX=    24.6185   YX=    -2.5264   ZX=     0.7632
   XY=    -2.7385   YY=    27.4630   ZY=     1.0335
   XZ=     1.1913   YZ=     3.7573   ZZ=    21.5194
   Eigenvalues:    19.8987    24.3316    29.3706
     33  C    Isotropic =    53.1814   Anisotropy =   179.0596
   XX=    60.9231   YX=    35.2256   ZX=   -42.9515
   XY=    32.0226   YY=   -38.1801   ZY=   -45.5652
   XZ=   -44.2248   YZ=   -50.7831   ZZ=   136.8014
   Eigenvalues:   -55.1197    42.1095   172.5545
     34  H    Isotropic =    24.2825   Anisotropy =     5.1861
   XX=    26.7643   YX=    -0.0934   ZX=     2.5955
   XY=    -0.2993   YY=    24.8157   ZY=     0.8589
   XZ=     2.3715   YZ=     1.4580   ZZ=    21.2676
   Eigenvalues:    20.0339    25.0737    27.7399
     35  C    Isotropic =    51.5295   Anisotropy =   155.1748
   XX=    -0.5131   YX=    52.5760   ZX=   -52.1551
   XY=    55.6135   YY=    25.1843   ZY=   -14.2643
   XZ=   -45.7255   YZ=   -17.1625   ZZ=   129.9171
   Eigenvalues:   -48.3147    47.9237   154.9793
     36  H    Isotropic =    23.8384   Anisotropy =     7.3073
   XX=    24.2302   YX=     1.4459   ZX=     2.1759
   XY=     1.2147   YY=    27.1572   ZY=     2.0665
   XZ=     1.6853   YZ=     2.7775   ZZ=    20.1277
   Eigenvalues:    18.9464    23.8588    28.7099
     37  Bq   Isotropic =     5.0990   Anisotropy =    28.2267
   XX=     6.0734   YX=     7.2076   ZX=     6.6920
   XY=     4.5445   YY=    18.2341   ZY=     8.6316
   XZ=    10.7042   YZ=     6.3770   ZZ=    -9.0104
   Eigenvalues:   -13.6477     5.0280    23.9168
     38  Bq   Isotropic =     3.3795   Anisotropy =    14.2630
   XX=    -2.7027   YX=     2.4011   ZX=     0.7397
   XY=    -1.9673   YY=     6.0502   ZY=    -1.5431
   XZ=    13.8401   YZ=    -7.2334   ZZ=     6.7909
   Eigenvalues:    -7.0772     4.3275    12.8882
     39  Bq   Isotropic =     4.8582   Anisotropy =    29.7707
   XX=     5.9902   YX=     7.0752   ZX=     7.8567
   XY=     5.6077   YY=    18.6352   ZY=     8.6913
   XZ=     8.7580   YZ=     7.7544   ZZ=   -10.0508
   Eigenvalues:   -14.4512     4.3204    24.7053
     40  Bq   Isotropic =     5.3954   Anisotropy =    15.8383
   XX=     3.8854   YX=     4.6294   ZX=     4.2378
   XY=    -0.3074   YY=    14.0147   ZY=     4.4618
   XZ=    16.6633   YZ=    -0.8881   ZZ=    -1.7139
   Eigenvalues:    -9.7338     9.9657    15.9543
     41  Bq   Isotropic =     5.8042   Anisotropy =    12.6100
   XX=     2.4096   YX=     4.7546   ZX=     2.6202
   XY=    -0.7597   YY=    13.6271   ZY=     2.7164
   XZ=    16.7809   YZ=    -3.8148   ZZ=     1.3759
   Eigenvalues:    -7.9676    11.1693    14.2109
     42  Bq   Isotropic =     6.4190   Anisotropy =    20.1629
   XX=     4.6283   YX=     6.3920   ZX=     3.0134
   XY=     0.9398   YY=    17.3931   ZY=     5.8382
   XZ=    15.3662   YZ=     0.1469   ZZ=    -2.7644
   Eigenvalues:    -8.9806     8.3767    19.8609
     43  Bq   Isotropic =     5.2996   Anisotropy =    10.6127
   XX=     0.9697   YX=     4.1010   ZX=     2.2050
   XY=    -1.2315   YY=    11.6108   ZY=     1.2775
   XZ=    16.5838   YZ=    -5.3952   ZZ=     3.3184
   Eigenvalues:    -7.6326    11.1567    12.3748
     44  Bq   Isotropic =     6.4299   Anisotropy =    23.8542
   XX=     4.9961   YX=     7.2156   ZX=     3.1847
   XY=     2.1609   YY=    18.8897   ZY=     7.2106
   XZ=    13.7878   YZ=     2.2765   ZZ=    -4.5960
   Eigenvalues:    -9.6615     6.6185    22.3327
     45  Bq   Isotropic =     4.7535   Anisotropy =    12.2655
   XX=    -0.4106   YX=     3.5762   ZX=     1.6504
   XY=    -1.5080   YY=     9.6691   ZY=     0.0386
   XZ=    15.9068   YZ=    -6.6327   ZZ=     5.0019
   Eigenvalues:    -7.3539     8.6838    12.9305
     46  Bq   Isotropic =     6.2582   Anisotropy =    27.0868
   XX=     4.7995   YX=     7.8297   ZX=     3.6062
   XY=     3.5119   YY=    20.0253   ZY=     8.2163
   XZ=    11.8386   YZ=     4.2884   ZZ=    -6.0501
   Eigenvalues:   -10.3797     4.8383    24.3161
     47  Bq   Isotropic =     4.2196   Anisotropy =    13.6788
   XX=    -1.5968   YX=     3.1604   ZX=     1.0138
   XY=    -1.6418   YY=     7.8866   ZY=    -0.9740
   XZ=    14.8896   YZ=    -7.5321   ZZ=     6.3690
   Eigenvalues:    -7.0834     6.4034    13.3388
     48  Bq   Isotropic =     5.9998   Anisotropy =    29.5718
   XX=     4.2748   YX=     8.0361   ZX=     4.4776
   XY=     4.8123   YY=    20.8037   ZY=     8.7386
   XZ=     9.7579   YZ=     6.0593   ZZ=    -7.0791
   Eigenvalues:   -11.0530     3.3381    25.7144
     49  Bq   Isotropic =     3.7319   Anisotropy =    14.7049
   XX=    -2.5253   YX=     2.8273   ZX=     0.3584
   XY=    -1.6789   YY=     6.3106   ZY=    -1.7664
   XZ=    13.6687   YZ=    -8.1285   ZZ=     7.4104
   Eigenvalues:    -6.7898     4.4503    13.5352
     50  Bq   Isotropic =     5.7873   Anisotropy =    31.0954
   XX=     3.8608   YX=     7.6924   ZX=     5.8410
   XY=     5.8585   YY=    21.2655   ZY=     8.7835
   XZ=     7.7241   YZ=     7.5599   ZZ=    -7.7645
   Eigenvalues:   -11.6381     2.4823    26.5175
     51  Bq   Isotropic =     6.1991   Anisotropy =    16.3185
   XX=     3.7066   YX=     5.5343   ZX=     2.8734
   XY=    -0.0438   YY=    15.5996   ZY=     4.2807
   XZ=    16.3879   YZ=    -1.9340   ZZ=    -0.7091
   Eigenvalues:    -8.4084     9.9275    17.0780
     52  Bq   Isotropic =     6.9086   Anisotropy =    12.6924
   XX=     2.7463   YX=     5.1303   ZX=     1.2852
   XY=    -0.6685   YY=    14.9759   ZY=     2.0345
   XZ=    16.1398   YZ=    -5.1278   ZZ=     3.0035
   Eigenvalues:    -6.1769    11.5325    15.3702
     53  Bq   Isotropic =     7.9199   Anisotropy =    19.8369
   XX=     4.7300   YX=     6.5201   ZX=     0.8934
   XY=     0.7203   YY=    19.6084   ZY=     5.0425
   XZ=    14.3299   YZ=    -1.0729   ZZ=    -0.5786
   Eigenvalues:    -5.9948     8.6101    21.1445
     54  Bq   Isotropic =     6.2116   Anisotropy =    11.4338
   XX=     1.3250   YX=     4.5183   ZX=     1.1699
   XY=    -1.0417   YY=    12.5763   ZY=     0.6832
   XZ=    16.0538   YZ=    -6.6675   ZZ=     4.7335
   Eigenvalues:    -6.3087    11.1094    13.8341
     55  Bq   Isotropic =     8.1006   Anisotropy =    23.4679
   XX=     4.8302   YX=     7.1312   ZX=     0.6505
   XY=     1.7502   YY=    21.4991   ZY=     6.3987
   XZ=    12.4678   YZ=     1.1608   ZZ=    -2.0276
   Eigenvalues:    -6.0344     6.5902    23.7458
     56  Bq   Isotropic =     5.4938   Anisotropy =    12.8352
   XX=    -0.0680   YX=     3.9937   ZX=     0.8491
   XY=    -1.2589   YY=    10.3168   ZY=    -0.4605
   XZ=    15.4518   YZ=    -7.8146   ZZ=     6.2327
   Eigenvalues:    -6.3922     8.8230    14.0506
     57  Bq   Isotropic =     8.0656   Anisotropy =    26.6156
   XX=     4.2733   YX=     7.4830   ZX=     0.7486
   XY=     2.9085   YY=    22.9371   ZY=     7.4112
   XZ=    10.2276   YZ=     3.2661   ZZ=    -3.0136
   Eigenvalues:    -6.1572     4.5447    25.8093
     58  Bq   Isotropic =     4.8143   Anisotropy =    14.2697
   XX=    -1.2821   YX=     3.5488   ZX=     0.3902
   XY=    -1.3667   YY=     8.2859   ZY=    -1.3797
   XZ=    14.4888   YZ=    -8.5911   ZZ=     7.4390
   Eigenvalues:    -6.3898     6.5052    14.3274
     59  Bq   Isotropic =     7.9196   Anisotropy =    28.9637
   XX=     3.3693   YX=     7.3973   ZX=     1.4867
   XY=     4.0311   YY=    23.8989   ZY=     7.9553
   XZ=     7.9240   YZ=     5.0837   ZZ=    -3.5094
   Eigenvalues:    -6.3172     2.8472    27.2288
     60  Bq   Isotropic =     4.2074   Anisotropy =    15.3160
   XX=    -2.2438   YX=     3.1690   ZX=    -0.1318
   XY=    -1.4025   YY=     6.5253   ZY=    -2.0868
   XZ=    13.3113   YZ=    -9.0492   ZZ=     8.3406
   Eigenvalues:    -6.2879     4.4920    14.4180
     61  Bq   Isotropic =     7.8158   Anisotropy =    30.2970
   XX=     2.6802   YX=     6.7633   ZX=     2.9672
   XY=     4.9269   YY=    24.4267   ZY=     8.0328
   XZ=     5.8087   YZ=     6.5793   ZZ=    -3.6596
   Eigenvalues:    -6.5046     1.9381    28.0138
     62  Bq   Isotropic =     7.5054   Anisotropy =    16.0847
   XX=     3.9688   YX=     5.8157   ZX=     1.1705
   XY=    -0.0913   YY=    17.3776   ZY=     3.5290
   XZ=    15.5817   YZ=    -3.2279   ZZ=     1.1699
   Eigenvalues:    -6.0530    10.3408    18.2285
     63  Bq   Isotropic =     8.4023   Anisotropy =    12.7903
   XX=     3.4938   YX=     5.0292   ZX=    -0.1447
   XY=    -0.7552   YY=    16.2314   ZY=     0.9289
   XZ=    15.0245   YZ=    -6.5344   ZZ=     5.4819
   Eigenvalues:    -3.6201    11.8979    16.9292
     64  Bq   Isotropic =    10.1170   Anisotropy =    18.4709
   XX=     5.6436   YX=     5.7554   ZX=    -1.3432
   XY=     0.0455   YY=    21.8107   ZY=     3.5094
   XZ=    12.6274   YZ=    -2.5594   ZZ=     2.8968
   Eigenvalues:    -1.6247     9.5447    22.4310
     65  Bq   Isotropic =     7.4059   Anisotropy =    12.4453
   XX=     1.9638   YX=     4.6038   ZX=     0.0411
   XY=    -0.9536   YY=    13.4307   ZY=    -0.2075
   XZ=    15.1365   YZ=    -7.9778   ZZ=     6.8232
   Eigenvalues:    -4.4347    10.9496    15.7028
     66  Bq   Isotropic =    10.6559   Anisotropy =    21.6436
   XX=     5.7424   YX=     5.9068   ZX=    -2.0449
   XY=     0.6794   YY=    24.1466   ZY=     4.6993
   XZ=    10.3956   YZ=    -0.3418   ZZ=     2.0788
   Eigenvalues:    -0.6489     7.5317    25.0850
     67  Bq   Isotropic =     6.4377   Anisotropy =    13.7471
   XX=     0.4705   YX=     4.1848   ZX=    -0.0429
   XY=    -1.0646   YY=    10.8495   ZY=    -1.1568
   XZ=    14.6846   YZ=    -8.9964   ZZ=     7.9931
   Eigenvalues:    -5.0405     8.7511    15.6024
     68  Bq   Isotropic =    10.9470   Anisotropy =    24.3577
   XX=     5.1038   YX=     5.7668   ZX=    -2.3549
   XY=     1.4178   YY=    25.9279   ZY=     5.6103
   XZ=     7.8046   YZ=     1.7142   ZZ=     1.8093
   Eigenvalues:     0.1801     5.4754    27.1855
     69  Bq   Isotropic =     5.5563   Anisotropy =    15.1031
   XX=    -0.8293   YX=     3.7847   ZX=    -0.3173
   XY=    -1.1192   YY=     8.5763   ZY=    -1.9093
   XZ=    13.8383   YZ=    -9.6254   ZZ=     8.9218
   Eigenvalues:    -5.4212     6.4650    15.6250
     70  Bq   Isotropic =    11.0764   Anisotropy =    26.2904
   XX=     4.0670   YX=     5.2273   ZX=    -1.8780
   XY=     2.1518   YY=    27.0909   ZY=     6.1342
   XZ=     5.2617   YZ=     3.4158   ZZ=     2.0713
   Eigenvalues:     0.8210     3.8048    28.6033
     71  Bq   Isotropic =     4.7909   Anisotropy =    16.0934
   XX=    -1.8616   YX=     3.4086   ZX=    -0.6961
   XY=    -1.1389   YY=     6.6430   ZY=    -2.4795
   XZ=    12.7554   YZ=    -9.9311   ZZ=     9.5912
   Eigenvalues:    -5.5918     4.4446    15.5198
     72  Bq   Isotropic =    11.1906   Anisotropy =    27.2523
   XX=     3.2680   YX=     4.2547   ZX=    -0.4377
   XY=     2.7504   YY=    27.6773   ZY=     6.2746
   XZ=     3.1029   YZ=     4.7340   ZZ=     2.6266
   Eigenvalues:     1.2466     2.9664    29.3588
     73  Bq   Isotropic =     9.3396   Anisotropy =    15.2728
   XX=     4.8172   YX=     5.4320   ZX=    -0.6314
   XY=    -0.4323   YY=    19.0958   ZY=     2.2024
   XZ=    14.2058   YZ=    -4.6911   ZZ=     4.1059
   Eigenvalues:    -2.6524    11.1498    19.5215
     74  Bq   Isotropic =    10.2165   Anisotropy =    13.1012
   XX=     4.6360   YX=     4.4940   ZX=    -1.4893
   XY=    -0.9663   YY=    17.1843   ZY=    -0.4682
   XZ=    13.4535   YZ=    -7.8779   ZZ=     8.8292
   Eigenvalues:    -0.4676    12.1665    18.9506
     75  Bq   Isotropic =    12.9276   Anisotropy =    16.4106
   XX=     7.4169   YX=     4.2088   ZX=    -3.3432
   XY=    -0.9642   YY=    23.6418   ZY=     1.4114
   XZ=    10.3362   YZ=    -4.1219   ZZ=     7.7242
   Eigenvalues:     3.8460    11.0689    23.8681
     76  Bq   Isotropic =     8.8253   Anisotropy =    13.5700
   XX=     2.8636   YX=     4.3787   ZX=    -1.0593
   XY=    -0.9359   YY=    14.0245   ZY=    -1.2878
   XZ=    13.8388   YZ=    -9.1907   ZZ=     9.5879
   Eigenvalues:    -2.1353    10.7392    17.8720
     77  Bq   Isotropic =    14.0170   Anisotropy =    18.7363
   XX=     7.8540   YX=     3.6997   ZX=    -4.4500
   XY=    -0.8887   YY=    26.3986   ZY=     2.2907
   XZ=     7.6978   YZ=    -2.0310   ZZ=     7.7985
   Eigenvalues:     6.1620     9.3812    26.5079
     78  Bq   Isotropic =     7.5393   Anisotropy =    14.8806
   XX=     1.1828   YX=     4.1568   ZX=    -0.9438
   XY=    -0.9091   YY=    11.1643   ZY=    -1.9671
   XZ=    13.6072   YZ=   -10.0639   ZZ=    10.2708
   Eigenvalues:    -3.3880     8.5462    17.4597
     79  Bq   Isotropic =    14.8338   Anisotropy =    20.7283
   XX=     7.5127   YX=     2.8918   ZX=    -5.1777
   XY=    -0.7531   YY=    28.5016   ZY=     2.9831
   XZ=     4.7507   YZ=    -0.1653   ZZ=     8.4871
   Eigenvalues:     7.3786     8.4702    28.6526
     80  Bq   Isotropic =     6.4101   Anisotropy =    16.1243
   XX=    -0.2574   YX=     3.8671   ZX=    -1.0545
   XY=    -0.8931   YY=     8.6894   ZY=    -2.5001
   XZ=    12.9393   YZ=   -10.5411   ZZ=    10.7981
   Eigenvalues:    -4.2401     6.3107    17.1596
     81  Bq   Isotropic =    15.4121   Anisotropy =    22.0592
   XX=     6.6949   YX=     1.7945   ZX=    -5.0708
   XY=    -0.5761   YY=    29.8436   ZY=     3.4192
   XZ=     1.9979   YZ=     1.2469   ZZ=     9.6979
   Eigenvalues:     5.9548    10.1634    30.1183
     82  Bq   Isotropic =     5.4554   Anisotropy =    17.0034
   XX=    -1.3938   YX=     3.5404   ZX=    -1.2986
   XY=    -0.8875   YY=     6.6200   ZY=    -2.8986
   XZ=    12.0025   YZ=   -10.6979   ZZ=    11.1400
   Eigenvalues:    -4.7444     4.3196    16.7910
     83  Bq   Isotropic =    15.8550   Anisotropy =    22.5630
   XX=     6.0251   YX=     0.4902   ZX=    -3.8854
   XY=    -0.3854   YY=    30.4708   ZY=     3.6130
   XZ=    -0.1424   YZ=     2.1848   ZZ=    11.0691
   Eigenvalues:     5.2775    11.3905    30.8970
     84  Bq   Isotropic =    11.6232   Anisotropy =    14.2583
   XX=     6.2559   YX=     4.4554   ZX=    -2.2745
   XY=    -0.9835   YY=    20.4738   ZY=     0.4562
   XZ=    12.3015   YZ=    -6.1477   ZZ=     8.1398
   Eigenvalues:     1.5677    12.1731    21.1287
     85  Bq   Isotropic =    12.2071   Anisotropy =    13.7618
   XX=     6.0399   YX=     3.6375   ZX=    -2.5968
   XY=    -1.2178   YY=    17.6759   ZY=    -1.9274
   XZ=    11.5131   YZ=    -8.9589   ZZ=    12.9054
   Eigenvalues:     2.9238    12.3159    21.3816
     86  Bq   Isotropic =    16.1008   Anisotropy =    14.3389
   XX=     9.8056   YX=     2.1411   ZX=    -4.8030
   XY=    -2.0903   YY=    24.8120   ZY=    -0.8772
   XZ=     7.6417   YZ=    -5.4670   ZZ=    13.6848
   Eigenvalues:     9.2673    13.3750    25.6601
     87  Bq   Isotropic =    10.3651   Anisotropy =    14.8252
   XX=     3.9325   YX=     3.9099   ZX=    -2.0274
   XY=    -0.9424   YY=    14.2494   ZY=    -2.3883
   XZ=    12.2173   YZ=   -10.1460   ZZ=    12.9136
   Eigenvalues:     0.3582    10.4886    20.2486
     88  Bq   Isotropic =    17.8702   Anisotropy =    15.5303
   XX=    10.8609   YX=     0.8685   ZX=    -6.1664
   XY=    -2.6365   YY=    27.8982   ZY=    -0.3859
   XZ=     4.6230   YZ=    -3.5617   ZZ=    14.8515
   Eigenvalues:    10.6253    14.7615    28.2237
     89  Bq   Isotropic =     8.7238   Anisotropy =    16.1526
   XX=     2.0072   YX=     3.9460   ZX=    -1.7828
   XY=    -0.7698   YY=    11.1910   ZY=    -2.7699
   XZ=    12.2574   YZ=   -10.8902   ZZ=    12.9733
   Eigenvalues:    -1.5860     8.2653    19.4922
     90  Bq   Isotropic =    19.3493   Anisotropy =    16.6898
   XX=    11.1422   YX=    -0.6832   ZX=    -7.2389
   XY=    -3.1744   YY=    30.2477   ZY=     0.0122
   XZ=     1.3706   YZ=    -1.9791   ZZ=    16.6579
   Eigenvalues:     9.6466    17.9254    30.4758
     91  Bq   Isotropic =     7.3225   Anisotropy =    17.2648
   XX=     0.3927   YX=     3.8127   ZX=    -1.7728
   XY=    -0.6795   YY=     8.5823   ZY=    -3.0671
   XZ=    11.8177   YZ=   -11.2387   ZZ=    12.9926
   Eigenvalues:    -2.9452     6.0803    18.8324
     92  Bq   Isotropic =    20.4912   Anisotropy =    17.4759
   XX=    10.8509   YX=    -2.3568   ZX=    -7.5709
   XY=    -3.6138   YY=    31.7165   ZY=     0.2937
   XZ=    -1.5306   YZ=    -0.9975   ZZ=    18.9061
   Eigenvalues:     8.4473    20.8844    32.1418
     93  Bq   Isotropic =     6.1635   Anisotropy =    17.9955
   XX=    -0.8674   YX=     3.5701   ZX=    -1.9055
   XY=    -0.6472   YY=     6.4320   ZY=    -3.2853
   XZ=    11.0718   YZ=   -11.2726   ZZ=    12.9259
   Eigenvalues:    -3.8095     4.1395    18.1605
     94  Bq   Isotropic =    21.3235   Anisotropy =    17.6656
   XX=    10.5132   YX=    -3.9313   ZX=    -6.8840
   XY=    -3.8579   YY=    32.3661   ZY=     0.4836
   XZ=    -3.5956   YZ=    -0.6417   ZZ=    21.0912
   Eigenvalues:     7.8170    23.0529    33.1006
     95  Bq   Isotropic =    14.1628   Anisotropy =    13.5848
   XX=     8.1001   YX=     3.0635   ZX=    -3.5400
   XY=    -1.6043   YY=    21.2908   ZY=    -1.4097
   XZ=     9.9979   YZ=    -7.3538   ZZ=    13.0976
   Eigenvalues:     6.0301    13.2390    23.2193
     96  Bq   Isotropic =    14.1757   Anisotropy =    14.8677
   XX=     7.4739   YX=     2.6180   ZX=    -3.3727
   XY=    -1.4124   YY=    17.6487   ZY=    -3.1878
   XZ=     9.3471   YZ=    -9.5889   ZZ=    17.4045
   Eigenvalues:     6.0393    12.4003    24.0875
     97  Bq   Isotropic =    19.2541   Anisotropy =    13.1743
   XX=    12.2912   YX=    -0.1055   ZX=    -5.5479
   XY=    -3.0698   YY=    25.2089   ZY=    -2.8938
   XZ=     4.7989   YZ=    -6.2854   ZZ=    20.2622
   Eigenvalues:    11.9731    17.7524    28.0370
     98  Bq   Isotropic =    11.8874   Anisotropy =    16.2380
   XX=     5.0225   YX=     3.2953   ZX=    -2.7940
   XY=    -0.9207   YY=    14.0705   ZY=    -3.3237
   XZ=    10.3742   YZ=   -10.6983   ZZ=    16.5691
   Eigenvalues:     2.7407    10.2087    22.7127
     99  Bq   Isotropic =    21.7092   Anisotropy =    13.0949
   XX=    14.0333   YX=    -2.1337   ZX=    -6.9654
   XY=    -4.1765   YY=    28.5101   ZY=    -2.7625
   XZ=     1.4793   YZ=    -4.5471   ZZ=    22.5842
   Eigenvalues:    12.1823    22.5062    30.4391
    100  Bq   Isotropic =     9.8964   Anisotropy =    17.5123
   XX=     2.8509   YX=     3.6090   ZX=    -2.5088
   XY=    -0.6217   YY=    10.9119   ZY=    -3.4373
   XZ=    10.7070   YZ=   -11.3642   ZZ=    15.9265
   Eigenvalues:     0.1739     7.9441    21.5713
    101  Bq   Isotropic =    23.8494   Anisotropy =    13.3745
   XX=    15.0183   YX=    -4.4042   ZX=    -8.2556
   XY=    -5.3174   YY=    31.0174   ZY=    -2.6523
   XZ=    -1.9952   YZ=    -3.2588   ZZ=    25.5126
   Eigenvalues:    11.3244    27.4581    32.7658
    102  Bq   Isotropic =     8.2289   Anisotropy =    18.4609
   XX=     1.0632   YX=     3.6523   ZX=    -2.4341
   XY=    -0.4693   YY=     8.2490   ZY=    -3.5237
   XZ=    10.5245   YZ=   -11.6337   ZZ=    15.3745
   Eigenvalues:    -1.6577     5.8083    20.5362
    103  Bq   Isotropic =    25.5322   Anisotropy =    13.8027
   XX=    15.3157   YX=    -6.6055   ZX=    -9.0591
   XY=    -6.2975   YY=    32.5585   ZY=    -2.5576
   XZ=    -4.9880   YZ=    -2.7771   ZZ=    28.7225
   Eigenvalues:    10.1367    31.7259    34.7340
    104  Bq   Isotropic =     6.8707   Anisotropy =    19.0147
   XX=    -0.3185   YX=     3.5124   ZX=    -2.4884
   XY=    -0.4167   YY=     6.0801   ZY=    -3.5826
   XZ=    10.0000   YZ=   -11.5913   ZZ=    14.8505
   Eigenvalues:    -2.8642     3.9291    19.5472
    105  Bq   Isotropic =    26.7006   Anisotropy =    14.0242
   XX=    15.3156   YX=    -8.3722   ZX=    -9.1161
   XY=    -6.9030   YY=    33.2192   ZY=    -2.4528
   XZ=    -6.9684   YZ=    -3.1624   ZZ=    31.5670
   Eigenvalues:     9.2498    34.8020    36.0501
    106  Bq   Isotropic =    16.6793   Anisotropy =    13.7609
   XX=     9.9971   YX=     1.4964   ZX=    -4.2988
   XY=    -2.1290   YY=    21.4621   ZY=    -3.0399
   XZ=     7.4915   YZ=    -8.0665   ZZ=    18.5788
   Eigenvalues:     9.6565    14.5282    25.8533
    107  Bq   Isotropic =    15.9106   Anisotropy =    16.4434
   XX=     8.6721   YX=     1.6060   ZX=    -3.7902
   XY=    -1.4617   YY=    17.1565   ZY=    -4.0446
   XZ=     7.1289   YZ=    -9.6505   ZZ=    21.9033
   Eigenvalues:     8.3125    12.5465    26.8729
    108  Bq   Isotropic =    21.9647   Anisotropy =    13.9131
   XX=    14.2348   YX=    -2.1883   ZX=    -5.5561
   XY=    -3.6632   YY=    24.9244   ZY=    -4.2639
   XZ=     2.0735   YZ=    -6.3650   ZZ=    26.7349
   Eigenvalues:    12.7505    21.9035    31.2401
    109  Bq   Isotropic =    13.2463   Anisotropy =    17.8029
   XX=     5.9682   YX=     2.6446   ZX=    -3.3312
   XY=    -0.8238   YY=    13.5317   ZY=    -3.9513
   XZ=     8.4400   YZ=   -10.7600   ZZ=    20.2392
   Eigenvalues:     4.7067     9.9174    25.1149
    110  Bq   Isotropic =    24.9587   Anisotropy =    13.3253
   XX=    16.4315   YX=    -4.8716   ZX=    -6.8210
   XY=    -5.1584   YY=    28.3554   ZY=    -4.3695
   XZ=    -1.4371   YZ=    -4.7062   ZZ=    30.0893
   Eigenvalues:    12.8430    28.1909    33.8423
    111  Bq   Isotropic =    10.9581   Anisotropy =    18.9118
   XX=     3.6121   YX=     3.2127   ZX=    -3.0950
   XY=    -0.4430   YY=    10.3637   ZY=    -3.8726
   XZ=     9.0519   YZ=   -11.4199   ZZ=    18.8984
   Eigenvalues:     1.7016     7.6067    23.5660
    112  Bq   Isotropic =    27.5793   Anisotropy =    14.0792
   XX=    17.8296   YX=    -7.7662   ZX=    -8.1863
   XY=    -6.7096   YY=    30.9629   ZY=    -4.4558
   XZ=    -5.0493   YZ=    -3.6411   ZZ=    33.9453
   Eigenvalues:    11.9312    33.8413    36.9654
    113  Bq   Isotropic =     9.0622   Anisotropy =    19.6524
   XX=     1.6920   YX=     3.4239   ZX=    -3.0139
   XY=    -0.2546   YY=     7.7207   ZY=    -3.8065
   XZ=     9.1295   YZ=   -11.6768   ZZ=    17.7738
   Eigenvalues:    -0.4990     5.5218    22.1638
    114  Bq   Isotropic =    29.5903   Anisotropy =    17.5315
   XX=    18.3802   YX=   -10.4217   ZX=    -9.4682
   XY=    -8.0404   YY=    32.5451   ZY=    -4.5190
   XZ=    -8.1148   YZ=    -3.6380   ZZ=    37.8455
   Eigenvalues:    10.4063    37.0865    41.2779
    115  Bq   Isotropic =     7.5315   Anisotropy =    20.0067
   XX=     0.2143   YX=     3.3877   ZX=    -3.0259
   XY=    -0.1955   YY=     5.5909   ZY=    -3.7499
   XZ=     8.8380   YZ=   -11.6172   ZZ=    16.7893
   Eigenvalues:    -1.9858     3.7110    20.8693
    116  Bq   Isotropic =    30.8730   Anisotropy =    21.2536
   XX=    18.3838   YX=   -12.3290   ZX=   -10.4913
   XY=    -8.8498   YY=    33.2092   ZY=    -4.5517
   XZ=   -10.0771   YZ=    -4.8346   ZZ=    41.0262
   Eigenvalues:     8.9017    38.6753    45.0421
    117  Bq   Isotropic =    18.8701   Anisotropy =    15.0556
   XX=    11.5287   YX=     0.0042   ZX=    -4.5271
   XY=    -2.4061   YY=    21.0571   ZY=    -4.1513
   XZ=     5.0033   YZ=    -8.1281   ZZ=    24.0246
   Eigenvalues:    11.3492    16.3540    28.9072
    118  Bq   Isotropic =    17.2337   Anisotropy =    18.3565
   XX=     9.4219   YX=     0.7571   ZX=    -3.8820
   XY=    -1.3038   YY=    16.3286   ZY=    -4.4168
   XZ=     5.0247   YZ=    -9.1391   ZZ=    25.9504
   Eigenvalues:     9.4018    12.8279    29.4713
    119  Bq   Isotropic =    23.8777   Anisotropy =    16.6016
   XX=    15.1119   YX=    -3.8063   ZX=    -4.9260
   XY=    -3.7019   YY=    24.1784   ZY=    -4.8419
   XZ=    -0.3100   YZ=    -5.6778   ZZ=    32.3427
   Eigenvalues:    12.7729    23.9147    34.9454
    120  Bq   Isotropic =    14.3182   Anisotropy =    19.4419
   XX=     6.6366   YX=     2.0610   ZX=    -3.6491
   XY=    -0.6194   YY=    12.7311   ZY=    -4.2146
   XZ=     6.5475   YZ=   -10.3294   ZZ=    23.5870
   Eigenvalues:     6.0418     9.6335    27.2795
    121  Bq   Isotropic =    27.1316   Anisotropy =    17.1847
   XX=    17.2637   YX=    -6.9656   ZX=    -5.8572
   XY=    -5.3359   YY=    27.7092   ZY=    -5.0211
   XZ=    -3.8906   YZ=    -3.9812   ZZ=    36.4217
   Eigenvalues:    12.7191    30.0876    38.5880
    122  Bq   Isotropic =    11.8237   Anisotropy =    20.2817
   XX=     4.2085   YX=     2.8223   ZX=    -3.5374
   XY=    -0.2195   YY=     9.6216   ZY=    -4.0387
   XZ=     7.3949   YZ=   -11.0563   ZZ=    21.6409
   Eigenvalues:     2.8557     7.2705    25.3448
    123  Bq   Isotropic =    29.8886   Anisotropy =    20.0258
   XX=    18.4349   YX=   -10.3268   ZX=    -7.1549
   XY=    -7.0188   YY=    30.4105   ZY=    -5.1642
   XZ=    -7.5653   YZ=    -3.0155   ZZ=    40.8205
   Eigenvalues:    11.4694    34.9573    43.2391
    124  Bq   Isotropic =     9.7640   Anisotropy =    20.7762
   XX=     2.2275   YX=     3.1673   ZX=    -3.5015
   XY=    -0.0313   YY=     7.0549   ZY=    -3.8927
   XZ=     7.7104   YZ=   -11.3670   ZZ=    20.0095
   Eigenvalues:     0.4362     5.2409    23.6148
    125  Bq   Isotropic =    31.8333   Anisotropy =    24.6123
[...]
   136  Bq   0.000000
   137  Bq   0.000000
   138  Bq   0.000000
   139  Bq   0.000000
   140  Bq   0.000000
   141  Bq   0.000000
   142  Bq   0.000000
   143  Bq   0.000000
   144  Bq   0.000000
   145  Bq   0.000000
   146  Bq   0.000000
   147  Bq   0.000000
   148  Bq   0.000000
   149  Bq   0.000000
   150  Bq   0.000000
   151  Bq   0.000000
   152  Bq   0.000000
   153  Bq   0.000000
   154  Bq   0.000000
   155  Bq   0.000000
   156  Bq   0.000000
   157  Bq   0.000000
   158  Bq   0.000000
   159  Bq   0.000000
   160  Bq   0.000000
   161  Bq   0.000000
   162  Bq   0.000000
   163  Bq   0.000000
   164  Bq   0.000000
   165  Bq   0.000000
   166  Bq   0.000000
   167  Bq   0.000000
   168  Bq   0.000000
   169  Bq   0.000000
   170  Bq   0.000000
   171  Bq   0.000000
   172  Bq   0.000000
   173  Bq   0.000000
   174  Bq   0.000000
   175  Bq   0.000000
   176  Bq   0.000000
   177  Bq   0.000000
   178  Bq   0.000000
   179  Bq   0.000000
   180  Bq   0.000000
   181  Bq   0.000000
   182  Bq   0.000000
   183  Bq   0.000000
   184  Bq   0.000000
   185  Bq   0.000000
   186  Bq   0.000000
   187  Bq   0.000000
   188  Bq   0.000000
   189  Bq   0.000000
   190  Bq   0.000000
   191  Bq   0.000000
   192  Bq   0.000000
   193  Bq   0.000000
   194  Bq   0.000000
   195  Bq   0.000000
   196  Bq   0.000000
   197  Bq   0.000000
   198  Bq   0.000000
   199  Bq   0.000000
   200  Bq   0.000000
   201  Bq   0.000000
   202  Bq   0.000000
   203  Bq   0.000000
   204  Bq   0.000000
   205  Bq   0.000000
   206  Bq   0.000000
   207  Bq   0.000000
   208  Bq   0.000000
   209  Bq   0.000000
   210  Bq   0.000000
   211  Bq   0.000000
   212  Bq   0.000000
   213  Bq   0.000000
   214  Bq   0.000000
   215  Bq   0.000000
   216  Bq   0.000000
   217  Bq   0.000000
   218  Bq   0.000000
   219  Bq   0.000000
   220  Bq   0.000000
   221  Bq   0.000000
   222  Bq   0.000000
   223  Bq   0.000000
   224  Bq   0.000000
   225  Bq   0.000000
   226  Bq   0.000000
   227  Bq   0.000000
   228  Bq   0.000000
   229  Bq   0.000000
   230  Bq   0.000000
   231  Bq   0.000000
   232  Bq   0.000000
   233  Bq   0.000000
   234  Bq   0.000000
   235  Bq   0.000000
   236  Bq   0.000000
 Sum of Mulliken charges =   0.00000
 Mulliken charges with hydrogens summed into heavy atoms:
               1
     1  C   -0.255498
     3  C    0.169409
     5  C    0.448258
     6  C    0.064351
     7  C   -0.333926
     9  C   -0.139521
    11  C   -0.205988
    13  C   -0.119315
    15  C    0.653397
    16  C    0.034822
    17  C   -0.317410
    19  C   -0.316854
    21  C    0.651066
    22  C    0.037784
    23  C   -0.117289
    25  C   -0.205316
    27  C    0.448331
    28  C    0.061983
    29  C   -0.333381
    31  C   -0.139505
    33  C   -0.255977
    35  C    0.170579
    37  Bq   0.000000
    38  Bq   0.000000
    39  Bq   0.000000
    40  Bq   0.000000
    41  Bq   0.000000
    42  Bq   0.000000
    43  Bq   0.000000
    44  Bq   0.000000
    45  Bq   0.000000
    46  Bq   0.000000
    47  Bq   0.000000
    48  Bq   0.000000
    49  Bq   0.000000
    50  Bq   0.000000
    51  Bq   0.000000
    52  Bq   0.000000
    53  Bq   0.000000
    54  Bq   0.000000
    55  Bq   0.000000
    56  Bq   0.000000
    57  Bq   0.000000
    58  Bq   0.000000
    59  Bq   0.000000
    60  Bq   0.000000
    61  Bq   0.000000
    62  Bq   0.000000
    63  Bq   0.000000
    64  Bq   0.000000
    65  Bq   0.000000
    66  Bq   0.000000
    67  Bq   0.000000
    68  Bq   0.000000
    69  Bq   0.000000
    70  Bq   0.000000
    71  Bq   0.000000
    72  Bq   0.000000
    73  Bq   0.000000
    74  Bq   0.000000
    75  Bq   0.000000
    76  Bq   0.000000
    77  Bq   0.000000
    78  Bq   0.000000
    79  Bq   0.000000
    80  Bq   0.000000
    81  Bq   0.000000
    82  Bq   0.000000
    83  Bq   0.000000
    84  Bq   0.000000
    85  Bq   0.000000
    86  Bq   0.000000
    87  Bq   0.000000
    88  Bq   0.000000
    89  Bq   0.000000
    90  Bq   0.000000
    91  Bq   0.000000
    92  Bq   0.000000
    93  Bq   0.000000
    94  Bq   0.000000
    95  Bq   0.000000
    96  Bq   0.000000
    97  Bq   0.000000
    98  Bq   0.000000
    99  Bq   0.000000
   100  Bq   0.000000
   101  Bq   0.000000
   102  Bq   0.000000
   103  Bq   0.000000
   104  Bq   0.000000
   105  Bq   0.000000
   106  Bq   0.000000
   107  Bq   0.000000
   108  Bq   0.000000
   109  Bq   0.000000
   110  Bq   0.000000
   111  Bq   0.000000
   112  Bq   0.000000
   113  Bq   0.000000
   114  Bq   0.000000
   115  Bq   0.000000
   116  Bq   0.000000
   117  Bq   0.000000
   118  Bq   0.000000
   119  Bq   0.000000
   120  Bq   0.000000
   121  Bq   0.000000
   122  Bq   0.000000
   123  Bq   0.000000
   124  Bq   0.000000
   125  Bq   0.000000
   126  Bq   0.000000
   127  Bq   0.000000
   128  Bq   0.000000
   129  Bq   0.000000
   130  Bq   0.000000
   131  Bq   0.000000
   132  Bq   0.000000
   133  Bq   0.000000
   134  Bq   0.000000
   135  Bq   0.000000
   136  Bq   0.000000
   137  Bq   0.000000
   138  Bq   0.000000
   139  Bq   0.000000
   140  Bq   0.000000
   141  Bq   0.000000
   142  Bq   0.000000
   143  Bq   0.000000
   144  Bq   0.000000
   145  Bq   0.000000
   146  Bq   0.000000
   147  Bq   0.000000
   148  Bq   0.000000
   149  Bq   0.000000
   150  Bq   0.000000
   151  Bq   0.000000
   152  Bq   0.000000
   153  Bq   0.000000
   154  Bq   0.000000
   155  Bq   0.000000
   156  Bq   0.000000
   157  Bq   0.000000
   158  Bq   0.000000
   159  Bq   0.000000
   160  Bq   0.000000
   161  Bq   0.000000
   162  Bq   0.000000
   163  Bq   0.000000
   164  Bq   0.000000
   165  Bq   0.000000
   166  Bq   0.000000
   167  Bq   0.000000
   168  Bq   0.000000
   169  Bq   0.000000
   170  Bq   0.000000
   171  Bq   0.000000
   172  Bq   0.000000
   173  Bq   0.000000
   174  Bq   0.000000
   175  Bq   0.000000
   176  Bq   0.000000
   177  Bq   0.000000
   178  Bq   0.000000
   179  Bq   0.000000
   180  Bq   0.000000
   181  Bq   0.000000
   182  Bq   0.000000
   183  Bq   0.000000
   184  Bq   0.000000
   185  Bq   0.000000
   186  Bq   0.000000
   187  Bq   0.000000
   188  Bq   0.000000
   189  Bq   0.000000
   190  Bq   0.000000
   191  Bq   0.000000
   192  Bq   0.000000
   193  Bq   0.000000
   194  Bq   0.000000
   195  Bq   0.000000
   196  Bq   0.000000
   197  Bq   0.000000
   198  Bq   0.000000
   199  Bq   0.000000
   200  Bq   0.000000
   201  Bq   0.000000
   202  Bq   0.000000
   203  Bq   0.000000
   204  Bq   0.000000
   205  Bq   0.000000
   206  Bq   0.000000
   207  Bq   0.000000
   208  Bq   0.000000
   209  Bq   0.000000
   210  Bq   0.000000
   211  Bq   0.000000
   212  Bq   0.000000
   213  Bq   0.000000
   214  Bq   0.000000
   215  Bq   0.000000
   216  Bq   0.000000
   217  Bq   0.000000
   218  Bq   0.000000
   219  Bq   0.000000
   220  Bq   0.000000
   221  Bq   0.000000
   222  Bq   0.000000
   223  Bq   0.000000
   224  Bq   0.000000
   225  Bq   0.000000
   226  Bq   0.000000
   227  Bq   0.000000
   228  Bq   0.000000
   229  Bq   0.000000
   230  Bq   0.000000
   231  Bq   0.000000
   232  Bq   0.000000
   233  Bq   0.000000
   234  Bq   0.000000
   235  Bq   0.000000
   236  Bq   0.000000
 Electronic spatial extent (au):  <R**2>=           5736.9264
 Charge=              0.0000 electrons
 Dipole moment (field-independent basis, Debye):
    X=              0.0475    Y=              0.0856    Z=              0.0029  Tot=              0.0979
 Quadrupole moment (field-independent basis, Debye-Ang):
   XX=           -113.7056   YY=           -113.9456   ZZ=           -133.2669
   XY=             -0.3834   XZ=              3.2102   YZ=             -1.1839
 Traceless Quadrupole moment (field-independent basis, Debye-Ang):
   XX=              6.6005   YY=              6.3604   ZZ=            -12.9609
   XY=             -0.3834   XZ=              3.2102   YZ=             -1.1839
 Octapole moment (field-independent basis, Debye-Ang**2):
  XXX=            -16.4668  YYY=            -16.1860  ZZZ=             -1.7007  XYY=              2.5576
  XXY=             -6.5650  XXZ=             13.6547  XZZ=             -8.9478  YZZ=            -17.7168
  YYZ=            -13.2941  XYZ=              8.8036
 Hexadecapole moment (field-independent basis, Debye-Ang**3):
 XXXX=          -3951.1638 YYYY=          -3112.2161 ZZZZ=           -504.8311 XXXY=            340.6935
 XXXZ=            156.4968 YYYX=            335.5625 YYYZ=            -87.0893 ZZZX=            120.2262
 ZZZY=           -108.7373 XXYY=          -1176.4844 XXZZ=           -856.7291 YYZZ=           -665.7275
 XXYZ=            -68.9016 YYXZ=             48.1602 ZZXY=            153.0375
 N-N= 1.610917615562D+03 E-N=-5.186891130729D+03  KE= 8.436329774449D+02
 1\1\GINC-THARO\SP\RB3LYP\6-311+G(d,p)\C22H14\YANNICK\21-Aug-2020\0\\# 
 rb3lyp/6-311+g** NMR geom=connectivity\\Title\\0,1\C,0,-4.0500558,-0.5
 771862,0.8136712\H,0,-5.0263804,-1.0082727,1.002476\C,0,-3.9381552,0.6
 617804,0.2400876\H,0,-4.8252424,1.233889,-0.0111295\C,0,-2.676841,1.24
 33246,0.0057578\C,0,-1.4974121,0.5051527,0.2848253\C,0,-1.6508332,-0.7
 338728,0.9404026\H,0,-0.7713646,-1.2730967,1.2633753\C,0,-2.8898548,-1
 .2624035,1.1994307\H,0,-2.9683706,-2.2124563,1.7152676\C,0,-2.5773185,
 2.5963696,-0.419293\H,0,-3.4870728,3.1412239,-0.6474055\C,0,-1.3741895
 ,3.2147896,-0.436403\H,0,-1.2997315,4.2742019,-0.6578144\C,0,-0.171948
 8,2.499409,-0.1734588\C,0,-0.2043917,1.1018437,0.0192689\C,0,1.0513491
 ,3.204256,-0.0676222\H,0,1.0427344,4.2819499,-0.1896997\C,0,2.1942091,
 2.5487446,0.2579577\H,0,3.1168527,3.0912848,0.4334727\C,0,2.2216473,1.
 1336562,0.293499\C,0,1.0486931,0.3945528,0.0302412\C,0,3.4483363,0.461
 4633,0.5573939\H,0,4.3095794,1.0606054,0.8334846\C,0,3.5427346,-0.8855
 926,0.4749463\H,0,4.4731467,-1.3939704,0.7038822\C,0,2.4490052,-1.6474
 447,-0.0196319\C,0,1.2150704,-1.0057258,-0.3013573\C,0,0.2531113,-1.74
 3444,-1.0216591\H,0,-0.6541356,-1.2535051,-1.3462847\C,0,0.4494193,-3.
 0628597,-1.3413779\H,0,-0.3083162,-3.5944309,-1.905406\C,0,1.6251726,-
 3.7207967,-0.9552541\H,0,1.7670048,-4.7687404,-1.1927019\C,0,2.6109872
 ,-3.0144177,-0.318305\H,0,3.5525612,-3.4902813,-0.0646367\Bq,0,3.09084
 17424,-2.1032181363,0.286581291\Bq,0,2.7320858683,-2.3427589963,1.0764
 638134\Bq,0,3.1307035062,-2.0766024852,0.1988165663\Bq,0,2.9313946872,
 -2.2096807407,0.6376401899\Bq,0,2.8805264501,-2.1399034091,0.749638165
 \Bq,0,2.9602499777,-2.0866721069,0.5741087156\Bq,0,2.8406646863,-2.166
 5190602,0.8374028898\Bq,0,3.0001117414,-2.0600564558,0.4863439909\Bq,0
 ,2.8008029225,-2.1931347113,0.9251676145\Bq,0,3.0399735052,-2.03344080
 47,0.3985792662\Bq,0,2.7609411587,-2.2197503624,1.0129323392\Bq,0,3.07
 9835269,-2.0068251536,0.3108145415\Bq,0,2.7210793949,-2.2463660136,1.1
 006970639\Bq,0,3.1196970328,-1.9802095025,0.2230498168\Bq,0,2.92038821
 39,-2.113287758,0.6618734403\Bq,0,2.8695199767,-2.0435104264,0.7738714
 155\Bq,0,2.9492435043,-1.9902791242,0.5983419661\Bq,0,2.8296582129,-2.
 0701260775,0.8616361402\Bq,0,2.9891052681,-1.9636634731,0.5105772414\B
 q,0,2.7897964491,-2.0967417286,0.9494008649\Bq,0,3.0289670319,-1.93704
 7822,0.4228125167\Bq,0,2.7499346853,-2.1233573797,1.0371655896\Bq,0,3.
 0688287956,-1.9104321709,0.3350477919\Bq,0,2.7100729216,-2.1499730308,
 1.1249303144\Bq,0,3.1086905594,-1.8838165198,0.2472830672\Bq,0,2.90938
 17405,-2.0168947753,0.6861066908\Bq,0,2.8585135033,-1.9471174437,0.798
 104666\Bq,0,2.9382370309,-1.8938861415,0.6225752165\Bq,0,2.8186517395,
 -1.9737330948,0.8858693907\Bq,0,2.9780987947,-1.8672704904,0.534810491
 8\Bq,0,2.7787899758,-2.0003487459,0.9736341154\Bq,0,3.0179605585,-1.84
 06548393,0.4470457671\Bq,0,2.738928212,-2.026964397,1.0613988401\Bq,0,
 3.0578223223,-1.8140391882,0.3592810424\Bq,0,2.6990664482,-2.053580048
 1,1.1491635648\Bq,0,3.0976840861,-1.7874235371,0.2715163177\Bq,0,2.898
 3752671,-1.9205017926,0.7103399413\Bq,0,2.84750703,-1.850724461,0.8223
 379164\Bq,0,2.9272305575,-1.7974931588,0.646808467\Bq,0,2.8076452662,-
 1.8773401121,0.9101026411\Bq,0,2.9670923213,-1.7708775077,0.5590437423
 \Bq,0,2.7677835024,-1.9039557632,0.9978673658\Bq,0,3.0069540851,-1.744
 2618566,0.4712790176\Bq,0,2.7279217386,-1.9305714143,1.0856320906\Bq,0
 ,3.0468158489,-1.7176462055,0.3835142929\Bq,0,2.6880599748,-1.95718706
 54,1.1733968153\Bq,0,3.0866776127,-1.6910305543,0.2957495681\Bq,0,2.88
 73687937,-1.8241088099,0.7345731917\Bq,0,2.8365005566,-1.7543314783,0.
 8465711669\Bq,0,2.9162240842,-1.7011001761,0.6710417175\Bq,0,2.7966387
 928,-1.7809471294,0.9343358916\Bq,0,2.956085848,-1.674484525,0.5832769
 927\Bq,0,2.756777029,-1.8075627805,1.0221006163\Bq,0,2.9959476117,-1.6
 478688739,0.495512268\Bq,0,2.7169152652,-1.8341784316,1.109865341\Bq,0
 ,3.0358093755,-1.6212532227,0.4077475433\Bq,0,2.6770535014,-1.86079408
 27,1.1976300657\Bq,0,3.0756711393,-1.5946375716,0.3199828186\Bq,0,2.87
 63623204,-1.7277158272,0.7588064422\Bq,0,2.8254940832,-1.6579384956,0.
 8708044173\Bq,0,2.9052176108,-1.6047071934,0.6952749679\Bq,0,2.7856323
 194,-1.6845541467,0.958569142\Bq,0,2.9450793746,-1.5780915422,0.607510
 2432\Bq,0,2.7457705556,-1.7111697978,1.0463338668\Bq,0,2.9849411384,-1
 .5514758911,0.5197455185\Bq,0,2.7059087919,-1.7377854489,1.1340985915\
 Bq,0,3.0248029022,-1.52486024,0.4319807938\Bq,0,2.6660470281,-1.764401
 1,1.2218633162\Bq,0,3.0646646659,-1.4982445889,0.3442160691\Bq,0,2.865
 355847,-1.6313228445,0.7830396926\Bq,0,2.8144876098,-1.5615455129,0.89
 50376678\Bq,0,2.8942111374,-1.5083142106,0.7195082184\Bq,0,2.774625846
 1,-1.588161164,0.9828023925\Bq,0,2.9340729012,-1.4816985595,0.63174349
 37\Bq,0,2.7347640823,-1.6147768151,1.0705671172\Bq,0,2.973934665,-1.45
 50829084,0.5439787689\Bq,0,2.6949023185,-1.6413924662,1.1583318419\Bq,
 0,3.0137964288,-1.4284672573,0.4562140442\Bq,0,2.6550405547,-1.6680081
 173,1.2460965666\Bq,0,3.0536581926,-1.4018516062,0.3684493195\Bq,0,2.8
 543493736,-1.5349298617,0.8072729431\Bq,0,2.8034811365,-1.4651525301,0
 .9192709183\Bq,0,2.883204664,-1.4119212279,0.7437414688\Bq,0,2.7636193
 727,-1.4917681812,1.007035643\Bq,0,2.9230664278,-1.3853055768,0.655976
 7441\Bq,0,2.7237576089,-1.5183838324,1.0948003677\Bq,0,2.9629281916,-1
 .3586899257,0.5682120194\Bq,0,2.6838958451,-1.5449994835,1.1825650924\
 Bq,0,3.0027899554,-1.3320742746,0.4804472947\Bq,0,2.6440340813,-1.5716
 151346,1.2703298171\Bq,0,3.0426517192,-1.3054586235,0.39268257\Bq,0,2.
 8433429003,-1.438536879,0.8315061935\Bq,0,2.7924746631,-1.3687595474,0
 .9435041687\Bq,0,2.8721981907,-1.3155282452,0.7679747193\Bq,0,2.752612
 8993,-1.3953751985,1.0312688934\Bq,0,2.9120599545,-1.2889125941,0.6802
 099946\Bq,0,2.7127511355,-1.4219908496,1.1190336181\Bq,0,2.9519217182,
 -1.262296943,0.5924452699\Bq,0,2.6728893717,-1.4486065008,1.2067983428
 \Bq,0,2.991783482,-1.2356812919,0.5046805451\Bq,0,2.6330276079,-1.4752
 221519,1.2945630676\Bq,0,3.0316452458,-1.2090656408,0.4169158204\Bq,0,
 2.8323364269,-1.3421438963,0.855739444\Bq,0,2.7814681897,-1.2723665647
 ,0.9677374192\Bq,0,2.8611917173,-1.2191352625,0.7922079697\Bq,0,2.7416
 064259,-1.2989822158,1.0555021439\Bq,0,2.9010534811,-1.1925196114,0.70
 4443245\Bq,0,2.7017446622,-1.3255978669,1.1432668686\Bq,0,2.9409152449
 ,-1.1659039603,0.6166785203\Bq,0,2.6618828984,-1.352213518,1.231031593
 3\Bq,0,2.9807770087,-1.1392883092,0.5289137956\Bq,0,2.6220211346,-1.37
 88291691,1.318796318\Bq,0,3.0206387725,-1.1126726581,0.4411490709\Bq,0
 ,2.8213299535,-1.2457509136,0.8799726945\Bq,0,2.7704617164,-1.17597358
 2,0.9919706696\Bq,0,2.8501852439,-1.1227422798,0.8164412202\Bq,0,2.730
 5999526,-1.2025892331,1.0797353943\Bq,0,2.8900470077,-1.0961266287,0.7
 286764955\Bq,0,2.6907381888,-1.2292048842,1.1675001191\Bq,0,2.92990877
 15,-1.0695109776,0.6409117708\Bq,0,2.650876425,-1.2558205353,1.2552648
 438\Bq,0,2.9697705353,-1.0428953265,0.5531470461\Bq,0,2.6110146612,-1.
 2824361864,1.3430295685\Bq,0,3.0096322991,-1.0162796754,0.4653823214\B
 q,0,2.8103234801,-1.1493579309,0.9042059449\Bq,0,2.759455243,-1.079580
 5993,1.0162039201\Bq,0,2.8391787706,-1.0263492971,0.8406744707\Bq,0,2.
 7195934792,-1.1061962504,1.1039686448\Bq,0,2.8790405343,-0.999733646,0
 .7529097459\Bq,0,2.6797317154,-1.1328119015,1.1917333695\Bq,0,2.918902
 2981,-0.9731179949,0.6651450212\Bq,0,2.6398699516,-1.1594275526,1.2794
 980942\Bq,0,2.9587640619,-0.9465023438,0.5773802965\Bq,0,2.6000081878,
 -1.1860432037,1.3672628189\Bq,0,2.9986258257,-0.9198866927,0.489615571
 8\Bq,0,2.7993170068,-1.0529649482,0.9284391954\Bq,0,2.7484487696,-0.98
 31876166,1.0404371705\Bq,0,2.8281722972,-0.9299563144,0.8649077211\Bq,
 0,2.7085870058,-1.0098032677,1.1282018953\Bq,0,2.868034061,-0.90334066
 33,0.7771429964\Bq,0,2.668725242,-1.0364189188,1.21596662\Bq,0,2.90789
 58248,-0.8767250122,0.6893782717\Bq,0,2.6288634782,-1.0630345699,1.303
 7313447\Bq,0,2.9477575885,-0.850109361,0.601613547\Bq,0,2.5890017145,-
 1.089650221,1.3914960694\Bq,0,2.9876193523,-0.8234937099,0.5138488223\
 Bq,0,2.7883105334,-0.9565719655,0.9526724458\Bq,0,2.7374422962,-0.8867
 946339,1.064670421\Bq,0,2.8171658238,-0.8335633317,0.8891409716\Bq,0,2
 .6975805325,-0.913410285,1.1524351457\Bq,0,2.8570275876,-0.8069476805,
 0.8013762469\Bq,0,2.6577187687,-0.9400259361,1.2401998704\Bq,0,2.89688
 93514,-0.7803320294,0.7136115222\Bq,0,2.6178570049,-0.9666415872,1.327
 9645951\Bq,0,2.9367511152,-0.7537163783,0.6258467974\Bq,0,2.5779952411
 ,-0.9932572383,1.4157293199\Bq,0,2.976612879,-0.7271007272,0.538082072
 7\Bq,0,2.77730406,-0.8601789828,0.9769056963\Bq,0,2.7264358229,-0.7904
 016512,1.0889036715\Bq,0,2.8061593504,-0.7371703489,0.913374222\Bq,0,2
 .6865740591,-0.8170173023,1.1766683962\Bq,0,2.8460211142,-0.7105546978
 ,0.8256094973\Bq,0,2.6467122953,-0.8436329534,1.2644331209\Bq,0,2.8858
 82878,-0.6839390467,0.7378447726\Bq,0,2.6068505315,-0.8702486045,1.352
 1978456\Bq,0,2.9257446418,-0.6573233956,0.6500800479\Bq,0,2.5669887677
 ,-0.8968642556,1.4399625703\Bq,0,2.9656064056,-0.6307077445,0.56231532
 32\Bq,0,2.7662975867,-0.763786,1.0011389467\Bq,0,2.7154293495,-0.69400
 86684,1.1131369219\Bq,0,2.7951528771,-0.6407773662,0.9376074725\Bq,0,2
 .6755675857,-0.7206243196,1.2009016466\Bq,0,2.8350146409,-0.6141617151
 ,0.8498427478\Bq,0,2.6357058219,-0.7472399707,1.2886663713\Bq,0,2.8748
 764046,-0.587546064,0.7620780231\Bq,0,2.5958440581,-0.7738556218,1.376
 4310961\Bq,0,2.9147381684,-0.5609304129,0.6743132984\Bq,0,2.5559822943
 ,-0.8004712729,1.4641958208\Bq,0,2.9545999322,-0.5343147618,0.58654857
 36\Bq,0,2.7552911133,-0.6673930173,1.0253721972\Bq,0,2.7044228761,-0.5
 976156857,1.1373701724\Bq,0,2.7841464037,-0.5443843835,0.9618407229\Bq
 ,0,2.6645611123,-0.6242313368,1.2251348971\Bq,0,2.8240081675,-0.517768
 7324,0.8740759982\Bq,0,2.6246993485,-0.6508469879,1.3128996218\Bq,0,2.
 8638699313,-0.4911530813,0.7863112735\Bq,0,2.5848375848,-0.6774626391,
 1.4006643465\Bq,0,2.9037316951,-0.4645374302,0.6985465488\Bq,0,2.54497
 5821,-0.7040782902,1.4884290712\Bq,0,2.9435934588,-0.4379217791,0.6107
 818241\Bq,0,2.7442846399,-0.5710000346,1.0496054477\Bq,0,2.6934164028,
 -0.501222703,1.1616034228\Bq,0,2.7731399303,-0.4479914008,0.9860739734
 \Bq,0,2.653554639,-0.5278383541,1.2493681475\Bq,0,2.8130016941,-0.4213
 757497,0.8983092487\Bq,0,2.6136928752,-0.5544540052,1.3371328723\Bq,0,
 2.8528634579,-0.3947600986,0.810544524\Bq,0,2.5738311114,-0.5810696563
 ,1.424897597\Bq,0,2.8927252217,-0.3681444475,0.7227797993\Bq,0,2.53396
 93476,-0.6076853074,1.5126623217\\Version=ES64L-G09RevD.01\HF=-847.003
 2898\RMSD=7.529e-09\Dipole=0.0186808,0.0336671,0.0011595\Quadrupole=4.
 9072795,4.7288219,-9.6361014,-0.2850201,2.3867064,-0.880172\PG=C01 [X(
 C22H14)]\\@


 Boundary, n.  In political geography, an imaginary
 line between two nations, separating the imaginary
 rights of one from the imaginary rights of another.
                               -- Ambrose Bierce
 Job cpu time:       0 days  2 hours 43 minutes 25.6 seconds.
 File lengths (MBytes):  RWF=    184 Int=      0 D2E=      0 Chk=     19 Scr=      1
 Normal termination of Gaussian 09 at Fri Aug 21 18:24:15 2020.
