 Entering Gaussian System, Link 0=g09
 Input=input_cycle_04_batch_20600.com
 Output=input_cycle_04_batch_20600.log
 Initial command:
 /share/programs/GAUSSIAN/64/g09/l1.exe "/scratch/yannick.30557/Gau-2758773.inp" -scrdir="/scratch/yannick.30557/"
 Entering Link 1 = /share/programs/GAUSSIAN/64/g09/l1.exe PID=   2758774.
  
 Copyright (c) 1988,1990,1992,1993,1995,1998,2003,2009,2013,
            Gaussian, Inc.  All Rights Reserved.
  
 This is part of the Gaussian(R) 09 program.  It is based on
 the Gaussian(R) 03 system (copyright 2003, Gaussian, Inc.),
 the Gaussian(R) 98 system (copyright 1998, Gaussian, Inc.),
 the Gaussian(R) 94 system (copyright 1995, Gaussian, Inc.),
 the Gaussian 92(TM) system (copyright 1992, Gaussian, Inc.),
 the Gaussian 90(TM) system (copyright 1990, Gaussian, Inc.),
 the Gaussian 88(TM) system (copyright 1988, Gaussian, Inc.),
 the Gaussian 86(TM) system (copyright 1986, Carnegie Mellon
 University), and the Gaussian 82(TM) system (copyright 1983,
 Carnegie Mellon University). Gaussian is a federally registered
 trademark of Gaussian, Inc.
  
 This software contains proprietary and confidential information,
 including trade secrets, belonging to Gaussian, Inc.
  
 This software is provided under written license and may be
 used, copied, transmitted, or stored only in accord with that
 written license.
  
 The following legend is applicable only to US Government
 contracts under FAR:
  
                    RESTRICTED RIGHTS LEGEND
  
 Use, reproduction and disclosure by the US Government is
 subject to restrictions as set forth in subparagraphs (a)
 and (c) of the Commercial Computer Software - Restricted
 Rights clause in FAR 52.227-19.
  
 Gaussian, Inc.
 340 Quinnipiac St., Bldg. 40, Wallingford CT 06492
  
  
 ---------------------------------------------------------------
 Warning -- This program may not be used in any manner that
 competes with the business of Gaussian, Inc. or will provide
 assistance to any competitor of Gaussian, Inc.  The licensee
 of this program is prohibited from giving any competitor of
 Gaussian, Inc. access to this program.  By using this program,
 the user acknowledges that Gaussian, Inc. is engaged in the
 business of creating and licensing software in the field of
 computational chemistry and represents and warrants to the
 licensee that it is not a competitor of Gaussian, Inc. and that
 it will not use this program in any manner prohibited above.
 ---------------------------------------------------------------
  

 Cite this work as:
 Gaussian 09, Revision D.01,
 M. J. Frisch, G. W. Trucks, H. B. Schlegel, G. E. Scuseria, 
 M. A. Robb, J. R. Cheeseman, G. Scalmani, V. Barone, B. Mennucci, 
 G. A. Petersson, H. Nakatsuji, M. Caricato, X. Li, H. P. Hratchian, 
 A. F. Izmaylov, J. Bloino, G. Zheng, J. L. Sonnenberg, M. Hada, 
 M. Ehara, K. Toyota, R. Fukuda, J. Hasegawa, M. Ishida, T. Nakajima, 
 Y. Honda, O. Kitao, H. Nakai, T. Vreven, J. A. Montgomery, Jr., 
 J. E. Peralta, F. Ogliaro, M. Bearpark, J. J. Heyd, E. Brothers, 
 K. N. Kudin, V. N. Staroverov, T. Keith, R. Kobayashi, J. Normand, 
 K. Raghavachari, A. Rendell, J. C. Burant, S. S. Iyengar, J. Tomasi, 
 M. Cossi, N. Rega, J. M. Millam, M. Klene, J. E. Knox, J. B. Cross, 
 V. Bakken, C. Adamo, J. Jaramillo, R. Gomperts, R. E. Stratmann, 
 O. Yazyev, A. J. Austin, R. Cammi, C. Pomelli, J. W. Ochterski, 
 R. L. Martin, K. Morokuma, V. G. Zakrzewski, G. A. Voth, 
 P. Salvador, J. J. Dannenberg, S. Dapprich, A. D. Daniels, 
 O. Farkas, J. B. Foresman, J. V. Ortiz, J. Cioslowski, 
 and D. J. Fox, Gaussian, Inc., Wallingford CT, 2013.
 
 ******************************************
 Gaussian 09:  ES64L-G09RevD.01 24-Apr-2013
                22-Aug-2020 
 ******************************************
 %nproc=8
 Will use up to    8 processors via shared memory.
 %mem=1000MB
 ----------------------------------------
 # rb3lyp/6-311+g** NMR geom=connectivity
 ----------------------------------------
 1/38=1,57=2/1;
 2/12=2,17=6,18=5,40=1/2;
 3/5=4,6=6,7=111,11=2,16=1,25=1,30=1,74=-5,116=1/1,2,8,3;
 4//1;
 5/5=2,38=5/2;
 8/6=1,10=90,11=11/1;
 10/13=100,45=16/2;
 6/7=2,8=2,9=2,10=2,28=1/1;
 99/9=1/99;
 -----
 Title
 -----
 Symbolic Z-matrix:
 Charge =  0 Multiplicity = 1
 C                    -4.05006  -0.57719   0.81367 
 H                    -5.02638  -1.00827   1.00248 
 C                    -3.93816   0.66178   0.24009 
 H                    -4.82524   1.23389  -0.01113 
 C                    -2.67684   1.24332   0.00576 
 C                    -1.49741   0.50515   0.28483 
 C                    -1.65083  -0.73387   0.9404 
 H                    -0.77136  -1.2731    1.26338 
 C                    -2.88985  -1.2624    1.19943 
 H                    -2.96837  -2.21246   1.71527 
 C                    -2.57732   2.59637  -0.41929 
 H                    -3.48707   3.14122  -0.64741 
 C                    -1.37419   3.21479  -0.4364 
 H                    -1.29973   4.2742   -0.65781 
 C                    -0.17195   2.49941  -0.17346 
 C                    -0.20439   1.10184   0.01927 
 C                     1.05135   3.20426  -0.06762 
 H                     1.04273   4.28195  -0.1897 
 C                     2.19421   2.54874   0.25796 
 H                     3.11685   3.09128   0.43347 
 C                     2.22165   1.13366   0.2935 
 C                     1.04869   0.39455   0.03024 
 C                     3.44834   0.46146   0.55739 
 H                     4.30958   1.06061   0.83348 
 C                     3.54273  -0.88559   0.47495 
 H                     4.47315  -1.39397   0.70388 
 C                     2.44901  -1.64744  -0.01963 
 C                     1.21507  -1.00573  -0.30136 
 C                     0.25311  -1.74344  -1.02166 
 H                    -0.65414  -1.25351  -1.34628 
 C                     0.44942  -3.06286  -1.34138 
 H                    -0.30832  -3.59443  -1.90541 
 C                     1.62517  -3.7208   -0.95525 
 H                     1.767    -4.76874  -1.1927 
 C                     2.61099  -3.01442  -0.31831 
 H                     3.55256  -3.49028  -0.06464 
 Bq                    3.31697   0.8164    0.70463 
 Bq                    3.08586   0.68835   1.56497 
 Bq                    3.34265   0.83063   0.60903 
 Bq                    3.21426   0.75949   1.087 
 Bq                    3.18489   0.84424   1.19633 
 Bq                    3.23625   0.8727    1.00515 
 Bq                    3.15921   0.83002   1.29193 
 Bq                    3.26192   0.88693   0.90955 
 Bq                    3.13353   0.81579   1.38752 
 Bq                    3.2876    0.90116   0.81396 
 Bq                    3.10785   0.80156   1.48312 
 Bq                    3.31328   0.91538   0.71837 
 Bq                    3.08217   0.78733   1.57871 
 Bq                    3.33896   0.92961   0.62277 
 Bq                    3.21057   0.85847   1.10074 
 Bq                    3.1812    0.94323   1.21008 
 Bq                    3.23255   0.97168   1.01889 
 Bq                    3.15552   0.929     1.30567 
 Bq                    3.25823   0.98591   0.92329 
 Bq                    3.12984   0.91477   1.40126 
 Bq                    3.28391   1.00014   0.8277 
 Bq                    3.10416   0.90054   1.49686 
 Bq                    3.30959   1.01437   0.73211 
 Bq                    3.07848   0.88632   1.59245 
 Bq                    3.33527   1.02859   0.63651 
 Bq                    3.20688   0.95745   1.11448 
 Bq                    3.17751   1.04221   1.22382 
 Bq                    3.22886   1.07067   1.03263 
 Bq                    3.15183   1.02798   1.31941 
 Bq                    3.25454   1.08489   0.93703 
 Bq                    3.12615   1.01375   1.415 
 Bq                    3.28022   1.09912   0.84144 
 Bq                    3.10047   0.99953   1.5106 
 Bq                    3.3059    1.11335   0.74585 
 Bq                    3.07479   0.9853    1.60619 
 Bq                    3.33158   1.12758   0.65025 
 Bq                    3.20318   1.05644   1.12822 
 Bq                    3.17381   1.14119   1.23756 
 Bq                    3.22517   1.16965   1.04637 
 Bq                    3.14814   1.12696   1.33315 
 Bq                    3.25085   1.18388   0.95078 
 Bq                    3.12246   1.11274   1.42874 
 Bq                    3.27653   1.1981    0.85518 
 Bq                    3.09678   1.09851   1.52434 
 Bq                    3.30221   1.21233   0.75959 
 Bq                    3.0711    1.08428   1.61993 
 Bq                    3.32789   1.22656   0.66399 
 Bq                    3.19949   1.15542   1.14196 
 Bq                    3.17012   1.24018   1.2513 
 Bq                    3.22148   1.26863   1.06011 
 Bq                    3.14444   1.22595   1.34689 
 Bq                    3.24716   1.28286   0.96452 
 Bq                    3.11877   1.21172   1.44248 
 Bq                    3.27284   1.29709   0.86892 
 Bq                    3.09309   1.19749   1.53808 
 Bq                    3.29852   1.31131   0.77333 
 Bq                    3.06741   1.18326   1.63367 
 Bq                    3.3242    1.32554   0.67773 
 Bq                    3.1958    1.2544    1.1557 
 Bq                    3.16643   1.33916   1.26504 
 Bq                    3.21779   1.36761   1.07385 
 Bq                    3.14075   1.32493   1.36063 
 Bq                    3.24347   1.38184   0.97826 
 Bq                    3.11507   1.3107    1.45623 
 Bq                    3.26915   1.39607   0.88266 
 Bq                    3.0894    1.29648   1.55182 
 Bq                    3.29483   1.4103    0.78707 
 Bq                    3.06372   1.28225   1.64741 
 Bq                    3.32051   1.42452   0.69147 
 Bq                    3.19211   1.35339   1.16944 
 Bq                    3.16274   1.43814   1.27878 
 Bq                    3.2141    1.4666    1.08759 
 Bq                    3.13706   1.42391   1.37437 
 Bq                    3.23978   1.48082   0.992 
 Bq                    3.11138   1.40969   1.46997 
 Bq                    3.26546   1.49505   0.8964 
 Bq                    3.0857    1.39546   1.56556 
 Bq                    3.29114   1.50928   0.80081 
 Bq                    3.06003   1.38123   1.66115 
 Bq                    3.31681   1.52351   0.70522 
 Bq                    3.18842   1.45237   1.18318 
 Bq                    3.15905   1.53712   1.29252 
 Bq                    3.21041   1.56558   1.10133 
 Bq                    3.13337   1.5229    1.38811 
 Bq                    3.23609   1.57981   1.00574 
 Bq                    3.10769   1.50867   1.48371 
 Bq                    3.26177   1.59403   0.91014 
 Bq                    3.08201   1.49444   1.5793 
 Bq                    3.28744   1.60826   0.81455 
 Bq                    3.05633   1.48021   1.67489 
 Bq                    3.31312   1.62249   0.71896 
 Bq                    3.18473   1.55135   1.19692 
 Bq                    3.15536   1.63611   1.30626 
 Bq                    3.20672   1.66456   1.11507 
 Bq                    3.12968   1.62188   1.40185 
 Bq                    3.2324    1.67879   1.01948 
 Bq                    3.104     1.60765   1.49745 
 Bq                    3.25807   1.69302   0.92388 
 Bq                    3.07832   1.59342   1.59304 
 Bq                    3.28375   1.70724   0.82829 
 Bq                    3.05264   1.5792    1.68863 
 Bq                    3.30943   1.72147   0.7327 
 Bq                    3.18104   1.65033   1.21067 
 Bq                    3.15167   1.73509   1.32 
 Bq                    3.20303   1.76354   1.12881 
 Bq                    3.12599   1.72086   1.41559 
 Bq                    3.2287    1.77777   1.03322 
 Bq                    3.10031   1.70663   1.51119 
 Bq                    3.25438   1.792     0.93762 
 Bq                    3.07463   1.69241   1.60678 
 Bq                    3.28006   1.80623   0.84203 
 Bq                    3.04895   1.67818   1.70237 
 Bq                    3.30574   1.82045   0.74644 
 Bq                    3.17735   1.74932   1.22441 
 Bq                    3.14798   1.83407   1.33374 
 Bq                    3.19933   1.86253   1.14255 
 Bq                    3.1223    1.81984   1.42933 
 Bq                    3.22501   1.87675   1.04696 
 Bq                    3.09662   1.80562   1.52493 
 Bq                    3.25069   1.89098   0.95137 
 Bq                    3.07094   1.79139   1.62052 
 Bq                    3.27637   1.90521   0.85577 
 Bq                    3.04526   1.77716   1.71612 
 Bq                    3.30205   1.91944   0.76018 
 Bq                    3.17366   1.8483    1.23815 
 Bq                    3.14429   1.93305   1.34748 
 Bq                    3.19564   1.96151   1.15629 
 Bq                    3.11861   1.91883   1.44307 
 Bq                    3.22132   1.97574   1.0607 
 Bq                    3.09293   1.9046    1.53867 
 Bq                    3.247     1.98996   0.96511 
 Bq                    3.06725   1.89037   1.63426 
 Bq                    3.27268   2.00419   0.86951 
 Bq                    3.04157   1.87614   1.72986 
 Bq                    3.29836   2.01842   0.77392 
 Bq                    3.16996   1.94728   1.25189 
 Bq                    3.14059   2.03204   1.36122 
 Bq                    3.19195   2.06049   1.17003 
 Bq                    3.11492   2.01781   1.45682 
 Bq                    3.21763   2.07472   1.07444 
 Bq                    3.08924   2.00358   1.55241 
 Bq                    3.24331   2.08895   0.97885 
 Bq                    3.06356   1.98935   1.648 
 Bq                    3.26899   2.10318   0.88325 
 Bq                    3.03788   1.97513   1.7436 
 Bq                    3.29467   2.1174    0.78766 
 Bq                    3.16627   2.04626   1.26563 
 Bq                    3.1369    2.13102   1.37496 
 Bq                    3.18826   2.15947   1.18377 
 Bq                    3.11122   2.11679   1.47056 
 Bq                    3.21394   2.1737    1.08818 
 Bq                    3.08555   2.10256   1.56615 
 Bq                    3.23962   2.18793   0.99259 
 Bq                    3.05987   2.08834   1.66174 
 Bq                    3.2653    2.20216   0.89699 
 Bq                    3.03419   2.07411   1.75734 
 Bq                    3.29098   2.21639   0.8014 
 Bq                    3.16258   2.14525   1.27937 
 Bq                    3.41803  -2.81812   0.71388 
 Bq                    3.46939  -2.78966   0.52269 
 Bq                    3.39235  -2.83234   0.80947 
 Bq                    3.49507  -2.77543   0.4271 
 Bq                    3.36667  -2.84657   0.90507 
 Bq                    3.52075  -2.7612    0.3315 
 Bq                    3.341    -2.8608    1.00066 
 Bq                    3.54643  -2.74698   0.23591 
 Bq                    3.31532  -2.87503   1.09625 
 Bq                    3.57211  -2.73275   0.14032 
 Bq                    3.44371  -2.80389   0.61828 
 Bq                    3.41434  -2.71913   0.72762 
 Bq                    3.4657   -2.69068   0.53643 
 Bq                    3.38866  -2.73336   0.82321 
 Bq                    3.49138  -2.67645   0.44084 
 Bq                    3.36298  -2.74759   0.91881 
 Bq                    3.51706  -2.66222   0.34524 
 Bq                    3.3373   -2.76182   1.0144 
 Bq                    3.54274  -2.64799   0.24965 
 Bq                    3.31163  -2.77604   1.10999 
 Bq                    3.56841  -2.63377   0.15406 
 Bq                    3.44002  -2.7049    0.63202 
 Bq                    3.41065  -2.62015   0.74136 
 Bq                    3.46201  -2.59169   0.55017 
 Bq                    3.38497  -2.63438   0.83695 
 Bq                    3.48769  -2.57747   0.45458 
 Bq                    3.35929  -2.64861   0.93255 
 Bq                    3.51337  -2.56324   0.35898 
 Bq                    3.33361  -2.66283   1.02814 
 Bq                    3.53904  -2.54901   0.26339 
 Bq                    3.30794  -2.67706   1.12373 
 Bq                    3.56472  -2.53478   0.1678 
 Bq                    3.43633  -2.60592   0.64577 
 Bq                    3.40696  -2.52117   0.7551 
 Bq                    3.45832  -2.49271   0.56391 
 Bq                    3.38128  -2.53539   0.85069 
 Bq                    3.484    -2.47848   0.46832 
 Bq                    3.3556   -2.54962   0.94629 
 Bq                    3.50967  -2.46426   0.37272 
 Bq                    3.32992  -2.56385   1.04188 
 Bq                    3.53535  -2.45003   0.27713 
 Bq                    3.30424  -2.57808   1.13747 
 
 Symmetry turned off:
 Cannot cope with ghost atoms or with translation vectors.
 Stoichiometry    C22H14
 Framework group  C1[X(C22H14)]
 NUMDOF-- NAT=    36 NAtoms=   236
 Deg. of freedom     0
 Full point group                 C1      NOp   1
                          Input orientation:                          
 ---------------------------------------------------------------------
 Center     Atomic      Atomic             Coordinates (Angstroms)
 Number     Number       Type             X           Y           Z
 ---------------------------------------------------------------------
      1          6           0       -4.050056   -0.577186    0.813671
      2          1           0       -5.026380   -1.008273    1.002476
      3          6           0       -3.938155    0.661780    0.240088
      4          1           0       -4.825242    1.233889   -0.011130
      5          6           0       -2.676841    1.243325    0.005758
      6          6           0       -1.497412    0.505153    0.284825
      7          6           0       -1.650833   -0.733873    0.940403
      8          1           0       -0.771365   -1.273097    1.263375
      9          6           0       -2.889855   -1.262404    1.199431
     10          1           0       -2.968371   -2.212456    1.715268
     11          6           0       -2.577319    2.596370   -0.419293
     12          1           0       -3.487073    3.141224   -0.647406
     13          6           0       -1.374190    3.214790   -0.436403
     14          1           0       -1.299732    4.274202   -0.657814
     15          6           0       -0.171949    2.499409   -0.173459
     16          6           0       -0.204392    1.101844    0.019269
     17          6           0        1.051349    3.204256   -0.067622
     18          1           0        1.042734    4.281950   -0.189700
     19          6           0        2.194209    2.548745    0.257958
     20          1           0        3.116853    3.091285    0.433473
     21          6           0        2.221647    1.133656    0.293499
     22          6           0        1.048693    0.394553    0.030241
     23          6           0        3.448336    0.461463    0.557394
     24          1           0        4.309579    1.060605    0.833485
     25          6           0        3.542735   -0.885593    0.474946
     26          1           0        4.473147   -1.393970    0.703882
     27          6           0        2.449005   -1.647445   -0.019632
     28          6           0        1.215070   -1.005726   -0.301357
     29          6           0        0.253111   -1.743444   -1.021659
     30          1           0       -0.654136   -1.253505   -1.346285
     31          6           0        0.449419   -3.062860   -1.341378
     32          1           0       -0.308316   -3.594431   -1.905406
     33          6           0        1.625173   -3.720797   -0.955254
     34          1           0        1.767005   -4.768740   -1.192702
     35          6           0        2.610987   -3.014418   -0.318305
     36          1           0        3.552561   -3.490281   -0.064637
     37          0           0        3.316973    0.816400    0.704626
     38          0           0        3.085863    0.688351    1.564969
     39          0           0        3.342652    0.830628    0.609032
     40          0           0        3.214257    0.759490    1.087001
     41          0           0        3.184887    0.844245    1.196335
     42          0           0        3.236245    0.872700    1.005147
     43          0           0        3.159209    0.830017    1.291929
     44          0           0        3.261924    0.886928    0.909554
     45          0           0        3.133530    0.815789    1.387522
     46          0           0        3.287603    0.901155    0.813960
     47          0           0        3.107851    0.801562    1.483116
     48          0           0        3.313282    0.915383    0.718366
     49          0           0        3.082172    0.787334    1.578710
     50          0           0        3.338961    0.929611    0.622772
     51          0           0        3.210566    0.858472    1.100741
     52          0           0        3.181196    0.943227    1.210075
     53          0           0        3.232554    0.971683    1.018888
     54          0           0        3.155518    0.929000    1.305669
     55          0           0        3.258233    0.985910    0.923294
     56          0           0        3.129839    0.914772    1.401263
     57          0           0        3.283912    1.000138    0.827700
     58          0           0        3.104160    0.900544    1.496857
     59          0           0        3.309591    1.014366    0.732107
     60          0           0        3.078481    0.886317    1.592451
     61          0           0        3.335270    1.028593    0.636513
     62          0           0        3.206875    0.957455    1.114482
     63          0           0        3.177505    1.042210    1.223816
     64          0           0        3.228863    1.070665    1.032628
     65          0           0        3.151826    1.027982    1.319410
     66          0           0        3.254542    1.084893    0.937035
     67          0           0        3.126148    1.013755    1.415004
     68          0           0        3.280221    1.099121    0.841441
     69          0           0        3.100469    0.999527    1.510597
     70          0           0        3.305900    1.113348    0.745847
     71          0           0        3.074790    0.985299    1.606191
     72          0           0        3.331579    1.127576    0.650253
     73          0           0        3.203184    1.056438    1.128222
     74          0           0        3.173814    1.141193    1.237557
     75          0           0        3.225172    1.169648    1.046369
     76          0           0        3.148135    1.126965    1.333150
     77          0           0        3.250851    1.183876    0.950775
     78          0           0        3.122457    1.112737    1.428744
     79          0           0        3.276530    1.198103    0.855181
     80          0           0        3.096778    1.098510    1.524338
     81          0           0        3.302209    1.212331    0.759588
     82          0           0        3.071099    1.084282    1.619932
     83          0           0        3.327887    1.226559    0.663994
     84          0           0        3.199493    1.155420    1.141963
     85          0           0        3.170123    1.240175    1.251297
     86          0           0        3.221481    1.268631    1.060110
     87          0           0        3.144444    1.225948    1.346891
     88          0           0        3.247160    1.282858    0.964516
     89          0           0        3.118766    1.211720    1.442485
     90          0           0        3.272839    1.297086    0.868922
     91          0           0        3.093087    1.197492    1.538078
     92          0           0        3.298518    1.311314    0.773328
     93          0           0        3.067408    1.183265    1.633672
     94          0           0        3.324196    1.325541    0.677734
     95          0           0        3.195802    1.254403    1.155703
     96          0           0        3.166432    1.339158    1.265038
     97          0           0        3.217790    1.367613    1.073850
     98          0           0        3.140753    1.324930    1.360631
     99          0           0        3.243469    1.381841    0.978256
    100          0           0        3.115074    1.310703    1.456225
    101          0           0        3.269148    1.396069    0.882663
    102          0           0        3.089396    1.296475    1.551819
    103          0           0        3.294827    1.410296    0.787069
    104          0           0        3.063717    1.282247    1.647413
    105          0           0        3.320505    1.424524    0.691475
    106          0           0        3.192111    1.353386    1.169444
    107          0           0        3.162741    1.438141    1.278778
    108          0           0        3.214099    1.466596    1.087591
    109          0           0        3.137062    1.423913    1.374372
    110          0           0        3.239778    1.480824    0.991997
    111          0           0        3.111383    1.409685    1.469966
    112          0           0        3.265457    1.495051    0.896403
    113          0           0        3.085705    1.395458    1.565559
    114          0           0        3.291135    1.509279    0.800809
    115          0           0        3.060026    1.381230    1.661153
    116          0           0        3.316814    1.523507    0.705216
    117          0           0        3.188420    1.452368    1.183184
    118          0           0        3.159050    1.537123    1.292519
    119          0           0        3.210408    1.565579    1.101331
    120          0           0        3.133371    1.522896    1.388112
    121          0           0        3.236087    1.579806    1.005737
    122          0           0        3.107692    1.508668    1.483706
    123          0           0        3.261766    1.594034    0.910144
    124          0           0        3.082013    1.494440    1.579300
    125          0           0        3.287444    1.608262    0.814550
    126          0           0        3.056335    1.480213    1.674894
    127          0           0        3.313123    1.622489    0.718956
    128          0           0        3.184729    1.551351    1.196925
    129          0           0        3.155359    1.636106    1.306259
    130          0           0        3.206717    1.664561    1.115072
    131          0           0        3.129680    1.621878    1.401853
    132          0           0        3.232396    1.678789    1.019478
    133          0           0        3.104001    1.607651    1.497447
    134          0           0        3.258074    1.693017    0.923884
    135          0           0        3.078322    1.593423    1.593041
    136          0           0        3.283753    1.707244    0.828290
    137          0           0        3.052644    1.579195    1.688634
    138          0           0        3.309432    1.721472    0.732697
    139          0           0        3.181038    1.650334    1.210665
    140          0           0        3.151668    1.735089    1.320000
    141          0           0        3.203026    1.763544    1.128812
    142          0           0        3.125989    1.720861    1.415594
    143          0           0        3.228705    1.777772    1.033218
    144          0           0        3.100310    1.706634    1.511187
    145          0           0        3.254383    1.791999    0.937625
    146          0           0        3.074631    1.692406    1.606781
    147          0           0        3.280062    1.806227    0.842031
    148          0           0        3.048953    1.678178    1.702375
    149          0           0        3.305741    1.820455    0.746437
    150          0           0        3.177347    1.749316    1.224406
    151          0           0        3.147977    1.834072    1.333740
    152          0           0        3.199335    1.862527    1.142553
    153          0           0        3.122298    1.819844    1.429334
    154          0           0        3.225014    1.876754    1.046959
    155          0           0        3.096619    1.805616    1.524928
    156          0           0        3.250692    1.890982    0.951365
    157          0           0        3.070940    1.791389    1.620522
    158          0           0        3.276371    1.905210    0.855771
    159          0           0        3.045261    1.777161    1.716115
    160          0           0        3.302050    1.919437    0.760178
    161          0           0        3.173656    1.848299    1.238147
    162          0           0        3.144286    1.933054    1.347481
    163          0           0        3.195644    1.961510    1.156293
    164          0           0        3.118607    1.918827    1.443075
    165          0           0        3.221322    1.975737    1.060700
    166          0           0        3.092928    1.904599    1.538668
    167          0           0        3.247001    1.989965    0.965106
    168          0           0        3.067249    1.890371    1.634262
    169          0           0        3.272680    2.004193    0.869512
    170          0           0        3.041570    1.876144    1.729856
    171          0           0        3.298359    2.018420    0.773918
    172          0           0        3.169965    1.947282    1.251887
    173          0           0        3.140595    2.032037    1.361221
    174          0           0        3.191953    2.060492    1.170034
    175          0           0        3.114916    2.017809    1.456815
    176          0           0        3.217631    2.074720    1.074440
    177          0           0        3.089237    2.003582    1.552409
    178          0           0        3.243310    2.088948    0.978846
    179          0           0        3.063558    1.989354    1.648003
    180          0           0        3.268989    2.103175    0.883253
    181          0           0        3.037879    1.975126    1.743596
    182          0           0        3.294668    2.117403    0.787659
    183          0           0        3.166274    2.046265    1.265628
    184          0           0        3.136904    2.131020    1.374962
    185          0           0        3.188262    2.159475    1.183774
    186          0           0        3.111225    2.116792    1.470556
    187          0           0        3.213940    2.173703    1.088181
    188          0           0        3.085546    2.102564    1.566149
    189          0           0        3.239619    2.187930    0.992587
    190          0           0        3.059867    2.088337    1.661743
    191          0           0        3.265298    2.202158    0.896993
    192          0           0        3.034188    2.074109    1.757337
    193          0           0        3.290977    2.216386    0.801399
    194          0           0        3.162583    2.145247    1.279368
    195          0           0        3.418033   -2.818115    0.713878
    196          0           0        3.469390   -2.789660    0.522690
    197          0           0        3.392354   -2.832343    0.809472
    198          0           0        3.495069   -2.775432    0.427096
    199          0           0        3.366675   -2.846570    0.905065
    200          0           0        3.520748   -2.761204    0.331503
    201          0           0        3.340996   -2.860798    1.000659
    202          0           0        3.546427   -2.746977    0.235909
    203          0           0        3.315317   -2.875026    1.096253
    204          0           0        3.572106   -2.732749    0.140315
    205          0           0        3.443711   -2.803887    0.618284
    206          0           0        3.414342   -2.719132    0.727618
    207          0           0        3.465699   -2.690677    0.536431
    208          0           0        3.388663   -2.733360    0.823212
    209          0           0        3.491378   -2.676449    0.440837
    210          0           0        3.362984   -2.747588    0.918806
    211          0           0        3.517057   -2.662222    0.345243
    212          0           0        3.337305   -2.761815    1.014400
    213          0           0        3.542736   -2.647994    0.249649
    214          0           0        3.311626   -2.776043    1.109993
    215          0           0        3.568415   -2.633766    0.154056
    216          0           0        3.440020   -2.704905    0.632025
    217          0           0        3.410650   -2.620150    0.741359
    218          0           0        3.462008   -2.591694    0.550171
    219          0           0        3.384972   -2.634377    0.836953
    220          0           0        3.487687   -2.577467    0.454577
    221          0           0        3.359293   -2.648605    0.932546
    222          0           0        3.513366   -2.563239    0.358984
    223          0           0        3.333614   -2.662833    1.028140
    224          0           0        3.539045   -2.549011    0.263390
    225          0           0        3.307935   -2.677060    1.123734
    226          0           0        3.564724   -2.534784    0.167796
    227          0           0        3.436329   -2.605922    0.645765
    228          0           0        3.406959   -2.521167    0.755099
    229          0           0        3.458317   -2.492712    0.563912
    230          0           0        3.381281   -2.535395    0.850693
    231          0           0        3.483996   -2.478484    0.468318
    232          0           0        3.355602   -2.549622    0.946287
    233          0           0        3.509675   -2.464256    0.372724
    234          0           0        3.329923   -2.563850    1.041881
    235          0           0        3.535354   -2.450029    0.277130
    236          0           0        3.304244   -2.578078    1.137474
 ---------------------------------------------------------------------
 Rotational constants (GHZ):      0.4529074      0.2836956      0.1879557
 Standard basis: 6-311+G(d,p) (5D, 7F)
 Warning:  center  37 has no basis functions!
 Warning:  center  38 has no basis functions!
 Warning:  center  39 has no basis functions!
 Warning:  center  40 has no basis functions!
 Warning:  center  41 has no basis functions!
 Warning:  center  42 has no basis functions!
 Warning:  center  43 has no basis functions!
 Warning:  center  44 has no basis functions!
 Warning:  center  45 has no basis functions!
 Warning:  center  46 has no basis functions!
 Warning:  center  47 has no basis functions!
 Warning:  center  48 has no basis functions!
 Warning:  center  49 has no basis functions!
 Warning:  center  50 has no basis functions!
 Warning:  center  51 has no basis functions!
 Warning:  center  52 has no basis functions!
 Warning:  center  53 has no basis functions!
 Warning:  center  54 has no basis functions!
 Warning:  center  55 has no basis functions!
 Warning:  center  56 has no basis functions!
 Warning:  center  57 has no basis functions!
 Warning:  center  58 has no basis functions!
 Warning:  center  59 has no basis functions!
 Warning:  center  60 has no basis functions!
 Warning:  center  61 has no basis functions!
 Warning:  center  62 has no basis functions!
 Warning:  center  63 has no basis functions!
 Warning:  center  64 has no basis functions!
 Warning:  center  65 has no basis functions!
 Warning:  center  66 has no basis functions!
 Warning:  center  67 has no basis functions!
 Warning:  center  68 has no basis functions!
 Warning:  center  69 has no basis functions!
 Warning:  center  70 has no basis functions!
 Warning:  center  71 has no basis functions!
 Warning:  center  72 has no basis functions!
 Warning:  center  73 has no basis functions!
 Warning:  center  74 has no basis functions!
 Warning:  center  75 has no basis functions!
 Warning:  center  76 has no basis functions!
 Warning:  center  77 has no basis functions!
 Warning:  center  78 has no basis functions!
 Warning:  center  79 has no basis functions!
 Warning:  center  80 has no basis functions!
 Warning:  center  81 has no basis functions!
 Warning:  center  82 has no basis functions!
 Warning:  center  83 has no basis functions!
 Warning:  center  84 has no basis functions!
 Warning:  center  85 has no basis functions!
 Warning:  center  86 has no basis functions!
 Warning:  center  87 has no basis functions!
 Warning:  center  88 has no basis functions!
 Warning:  center  89 has no basis functions!
 Warning:  center  90 has no basis functions!
 Warning:  center  91 has no basis functions!
 Warning:  center  92 has no basis functions!
 Warning:  center  93 has no basis functions!
 Warning:  center  94 has no basis functions!
 Warning:  center  95 has no basis functions!
 Warning:  center  96 has no basis functions!
 Warning:  center  97 has no basis functions!
 Warning:  center  98 has no basis functions!
 Warning:  center  99 has no basis functions!
 Warning:  center 100 has no basis functions!
 Warning:  center 101 has no basis functions!
 Warning:  center 102 has no basis functions!
 Warning:  center 103 has no basis functions!
 Warning:  center 104 has no basis functions!
 Warning:  center 105 has no basis functions!
 Warning:  center 106 has no basis functions!
 Warning:  center 107 has no basis functions!
 Warning:  center 108 has no basis functions!
 Warning:  center 109 has no basis functions!
 Warning:  center 110 has no basis functions!
 Warning:  center 111 has no basis functions!
 Warning:  center 112 has no basis functions!
 Warning:  center 113 has no basis functions!
 Warning:  center 114 has no basis functions!
 Warning:  center 115 has no basis functions!
 Warning:  center 116 has no basis functions!
 Warning:  center 117 has no basis functions!
 Warning:  center 118 has no basis functions!
 Warning:  center 119 has no basis functions!
 Warning:  center 120 has no basis functions!
 Warning:  center 121 has no basis functions!
 Warning:  center 122 has no basis functions!
 Warning:  center 123 has no basis functions!
 Warning:  center 124 has no basis functions!
 Warning:  center 125 has no basis functions!
 Warning:  center 126 has no basis functions!
 Warning:  center 127 has no basis functions!
 Warning:  center 128 has no basis functions!
 Warning:  center 129 has no basis functions!
 Warning:  center 130 has no basis functions!
 Warning:  center 131 has no basis functions!
 Warning:  center 132 has no basis functions!
 Warning:  center 133 has no basis functions!
 Warning:  center 134 has no basis functions!
 Warning:  center 135 has no basis functions!
 Warning:  center 136 has no basis functions!
 Warning:  center 137 has no basis functions!
 Warning:  center 138 has no basis functions!
 Warning:  center 139 has no basis functions!
 Warning:  center 140 has no basis functions!
 Warning:  center 141 has no basis functions!
 Warning:  center 142 has no basis functions!
 Warning:  center 143 has no basis functions!
 Warning:  center 144 has no basis functions!
 Warning:  center 145 has no basis functions!
 Warning:  center 146 has no basis functions!
 Warning:  center 147 has no basis functions!
 Warning:  center 148 has no basis functions!
 Warning:  center 149 has no basis functions!
 Warning:  center 150 has no basis functions!
 Warning:  center 151 has no basis functions!
 Warning:  center 152 has no basis functions!
 Warning:  center 153 has no basis functions!
 Warning:  center 154 has no basis functions!
 Warning:  center 155 has no basis functions!
 Warning:  center 156 has no basis functions!
 Warning:  center 157 has no basis functions!
 Warning:  center 158 has no basis functions!
 Warning:  center 159 has no basis functions!
 Warning:  center 160 has no basis functions!
 Warning:  center 161 has no basis functions!
 Warning:  center 162 has no basis functions!
 Warning:  center 163 has no basis functions!
 Warning:  center 164 has no basis functions!
 Warning:  center 165 has no basis functions!
 Warning:  center 166 has no basis functions!
 Warning:  center 167 has no basis functions!
 Warning:  center 168 has no basis functions!
 Warning:  center 169 has no basis functions!
 Warning:  center 170 has no basis functions!
 Warning:  center 171 has no basis functions!
 Warning:  center 172 has no basis functions!
 Warning:  center 173 has no basis functions!
 Warning:  center 174 has no basis functions!
 Warning:  center 175 has no basis functions!
 Warning:  center 176 has no basis functions!
 Warning:  center 177 has no basis functions!
 Warning:  center 178 has no basis functions!
 Warning:  center 179 has no basis functions!
 Warning:  center 180 has no basis functions!
 Warning:  center 181 has no basis functions!
 Warning:  center 182 has no basis functions!
 Warning:  center 183 has no basis functions!
 Warning:  center 184 has no basis functions!
 Warning:  center 185 has no basis functions!
 Warning:  center 186 has no basis functions!
 Warning:  center 187 has no basis functions!
 Warning:  center 188 has no basis functions!
 Warning:  center 189 has no basis functions!
 Warning:  center 190 has no basis functions!
 Warning:  center 191 has no basis functions!
 Warning:  center 192 has no basis functions!
 Warning:  center 193 has no basis functions!
 Warning:  center 194 has no basis functions!
 Warning:  center 195 has no basis functions!
 Warning:  center 196 has no basis functions!
 Warning:  center 197 has no basis functions!
 Warning:  center 198 has no basis functions!
 Warning:  center 199 has no basis functions!
 Warning:  center 200 has no basis functions!
 Warning:  center 201 has no basis functions!
 Warning:  center 202 has no basis functions!
 Warning:  center 203 has no basis functions!
 Warning:  center 204 has no basis functions!
 Warning:  center 205 has no basis functions!
 Warning:  center 206 has no basis functions!
 Warning:  center 207 has no basis functions!
 Warning:  center 208 has no basis functions!
 Warning:  center 209 has no basis functions!
 Warning:  center 210 has no basis functions!
 Warning:  center 211 has no basis functions!
 Warning:  center 212 has no basis functions!
 Warning:  center 213 has no basis functions!
 Warning:  center 214 has no basis functions!
 Warning:  center 215 has no basis functions!
 Warning:  center 216 has no basis functions!
 Warning:  center 217 has no basis functions!
 Warning:  center 218 has no basis functions!
 Warning:  center 219 has no basis functions!
 Warning:  center 220 has no basis functions!
 Warning:  center 221 has no basis functions!
 Warning:  center 222 has no basis functions!
 Warning:  center 223 has no basis functions!
 Warning:  center 224 has no basis functions!
 Warning:  center 225 has no basis functions!
 Warning:  center 226 has no basis functions!
 Warning:  center 227 has no basis functions!
 Warning:  center 228 has no basis functions!
 Warning:  center 229 has no basis functions!
 Warning:  center 230 has no basis functions!
 Warning:  center 231 has no basis functions!
 Warning:  center 232 has no basis functions!
 Warning:  center 233 has no basis functions!
 Warning:  center 234 has no basis functions!
 Warning:  center 235 has no basis functions!
 Warning:  center 236 has no basis functions!
   568 basis functions,   904 primitive gaussians,   590 cartesian basis functions
    73 alpha electrons       73 beta electrons
       nuclear repulsion energy      1610.9176155625 Hartrees.
 NAtoms=  236 NActive=  236 NUniq=  236 SFac= 1.00D+00 NAtFMM=   60 NAOKFM=T Big=T
 Integral buffers will be    131072 words long.
 Raffenetti 2 integral format.
 Two-electron integral symmetry is turned off.
 One-electron integrals computed using PRISM.
 NBasis=   568 RedAO= T EigKep=  1.78D-06  NBF=   568
 NBsUse=   556 1.00D-06 EigRej=  9.09D-07 NBFU=   556
 ExpMin= 4.38D-02 ExpMax= 4.56D+03 ExpMxC= 6.82D+02 IAcc=2 IRadAn=         4 AccDes= 0.00D+00
 Harris functional with IExCor=  402 and IRadAn=       4 diagonalized for initial guess.
 HarFok:  IExCor=  402 AccDes= 0.00D+00 IRadAn=         4 IDoV= 1 UseB2=F ITyADJ=14
 ICtDFT=  3500011 ScaDFX=  1.000000  1.000000  1.000000  1.000000
 FoFCou: FMM=F IPFlag=           0 FMFlag=      100000 FMFlg1=        2001
         NFxFlg=           0 DoJE=T BraDBF=F KetDBF=T FulRan=T
         wScrn=  0.000000 ICntrl=     500 IOpCl=  0 I1Cent=   200000004 NGrid=           0
         NMat0=    1 NMatS0=      1 NMatT0=    0 NMatD0=    1 NMtDS0=    0 NMtDT0=    0
 Symmetry not used in FoFCou.
 Requested convergence on RMS density matrix=1.00D-08 within 128 cycles.
 Requested convergence on MAX density matrix=1.00D-06.
 Requested convergence on             energy=1.00D-06.
 No special actions if energy rises.
 SCF Done:  E(RB3LYP) =  -847.003289847     A.U. after   15 cycles
            NFock= 15  Conv=0.75D-08     -V/T= 2.0040
 DoSCS=F DFT=T ScalE2(SS,OS)=  1.000000  1.000000
 Range of M.O.s used for correlation:     1   556
 NBasis=   568 NAE=    73 NBE=    73 NFC=     0 NFV=     0
 NROrb=    556 NOA=    73 NOB=    73 NVA=   483 NVB=   483

 **** Warning!!: The largest alpha MO coefficient is  0.10971037D+03

          Differentiating once with respect to magnetic field using GIAOs.
          Electric field/nuclear overlap derivatives assumed to be zero.
 FoFCou: FMM=F IPFlag=           0 FMFlag=      100000 FMFlg1=        2001
         NFxFlg=           0 DoJE=F BraDBF=F KetDBF=T FulRan=T
         wScrn=  0.000000 ICntrl=    6100 IOpCl=  0 I1Cent=           7 NGrid=         236
         NMat0=    1 NMatS0=      1 NMatT0=    0 NMatD0=    1 NMtDS0=    0 NMtDT0=    0
 Symmetry not used in FoFCou.
 FoFJK:  IHMeth= 1 ICntrl=    6127 DoSepK=F KAlg= 0 I1Cent=   0 FoldK=F
 IRaf=         1 NMat=   1 IRICut=       1 DoRegI=T DoRafI=F ISym2E= 0.
          There are     3 degrees of freedom in the 1st order CPHF.  IDoFFX=0 NUNeed=     3.
      3 vectors produced by pass  0 Test12= 1.18D-12 3.33D-08 XBig12= 2.07D+03 9.18D+00.
 AX will form     3 AO Fock derivatives at one time.
      3 vectors produced by pass  1 Test12= 1.18D-12 3.33D-08 XBig12= 3.56D+00 8.03D-01.
      3 vectors produced by pass  2 Test12= 1.18D-12 3.33D-08 XBig12= 2.10D-02 6.92D-02.
      3 vectors produced by pass  3 Test12= 1.18D-12 3.33D-08 XBig12= 5.45D-05 1.89D-03.
      3 vectors produced by pass  4 Test12= 1.18D-12 3.33D-08 XBig12= 1.20D-07 7.79D-05.
      3 vectors produced by pass  5 Test12= 1.18D-12 3.33D-08 XBig12= 4.02D-10 4.73D-06.
      3 vectors produced by pass  6 Test12= 1.18D-12 3.33D-08 XBig12= 1.32D-12 2.61D-07.
 InvSVY:  IOpt=1 It=  1 EMax= 7.11D-15
 Solved reduced A of dimension    21 with     3 vectors.
 Calculating GIAO nuclear magnetic shielding tensors.
 SCF GIAO Magnetic shielding tensor (ppm):
      1  C    Isotropic =    53.8139   Anisotropy =   178.0260
   XX=   -41.4327   YX=   -32.3458   ZX=    10.0287
   XY=   -28.3572   YY=    59.0527   ZY=    55.1899
   XZ=    13.1759   YZ=    58.7550   ZZ=   143.8218
   Eigenvalues:   -53.8775    42.8214   172.4979
      2  H    Isotropic =    24.3095   Anisotropy =     4.8536
   XX=    25.5771   YX=    -1.0289   ZX=     0.5661
   XY=    -0.7431   YY=    26.1829   ZY=    -2.3306
   XZ=    -0.1707   YZ=    -2.4411   ZZ=    21.1687
   Eigenvalues:    20.2108    25.1725    27.5453
      3  C    Isotropic =    51.4055   Anisotropy =   157.8639
   XX=   -31.5399   YX=    38.5015   ZX=   -17.9316
   XY=    34.3519   YY=    49.9437   ZY=    49.6392
   XZ=    -9.8383   YZ=    44.6006   ZZ=   135.8127
   Eigenvalues:   -50.5747    48.1432   156.6481
      4  H    Isotropic =    23.8290   Anisotropy =     7.1838
   XX=    25.3635   YX=     1.8486   ZX=    -0.3559
   XY=     1.9656   YY=    26.4581   ZY=    -2.4103
   XZ=    -1.2941   YZ=    -2.6614   ZZ=    19.6654
   Eigenvalues:    18.8176    24.0511    28.6182
      5  C    Isotropic =    46.0697   Anisotropy =   207.6751
   XX=   -19.2123   YX=    -4.8852   ZX=    -1.6475
   XY=     2.8938   YY=    -2.9860   ZY=    66.5656
   XZ=     2.5356   YZ=    67.9144   ZZ=   160.4073
   Eigenvalues:   -27.2455   -19.0652   184.5197
      6  C    Isotropic =    47.5218   Anisotropy =   196.9389
   XX=   -28.1552   YX=    -2.7889   ZX=    12.0660
   XY=   -14.3886   YY=    21.2063   ZY=    74.2521
   XZ=   -18.6356   YZ=    61.1113   ZZ=   149.5144
   Eigenvalues:   -30.2925    -5.9564   178.8144
      7  C    Isotropic =    49.3915   Anisotropy =   179.8333
   XX=   -12.5211   YX=    28.7048   ZX=   -24.6745
   XY=    31.5123   YY=    29.7000   ZY=    77.7459
   XZ=   -40.0095   YZ=    65.3072   ZZ=   130.9956
   Eigenvalues:   -52.1299    31.0240   169.2804
      8  H    Isotropic =    23.1586   Anisotropy =    13.5525
   XX=    28.5711   YX=     1.5482   ZX=    -3.6986
   XY=     3.2466   YY=    22.7592   ZY=    -2.1157
   XZ=    -8.3753   YZ=    -1.0821   ZZ=    18.1456
   Eigenvalues:    15.3521    21.9301    32.1936
      9  C    Isotropic =    55.1460   Anisotropy =   174.7426
   XX=    46.7071   YX=    -2.6162   ZX=    -2.8420
   XY=     0.6223   YY=    -1.6258   ZY=    92.8272
   XZ=     0.5159   YZ=    95.6598   ZZ=   120.3568
   Eigenvalues:   -52.8932    46.6901   171.6411
     10  H    Isotropic =    24.6278   Anisotropy =     7.1815
   XX=    29.1040   YX=     0.1399   ZX=    -0.3694
   XY=     0.3642   YY=    23.4778   ZY=    -1.0805
   XZ=    -2.4493   YZ=    -2.9465   ZZ=    21.3016
   Eigenvalues:    19.9703    24.4977    29.4155
     11  C    Isotropic =    51.5607   Anisotropy =   151.2142
   XX=     2.1639   YX=    40.9287   ZX=   -26.0048
   XY=    49.9131   YY=    12.2331   ZY=    42.1342
   XZ=   -15.6145   YZ=    38.6614   ZZ=   140.2851
   Eigenvalues:   -48.1951    50.5071   152.3701
     12  H    Isotropic =    23.8537   Anisotropy =     7.3815
   XX=    25.9672   YX=     2.3738   ZX=    -0.2390
   XY=     2.4320   YY=    26.3975   ZY=    -1.8291
   XZ=     0.3529   YZ=    -1.7731   ZZ=    19.1964
   Eigenvalues:    18.7149    24.0714    28.7747
     13  C    Isotropic =    52.8653   Anisotropy =   147.4265
   XX=    51.2944   YX=    19.9221   ZX=   -13.4678
   XY=    11.5478   YY=   -34.0176   ZY=    42.5079
   XZ=    -9.2241   YZ=    40.0716   ZZ=   141.3192
   Eigenvalues:   -46.5152    53.9616   151.1497
     14  H    Isotropic =    24.0156   Anisotropy =     7.3485
   XX=    28.6644   YX=     0.6281   ZX=     1.0808
   XY=     0.5926   YY=    24.4325   ZY=    -1.0823
   XZ=     1.6846   YZ=    -0.3842   ZZ=    18.9500
   Eigenvalues:    18.6430    24.4892    28.9146
     15  C    Isotropic =    46.2221   Anisotropy =   203.9048
   XX=   -27.2215   YX=    -0.0442   ZX=   -28.9124
   XY=     4.6427   YY=   -10.5571   ZY=    28.3830
   XZ=   -10.2704   YZ=    26.7376   ZZ=   176.4448
   Eigenvalues:   -30.5512   -12.9411   182.1586
     16  C    Isotropic =    51.9375   Anisotropy =   188.2004
   XX=   -19.4441   YX=     5.5046   ZX=    15.7858
   XY=    -8.3874   YY=     2.4863   ZY=    22.9264
   XZ=   -50.6243   YZ=    23.3340   ZZ=   172.7704
   Eigenvalues:   -21.0294    -0.5625   177.4045
     17  C    Isotropic =    51.9482   Anisotropy =   149.1264
   XX=    50.7296   YX=   -23.9353   ZX=   -18.4207
   XY=   -16.7271   YY=   -41.8764   ZY=    17.8662
   XZ=   -14.3278   YZ=    11.4871   ZZ=   146.9915
   Eigenvalues:   -46.7796    51.2584   151.3658
     18  H    Isotropic =    24.0122   Anisotropy =     7.5163
   XX=    28.5811   YX=    -0.0866   ZX=     1.5071
   XY=    -0.2466   YY=    24.3342   ZY=    -0.7657
   XZ=     2.5088   YZ=    -1.5208   ZZ=    19.1214
   Eigenvalues:    18.5094    24.5041    29.0231
     19  C    Isotropic =    51.7356   Anisotropy =   148.5924
   XX=     2.4559   YX=   -45.6913   ZX=   -31.2531
   XY=   -53.4448   YY=     7.4698   ZY=    -1.8888
   XZ=   -23.5601   YZ=    -1.2765   ZZ=   145.2810
   Eigenvalues:   -46.9894    51.3989   150.7972
     20  H    Isotropic =    23.9071   Anisotropy =     7.6651
   XX=    25.5796   YX=    -2.0226   ZX=     1.4905
   XY=    -1.9998   YY=    27.3706   ZY=    -0.5164
   XZ=     2.7276   YZ=    -1.1179   ZZ=    18.7711
   Eigenvalues:    18.1643    24.5398    29.0172
     21  C    Isotropic =    45.9767   Anisotropy =   203.9316
   XX=   -16.2108   YX=    13.1802   ZX=   -44.5913
   XY=     6.5714   YY=   -20.6329   ZY=     0.0949
   XZ=   -28.8984   YZ=   -13.0883   ZZ=   174.7736
   Eigenvalues:   -30.5796   -13.4215   181.9311
     22  C    Isotropic =    52.0450   Anisotropy =   188.1157
   XX=    -0.0787   YX=     2.5023   ZX=   -16.3451
   XY=    18.9327   YY=   -14.4798   ZY=   -34.4335
   XZ=   -50.6032   YZ=    19.9104   ZZ=   170.6934
   Eigenvalues:   -20.7705    -0.5500   177.4554
     23  C    Isotropic =    53.2392   Anisotropy =   146.7412
   XX=   -22.0674   YX=   -32.0012   ZX=   -49.4857
   XY=   -23.2043   YY=    44.3661   ZY=   -15.6400
   XZ=   -43.8090   YZ=   -20.2525   ZZ=   137.4189
   Eigenvalues:   -45.6776    54.3286   151.0667
     24  H    Isotropic =    23.8249   Anisotropy =     7.5289
   XX=    25.1073   YX=    -1.7330   ZX=     1.5380
   XY=    -1.5944   YY=    28.0047   ZY=     0.0879
   XZ=     1.2557   YZ=    -0.8283   ZZ=    18.3628
   Eigenvalues:    18.0848    24.5458    28.8442
     25  C    Isotropic =    51.4969   Anisotropy =   150.1066
   XX=   -28.4915   YX=    33.9684   ZX=   -52.3137
   XY=    22.0311   YY=    46.6072   ZY=    -3.8075
   XZ=   -44.5594   YZ=   -10.6355   ZZ=   136.3748
   Eigenvalues:   -48.3857    51.3083   151.5679
     26  H    Isotropic =    23.7431   Anisotropy =     7.4052
   XX=    24.0663   YX=     1.1141   ZX=     1.9989
   XY=     0.9693   YY=    28.1000   ZY=     1.6568
   XZ=     2.0795   YZ=     0.8886   ZZ=    19.0630
   Eigenvalues:    18.2615    24.2880    28.6799
     27  C    Isotropic =    45.8108   Anisotropy =   207.2710
   XX=    -2.7702   YX=    13.7697   ZX=   -61.4651
   XY=     6.5593   YY=   -12.0335   ZY=   -41.6456
   XZ=   -62.6381   YZ=   -44.9232   ZZ=   152.2361
   Eigenvalues:   -28.0803   -18.4787   183.9915
     28  C    Isotropic =    47.8398   Anisotropy =   197.2870
   XX=    19.6900   YX=    14.4398   ZX=   -60.5682
   XY=    28.5650   YY=   -19.3566   ZY=   -56.7015
   XZ=   -63.1331   YZ=   -24.4782   ZZ=   143.1859
   Eigenvalues:   -30.5979    -5.2472   179.3644
     29  C    Isotropic =    49.3441   Anisotropy =   179.7793
   XX=    -3.4110   YX=    38.3775   ZX=   -80.8875
   XY=    36.1252   YY=    25.9805   ZY=   -23.7573
   XZ=   -78.1065   YZ=    -3.9802   ZZ=   125.4627
   Eigenvalues:   -51.6645    30.4997   169.1970
     30  H    Isotropic =    23.1387   Anisotropy =    13.3222
   XX=    22.4354   YX=    -0.7013   ZX=    -0.2375
   XY=    -2.1539   YY=    28.3546   ZY=     4.5555
   XZ=    -3.4181   YZ=     8.3231   ZZ=    18.6259
   Eigenvalues:    15.2751    22.1208    32.0201
     31  C    Isotropic =    55.4410   Anisotropy =   174.9390
   XX=    17.1871   YX=   -14.0890   ZX=   -84.0024
   XY=   -17.9030   YY=    37.4745   ZY=   -50.3662
   XZ=   -84.6557   YZ=   -54.8325   ZZ=   111.6615
   Eigenvalues:   -51.9248    46.1808   172.0670
     32  H    Isotropic =    24.5337   Anisotropy =     7.2554
   XX=    24.6185   YX=    -2.5264   ZX=     0.7632
   XY=    -2.7385   YY=    27.4630   ZY=     1.0335
   XZ=     1.1913   YZ=     3.7573   ZZ=    21.5194
   Eigenvalues:    19.8987    24.3316    29.3706
     33  C    Isotropic =    53.1814   Anisotropy =   179.0596
   XX=    60.9231   YX=    35.2256   ZX=   -42.9515
   XY=    32.0226   YY=   -38.1801   ZY=   -45.5652
   XZ=   -44.2248   YZ=   -50.7831   ZZ=   136.8014
   Eigenvalues:   -55.1197    42.1095   172.5545
     34  H    Isotropic =    24.2825   Anisotropy =     5.1861
   XX=    26.7643   YX=    -0.0934   ZX=     2.5955
   XY=    -0.2993   YY=    24.8157   ZY=     0.8589
   XZ=     2.3715   YZ=     1.4580   ZZ=    21.2676
   Eigenvalues:    20.0339    25.0737    27.7399
     35  C    Isotropic =    51.5295   Anisotropy =   155.1748
   XX=    -0.5131   YX=    52.5760   ZX=   -52.1551
   XY=    55.6135   YY=    25.1843   ZY=   -14.2643
   XZ=   -45.7255   YZ=   -17.1625   ZZ=   129.9171
   Eigenvalues:   -48.3147    47.9237   154.9793
     36  H    Isotropic =    23.8384   Anisotropy =     7.3073
   XX=    24.2302   YX=     1.4459   ZX=     2.1759
   XY=     1.2147   YY=    27.1572   ZY=     2.0665
   XZ=     1.6853   YZ=     2.7775   ZZ=    20.1277
   Eigenvalues:    18.9464    23.8588    28.7099
     37  Bq   Isotropic =     4.7079   Anisotropy =    19.4263
   XX=    15.6558   YX=     0.6739   ZX=     1.2853
   XY=     2.9138   YY=   -15.7702   ZY=   -13.4196
   XZ=     1.2920   YZ=    -7.0516   ZZ=    14.2380
   Eigenvalues:   -19.0553    15.5202    17.6587
     38  Bq   Isotropic =     8.7616   Anisotropy =    17.2236
   XX=     3.3903   YX=    -2.6786   ZX=    -2.1248
   XY=    -2.1269   YY=     4.2992   ZY=    -0.4562
   XZ=    11.2584   YZ=     6.8248   ZZ=    18.5952
   Eigenvalues:    -0.2379     6.2786    20.2440
     39  Bq   Isotropic =     1.3889   Anisotropy =    20.2423
   XX=    14.0779   YX=     0.7697   ZX=     0.2368
   XY=     0.8269   YY=   -23.0675   ZY=    -8.2377
   XZ=     0.4657   YZ=    -7.7555   ZZ=    13.1564
   Eigenvalues:   -24.7730    14.0560    14.8838
     40  Bq   Isotropic =    17.7117   Anisotropy =    11.5965
   XX=    18.6199   YX=    -1.9058   ZX=     1.6975
   XY=     1.1828   YY=    14.1235   ZY=    -6.6676
   XZ=     9.5815   YZ=     3.0688   ZZ=    20.3916
   Eigenvalues:    12.9589    14.7335    25.4426
     41  Bq   Isotropic =    14.1138   Anisotropy =    11.0162
   XX=    14.6131   YX=    -2.9559   ZX=     0.7557
   XY=     0.1759   YY=    11.4407   ZY=    -3.2505
   XZ=    11.1170   YZ=     6.5835   ZZ=    16.2876
   Eigenvalues:     8.0842    12.7992    21.4579
     42  Bq   Isotropic =    15.6951   Anisotropy =    13.3188
   XX=    21.3998   YX=    -1.8358   ZX=     2.4405
   XY=     2.7969   YY=    10.8724   ZY=    -7.8040
   XZ=     8.5209   YZ=     2.1075   ZZ=    14.8130
   Eigenvalues:     8.5093    14.0016    24.5743
     43  Bq   Isotropic =    12.4481   Anisotropy =    12.0468
   XX=    11.0352   YX=    -3.2203   ZX=    -0.0781
   XY=    -0.7856   YY=     9.7053   ZY=    -1.7603
   XZ=    11.7194   YZ=     7.6822   ZZ=    16.6039
   Eigenvalues:     5.0151    11.8500    20.4793
     44  Bq   Isotropic =    14.8965   Anisotropy =    16.2196
   XX=    23.6934   YX=    -1.1785   ZX=     2.9870
   XY=     3.9762   YY=     7.1235   ZY=   -10.0236
   XZ=     6.6781   YZ=    -0.9125   ZZ=    13.8726
   Eigenvalues:     3.4118    15.5682    25.7096
     45  Bq   Isotropic =    10.6616   Anisotropy =    13.6765
   XX=     7.7890   YX=    -3.2720   ZX=    -0.7756
   XY=    -1.4306   YY=     7.5726   ZY=    -0.8275
   XZ=    11.9421   YZ=     8.1288   ZZ=    16.6234
   Eigenvalues:     2.3150     9.8907    19.7793
     46  Bq   Isotropic =    13.0109   Anisotropy =    19.6661
   XX=    24.8749   YX=    -0.6699   ZX=     3.1960
   XY=     4.5304   YY=     1.1241   ZY=   -10.9522
   XZ=     4.8650   YZ=    -3.7861   ZZ=    13.0338
   Eigenvalues:    -2.8387    15.7498    26.1217
     47  Bq   Isotropic =     8.9619   Anisotropy =    15.1399
   XX=     5.0201   YX=    -3.1535   ZX=    -1.3090
   XY=    -1.7965   YY=     5.4666   ZY=    -0.3184
   XZ=    11.8848   YZ=     8.0931   ZZ=    16.3990
   Eigenvalues:     0.1302     7.7003    19.0552
     48  Bq   Isotropic =    10.7403   Anisotropy =    22.8553
   XX=    25.1633   YX=    -0.4032   ZX=     3.1412
   XY=     4.1458   YY=    -5.4026   ZY=    -9.5793
   XZ=     3.4919   YZ=    -5.9524   ZZ=    12.4602
   Eigenvalues:    -8.5605    14.8042    25.9771
     49  Bq   Isotropic =     7.4552   Anisotropy =    16.1839
   XX=     2.7635   YX=    -2.9190   ZX=    -1.6844
   XY=    -1.9446   YY=     3.6044   ZY=    -0.0920
   XZ=    11.6352   YZ=     7.7325   ZZ=    15.9978
   Eigenvalues:    -1.5262     5.6475    18.2445
     50  Bq   Isotropic =     9.2282   Anisotropy =    24.7868
   XX=    25.1381   YX=    -0.3036   ZX=     3.0253
   XY=     2.9281   YY=    -9.6662   ZY=    -5.7716
   XZ=     2.7437   YZ=    -7.1721   ZZ=    12.2126
   Eigenvalues:   -11.5499    13.4817    25.7527
     51  Bq   Isotropic =    15.3307   Anisotropy =    11.4466
   XX=    18.2186   YX=    -2.4739   ZX=     1.6429
   XY=     1.4227   YY=    12.1060   ZY=    -5.3362
   XZ=    10.0520   YZ=     4.7113   ZZ=    15.6675
   Eigenvalues:    10.9515    12.0789    22.9618
     52  Bq   Isotropic =    11.4752   Anisotropy =    10.8409
   XX=    13.0708   YX=    -3.4947   ZX=     1.0329
   XY=     0.0300   YY=     9.7734   ZY=    -1.9891
   XZ=    11.5344   YZ=     7.7773   ZZ=    11.5814
   Eigenvalues:     4.0652    11.6579    18.7025
     53  Bq   Isotropic =    13.2589   Anisotropy =    14.3478
   XX=    20.1338   YX=    -2.7849   ZX=     2.6290
   XY=     2.1774   YY=    10.2131   ZY=    -5.1181
   XZ=     9.3184   YZ=     3.9108   ZZ=     9.4297
   Eigenvalues:     6.7088    10.2437    22.8241
     54  Bq   Isotropic =    10.1033   Anisotropy =    11.4111
   XX=     9.6872   YX=    -3.6247   ZX=     0.2958
   XY=    -0.7901   YY=     8.2290   ZY=    -0.8929
   XZ=    12.0850   YZ=     8.6812   ZZ=    12.3936
   Eigenvalues:     1.8928    10.7063    17.7106
     55  Bq   Isotropic =    13.2848   Anisotropy =    17.6232
   XX=    23.1458   YX=    -2.3478   ZX=     3.3321
   XY=     3.1345   YY=     8.3288   ZY=    -6.5039
   XZ=     7.8363   YZ=     1.1724   ZZ=     8.3797
   Eigenvalues:     4.6089    10.2118    25.0336
     56  Bq   Isotropic =     8.6799   Anisotropy =    12.8127
   XX=     6.6917   YX=    -3.5874   ZX=    -0.3286
   XY=    -1.3563   YY=     6.4032   ZY=    -0.1908
   XZ=    12.2941   YZ=     8.9949   ZZ=    12.9450
   Eigenvalues:    -0.0879     8.9060    17.2218
     57  Bq   Isotropic =    12.7103   Anisotropy =    21.0870
   XX=    25.3783   YX=    -1.9894   ZX=     3.9004
   XY=     3.6496   YY=     5.1868   ZY=    -6.9833
   XZ=     6.4130   YZ=    -1.6407   ZZ=     7.5658
   Eigenvalues:     1.2737    10.0889    26.7683
     58  Bq   Isotropic =     7.3372   Anisotropy =    14.1888
   XX=     4.1667   YX=    -3.4127   ZX=    -0.8224
   XY=    -1.6862   YY=     4.6005   ZY=     0.1897
   XZ=    12.2334   YZ=     8.8619   ZZ=    13.2443
   Eigenvalues:    -1.7105     6.9256    16.7964
     59  Bq   Isotropic =    11.8388   Anisotropy =    23.9694
   XX=    26.6915   YX=    -1.7521   ZX=     4.3519
   XY=     3.5245   YY=     1.7791   ZY=    -6.0263
   XZ=     5.3096   YZ=    -4.0955   ZZ=     7.0457
   Eigenvalues:    -1.6839     9.3818    27.8184
     60  Bq   Isotropic =     6.1471   Anisotropy =    15.2289
   XX=     2.1206   YX=    -3.1429   ZX=    -1.1882
   XY=    -1.8238   YY=     2.9918   ZY=     0.3434
   XZ=    11.9774   YZ=     8.4232   ZZ=    13.3288
   Eigenvalues:    -2.9353     5.0768    16.2997
     61  Bq   Isotropic =    11.1375   Anisotropy =    25.5463
   XX=    27.1428   YX=    -1.5729   ZX=     4.7415
   XY=     2.7979   YY=    -0.4381   ZY=    -3.6423
   XZ=     4.6103   YZ=    -5.9431   ZZ=     6.7079
   Eigenvalues:    -3.0845     8.3287    28.1684
     62  Bq   Isotropic =    12.6016   Anisotropy =    11.8981
   XX=    16.6539   YX=    -3.1986   ZX=     1.8357
   XY=     1.0636   YY=    10.5966   ZY=    -3.4634
   XZ=    10.6011   YZ=     6.1817   ZZ=    10.5543
   Eigenvalues:     6.0312    11.2399    20.5337
     63  Bq   Isotropic =     8.8849   Anisotropy =    10.9181
   XX=    11.1458   YX=    -3.9996   ZX=     1.4477
   XY=    -0.3737   YY=     8.5267   ZY=    -0.6872
   XZ=    12.0136   YZ=     8.5773   ZZ=     6.9821
   Eigenvalues:    -0.2629    10.7539    16.1636
     64  Bq   Isotropic =    10.4269   Anisotropy =    14.7401
   XX=    17.5562   YX=    -3.6651   ZX=     2.9695
   XY=     1.1795   YY=     9.7945   ZY=    -2.6907
   XZ=    10.1757   YZ=     5.2515   ZZ=     3.9300
   Eigenvalues:     0.9663    10.0608    20.2536
     65  Bq   Isotropic =     7.8436   Anisotropy =    11.1028
   XX=     8.1495   YX=    -3.9956   ZX=     0.7714
   XY=    -0.9869   YY=     7.0818   ZY=     0.0362
   XZ=    12.4803   YZ=     9.3208   ZZ=     8.2994
   Eigenvalues:    -1.4562     9.7414    15.2454
     66  Bq   Isotropic =    10.7082   Anisotropy =    17.7229
   XX=    20.4452   YX=    -3.4122   ZX=     3.7374
   XY=     1.8542   YY=     9.1900   ZY=    -3.5424
   XZ=     8.9794   YZ=     2.8059   ZZ=     2.4893
   Eigenvalues:     0.4642     9.1368    22.5234
     67  Bq   Isotropic =     6.7810   Anisotropy =    12.2159
   XX=     5.5081   YX=    -3.8658   ZX=     0.1896
   XY=    -1.4151   YY=     5.4693   ZY=     0.4947
   XZ=    12.6456   YZ=     9.5337   ZZ=     9.3656
   Eigenvalues:    -2.6358     8.0538    14.9249
     68  Bq   Isotropic =    10.6318   Anisotropy =    20.6734
   XX=    22.7222   YX=    -3.1713   ZX=     4.4687
   XY=     2.2287   YY=     7.8679   ZY=    -3.8425
   XZ=     7.8259   YZ=     0.1449   ZZ=     1.3052
   Eigenvalues:    -0.6602     8.1415    24.4141
     69  Bq   Isotropic =     5.7813   Anisotropy =    13.4229
   XX=     3.2822   YX=    -3.6318   ZX=    -0.2862
   XY=    -1.6614   YY=     3.8984   ZY=     0.7243
   XZ=    12.5601   YZ=     9.3372   ZZ=    10.1634
   Eigenvalues:    -3.6340     6.2481    14.7299
     70  Bq   Isotropic =    10.3154   Anisotropy =    23.0111
   XX=    24.1628   YX=    -2.9511   ZX=     5.1506
   XY=     2.1890   YY=     6.3570   ZY=    -3.3291
   XZ=     6.8767   YZ=    -2.4246   ZZ=     0.4264
   Eigenvalues:    -1.9033     7.1933    25.6562
     71  Bq   Isotropic =     4.8930   Anisotropy =    14.3940
   XX=     1.4757   YX=    -3.3263   ZX=    -0.6566
   XY=    -1.7533   YY=     2.4943   ZY=     0.7859
   XZ=    12.2860   YZ=     8.8566   ZZ=    10.7090
   Eigenvalues:    -4.3853     4.5752    14.4890
     72  Bq   Isotropic =     9.9451   Anisotropy =    24.2401
   XX=    24.6802   YX=    -2.6989   ZX=     5.7678
   XY=     1.7597   YY=     5.3875   ZY=    -2.0428
   XZ=     6.1593   YZ=    -4.6859   ZZ=    -0.2323
   Eigenvalues:    -2.8231     6.5532    26.1052
     73  Bq   Isotropic =     9.7884   Anisotropy =    12.2755
   XX=    14.3576   YX=    -3.8791   ZX=     2.1930
   XY=     0.3829   YY=     9.5248   ZY=    -1.6448
   XZ=    11.2296   YZ=     7.2199   ZZ=     5.4829
   Eigenvalues:     0.6586    10.7346    17.9721
     74  Bq   Isotropic =     6.4924   Anisotropy =    11.0337
   XX=     9.0865   YX=    -4.3876   ZX=     1.9370
   XY=    -0.8761   YY=     7.6071   ZY=     0.4019
   XZ=    12.5188   YZ=     8.9245   ZZ=     2.7834
   Eigenvalues:    -4.3408     9.9697    13.8482
     75  Bq   Isotropic =     7.6003   Anisotropy =    14.7483
   XX=    14.4718   YX=    -4.3465   ZX=     3.3811
   XY=     0.1078   YY=     9.4508   ZY=    -0.8479
   XZ=    11.0261   YZ=     6.0067   ZZ=    -1.1218
   Eigenvalues:    -4.6569    10.0252    17.4325
     76  Bq   Isotropic =     5.7755   Anisotropy =    10.9729
   XX=     6.5565   YX=    -4.2732   ZX=     1.3002
   XY=    -1.2717   YY=     6.2201   ZY=     0.8409
   XZ=    12.8841   YZ=     9.5598   ZZ=     4.5499
   Eigenvalues:    -4.6681     8.9038    13.0908
     77  Bq   Isotropic =     7.8609   Anisotropy =    17.2857
   XX=    16.9084   YX=    -4.2314   ZX=     4.1477
   XY=     0.5197   YY=     9.6490   ZY=    -1.4029
   XZ=    10.0432   YZ=     3.8091   ZZ=    -2.9746
   Eigenvalues:    -5.4422     9.6402    19.3848
     78  Bq   Isotropic =     5.0460   Anisotropy =    11.8194
   XX=     4.3120   YX=    -4.0660   ZX=     0.7420
   XY=    -1.5425   YY=     4.7581   ZY=     1.1000
   XZ=    12.9850   YZ=     9.7171   ZZ=     6.0680
   Eigenvalues:    -5.0978     7.3103    12.9256
     79  Bq   Isotropic =     7.8965   Anisotropy =    19.6733
   XX=    18.8483   YX=    -4.0798   ZX=     4.9164
   XY=     0.7409   YY=     9.4100   ZY=    -1.6665
   XZ=     9.0631   YZ=     1.3269   ZZ=    -4.5688
   Eigenvalues:    -6.5015     9.1789    21.0120
     80  Bq   Isotropic =     4.3573   Anisotropy =    12.8252
   XX=     2.4076   YX=    -3.7831   ZX=     0.2704
   XY=    -1.6842   YY=     3.3613   ZY=     1.1991
   XZ=    12.8587   YZ=     9.5002   ZZ=     7.3029
   Eigenvalues:    -5.4938     5.6582    12.9074
     81  Bq   Isotropic =     7.7500   Anisotropy =    21.5137
   XX=    20.0929   YX=    -3.8822   ZX=     5.6614
   XY=     0.7133   YY=     8.9910   ZY=    -1.5108
   XZ=     8.1833   YZ=    -1.2190   ZZ=    -5.8339
   Eigenvalues:    -7.6199     8.7774    22.0924
     82  Bq   Isotropic =     3.7412   Anisotropy =    13.6871
   XX=     0.8517   YX=    -3.4502   ZX=    -0.1132
   XY=    -1.7124   YY=     2.1167   ZY=     1.1784
   XZ=    12.5566   YZ=     9.0205   ZZ=     8.2551
   Eigenvalues:    -5.7824     4.1401    12.8659
     83  Bq   Isotropic =     7.4978   Anisotropy =    22.4849
   XX=    20.5467   YX=    -3.5958   ZX=     6.3401
   XY=     0.4589   YY=     8.7408   ZY=    -0.9658
   XZ=     7.4050   YZ=    -3.6422   ZZ=    -6.7943
   Eigenvalues:    -8.6296     8.6352    22.4877
     84  Bq   Isotropic =     7.1256   Anisotropy =    12.4797
   XX=    11.7859   YX=    -4.4070   ZX=     2.6372
   XY=    -0.3918   YY=     8.7410   ZY=    -0.1920
   XZ=    11.8843   YZ=     7.7414   ZZ=     0.8499
   Eigenvalues:    -4.2915    10.2229    15.4454
     85  Bq   Isotropic =     4.4040   Anisotropy =    11.1404
   XX=     7.1025   YX=    -4.6173   ZX=     2.4481
   XY=    -1.3567   YY=     6.9048   ZY=     1.1721
   XZ=    13.0020   YZ=     8.8438   ZZ=    -0.7953
   Eigenvalues:    -7.8296     9.2107    11.8309
     86  Bq   Isotropic =     5.0471   Anisotropy =    14.7724
   XX=    11.4347   YX=    -4.7824   ZX=     3.8105
   XY=    -0.8507   YY=     9.0731   ZY=     0.3688
   XZ=    11.8043   YZ=     6.2246   ZZ=    -5.3664
   Eigenvalues:    -9.3502     9.5962    14.8954
     87  Bq   Isotropic =     3.9761   Anisotropy =    10.9126
   XX=     5.0339   YX=    -4.4247   ZX=     1.8393
   XY=    -1.5567   YY=     5.5710   ZY=     1.4257
   XZ=    13.2643   YZ=     9.4184   ZZ=     1.3233
   Eigenvalues:    -7.4735     8.1506    11.2511
     88  Bq   Isotropic =     5.1857   Anisotropy =    16.9698
   XX=    13.3699   YX=    -4.7642   ZX=     4.5380
   XY=    -0.6527   YY=     9.7266   ZY=    -0.0390
   XZ=    10.9752   YZ=     4.2375   ZZ=    -7.5395
   Eigenvalues:   -10.5050     9.5631    16.4989
     89  Bq   Isotropic =     3.5341   Anisotropy =    11.5437
   XX=     3.1780   YX=    -4.1637   ZX=     1.2940
   XY=    -1.6787   YY=     4.2262   ZY=     1.5497
   XZ=    13.2930   YZ=     9.5637   ZZ=     3.1982
   Eigenvalues:    -7.2812     6.6537    11.2299
     90  Bq   Isotropic =     5.1814   Anisotropy =    18.9527
   XX=    14.9056   YX=    -4.6802   ZX=     5.2745
   XY=    -0.5651   YY=    10.0871   ZY=    -0.3207
   XZ=    10.1014   YZ=     1.9502   ZZ=    -9.4484
   Eigenvalues:   -11.7776     9.5053    17.8166
     91  Bq   Isotropic =     3.1111   Anisotropy =    12.3574
   XX=     1.5866   YX=    -3.8497   ZX=     0.8195
   XY=    -1.7164   YY=     2.9642   ZY=     1.5587
   XZ=    13.1180   YZ=     9.3686   ZZ=     4.7824
   Eigenvalues:    -7.1585     5.1424    11.3494
     92  Bq   Isotropic =     5.0519   Anisotropy =    20.4692
   XX=    15.8961   YX=    -4.5122   ZX=     5.9914
   XY=    -0.6114   YY=    10.2623   ZY=    -0.4099
   XZ=     9.2423   YZ=    -0.4691   ZZ=   -11.0026
   Eigenvalues:   -13.0119     9.4696    18.6981
     93  Bq   Isotropic =     2.7274   Anisotropy =    13.0984
   XX=     0.2734   YX=    -3.5032   ZX=     0.4187
   XY=    -1.6778   YY=     1.8444   ZY=     1.4820
   XZ=    12.7827   YZ=     8.9308   ZZ=     6.0644
   Eigenvalues:    -7.0393     3.7619    11.4596
     94  Bq   Isotropic =     4.8333   Anisotropy =    21.3266
   XX=    16.2737   YX=    -4.2261   ZX=     6.6407
   XY=    -0.7698   YY=    10.4068   ZY=    -0.3188
   XZ=     8.3903   YZ=    -2.8598   ZZ=   -12.1806
   Eigenvalues:   -14.0802     9.5290    19.0511
     95  Bq   Isotropic =     4.7757   Anisotropy =    12.6591
   XX=     9.2851   YX=    -4.7356   ZX=     3.1093
   XY=    -1.1055   YY=     8.1100   ZY=     0.8023
   XZ=    12.5036   YZ=     7.7812   ZZ=    -3.0681
   Eigenvalues:    -8.4419     9.5537    13.2151
     96  Bq   Isotropic =     2.6800   Anisotropy =    11.2840
   XX=     5.3334   YX=    -4.6758   ZX=     2.9405
   XY=    -1.7380   YY=     6.3336   ZY=     1.6168
   XZ=    13.4240   YZ=     8.4098   ZZ=    -3.6270
   Eigenvalues:   -10.5686     8.4059    10.2026
     97  Bq   Isotropic =     2.9132   Anisotropy =    15.0610
   XX=     8.7497   YX=    -4.9668   ZX=     4.2209
   XY=    -1.5992   YY=     8.6219   ZY=     1.0496
   XZ=    12.4662   YZ=     6.0182   ZZ=    -8.6321
   Eigenvalues:   -12.9351     8.7208    12.9538
     98  Bq   Isotropic =     2.4886   Anisotropy =    10.8741
   XX=     3.6722   YX=    -4.4382   ZX=     2.3539
   XY=    -1.7805   YY=     5.0651   ZY=     1.7681
   XZ=    13.5924   YZ=     8.9594   ZZ=    -1.2715
   Eigenvalues:    -9.7199     7.4477     9.7380
     99  Bq   Isotropic =     2.9148   Anisotropy =    17.1132
   XX=    10.2539   YX=    -5.0105   ZX=     4.8922
   XY=    -1.5615   YY=     9.4989   ZY=     0.7091
   XZ=    11.7468   YZ=     4.2222   ZZ=   -11.0084
   Eigenvalues:   -14.3656     8.7865    14.3236
    100  Bq   Isotropic =     2.2787   Anisotropy =    11.3338
   XX=     2.1633   YX=    -4.1502   ZX=     1.8166
   XY=    -1.7786   YY=     3.8230   ZY=     1.8183
   XZ=    13.5512   YZ=     9.1277   ZZ=     0.8497
   Eigenvalues:    -9.0614     6.0629     9.8345
    101  Bq   Isotropic =     2.8304   Anisotropy =    18.9242
   XX=    11.4450   YX=    -4.9741   ZX=     5.5643
   XY=    -1.5784   YY=    10.1608   ZY=     0.4019
   XZ=    10.9388   YZ=     2.1449   ZZ=   -13.1146
   Eigenvalues:   -15.8131     8.8578    15.4465
    102  Bq   Isotropic =     2.0690   Anisotropy =    11.9851
   XX=     0.8538   YX=    -3.8258   ZX=     1.3367
   XY=    -1.7270   YY=     2.6719   ZY=     1.7811
   XZ=    13.3272   YZ=     8.9891   ZZ=     2.6815
   Eigenvalues:    -8.5360     4.6840    10.0591
    103  Bq   Isotropic =     2.6710   Anisotropy =    20.3369
   XX=    12.2246   YX=    -4.8369   ZX=     6.2102
   XY=    -1.6534   YY=    10.6378   ZY=     0.1678
   XZ=    10.0787   YZ=    -0.0784   ZZ=   -14.8496
   Eigenvalues:   -17.1409     8.9249    16.2289
    104  Bq   Isotropic =     1.8723   Anisotropy =    12.6132
   XX=    -0.2391   YX=    -3.4817   ZX=     0.9188
   XY=    -1.6298   YY=     1.6524   ZY=     1.6793
   XZ=    12.9581   YZ=     8.6265   ZZ=     4.2037
   Eigenvalues:    -8.0911     3.4270    10.2812
    105  Bq   Isotropic =     2.4589   Anisotropy =    21.2394
   XX=    12.5531   YX=    -4.5710   ZX=     6.7855
   XY=    -1.7652   YY=    10.9882   ZY=     0.0092
   XZ=     9.1590   YZ=    -2.3103   ZZ=   -16.1646
   Eigenvalues:   -18.2328     8.9910    16.6185
    106  Bq   Isotropic =     2.8293   Anisotropy =    12.9731
   XX=     7.0643   YX=    -4.8536   ZX=     3.5664
   XY=    -1.6684   YY=     7.5468   ZY=     1.3683
   XZ=    13.0411   YZ=     7.4308   ZZ=    -6.1231
   Eigenvalues:   -11.6444     8.6543    11.4781
    107  Bq   Isotropic =     1.3378   Anisotropy =    11.5044
   XX=     3.8475   YX=    -4.5696   ZX=     3.3838
   XY=    -1.9816   YY=     5.8404   ZY=     1.7822
   XZ=    13.7617   YZ=     7.7199   ZZ=    -5.6745
   Eigenvalues:   -12.5244     7.5304     9.0074
    108  Bq   Isotropic =     1.2541   Anisotropy =    15.4843
   XX=     6.5388   YX=    -4.9152   ZX=     4.5827
   XY=    -2.1026   YY=     8.1091   ZY=     1.3220
   XZ=    12.9919   YZ=     5.5116   ZZ=   -10.8855
   Eigenvalues:   -15.4150     7.6004    11.5770
    109  Bq   Isotropic =     1.3242   Anisotropy =    10.8582
   XX=     2.5197   YX=    -4.3186   ZX=     2.8172
   XY=    -1.9091   YY=     4.6503   ZY=     1.8912
   XZ=    13.8506   YZ=     8.2691   ZZ=    -3.1975
   Eigenvalues:   -11.3576     6.7672     8.5630
    110  Bq   Isotropic =     1.1422   Anisotropy =    17.5159
   XX=     7.7143   YX=    -4.9901   ZX=     5.1919
   XY=    -2.1770   YY=     9.0689   ZY=     1.0116
   XZ=    12.3511   YZ=     3.8958   ZZ=   -13.3565
   Eigenvalues:   -17.0111     7.6183    12.8195
    111  Bq   Isotropic =     1.2877   Anisotropy =    11.1696
   XX=     1.3000   YX=    -4.0294   ZX=     2.2872
   XY=    -1.8151   YY=     3.5045   ZY=     1.9163
   XZ=    13.7479   YZ=     8.4847   ZZ=    -0.9414
   Eigenvalues:   -10.3867     5.5157     8.7341
    112  Bq   Isotropic =     0.9845   Anisotropy =    19.3092
   XX=     8.6512   YX=    -4.9818   ZX=     5.7878
   XY=    -2.2701   YY=     9.8609   ZY=     0.6907
   XZ=    11.5850   YZ=     2.0384   ZZ=   -15.5585
   Eigenvalues:   -18.5592     7.6554    13.8573
    113  Bq   Isotropic =     1.2380   Anisotropy =    11.6900
   XX=     0.2294   YX=    -3.7149   ZX=     1.8030
   XY=    -1.6963   YY=     2.4495   ZY=     1.8703
   XZ=    13.4793   YZ=     8.4260   ZZ=     1.0350
   Eigenvalues:    -9.5813     4.2639     9.0313
    114  Bq   Isotropic =     0.7923   Anisotropy =    20.7474
   XX=     9.2854   YX=    -4.8701   ZX=     6.3461
   XY=    -2.3745   YY=    10.4782   ZY=     0.3877
   XZ=    10.7170   YZ=     0.0509   ZZ=   -17.3866
   Eigenvalues:   -19.9322     7.6853    14.6239
    115  Bq   Isotropic =     1.1823   Anisotropy =    12.2206
   XX=    -0.6738   YX=    -3.3889   ZX=     1.3708
   XY=    -1.5550   YY=     1.5143   ZY=     1.7716
   XZ=    13.0793   YZ=     8.1610   ZZ=     2.7065
   Eigenvalues:    -8.9023     3.1199     9.3294
    116  Bq   Isotropic =     0.5834   Anisotropy =    21.7468
   XX=     9.5960   YX=    -4.6330   ZX=     6.8289
   XY=    -2.4703   YY=    10.9322   ZY=     0.1141
   XZ=     9.7422   YZ=    -1.9497   ZZ=   -18.7780
   Eigenvalues:   -21.0204     7.6894    15.0813
    117  Bq   Isotropic =     1.3177   Anisotropy =    13.3697
   XX=     5.2167   YX=    -4.7716   ZX=     3.9760
   XY=    -2.0416   YY=     7.0147   ZY=     1.5880
   XZ=    13.4718   YZ=     6.8008   ZZ=    -8.2784
   Eigenvalues:   -13.8904     7.6126    10.2308
    118  Bq   Isotropic =     0.3600   Anisotropy =    11.7037
   XX=     2.6566   YX=    -4.3207   ZX=     3.7551
   XY=    -2.0796   YY=     5.3984   ZY=     1.7347
   XZ=    14.0074   YZ=     6.8762   ZZ=    -6.9751
   Eigenvalues:   -13.7504     6.6679     8.1625
    119  Bq   Isotropic =     0.0627   Anisotropy =    15.6970
   XX=     4.8080   YX=    -4.6610   ZX=     4.8718
   XY=    -2.3687   YY=     7.5725   ZY=     1.3070
   XZ=    13.3818   YZ=     4.8190   ZZ=   -12.1924
   Eigenvalues:   -16.8937     6.5545    10.5274
    120  Bq   Isotropic =     0.4666   Anisotropy =    10.8829
   XX=     1.5871   YX=    -4.0831   ZX=     3.2097
   XY=    -1.9322   YY=     4.2928   ZY=     1.8405
   XZ=    14.0320   YZ=     7.4401   ZZ=    -4.4800
   Eigenvalues:   -12.4130     6.0910     7.7219
    121  Bq   Isotropic =    -0.1257   Anisotropy =    17.7129
   XX=     5.7502   YX=    -4.7410   ZX=     5.4174
   XY=    -2.5162   YY=     8.5408   ZY=     1.0112
   XZ=    12.7976   YZ=     3.3724   ZZ=   -14.6680
   Eigenvalues:   -18.5556     6.4957    11.6829
    122  Bq   Isotropic =     0.5483   Anisotropy =    11.0556
   XX=     0.5965   YX=    -3.8150   ZX=     2.6892
   XY=    -1.7780   YY=     3.2378   ZY=     1.8744
   XZ=    13.8780   YZ=     7.7164   ZZ=    -2.1895
   Eigenvalues:   -11.2645     4.9907     7.9187
    123  Bq   Isotropic =    -0.3318   Anisotropy =    19.5079
   XX=     6.5150   YX=    -4.7425   ZX=     5.9348
   XY=    -2.6619   YY=     9.3755   ZY=     0.6913
   XZ=    12.0593   YZ=     1.7339   ZZ=   -16.8858
   Eigenvalues:   -20.1326     6.4638    12.6735
    124  Bq   Isotropic =     0.6086   Anisotropy =    11.4675
   XX=    -0.2806   YX=    -3.5280   ZX=     2.2044
   XY=    -1.6158   YY=     2.2686   ZY=     1.8468
   XZ=    13.5716   YZ=     7.7496   ZZ=    -0.1621
   Eigenvalues:   -10.2915     3.8638     8.2537
    125  Bq   Isotropic =    -0.5428   Anisotropy =    20.9756
[...]
   127  Bq   0.000000
   128  Bq   0.000000
   129  Bq   0.000000
   130  Bq   0.000000
   131  Bq   0.000000
   132  Bq   0.000000
   133  Bq   0.000000
   134  Bq   0.000000
   135  Bq   0.000000
   136  Bq   0.000000
   137  Bq   0.000000
   138  Bq   0.000000
   139  Bq   0.000000
   140  Bq   0.000000
   141  Bq   0.000000
   142  Bq   0.000000
   143  Bq   0.000000
   144  Bq   0.000000
   145  Bq   0.000000
   146  Bq   0.000000
   147  Bq   0.000000
   148  Bq   0.000000
   149  Bq   0.000000
   150  Bq   0.000000
   151  Bq   0.000000
   152  Bq   0.000000
   153  Bq   0.000000
   154  Bq   0.000000
   155  Bq   0.000000
   156  Bq   0.000000
   157  Bq   0.000000
   158  Bq   0.000000
   159  Bq   0.000000
   160  Bq   0.000000
   161  Bq   0.000000
   162  Bq   0.000000
   163  Bq   0.000000
   164  Bq   0.000000
   165  Bq   0.000000
   166  Bq   0.000000
   167  Bq   0.000000
   168  Bq   0.000000
   169  Bq   0.000000
   170  Bq   0.000000
   171  Bq   0.000000
   172  Bq   0.000000
   173  Bq   0.000000
   174  Bq   0.000000
   175  Bq   0.000000
   176  Bq   0.000000
   177  Bq   0.000000
   178  Bq   0.000000
   179  Bq   0.000000
   180  Bq   0.000000
   181  Bq   0.000000
   182  Bq   0.000000
   183  Bq   0.000000
   184  Bq   0.000000
   185  Bq   0.000000
   186  Bq   0.000000
   187  Bq   0.000000
   188  Bq   0.000000
   189  Bq   0.000000
   190  Bq   0.000000
   191  Bq   0.000000
   192  Bq   0.000000
   193  Bq   0.000000
   194  Bq   0.000000
   195  Bq   0.000000
   196  Bq   0.000000
   197  Bq   0.000000
   198  Bq   0.000000
   199  Bq   0.000000
   200  Bq   0.000000
   201  Bq   0.000000
   202  Bq   0.000000
   203  Bq   0.000000
   204  Bq   0.000000
   205  Bq   0.000000
   206  Bq   0.000000
   207  Bq   0.000000
   208  Bq   0.000000
   209  Bq   0.000000
   210  Bq   0.000000
   211  Bq   0.000000
   212  Bq   0.000000
   213  Bq   0.000000
   214  Bq   0.000000
   215  Bq   0.000000
   216  Bq   0.000000
   217  Bq   0.000000
   218  Bq   0.000000
   219  Bq   0.000000
   220  Bq   0.000000
   221  Bq   0.000000
   222  Bq   0.000000
   223  Bq   0.000000
   224  Bq   0.000000
   225  Bq   0.000000
   226  Bq   0.000000
   227  Bq   0.000000
   228  Bq   0.000000
   229  Bq   0.000000
   230  Bq   0.000000
   231  Bq   0.000000
   232  Bq   0.000000
   233  Bq   0.000000
   234  Bq   0.000000
   235  Bq   0.000000
   236  Bq   0.000000
 Sum of Mulliken charges =   0.00000
 Mulliken charges with hydrogens summed into heavy atoms:
               1
     1  C   -0.255498
     3  C    0.169409
     5  C    0.448258
     6  C    0.064351
     7  C   -0.333926
     9  C   -0.139521
    11  C   -0.205988
    13  C   -0.119315
    15  C    0.653397
    16  C    0.034822
    17  C   -0.317410
    19  C   -0.434284
    21  C    0.651066
    22  C    0.037784
    23  C   -0.233803
    25  C   -0.205316
    27  C    0.448331
    28  C    0.061983
    29  C   -0.333381
    31  C   -0.139505
    33  C   -0.255977
    35  C    0.055019
    37  Bq   0.000000
    38  Bq   0.000000
    39  Bq   0.000000
    40  Bq   0.000000
    41  Bq   0.000000
    42  Bq   0.000000
    43  Bq   0.000000
    44  Bq   0.000000
    45  Bq   0.000000
    46  Bq   0.000000
    47  Bq   0.000000
    48  Bq   0.000000
    49  Bq   0.000000
    50  Bq   0.000000
    51  Bq   0.000000
    52  Bq   0.000000
    53  Bq   0.000000
    54  Bq   0.000000
    55  Bq   0.000000
    56  Bq   0.000000
    57  Bq   0.000000
    58  Bq   0.000000
    59  Bq   0.000000
    60  Bq   0.000000
    61  Bq   0.116514
    62  Bq   0.000000
    63  Bq   0.000000
    64  Bq   0.000000
    65  Bq   0.000000
    66  Bq   0.000000
    67  Bq   0.000000
    68  Bq   0.000000
    69  Bq   0.000000
    70  Bq   0.000000
    71  Bq   0.000000
    72  Bq   0.000000
    73  Bq   0.000000
    74  Bq   0.000000
    75  Bq   0.000000
    76  Bq   0.000000
    77  Bq   0.000000
    78  Bq   0.000000
    79  Bq   0.000000
    80  Bq   0.000000
    81  Bq   0.000000
    82  Bq   0.000000
    83  Bq   0.000000
    84  Bq   0.000000
    85  Bq   0.000000
    86  Bq   0.000000
    87  Bq   0.000000
    88  Bq   0.000000
    89  Bq   0.000000
    90  Bq   0.000000
    91  Bq   0.000000
    92  Bq   0.000000
    93  Bq   0.000000
    94  Bq   0.000000
    95  Bq   0.000000
    96  Bq   0.000000
    97  Bq   0.000000
    98  Bq   0.000000
    99  Bq   0.000000
   100  Bq   0.000000
   101  Bq   0.000000
   102  Bq   0.000000
   103  Bq   0.000000
   104  Bq   0.000000
   105  Bq   0.000000
   106  Bq   0.000000
   107  Bq   0.000000
   108  Bq   0.000000
   109  Bq   0.000000
   110  Bq   0.000000
   111  Bq   0.000000
   112  Bq   0.000000
   113  Bq   0.000000
   114  Bq   0.000000
   115  Bq   0.000000
   116  Bq   0.000000
   117  Bq   0.000000
   118  Bq   0.000000
   119  Bq   0.000000
   120  Bq   0.000000
   121  Bq   0.000000
   122  Bq   0.000000
   123  Bq   0.000000
   124  Bq   0.000000
   125  Bq   0.000000
   126  Bq   0.000000
   127  Bq   0.000000
   128  Bq   0.000000
   129  Bq   0.000000
   130  Bq   0.000000
   131  Bq   0.000000
   132  Bq   0.000000
   133  Bq   0.000000
   134  Bq   0.000000
   135  Bq   0.000000
   136  Bq   0.000000
   137  Bq   0.000000
   138  Bq   0.000000
   139  Bq   0.000000
   140  Bq   0.000000
   141  Bq   0.000000
   142  Bq   0.000000
   143  Bq   0.000000
   144  Bq   0.000000
   145  Bq   0.000000
   146  Bq   0.000000
   147  Bq   0.000000
   148  Bq   0.000000
   149  Bq   0.000000
   150  Bq   0.000000
   151  Bq   0.000000
   152  Bq   0.000000
   153  Bq   0.000000
   154  Bq   0.000000
   155  Bq   0.000000
   156  Bq   0.000000
   157  Bq   0.000000
   158  Bq   0.000000
   159  Bq   0.000000
   160  Bq   0.000000
   161  Bq   0.000000
   162  Bq   0.000000
   163  Bq   0.000000
   164  Bq   0.000000
   165  Bq   0.000000
   166  Bq   0.000000
   167  Bq   0.000000
   168  Bq   0.000000
   169  Bq   0.000000
   170  Bq   0.000000
   171  Bq   0.000000
   172  Bq   0.000000
   173  Bq   0.000000
   174  Bq   0.000000
   175  Bq   0.000000
   176  Bq   0.000000
   177  Bq   0.000000
   178  Bq   0.000000
   179  Bq   0.000000
   180  Bq   0.000000
   181  Bq   0.000000
   182  Bq   0.000000
   183  Bq   0.000000
   184  Bq   0.000000
   185  Bq   0.000000
   186  Bq   0.000000
   187  Bq   0.000000
   188  Bq   0.000000
   189  Bq   0.000000
   190  Bq   0.000000
   191  Bq   0.000000
   192  Bq   0.000000
   193  Bq   0.117431
   194  Bq   0.000000
   195  Bq   0.000000
   196  Bq   0.000000
   197  Bq   0.000000
   198  Bq   0.000000
   199  Bq   0.000000
   200  Bq   0.000000
   201  Bq   0.000000
   202  Bq   0.000000
   203  Bq   0.000000
   204  Bq   0.115561
   205  Bq   0.000000
   206  Bq   0.000000
   207  Bq   0.000000
   208  Bq   0.000000
   209  Bq   0.000000
   210  Bq   0.000000
   211  Bq   0.000000
   212  Bq   0.000000
   213  Bq   0.000000
   214  Bq   0.000000
   215  Bq   0.000000
   216  Bq   0.000000
   217  Bq   0.000000
   218  Bq   0.000000
   219  Bq   0.000000
   220  Bq   0.000000
   221  Bq   0.000000
   222  Bq   0.000000
   223  Bq   0.000000
   224  Bq   0.000000
   225  Bq   0.000000
   226  Bq   0.000000
   227  Bq   0.000000
   228  Bq   0.000000
   229  Bq   0.000000
   230  Bq   0.000000
   231  Bq   0.000000
   232  Bq   0.000000
   233  Bq   0.000000
   234  Bq   0.000000
   235  Bq   0.000000
   236  Bq   0.000000
 Electronic spatial extent (au):  <R**2>=           5736.9264
 Charge=              0.0000 electrons
 Dipole moment (field-independent basis, Debye):
    X=              0.0475    Y=              0.0856    Z=              0.0029  Tot=              0.0979
 Quadrupole moment (field-independent basis, Debye-Ang):
   XX=           -113.7056   YY=           -113.9456   ZZ=           -133.2669
   XY=             -0.3834   XZ=              3.2102   YZ=             -1.1839
 Traceless Quadrupole moment (field-independent basis, Debye-Ang):
   XX=              6.6005   YY=              6.3604   ZZ=            -12.9609
   XY=             -0.3834   XZ=              3.2102   YZ=             -1.1839
 Octapole moment (field-independent basis, Debye-Ang**2):
  XXX=            -16.4668  YYY=            -16.1860  ZZZ=             -1.7007  XYY=              2.5576
  XXY=             -6.5650  XXZ=             13.6547  XZZ=             -8.9478  YZZ=            -17.7168
  YYZ=            -13.2941  XYZ=              8.8036
 Hexadecapole moment (field-independent basis, Debye-Ang**3):
 XXXX=          -3951.1638 YYYY=          -3112.2161 ZZZZ=           -504.8311 XXXY=            340.6935
 XXXZ=            156.4968 YYYX=            335.5625 YYYZ=            -87.0893 ZZZX=            120.2262
 ZZZY=           -108.7373 XXYY=          -1176.4844 XXZZ=           -856.7291 YYZZ=           -665.7275
 XXYZ=            -68.9016 YYXZ=             48.1602 ZZXY=            153.0375
 N-N= 1.610917615562D+03 E-N=-5.186891130729D+03  KE= 8.436329774448D+02
 1\1\GINC-PLANA\SP\RB3LYP\6-311+G(d,p)\C22H14\YANNICK\22-Aug-2020\0\\# 
 rb3lyp/6-311+g** NMR geom=connectivity\\Title\\0,1\C,0,-4.0500558,-0.5
 771862,0.8136712\H,0,-5.0263804,-1.0082727,1.002476\C,0,-3.9381552,0.6
 617804,0.2400876\H,0,-4.8252424,1.233889,-0.0111295\C,0,-2.676841,1.24
 33246,0.0057578\C,0,-1.4974121,0.5051527,0.2848253\C,0,-1.6508332,-0.7
 338728,0.9404026\H,0,-0.7713646,-1.2730967,1.2633753\C,0,-2.8898548,-1
 .2624035,1.1994307\H,0,-2.9683706,-2.2124563,1.7152676\C,0,-2.5773185,
 2.5963696,-0.419293\H,0,-3.4870728,3.1412239,-0.6474055\C,0,-1.3741895
 ,3.2147896,-0.436403\H,0,-1.2997315,4.2742019,-0.6578144\C,0,-0.171948
 8,2.499409,-0.1734588\C,0,-0.2043917,1.1018437,0.0192689\C,0,1.0513491
 ,3.204256,-0.0676222\H,0,1.0427344,4.2819499,-0.1896997\C,0,2.1942091,
 2.5487446,0.2579577\H,0,3.1168527,3.0912848,0.4334727\C,0,2.2216473,1.
 1336562,0.293499\C,0,1.0486931,0.3945528,0.0302412\C,0,3.4483363,0.461
 4633,0.5573939\H,0,4.3095794,1.0606054,0.8334846\C,0,3.5427346,-0.8855
 926,0.4749463\H,0,4.4731467,-1.3939704,0.7038822\C,0,2.4490052,-1.6474
 447,-0.0196319\C,0,1.2150704,-1.0057258,-0.3013573\C,0,0.2531113,-1.74
 3444,-1.0216591\H,0,-0.6541356,-1.2535051,-1.3462847\C,0,0.4494193,-3.
 0628597,-1.3413779\H,0,-0.3083162,-3.5944309,-1.905406\C,0,1.6251726,-
 3.7207967,-0.9552541\H,0,1.7670048,-4.7687404,-1.1927019\C,0,2.6109872
 ,-3.0144177,-0.318305\H,0,3.5525612,-3.4902813,-0.0646367\Bq,0,3.31697
 28136,0.8164001754,0.7046255089\Bq,0,3.0858630347,0.6883512441,1.56496
 94758\Bq,0,3.342651678,0.8306278344,0.6090317348\Bq,0,3.2142573563,0.7
 594895393,1.0870006053\Bq,0,3.1848874415,0.8442445743,1.196334919\Bq,0
 ,3.2362451701,0.8726998923,1.0051473708\Bq,0,3.1592085772,0.8300169152
 ,1.291928693\Bq,0,3.2619240345,0.8869275513,0.9095535967\Bq,0,3.133529
 7128,0.8157892562,1.3875224671\Bq,0,3.2876028988,0.9011552104,0.813959
 8226\Bq,0,3.1078508485,0.8015615972,1.4831162412\Bq,0,3.3132817631,0.9
 153828694,0.7183660485\Bq,0,3.0821719842,0.7873339381,1.5787100153\Bq,
 0,3.3389606274,0.9296105284,0.6227722744\Bq,0,3.2105663058,0.858472233
 3,1.1007411449\Bq,0,3.1811963909,0.9432272683,1.2100754585\Bq,0,3.2325
 541196,0.9716825864,1.0188879103\Bq,0,3.1555175266,0.9289996093,1.3056
 692326\Bq,0,3.2582329839,0.9859102454,0.9232941362\Bq,0,3.1298386623,0
 .9147719502,1.4012630067\Bq,0,3.2839118482,1.0001379044,0.8277003621\B
 q,0,3.104159798,0.9005442912,1.4968567808\Bq,0,3.3095907126,1.01436556
 34,0.732106588\Bq,0,3.0784809337,0.8863166322,1.5924505549\Bq,0,3.3352
 695769,1.0285932225,0.6365128139\Bq,0,3.2068752553,0.9574549273,1.1144
 816844\Bq,0,3.1775053404,1.0422099623,1.2238159981\Bq,0,3.2288630691,1
 .0706652804,1.0326284499\Bq,0,3.1518264761,1.0279823033,1.3194097722\B
 q,0,3.2545419334,1.0848929394,0.9370346758\Bq,0,3.1261476118,1.0137546
 443,1.4150035463\Bq,0,3.2802207977,1.0991205984,0.8414409017\Bq,0,3.10
 04687474,0.9995269852,1.5105973204\Bq,0,3.305899662,1.1133482575,0.745
 8471276\Bq,0,3.0747898831,0.9852993262,1.6061910945\Bq,0,3.3315785263,
 1.1275759165,0.6502533535\Bq,0,3.2031842047,1.0564376214,1.128222224\B
 q,0,3.1738142899,1.1411926564,1.2375565376\Bq,0,3.2251720185,1.1696479
 744,1.0463689894\Bq,0,3.1481354256,1.1269649973,1.3331503117\Bq,0,3.25
 08508828,1.1838756335,0.9507752153\Bq,0,3.1224565612,1.1127373383,1.42
 87440858\Bq,0,3.2765297472,1.1981032925,0.8551814413\Bq,0,3.0967776969
 ,1.0985096793,1.5243378599\Bq,0,3.3022086115,1.2123309515,0.7595876672
 \Bq,0,3.0710988326,1.0842820203,1.619931634\Bq,0,3.3278874758,1.226558
 6105,0.6639938931\Bq,0,3.1994931542,1.1554203154,1.1419627635\Bq,0,3.1
 701232393,1.2401753504,1.2512970772\Bq,0,3.221480968,1.2686306685,1.06
 0109529\Bq,0,3.144444375,1.2259476914,1.3468908513\Bq,0,3.2471598323,1
 .2828583275,0.9645157549\Bq,0,3.1187655107,1.2117200323,1.4424846254\B
 q,0,3.2728386966,1.2970859865,0.8689219808\Bq,0,3.0930866464,1.1974923
 733,1.5380783995\Bq,0,3.298517561,1.3113136455,0.7733282067\Bq,0,3.067
 4077821,1.1832647143,1.6336721736\Bq,0,3.3241964253,1.3255413046,0.677
 7344326\Bq,0,3.1958021037,1.2544030094,1.1557033031\Bq,0,3.1664321888,
 1.3391580444,1.2650376167\Bq,0,3.2177899175,1.3676133625,1.0738500686\
 Bq,0,3.1407533245,1.3249303854,1.3606313908\Bq,0,3.2434687818,1.381841
 0215,0.9782562945\Bq,0,3.1150744602,1.3107027264,1.4562251649\Bq,0,3.2
 691476461,1.3960686806,0.8826625204\Bq,0,3.0893955958,1.2964750674,1.5
 51818939\Bq,0,3.2948265104,1.4102963396,0.7870687463\Bq,0,3.0637167315
 ,1.2822474083,1.6474127131\Bq,0,3.3205053747,1.4245239986,0.6914749722
 \Bq,0,3.1921110531,1.3533857035,1.1694438427\Bq,0,3.1627411383,1.43814
 07385,1.2787781563\Bq,0,3.2140988669,1.4665960565,1.0875906081\Bq,0,3.
 137062274,1.4239130794,1.3743719304\Bq,0,3.2397777312,1.4808237156,0.9
 91996834\Bq,0,3.1113834096,1.4096854204,1.4699657045\Bq,0,3.2654565956
 ,1.4950513746,0.8964030599\Bq,0,3.0857045453,1.3954577614,1.5655594786
 \Bq,0,3.2911354599,1.5092790336,0.8008092858\Bq,0,3.060025681,1.381230
 1024,1.6611532527\Bq,0,3.3168143242,1.5235066926,0.7052155117\Bq,0,3.1
 884200026,1.4523683975,1.1831843822\Bq,0,3.1590500877,1.5371234325,1.2
 925186959\Bq,0,3.2104078164,1.5655787506,1.1013311477\Bq,0,3.133371223
 4,1.5228957735,1.38811247\Bq,0,3.2360866807,1.5798064096,1.0057373736\
 Bq,0,3.1076923591,1.5086681145,1.4837062441\Bq,0,3.261765545,1.5940340
 686,0.9101435995\Bq,0,3.0820134948,1.4944404554,1.5793000182\Bq,0,3.28
 74444094,1.6082617277,0.8145498254\Bq,0,3.0563346304,1.4802127964,1.67
 48937922\Bq,0,3.3131232737,1.6224893867,0.7189560513\Bq,0,3.1847289521
 ,1.5513510915,1.1969249218\Bq,0,3.1553590372,1.6361061265,1.3062592354
 \Bq,0,3.2067167658,1.6645614446,1.1150716872\Bq,0,3.1296801729,1.62187
 84675,1.4018530095\Bq,0,3.2323956302,1.6787891036,1.0194779131\Bq,0,3.
 1040013086,1.6076508085,1.4974467836\Bq,0,3.2580744945,1.6930167627,0.
 923884139\Bq,0,3.0783224442,1.5934231495,1.5930405577\Bq,0,3.283753358
 8,1.7072444217,0.828290365\Bq,0,3.0526435799,1.5791954904,1.6886343318
 \Bq,0,3.3094322231,1.7214720807,0.7326965909\Bq,0,3.1810379015,1.65033
 37856,1.2106654613\Bq,0,3.1516679867,1.7350888206,1.319999775\Bq,0,3.2
 030257153,1.7635441386,1.1288122268\Bq,0,3.1259891223,1.7208611616,1.4
 155935491\Bq,0,3.2287045796,1.7777717977,1.0332184527\Bq,0,3.100310258
 ,1.7066335025,1.5111873232\Bq,0,3.254383444,1.7919994567,0.9376246786\
 Bq,0,3.0746313937,1.6924058435,1.6067810973\Bq,0,3.2800623083,1.806227
 1157,0.8420309045\Bq,0,3.0489525294,1.6781781845,1.7023748714\Bq,0,3.3
 057411726,1.8204547748,0.7464371304\Bq,0,3.177346851,1.7493164796,1.22
 44060009\Bq,0,3.1479769361,1.8340715146,1.3337403145\Bq,0,3.1993346648
 ,1.8625268327,1.1425527664\Bq,0,3.1222980718,1.8198438556,1.4293340886
 \Bq,0,3.2250135291,1.8767544917,1.0469589923\Bq,0,3.0966192075,1.80561
 61966,1.5249278627\Bq,0,3.2506923934,1.8909821507,0.9513652182\Bq,0,3.
 0709403432,1.7913885375,1.6205216368\Bq,0,3.2763712577,1.9052098098,0.
 8557714441\Bq,0,3.0452614788,1.7771608785,1.7161154109\Bq,0,3.30205012
 21,1.9194374688,0.76017767\Bq,0,3.1736558005,1.8482991736,1.2381465404
 \Bq,0,3.1442858856,1.9330542087,1.3474808541\Bq,0,3.1956436142,1.96150
 95267,1.1562933059\Bq,0,3.1186070213,1.9188265496,1.4430746282\Bq,0,3.
 2213224786,1.9757371857,1.0606995318\Bq,0,3.092928157,1.9045988906,1.5
 386684023\Bq,0,3.2470013429,1.9899648448,0.9651057577\Bq,0,3.067249292
 6,1.8903712316,1.6342621764\Bq,0,3.2726802072,2.0041925038,0.869511983
 6\Bq,0,3.0415704283,1.8761435725,1.7298559505\Bq,0,3.2983590715,2.0184
 201628,0.7739182095\Bq,0,3.1699647499,1.9472818677,1.25188708\Bq,0,3.1
 405948351,2.0320369027,1.3612213937\Bq,0,3.1919525637,2.0604922207,1.1
 700338455\Bq,0,3.1149159707,2.0178092437,1.4568151678\Bq,0,3.217631428
 ,2.0747198798,1.0744400714\Bq,0,3.0892371064,2.0035815846,1.5524089419
 \Bq,0,3.2433102924,2.0889475388,0.9788462973\Bq,0,3.0635582421,1.98935
 39256,1.6480027159\Bq,0,3.2689891567,2.1031751978,0.8832525232\Bq,0,3.
 0378793778,1.9751262666,1.74359649\Bq,0,3.294668021,2.1174028569,0.787
 6587491\Bq,0,3.1662736994,2.0462645617,1.2656276196\Bq,0,3.1369037845,
 2.1310195967,1.3749619332\Bq,0,3.1882615132,2.1594749148,1.183774385\B
 q,0,3.1112249202,2.1167919377,1.4705557073\Bq,0,3.2139403775,2.1737025
 738,1.0881806109\Bq,0,3.0855460559,2.1025642787,1.5661494814\Bq,0,3.23
 96192418,2.1879302328,0.9925868368\Bq,0,3.0598671916,2.0883366196,1.66
 17432555\Bq,0,3.2652981061,2.2021578919,0.8969930627\Bq,0,3.0341883272
 ,2.0741089606,1.7573370296\Bq,0,3.2909769705,2.2163855509,0.8013992887
 \Bq,0,3.1625826488,2.1452472558,1.2793681591\Bq,0,3.4180325613,-2.8181
 151051,0.7138777371\Bq,0,3.46939029,-2.789659787,0.5226901889\Bq,0,3.3
 92353697,-2.8323427641,0.8094715112\Bq,0,3.4950691543,-2.775432128,0.4
 270964148\Bq,0,3.3666748327,-2.8465704231,0.9050652853\Bq,0,3.52074801
 86,-2.761204469,0.3315026407\Bq,0,3.3409959684,-2.8607980821,1.0006590
 593\Bq,0,3.546426883,-2.7469768099,0.2359088666\Bq,0,3.3153171041,-2.8
 750257412,1.0962528334\Bq,0,3.5721057473,-2.7327491509,0.1403150925\Bq
 ,0,3.4437114257,-2.803887446,0.618283963\Bq,0,3.4143415108,-2.71913241
 1,0.7276182766\Bq,0,3.4656992395,-2.690677093,0.5364307284\Bq,0,3.3886
 626465,-2.7333600701,0.8232120507\Bq,0,3.4913781038,-2.6764494339,0.44
 08369543\Bq,0,3.3629837822,-2.7475877291,0.9188058248\Bq,0,3.517056968
 1,-2.6622217749,0.3452431802\Bq,0,3.3373049178,-2.7618153881,1.0143995
 989\Bq,0,3.5427358324,-2.6479941159,0.2496494061\Bq,0,3.3116260535,-2.
 7760430471,1.109993373\Bq,0,3.5684146967,-2.6337664569,0.1540556321\Bq
 ,0,3.4400203751,-2.704904752,0.6320245025\Bq,0,3.4106504603,-2.6201497
 17,0.7413588162\Bq,0,3.4620081889,-2.5916943989,0.550171268\Bq,0,3.384
 9715959,-2.634377376,0.8369525903\Bq,0,3.4876870532,-2.5774667399,0.45
 45774939\Bq,0,3.3592927316,-2.648605035,0.9325463644\Bq,0,3.5133659176
 ,-2.5632390809,0.3589837198\Bq,0,3.3336138673,-2.6628326941,1.02814013
 85\Bq,0,3.5390447819,-2.5490114219,0.2633899457\Bq,0,3.307935003,-2.67
 70603531,1.1237339126\Bq,0,3.5647236462,-2.5347837628,0.1677961716\Bq,
 0,3.4363293246,-2.605922058,0.6457650421\Bq,0,3.4069594097,-2.52116702
 3,0.7550993557\Bq,0,3.4583171384,-2.4927117049,0.5639118076\Bq,0,3.381
 2805454,-2.535394682,0.8506931298\Bq,0,3.4839960027,-2.4784840459,0.46
 83180335\Bq,0,3.3556016811,-2.549622341,0.9462869039\Bq,0,3.509674867,
 -2.4642563868,0.3727242594\Bq,0,3.3299228168,-2.56385,1.041880678\Bq,0
 ,3.5353537313,-2.4500287278,0.2771304853\Bq,0,3.3042439524,-2.57807765
 91,1.1374744521\\Version=ES64L-G09RevD.01\HF=-847.0032898\RMSD=7.519e-
 09\Dipole=0.0186808,0.0336671,0.0011595\Quadrupole=4.9072795,4.7288219
 ,-9.6361014,-0.2850201,2.3867064,-0.880172\PG=C01 [X(C22H14)]\\@


 The number of Unix installations has grown to 10,
  with more expected.
                  -- The Unix Programmer's Manual,
                     2nd Edition, June, 1972.
 Job cpu time:       0 days  4 hours  9 minutes 13.5 seconds.
 File lengths (MBytes):  RWF=    184 Int=      0 D2E=      0 Chk=     19 Scr=      1
 Normal termination of Gaussian 09 at Sat Aug 22 20:10:12 2020.
