 Entering Gaussian System, Link 0=g09
 Input=input_cycle_04_batch_11600.com
 Output=input_cycle_04_batch_11600.log
 Initial command:
 /share/programs/GAUSSIAN/64/g09/l1.exe "/scratch/yannick.30498/Gau-8132.inp" -scrdir="/scratch/yannick.30498/"
 Entering Link 1 = /share/programs/GAUSSIAN/64/g09/l1.exe PID=      8133.
  
 Copyright (c) 1988,1990,1992,1993,1995,1998,2003,2009,2013,
            Gaussian, Inc.  All Rights Reserved.
  
 This is part of the Gaussian(R) 09 program.  It is based on
 the Gaussian(R) 03 system (copyright 2003, Gaussian, Inc.),
 the Gaussian(R) 98 system (copyright 1998, Gaussian, Inc.),
 the Gaussian(R) 94 system (copyright 1995, Gaussian, Inc.),
 the Gaussian 92(TM) system (copyright 1992, Gaussian, Inc.),
 the Gaussian 90(TM) system (copyright 1990, Gaussian, Inc.),
 the Gaussian 88(TM) system (copyright 1988, Gaussian, Inc.),
 the Gaussian 86(TM) system (copyright 1986, Carnegie Mellon
 University), and the Gaussian 82(TM) system (copyright 1983,
 Carnegie Mellon University). Gaussian is a federally registered
 trademark of Gaussian, Inc.
  
 This software contains proprietary and confidential information,
 including trade secrets, belonging to Gaussian, Inc.
  
 This software is provided under written license and may be
 used, copied, transmitted, or stored only in accord with that
 written license.
  
 The following legend is applicable only to US Government
 contracts under FAR:
  
                    RESTRICTED RIGHTS LEGEND
  
 Use, reproduction and disclosure by the US Government is
 subject to restrictions as set forth in subparagraphs (a)
 and (c) of the Commercial Computer Software - Restricted
 Rights clause in FAR 52.227-19.
  
 Gaussian, Inc.
 340 Quinnipiac St., Bldg. 40, Wallingford CT 06492
  
  
 ---------------------------------------------------------------
 Warning -- This program may not be used in any manner that
 competes with the business of Gaussian, Inc. or will provide
 assistance to any competitor of Gaussian, Inc.  The licensee
 of this program is prohibited from giving any competitor of
 Gaussian, Inc. access to this program.  By using this program,
 the user acknowledges that Gaussian, Inc. is engaged in the
 business of creating and licensing software in the field of
 computational chemistry and represents and warrants to the
 licensee that it is not a competitor of Gaussian, Inc. and that
 it will not use this program in any manner prohibited above.
 ---------------------------------------------------------------
  

 Cite this work as:
 Gaussian 09, Revision D.01,
 M. J. Frisch, G. W. Trucks, H. B. Schlegel, G. E. Scuseria, 
 M. A. Robb, J. R. Cheeseman, G. Scalmani, V. Barone, B. Mennucci, 
 G. A. Petersson, H. Nakatsuji, M. Caricato, X. Li, H. P. Hratchian, 
 A. F. Izmaylov, J. Bloino, G. Zheng, J. L. Sonnenberg, M. Hada, 
 M. Ehara, K. Toyota, R. Fukuda, J. Hasegawa, M. Ishida, T. Nakajima, 
 Y. Honda, O. Kitao, H. Nakai, T. Vreven, J. A. Montgomery, Jr., 
 J. E. Peralta, F. Ogliaro, M. Bearpark, J. J. Heyd, E. Brothers, 
 K. N. Kudin, V. N. Staroverov, T. Keith, R. Kobayashi, J. Normand, 
 K. Raghavachari, A. Rendell, J. C. Burant, S. S. Iyengar, J. Tomasi, 
 M. Cossi, N. Rega, J. M. Millam, M. Klene, J. E. Knox, J. B. Cross, 
 V. Bakken, C. Adamo, J. Jaramillo, R. Gomperts, R. E. Stratmann, 
 O. Yazyev, A. J. Austin, R. Cammi, C. Pomelli, J. W. Ochterski, 
 R. L. Martin, K. Morokuma, V. G. Zakrzewski, G. A. Voth, 
 P. Salvador, J. J. Dannenberg, S. Dapprich, A. D. Daniels, 
 O. Farkas, J. B. Foresman, J. V. Ortiz, J. Cioslowski, 
 and D. J. Fox, Gaussian, Inc., Wallingford CT, 2013.
 
 ******************************************
 Gaussian 09:  ES64L-G09RevD.01 24-Apr-2013
                22-Aug-2020 
 ******************************************
 %nproc=8
 Will use up to    8 processors via shared memory.
 %mem=1000MB
 ----------------------------------------
 # rb3lyp/6-311+g** NMR geom=connectivity
 ----------------------------------------
 1/38=1,57=2/1;
 2/12=2,17=6,18=5,40=1/2;
 3/5=4,6=6,7=111,11=2,16=1,25=1,30=1,74=-5,116=1/1,2,8,3;
 4//1;
 5/5=2,38=5/2;
 8/6=1,10=90,11=11/1;
 10/13=100,45=16/2;
 6/7=2,8=2,9=2,10=2,28=1/1;
 99/9=1/99;
 -----
 Title
 -----
 Symbolic Z-matrix:
 Charge =  0 Multiplicity = 1
 C                    -4.05006  -0.57719   0.81367 
 H                    -5.02638  -1.00827   1.00248 
 C                    -3.93816   0.66178   0.24009 
 H                    -4.82524   1.23389  -0.01113 
 C                    -2.67684   1.24332   0.00576 
 C                    -1.49741   0.50515   0.28483 
 C                    -1.65083  -0.73387   0.9404 
 H                    -0.77136  -1.2731    1.26338 
 C                    -2.88985  -1.2624    1.19943 
 H                    -2.96837  -2.21246   1.71527 
 C                    -2.57732   2.59637  -0.41929 
 H                    -3.48707   3.14122  -0.64741 
 C                    -1.37419   3.21479  -0.4364 
 H                    -1.29973   4.2742   -0.65781 
 C                    -0.17195   2.49941  -0.17346 
 C                    -0.20439   1.10184   0.01927 
 C                     1.05135   3.20426  -0.06762 
 H                     1.04273   4.28195  -0.1897 
 C                     2.19421   2.54874   0.25796 
 H                     3.11685   3.09128   0.43347 
 C                     2.22165   1.13366   0.2935 
 C                     1.04869   0.39455   0.03024 
 C                     3.44834   0.46146   0.55739 
 H                     4.30958   1.06061   0.83348 
 C                     3.54273  -0.88559   0.47495 
 H                     4.47315  -1.39397   0.70388 
 C                     2.44901  -1.64744  -0.01963 
 C                     1.21507  -1.00573  -0.30136 
 C                     0.25311  -1.74344  -1.02166 
 H                    -0.65414  -1.25351  -1.34628 
 C                     0.44942  -3.06286  -1.34138 
 H                    -0.30832  -3.59443  -1.90541 
 C                     1.62517  -3.7208   -0.95525 
 H                     1.767    -4.76874  -1.1927 
 C                     2.61099  -3.01442  -0.31831 
 H                     3.55256  -3.49028  -0.06464 
 Bq                    1.75346   0.60421   0.35765 
 Bq                    1.5737    0.50461   1.02681 
 Bq                    1.77913   0.61843   0.26206 
 Bq                    1.54803   0.49039   1.1224 
 Bq                    1.80481   0.63266   0.16647 
 Bq                    1.67642   0.56152   0.64444 
 Bq                    1.64705   0.64628   0.75377 
 Bq                    1.69841   0.67473   0.56258 
 Bq                    1.62137   0.63205   0.84936 
 Bq                    1.72409   0.68896   0.46699 
 Bq                    1.59569   0.61782   0.94496 
 Bq                    1.74976   0.70319   0.37139 
 Bq                    1.57001   0.6036    1.04055 
 Bq                    1.77544   0.71742   0.2758 
 Bq                    1.54433   0.58937   1.13614 
 Bq                    1.80112   0.73165   0.18021 
 Bq                    1.67273   0.66051   0.65818 
 Bq                    1.64336   0.74526   0.76751 
 Bq                    1.69472   0.77372   0.57632 
 Bq                    1.61768   0.73103   0.8631 
 Bq                    1.7204    0.78794   0.48073 
 Bq                    1.592     0.71681   0.9587 
 Bq                    1.74607   0.80217   0.38513 
 Bq                    1.56632   0.70258   1.05429 
 Bq                    1.77175   0.8164    0.28954 
 Bq                    1.54064   0.68835   1.14988 
 Bq                    1.79743   0.83063   0.19395 
 Bq                    1.66904   0.75949   0.67192 
 Bq                    1.63967   0.84424   0.78125 
 Bq                    1.69103   0.8727    0.59006 
 Bq                    1.61399   0.83002   0.87684 
 Bq                    1.7167    0.88693   0.49447 
 Bq                    1.58831   0.81579   0.97244 
 Bq                    1.74238   0.90116   0.39888 
 Bq                    1.56263   0.80156   1.06803 
 Bq                    1.76806   0.91538   0.30328 
 Bq                    1.53695   0.78733   1.16363 
 Bq                    1.79374   0.92961   0.20769 
 Bq                    1.66535   0.85847   0.68566 
 Bq                    1.63598   0.94323   0.79499 
 Bq                    1.68733   0.97168   0.6038 
 Bq                    1.6103    0.929     0.89058 
 Bq                    1.71301   0.98591   0.50821 
 Bq                    1.58462   0.91477   0.98618 
 Bq                    1.73869   1.00014   0.41262 
 Bq                    1.55894   0.90054   1.08177 
 Bq                    1.76437   1.01437   0.31702 
 Bq                    1.53326   0.88632   1.17737 
 Bq                    1.79005   1.02859   0.22143 
 Bq                    1.66166   0.95745   0.6994 
 Bq                    1.63229   1.04221   0.80873 
 Bq                    1.68364   1.07067   0.61754 
 Bq                    1.60661   1.02798   0.90433 
 Bq                    1.70932   1.08489   0.52195 
 Bq                    1.58093   1.01375   0.99992 
 Bq                    1.735     1.09912   0.42636 
 Bq                    1.55525   0.99953   1.09551 
 Bq                    1.76068   1.11335   0.33076 
 Bq                    1.52957   0.9853    1.19111 
 Bq                    1.78636   1.12758   0.23517 
 Bq                    1.65796   1.05644   0.71314 
 Bq                    1.62859   1.14119   0.82247 
 Bq                    1.67995   1.16965   0.63128 
 Bq                    1.60292   1.12696   0.91807 
 Bq                    1.70563   1.18388   0.53569 
 Bq                    1.57724   1.11274   1.01366 
 Bq                    1.73131   1.1981    0.4401 
 Bq                    1.55156   1.09851   1.10925 
 Bq                    1.75699   1.21233   0.3445 
 Bq                    1.52588   1.08428   1.20485 
 Bq                    1.78267   1.22656   0.24891 
 Bq                    1.65427   1.15542   0.72688 
 Bq                    1.6249    1.24018   0.83621 
 Bq                    1.67626   1.26863   0.64503 
 Bq                    1.59922   1.22595   0.93181 
 Bq                    1.70194   1.28286   0.54943 
 Bq                    1.57355   1.21172   1.0274 
 Bq                    1.72762   1.29709   0.45384 
 Bq                    1.54787   1.19749   1.12299 
 Bq                    1.7533    1.31131   0.35824 
 Bq                    1.52219   1.18326   1.21859 
 Bq                    1.77898   1.32554   0.26265 
 Bq                    1.65058   1.2544    0.74062 
 Bq                    1.62121   1.33916   0.84995 
 Bq                    1.67257   1.36761   0.65877 
 Bq                    1.59553   1.32493   0.94555 
 Bq                    1.69825   1.38184   0.56317 
 Bq                    1.56985   1.3107    1.04114 
 Bq                    1.72393   1.39607   0.46758 
 Bq                    1.54418   1.29648   1.13673 
 Bq                    1.74961   1.4103    0.37198 
 Bq                    1.5185    1.28225   1.23233 
 Bq                    1.77529   1.42452   0.27639 
 Bq                    1.64689   1.35339   0.75436 
 Bq                    1.61752   1.43814   0.86369 
 Bq                    1.66888   1.4666    0.67251 
 Bq                    1.59184   1.42391   0.95929 
 Bq                    1.69456   1.48082   0.57691 
 Bq                    1.56616   1.40969   1.05488 
 Bq                    1.72024   1.49505   0.48132 
 Bq                    1.54048   1.39546   1.15047 
 Bq                    1.74592   1.50928   0.38572 
 Bq                    1.51481   1.38123   1.24607 
 Bq                    1.77159   1.52351   0.29013 
 Bq                    1.6432    1.45237   0.7681 
 Bq                    1.61383   1.53712   0.87743 
 Bq                    1.66519   1.56558   0.68625 
 Bq                    1.58815   1.5229    0.97303 
 Bq                    1.69087   1.57981   0.59065 
 Bq                    1.56247   1.50867   1.06862 
 Bq                    1.71655   1.59403   0.49506 
 Bq                    1.53679   1.49444   1.16422 
 Bq                    1.74222   1.60826   0.39947 
 Bq                    1.51111   1.48021   1.25981 
 Bq                    1.7679    1.62249   0.30387 
 Bq                    1.63951   1.55135   0.78184 
 Bq                    1.61014   1.63611   0.89117 
 Bq                    1.6615    1.66456   0.69999 
 Bq                    1.58446   1.62188   0.98677 
 Bq                    1.68718   1.67879   0.60439 
 Bq                    1.55878   1.60765   1.08236 
 Bq                    1.71285   1.69302   0.5088 
 Bq                    1.5331    1.59342   1.17796 
 Bq                    1.73853   1.70724   0.41321 
 Bq                    1.50742   1.5792    1.27355 
 Bq                    1.76421   1.72147   0.31761 
 Bq                    1.63582   1.65033   0.79558 
 Bq                    1.60645   1.73509   0.90492 
 Bq                    1.65781   1.76354   0.71373 
 Bq                    1.58077   1.72086   1.00051 
 Bq                    1.68348   1.77777   0.61813 
 Bq                    1.55509   1.70663   1.0961 
 Bq                    1.70916   1.792     0.52254 
 Bq                    1.52941   1.69241   1.1917 
 Bq                    1.73484   1.80623   0.42695 
 Bq                    1.50373   1.67818   1.28729 
 Bq                    1.76052   1.82045   0.33135 
 Bq                    1.63213   1.74932   0.80932 
 Bq                    1.60276   1.83407   0.91866 
 Bq                    1.65411   1.86253   0.72747 
 Bq                    1.57708   1.81984   1.01425 
 Bq                    1.67979   1.87675   0.63187 
 Bq                    1.5514    1.80562   1.10984 
 Bq                    1.70547   1.89098   0.53628 
 Bq                    1.52572   1.79139   1.20544 
 Bq                    1.73115   1.90521   0.44069 
 Bq                    1.50004   1.77716   1.30103 
 Bq                    1.75683   1.91944   0.34509 
 Bq                    1.62844   1.8483    0.82306 
 Bq                    1.59907   1.93305   0.9324 
 Bq                    1.65042   1.96151   0.74121 
 Bq                    1.57339   1.91883   1.02799 
 Bq                    1.6761    1.97574   0.64562 
 Bq                    1.54771   1.9046    1.12358 
 Bq                    1.70178   1.98996   0.55002 
 Bq                    1.52203   1.89037   1.21918 
 Bq                    1.72746   2.00419   0.45443 
 Bq                    1.49635   1.87614   1.31477 
 Bq                    1.75314   2.01842   0.35883 
 Bq                    1.62474   1.94728   0.8368 
 Bq                    1.59537   2.03204   0.94614 
 Bq                    1.64673   2.06049   0.75495 
 Bq                    1.5697    2.01781   1.04173 
 Bq                    1.67241   2.07472   0.65936 
 Bq                    1.54402   2.00358   1.13732 
 Bq                    1.69809   2.08895   0.56376 
 Bq                    1.51834   1.98935   1.23292 
 Bq                    1.72377   2.10318   0.46817 
 Bq                    1.49266   1.97513   1.32851 
 Bq                    1.74945   2.1174    0.37257 
 Bq                    1.62105   2.04626   0.85054 
 Bq                    1.59168   2.13102   0.95988 
 Bq                    1.64304   2.15947   0.76869 
 Bq                    1.566     2.11679   1.05547 
 Bq                    1.66872   2.1737    0.6731 
 Bq                    1.54033   2.10256   1.15106 
 Bq                    1.6944    2.18793   0.5775 
 Bq                    1.51465   2.08834   1.24666 
 Bq                    1.72008   2.20216   0.48191 
 Bq                    1.48897   2.07411   1.34225 
 Bq                    1.74576   2.21639   0.38631 
 Bq                    1.61736   2.14525   0.86428 
 Bq                    1.87281  -2.81812   0.29879 
 Bq                    1.92417  -2.78966   0.10761 
 Bq                    1.84713  -2.83234   0.39439 
 Bq                    1.94985  -2.77543   0.01201 
 Bq                    1.82145  -2.84657   0.48998 
 Bq                    1.97553  -2.7612   -0.08358 
 Bq                    1.79578  -2.8608    0.58557 
 Bq                    2.00121  -2.74698  -0.17918 
 Bq                    1.7701   -2.87503   0.68117 
 Bq                    2.02689  -2.73275  -0.27477 
 Bq                    1.89849  -2.80389   0.2032 
 Bq                    1.86912  -2.71913   0.31253 
 Bq                    1.92048  -2.69068   0.12135 
 Bq                    1.84344  -2.73336   0.40813 
 Bq                    1.94616  -2.67645   0.02575 
 Bq                    1.81776  -2.74759   0.50372 
 Bq                    1.97184  -2.66222  -0.06984 
 Bq                    1.79208  -2.76182   0.59932 
 
 Symmetry turned off:
 Cannot cope with ghost atoms or with translation vectors.
 Stoichiometry    C22H14
 Framework group  C1[X(C22H14)]
 NUMDOF-- NAT=    36 NAtoms=   236
 Deg. of freedom     0
 Full point group                 C1      NOp   1
                          Input orientation:                          
 ---------------------------------------------------------------------
 Center     Atomic      Atomic             Coordinates (Angstroms)
 Number     Number       Type             X           Y           Z
 ---------------------------------------------------------------------
      1          6           0       -4.050056   -0.577186    0.813671
      2          1           0       -5.026380   -1.008273    1.002476
      3          6           0       -3.938155    0.661780    0.240088
      4          1           0       -4.825242    1.233889   -0.011130
      5          6           0       -2.676841    1.243325    0.005758
      6          6           0       -1.497412    0.505153    0.284825
      7          6           0       -1.650833   -0.733873    0.940403
      8          1           0       -0.771365   -1.273097    1.263375
      9          6           0       -2.889855   -1.262404    1.199431
     10          1           0       -2.968371   -2.212456    1.715268
     11          6           0       -2.577319    2.596370   -0.419293
     12          1           0       -3.487073    3.141224   -0.647406
     13          6           0       -1.374190    3.214790   -0.436403
     14          1           0       -1.299732    4.274202   -0.657814
     15          6           0       -0.171949    2.499409   -0.173459
     16          6           0       -0.204392    1.101844    0.019269
     17          6           0        1.051349    3.204256   -0.067622
     18          1           0        1.042734    4.281950   -0.189700
     19          6           0        2.194209    2.548745    0.257958
     20          1           0        3.116853    3.091285    0.433473
     21          6           0        2.221647    1.133656    0.293499
     22          6           0        1.048693    0.394553    0.030241
     23          6           0        3.448336    0.461463    0.557394
     24          1           0        4.309579    1.060605    0.833485
     25          6           0        3.542735   -0.885593    0.474946
     26          1           0        4.473147   -1.393970    0.703882
     27          6           0        2.449005   -1.647445   -0.019632
     28          6           0        1.215070   -1.005726   -0.301357
     29          6           0        0.253111   -1.743444   -1.021659
     30          1           0       -0.654136   -1.253505   -1.346285
     31          6           0        0.449419   -3.062860   -1.341378
     32          1           0       -0.308316   -3.594431   -1.905406
     33          6           0        1.625173   -3.720797   -0.955254
     34          1           0        1.767005   -4.768740   -1.192702
     35          6           0        2.610987   -3.014418   -0.318305
     36          1           0        3.552561   -3.490281   -0.064637
     37          0           0        1.753456    0.604207    0.357654
     38          0           0        1.573704    0.504614    1.026810
     39          0           0        1.779135    0.618435    0.262060
     40          0           0        1.548025    0.490386    1.122404
     41          0           0        1.804814    0.632662    0.166466
     42          0           0        1.676419    0.561524    0.644435
     43          0           0        1.647050    0.646279    0.753769
     44          0           0        1.698407    0.674735    0.562582
     45          0           0        1.621371    0.632052    0.849363
     46          0           0        1.724086    0.688962    0.466988
     47          0           0        1.595692    0.617824    0.944957
     48          0           0        1.749765    0.703190    0.371394
     49          0           0        1.570013    0.603596    1.040551
     50          0           0        1.775444    0.717417    0.275800
     51          0           0        1.544334    0.589369    1.136144
     52          0           0        1.801123    0.731645    0.180207
     53          0           0        1.672728    0.660507    0.658176
     54          0           0        1.643358    0.745262    0.767510
     55          0           0        1.694716    0.773717    0.576322
     56          0           0        1.617680    0.731034    0.863104
     57          0           0        1.720395    0.787945    0.480729
     58          0           0        1.592001    0.716807    0.958697
     59          0           0        1.746074    0.802173    0.385135
     60          0           0        1.566322    0.702579    1.054291
     61          0           0        1.771753    0.816400    0.289541
     62          0           0        1.540643    0.688351    1.149885
     63          0           0        1.797432    0.830628    0.193947
     64          0           0        1.669037    0.759490    0.671916
     65          0           0        1.639667    0.844245    0.781250
     66          0           0        1.691025    0.872700    0.590063
     67          0           0        1.613989    0.830017    0.876844
     68          0           0        1.716704    0.886928    0.494469
     69          0           0        1.588310    0.815789    0.972438
     70          0           0        1.742383    0.901155    0.398875
     71          0           0        1.562631    0.801562    1.068032
     72          0           0        1.768062    0.915383    0.303282
     73          0           0        1.536952    0.787334    1.163626
     74          0           0        1.793741    0.929611    0.207688
     75          0           0        1.665346    0.858472    0.685657
     76          0           0        1.635976    0.943227    0.794991
     77          0           0        1.687334    0.971683    0.603803
     78          0           0        1.610298    0.929000    0.890585
     79          0           0        1.713013    0.985910    0.508210
     80          0           0        1.584619    0.914772    0.986178
     81          0           0        1.738692    1.000138    0.412616
     82          0           0        1.558940    0.900544    1.081772
     83          0           0        1.764371    1.014366    0.317022
     84          0           0        1.533261    0.886317    1.177366
     85          0           0        1.790050    1.028593    0.221428
     86          0           0        1.661655    0.957455    0.699397
     87          0           0        1.632285    1.042210    0.808731
     88          0           0        1.683643    1.070665    0.617544
     89          0           0        1.606606    1.027982    0.904325
     90          0           0        1.709322    1.084893    0.521950
     91          0           0        1.580928    1.013755    0.999919
     92          0           0        1.735001    1.099121    0.426356
     93          0           0        1.555249    0.999527    1.095513
     94          0           0        1.760680    1.113348    0.330763
     95          0           0        1.529570    0.985299    1.191107
     96          0           0        1.786359    1.127576    0.235169
     97          0           0        1.657964    1.056438    0.713138
     98          0           0        1.628594    1.141193    0.822472
     99          0           0        1.679952    1.169648    0.631284
    100          0           0        1.602915    1.126965    0.918066
    101          0           0        1.705631    1.183876    0.535691
    102          0           0        1.577237    1.112737    1.013660
    103          0           0        1.731310    1.198103    0.440097
    104          0           0        1.551558    1.098510    1.109253
    105          0           0        1.756989    1.212331    0.344503
    106          0           0        1.525879    1.084282    1.204847
    107          0           0        1.782667    1.226559    0.248909
    108          0           0        1.654273    1.155420    0.726878
    109          0           0        1.624903    1.240175    0.836213
    110          0           0        1.676261    1.268631    0.645025
    111          0           0        1.599224    1.225948    0.931806
    112          0           0        1.701940    1.282858    0.549431
    113          0           0        1.573546    1.211720    1.027400
    114          0           0        1.727619    1.297086    0.453837
    115          0           0        1.547867    1.197492    1.122994
    116          0           0        1.753298    1.311314    0.358244
    117          0           0        1.522188    1.183265    1.218588
    118          0           0        1.778976    1.325541    0.262650
    119          0           0        1.650582    1.254403    0.740619
    120          0           0        1.621212    1.339158    0.849953
    121          0           0        1.672570    1.367613    0.658766
    122          0           0        1.595533    1.324930    0.945547
    123          0           0        1.698249    1.381841    0.563172
    124          0           0        1.569854    1.310703    1.041141
    125          0           0        1.723928    1.396069    0.467578
    126          0           0        1.544176    1.296475    1.136734
    127          0           0        1.749607    1.410296    0.371984
    128          0           0        1.518497    1.282247    1.232328
    129          0           0        1.775285    1.424524    0.276390
    130          0           0        1.646891    1.353386    0.754359
    131          0           0        1.617521    1.438141    0.863694
    132          0           0        1.668879    1.466596    0.672506
    133          0           0        1.591842    1.423913    0.959287
    134          0           0        1.694558    1.480824    0.576912
    135          0           0        1.566163    1.409685    1.054881
    136          0           0        1.720237    1.495051    0.481319
    137          0           0        1.540485    1.395458    1.150475
    138          0           0        1.745915    1.509279    0.385725
    139          0           0        1.514806    1.381230    1.246069
    140          0           0        1.771594    1.523507    0.290131
    141          0           0        1.643200    1.452368    0.768100
    142          0           0        1.613830    1.537123    0.877434
    143          0           0        1.665188    1.565579    0.686247
    144          0           0        1.588151    1.522896    0.973028
    145          0           0        1.690867    1.579806    0.590653
    146          0           0        1.562472    1.508668    1.068622
    147          0           0        1.716546    1.594034    0.495059
    148          0           0        1.536793    1.494440    1.164216
    149          0           0        1.742224    1.608262    0.399465
    150          0           0        1.511115    1.480213    1.259809
    151          0           0        1.767903    1.622489    0.303872
    152          0           0        1.639509    1.551351    0.781840
    153          0           0        1.610139    1.636106    0.891175
    154          0           0        1.661497    1.664561    0.699987
    155          0           0        1.584460    1.621878    0.986769
    156          0           0        1.687176    1.678789    0.604393
    157          0           0        1.558781    1.607651    1.082362
    158          0           0        1.712854    1.693017    0.508800
    159          0           0        1.533102    1.593423    1.177956
    160          0           0        1.738533    1.707244    0.413206
    161          0           0        1.507424    1.579195    1.273550
    162          0           0        1.764212    1.721472    0.317612
    163          0           0        1.635818    1.650334    0.795581
    164          0           0        1.606448    1.735089    0.904915
    165          0           0        1.657806    1.763544    0.713728
    166          0           0        1.580769    1.720861    1.000509
    167          0           0        1.683485    1.777772    0.618134
    168          0           0        1.555090    1.706634    1.096103
    169          0           0        1.709163    1.791999    0.522540
    170          0           0        1.529411    1.692406    1.191697
    171          0           0        1.734842    1.806227    0.426946
    172          0           0        1.503733    1.678178    1.287290
    173          0           0        1.760521    1.820455    0.331353
    174          0           0        1.632127    1.749316    0.809321
    175          0           0        1.602757    1.834072    0.918656
    176          0           0        1.654115    1.862527    0.727468
    177          0           0        1.577078    1.819844    1.014250
    178          0           0        1.679794    1.876754    0.631874
    179          0           0        1.551399    1.805616    1.109843
    180          0           0        1.705472    1.890982    0.536281
    181          0           0        1.525720    1.791389    1.205437
    182          0           0        1.731151    1.905210    0.440687
    183          0           0        1.500041    1.777161    1.301031
    184          0           0        1.756830    1.919437    0.345093
    185          0           0        1.628436    1.848299    0.823062
    186          0           0        1.599066    1.933054    0.932396
    187          0           0        1.650424    1.961510    0.741209
    188          0           0        1.573387    1.918827    1.027990
    189          0           0        1.676102    1.975737    0.645615
    190          0           0        1.547708    1.904599    1.123584
    191          0           0        1.701781    1.989965    0.550021
    192          0           0        1.522029    1.890371    1.219178
    193          0           0        1.727460    2.004193    0.454427
    194          0           0        1.496350    1.876144    1.314771
    195          0           0        1.753139    2.018420    0.358834
    196          0           0        1.624745    1.947282    0.836803
    197          0           0        1.595375    2.032037    0.946137
    198          0           0        1.646733    2.060492    0.754949
    199          0           0        1.569696    2.017809    1.041731
    200          0           0        1.672411    2.074720    0.659356
    201          0           0        1.544017    2.003582    1.137324
    202          0           0        1.698090    2.088948    0.563762
    203          0           0        1.518338    1.989354    1.232918
    204          0           0        1.723769    2.103175    0.468168
    205          0           0        1.492659    1.975126    1.328512
    206          0           0        1.749448    2.117403    0.372574
    207          0           0        1.621054    2.046265    0.850543
    208          0           0        1.591684    2.131020    0.959877
    209          0           0        1.643042    2.159475    0.768690
    210          0           0        1.566005    2.116792    1.055471
    211          0           0        1.668720    2.173703    0.673096
    212          0           0        1.540326    2.102564    1.151065
    213          0           0        1.694399    2.187930    0.577502
    214          0           0        1.514647    2.088337    1.246659
    215          0           0        1.720078    2.202158    0.481909
    216          0           0        1.488968    2.074109    1.342253
    217          0           0        1.745757    2.216386    0.386315
    218          0           0        1.617363    2.145247    0.864284
    219          0           0        1.872813   -2.818115    0.298793
    220          0           0        1.924170   -2.789660    0.107606
    221          0           0        1.847134   -2.832343    0.394387
    222          0           0        1.949849   -2.775432    0.012012
    223          0           0        1.821455   -2.846570    0.489981
    224          0           0        1.975528   -2.761204   -0.083582
    225          0           0        1.795776   -2.860798    0.585575
    226          0           0        2.001207   -2.746977   -0.179176
    227          0           0        1.770097   -2.875026    0.681168
    228          0           0        2.026886   -2.732749   -0.274769
    229          0           0        1.898491   -2.803887    0.203199
    230          0           0        1.869122   -2.719132    0.312534
    231          0           0        1.920479   -2.690677    0.121346
    232          0           0        1.843443   -2.733360    0.408128
    233          0           0        1.946158   -2.676449    0.025752
    234          0           0        1.817764   -2.747588    0.503721
    235          0           0        1.971837   -2.662222   -0.069841
    236          0           0        1.792085   -2.761815    0.599315
 ---------------------------------------------------------------------
 Rotational constants (GHZ):      0.4529074      0.2836956      0.1879557
 Standard basis: 6-311+G(d,p) (5D, 7F)
 Warning:  center  37 has no basis functions!
 Warning:  center  38 has no basis functions!
 Warning:  center  39 has no basis functions!
 Warning:  center  40 has no basis functions!
 Warning:  center  41 has no basis functions!
 Warning:  center  42 has no basis functions!
 Warning:  center  43 has no basis functions!
 Warning:  center  44 has no basis functions!
 Warning:  center  45 has no basis functions!
 Warning:  center  46 has no basis functions!
 Warning:  center  47 has no basis functions!
 Warning:  center  48 has no basis functions!
 Warning:  center  49 has no basis functions!
 Warning:  center  50 has no basis functions!
 Warning:  center  51 has no basis functions!
 Warning:  center  52 has no basis functions!
 Warning:  center  53 has no basis functions!
 Warning:  center  54 has no basis functions!
 Warning:  center  55 has no basis functions!
 Warning:  center  56 has no basis functions!
 Warning:  center  57 has no basis functions!
 Warning:  center  58 has no basis functions!
 Warning:  center  59 has no basis functions!
 Warning:  center  60 has no basis functions!
 Warning:  center  61 has no basis functions!
 Warning:  center  62 has no basis functions!
 Warning:  center  63 has no basis functions!
 Warning:  center  64 has no basis functions!
 Warning:  center  65 has no basis functions!
 Warning:  center  66 has no basis functions!
 Warning:  center  67 has no basis functions!
 Warning:  center  68 has no basis functions!
 Warning:  center  69 has no basis functions!
 Warning:  center  70 has no basis functions!
 Warning:  center  71 has no basis functions!
 Warning:  center  72 has no basis functions!
 Warning:  center  73 has no basis functions!
 Warning:  center  74 has no basis functions!
 Warning:  center  75 has no basis functions!
 Warning:  center  76 has no basis functions!
 Warning:  center  77 has no basis functions!
 Warning:  center  78 has no basis functions!
 Warning:  center  79 has no basis functions!
 Warning:  center  80 has no basis functions!
 Warning:  center  81 has no basis functions!
 Warning:  center  82 has no basis functions!
 Warning:  center  83 has no basis functions!
 Warning:  center  84 has no basis functions!
 Warning:  center  85 has no basis functions!
 Warning:  center  86 has no basis functions!
 Warning:  center  87 has no basis functions!
 Warning:  center  88 has no basis functions!
 Warning:  center  89 has no basis functions!
 Warning:  center  90 has no basis functions!
 Warning:  center  91 has no basis functions!
 Warning:  center  92 has no basis functions!
 Warning:  center  93 has no basis functions!
 Warning:  center  94 has no basis functions!
 Warning:  center  95 has no basis functions!
 Warning:  center  96 has no basis functions!
 Warning:  center  97 has no basis functions!
 Warning:  center  98 has no basis functions!
 Warning:  center  99 has no basis functions!
 Warning:  center 100 has no basis functions!
 Warning:  center 101 has no basis functions!
 Warning:  center 102 has no basis functions!
 Warning:  center 103 has no basis functions!
 Warning:  center 104 has no basis functions!
 Warning:  center 105 has no basis functions!
 Warning:  center 106 has no basis functions!
 Warning:  center 107 has no basis functions!
 Warning:  center 108 has no basis functions!
 Warning:  center 109 has no basis functions!
 Warning:  center 110 has no basis functions!
 Warning:  center 111 has no basis functions!
 Warning:  center 112 has no basis functions!
 Warning:  center 113 has no basis functions!
 Warning:  center 114 has no basis functions!
 Warning:  center 115 has no basis functions!
 Warning:  center 116 has no basis functions!
 Warning:  center 117 has no basis functions!
 Warning:  center 118 has no basis functions!
 Warning:  center 119 has no basis functions!
 Warning:  center 120 has no basis functions!
 Warning:  center 121 has no basis functions!
 Warning:  center 122 has no basis functions!
 Warning:  center 123 has no basis functions!
 Warning:  center 124 has no basis functions!
 Warning:  center 125 has no basis functions!
 Warning:  center 126 has no basis functions!
 Warning:  center 127 has no basis functions!
 Warning:  center 128 has no basis functions!
 Warning:  center 129 has no basis functions!
 Warning:  center 130 has no basis functions!
 Warning:  center 131 has no basis functions!
 Warning:  center 132 has no basis functions!
 Warning:  center 133 has no basis functions!
 Warning:  center 134 has no basis functions!
 Warning:  center 135 has no basis functions!
 Warning:  center 136 has no basis functions!
 Warning:  center 137 has no basis functions!
 Warning:  center 138 has no basis functions!
 Warning:  center 139 has no basis functions!
 Warning:  center 140 has no basis functions!
 Warning:  center 141 has no basis functions!
 Warning:  center 142 has no basis functions!
 Warning:  center 143 has no basis functions!
 Warning:  center 144 has no basis functions!
 Warning:  center 145 has no basis functions!
 Warning:  center 146 has no basis functions!
 Warning:  center 147 has no basis functions!
 Warning:  center 148 has no basis functions!
 Warning:  center 149 has no basis functions!
 Warning:  center 150 has no basis functions!
 Warning:  center 151 has no basis functions!
 Warning:  center 152 has no basis functions!
 Warning:  center 153 has no basis functions!
 Warning:  center 154 has no basis functions!
 Warning:  center 155 has no basis functions!
 Warning:  center 156 has no basis functions!
 Warning:  center 157 has no basis functions!
 Warning:  center 158 has no basis functions!
 Warning:  center 159 has no basis functions!
 Warning:  center 160 has no basis functions!
 Warning:  center 161 has no basis functions!
 Warning:  center 162 has no basis functions!
 Warning:  center 163 has no basis functions!
 Warning:  center 164 has no basis functions!
 Warning:  center 165 has no basis functions!
 Warning:  center 166 has no basis functions!
 Warning:  center 167 has no basis functions!
 Warning:  center 168 has no basis functions!
 Warning:  center 169 has no basis functions!
 Warning:  center 170 has no basis functions!
 Warning:  center 171 has no basis functions!
 Warning:  center 172 has no basis functions!
 Warning:  center 173 has no basis functions!
 Warning:  center 174 has no basis functions!
 Warning:  center 175 has no basis functions!
 Warning:  center 176 has no basis functions!
 Warning:  center 177 has no basis functions!
 Warning:  center 178 has no basis functions!
 Warning:  center 179 has no basis functions!
 Warning:  center 180 has no basis functions!
 Warning:  center 181 has no basis functions!
 Warning:  center 182 has no basis functions!
 Warning:  center 183 has no basis functions!
 Warning:  center 184 has no basis functions!
 Warning:  center 185 has no basis functions!
 Warning:  center 186 has no basis functions!
 Warning:  center 187 has no basis functions!
 Warning:  center 188 has no basis functions!
 Warning:  center 189 has no basis functions!
 Warning:  center 190 has no basis functions!
 Warning:  center 191 has no basis functions!
 Warning:  center 192 has no basis functions!
 Warning:  center 193 has no basis functions!
 Warning:  center 194 has no basis functions!
 Warning:  center 195 has no basis functions!
 Warning:  center 196 has no basis functions!
 Warning:  center 197 has no basis functions!
 Warning:  center 198 has no basis functions!
 Warning:  center 199 has no basis functions!
 Warning:  center 200 has no basis functions!
 Warning:  center 201 has no basis functions!
 Warning:  center 202 has no basis functions!
 Warning:  center 203 has no basis functions!
 Warning:  center 204 has no basis functions!
 Warning:  center 205 has no basis functions!
 Warning:  center 206 has no basis functions!
 Warning:  center 207 has no basis functions!
 Warning:  center 208 has no basis functions!
 Warning:  center 209 has no basis functions!
 Warning:  center 210 has no basis functions!
 Warning:  center 211 has no basis functions!
 Warning:  center 212 has no basis functions!
 Warning:  center 213 has no basis functions!
 Warning:  center 214 has no basis functions!
 Warning:  center 215 has no basis functions!
 Warning:  center 216 has no basis functions!
 Warning:  center 217 has no basis functions!
 Warning:  center 218 has no basis functions!
 Warning:  center 219 has no basis functions!
 Warning:  center 220 has no basis functions!
 Warning:  center 221 has no basis functions!
 Warning:  center 222 has no basis functions!
 Warning:  center 223 has no basis functions!
 Warning:  center 224 has no basis functions!
 Warning:  center 225 has no basis functions!
 Warning:  center 226 has no basis functions!
 Warning:  center 227 has no basis functions!
 Warning:  center 228 has no basis functions!
 Warning:  center 229 has no basis functions!
 Warning:  center 230 has no basis functions!
 Warning:  center 231 has no basis functions!
 Warning:  center 232 has no basis functions!
 Warning:  center 233 has no basis functions!
 Warning:  center 234 has no basis functions!
 Warning:  center 235 has no basis functions!
 Warning:  center 236 has no basis functions!
   568 basis functions,   904 primitive gaussians,   590 cartesian basis functions
    73 alpha electrons       73 beta electrons
       nuclear repulsion energy      1610.9176155625 Hartrees.
 NAtoms=  236 NActive=  236 NUniq=  236 SFac= 1.00D+00 NAtFMM=   60 NAOKFM=T Big=T
 Integral buffers will be    131072 words long.
 Raffenetti 2 integral format.
 Two-electron integral symmetry is turned off.
 One-electron integrals computed using PRISM.
 NBasis=   568 RedAO= T EigKep=  1.78D-06  NBF=   568
 NBsUse=   556 1.00D-06 EigRej=  9.09D-07 NBFU=   556
 ExpMin= 4.38D-02 ExpMax= 4.56D+03 ExpMxC= 6.82D+02 IAcc=2 IRadAn=         4 AccDes= 0.00D+00
 Harris functional with IExCor=  402 and IRadAn=       4 diagonalized for initial guess.
 HarFok:  IExCor=  402 AccDes= 0.00D+00 IRadAn=         4 IDoV= 1 UseB2=F ITyADJ=14
 ICtDFT=  3500011 ScaDFX=  1.000000  1.000000  1.000000  1.000000
 FoFCou: FMM=F IPFlag=           0 FMFlag=      100000 FMFlg1=        2001
         NFxFlg=           0 DoJE=T BraDBF=F KetDBF=T FulRan=T
         wScrn=  0.000000 ICntrl=     500 IOpCl=  0 I1Cent=   200000004 NGrid=           0
         NMat0=    1 NMatS0=      1 NMatT0=    0 NMatD0=    1 NMtDS0=    0 NMtDT0=    0
 Symmetry not used in FoFCou.
 Requested convergence on RMS density matrix=1.00D-08 within 128 cycles.
 Requested convergence on MAX density matrix=1.00D-06.
 Requested convergence on             energy=1.00D-06.
 No special actions if energy rises.
 SCF Done:  E(RB3LYP) =  -847.003289847     A.U. after   15 cycles
            NFock= 15  Conv=0.76D-08     -V/T= 2.0040
 DoSCS=F DFT=T ScalE2(SS,OS)=  1.000000  1.000000
 Range of M.O.s used for correlation:     1   556
 NBasis=   568 NAE=    73 NBE=    73 NFC=     0 NFV=     0
 NROrb=    556 NOA=    73 NOB=    73 NVA=   483 NVB=   483

 **** Warning!!: The largest alpha MO coefficient is  0.10971037D+03

          Differentiating once with respect to magnetic field using GIAOs.
          Electric field/nuclear overlap derivatives assumed to be zero.
 FoFCou: FMM=F IPFlag=           0 FMFlag=      100000 FMFlg1=        2001
         NFxFlg=           0 DoJE=F BraDBF=F KetDBF=T FulRan=T
         wScrn=  0.000000 ICntrl=    6100 IOpCl=  0 I1Cent=           7 NGrid=         236
         NMat0=    1 NMatS0=      1 NMatT0=    0 NMatD0=    1 NMtDS0=    0 NMtDT0=    0
 Symmetry not used in FoFCou.
 FoFJK:  IHMeth= 1 ICntrl=    6127 DoSepK=F KAlg= 0 I1Cent=   0 FoldK=F
 IRaf=         1 NMat=   1 IRICut=       1 DoRegI=T DoRafI=F ISym2E= 0.
          There are     3 degrees of freedom in the 1st order CPHF.  IDoFFX=0 NUNeed=     3.
      3 vectors produced by pass  0 Test12= 1.18D-12 3.33D-08 XBig12= 2.07D+03 9.18D+00.
 AX will form     3 AO Fock derivatives at one time.
      3 vectors produced by pass  1 Test12= 1.18D-12 3.33D-08 XBig12= 3.56D+00 8.03D-01.
      3 vectors produced by pass  2 Test12= 1.18D-12 3.33D-08 XBig12= 2.10D-02 6.92D-02.
      3 vectors produced by pass  3 Test12= 1.18D-12 3.33D-08 XBig12= 5.45D-05 1.89D-03.
      3 vectors produced by pass  4 Test12= 1.18D-12 3.33D-08 XBig12= 1.20D-07 7.79D-05.
      3 vectors produced by pass  5 Test12= 1.18D-12 3.33D-08 XBig12= 4.02D-10 4.73D-06.
      3 vectors produced by pass  6 Test12= 1.18D-12 3.33D-08 XBig12= 1.32D-12 2.61D-07.
 InvSVY:  IOpt=1 It=  1 EMax= 7.11D-15
 Solved reduced A of dimension    21 with     3 vectors.
 Calculating GIAO nuclear magnetic shielding tensors.
 SCF GIAO Magnetic shielding tensor (ppm):
      1  C    Isotropic =    53.8139   Anisotropy =   178.0260
   XX=   -41.4327   YX=   -32.3458   ZX=    10.0287
   XY=   -28.3572   YY=    59.0527   ZY=    55.1899
   XZ=    13.1759   YZ=    58.7550   ZZ=   143.8218
   Eigenvalues:   -53.8775    42.8214   172.4979
      2  H    Isotropic =    24.3095   Anisotropy =     4.8536
   XX=    25.5771   YX=    -1.0289   ZX=     0.5661
   XY=    -0.7431   YY=    26.1829   ZY=    -2.3306
   XZ=    -0.1707   YZ=    -2.4411   ZZ=    21.1687
   Eigenvalues:    20.2108    25.1725    27.5453
      3  C    Isotropic =    51.4055   Anisotropy =   157.8639
   XX=   -31.5399   YX=    38.5015   ZX=   -17.9316
   XY=    34.3519   YY=    49.9437   ZY=    49.6392
   XZ=    -9.8383   YZ=    44.6006   ZZ=   135.8127
   Eigenvalues:   -50.5747    48.1432   156.6481
      4  H    Isotropic =    23.8290   Anisotropy =     7.1838
   XX=    25.3635   YX=     1.8486   ZX=    -0.3559
   XY=     1.9656   YY=    26.4581   ZY=    -2.4103
   XZ=    -1.2941   YZ=    -2.6614   ZZ=    19.6654
   Eigenvalues:    18.8176    24.0511    28.6182
      5  C    Isotropic =    46.0697   Anisotropy =   207.6751
   XX=   -19.2123   YX=    -4.8852   ZX=    -1.6475
   XY=     2.8938   YY=    -2.9860   ZY=    66.5656
   XZ=     2.5356   YZ=    67.9144   ZZ=   160.4073
   Eigenvalues:   -27.2455   -19.0652   184.5197
      6  C    Isotropic =    47.5218   Anisotropy =   196.9389
   XX=   -28.1552   YX=    -2.7889   ZX=    12.0660
   XY=   -14.3886   YY=    21.2063   ZY=    74.2521
   XZ=   -18.6356   YZ=    61.1113   ZZ=   149.5144
   Eigenvalues:   -30.2925    -5.9564   178.8144
      7  C    Isotropic =    49.3915   Anisotropy =   179.8333
   XX=   -12.5211   YX=    28.7048   ZX=   -24.6745
   XY=    31.5123   YY=    29.7000   ZY=    77.7459
   XZ=   -40.0095   YZ=    65.3072   ZZ=   130.9956
   Eigenvalues:   -52.1299    31.0240   169.2804
      8  H    Isotropic =    23.1586   Anisotropy =    13.5525
   XX=    28.5711   YX=     1.5482   ZX=    -3.6986
   XY=     3.2466   YY=    22.7592   ZY=    -2.1157
   XZ=    -8.3753   YZ=    -1.0821   ZZ=    18.1456
   Eigenvalues:    15.3521    21.9301    32.1936
      9  C    Isotropic =    55.1460   Anisotropy =   174.7426
   XX=    46.7071   YX=    -2.6162   ZX=    -2.8420
   XY=     0.6223   YY=    -1.6258   ZY=    92.8272
   XZ=     0.5159   YZ=    95.6598   ZZ=   120.3568
   Eigenvalues:   -52.8932    46.6901   171.6411
     10  H    Isotropic =    24.6278   Anisotropy =     7.1815
   XX=    29.1040   YX=     0.1399   ZX=    -0.3694
   XY=     0.3642   YY=    23.4778   ZY=    -1.0805
   XZ=    -2.4493   YZ=    -2.9465   ZZ=    21.3016
   Eigenvalues:    19.9703    24.4977    29.4155
     11  C    Isotropic =    51.5607   Anisotropy =   151.2142
   XX=     2.1639   YX=    40.9287   ZX=   -26.0048
   XY=    49.9131   YY=    12.2331   ZY=    42.1342
   XZ=   -15.6145   YZ=    38.6614   ZZ=   140.2851
   Eigenvalues:   -48.1951    50.5071   152.3701
     12  H    Isotropic =    23.8537   Anisotropy =     7.3815
   XX=    25.9672   YX=     2.3738   ZX=    -0.2390
   XY=     2.4320   YY=    26.3975   ZY=    -1.8291
   XZ=     0.3529   YZ=    -1.7731   ZZ=    19.1964
   Eigenvalues:    18.7149    24.0714    28.7747
     13  C    Isotropic =    52.8653   Anisotropy =   147.4265
   XX=    51.2944   YX=    19.9221   ZX=   -13.4678
   XY=    11.5478   YY=   -34.0176   ZY=    42.5079
   XZ=    -9.2241   YZ=    40.0716   ZZ=   141.3192
   Eigenvalues:   -46.5152    53.9616   151.1497
     14  H    Isotropic =    24.0156   Anisotropy =     7.3485
   XX=    28.6644   YX=     0.6281   ZX=     1.0808
   XY=     0.5926   YY=    24.4325   ZY=    -1.0823
   XZ=     1.6846   YZ=    -0.3842   ZZ=    18.9500
   Eigenvalues:    18.6430    24.4892    28.9146
     15  C    Isotropic =    46.2221   Anisotropy =   203.9048
   XX=   -27.2215   YX=    -0.0442   ZX=   -28.9124
   XY=     4.6427   YY=   -10.5571   ZY=    28.3830
   XZ=   -10.2704   YZ=    26.7376   ZZ=   176.4448
   Eigenvalues:   -30.5512   -12.9411   182.1586
     16  C    Isotropic =    51.9375   Anisotropy =   188.2004
   XX=   -19.4441   YX=     5.5046   ZX=    15.7858
   XY=    -8.3874   YY=     2.4863   ZY=    22.9264
   XZ=   -50.6243   YZ=    23.3340   ZZ=   172.7704
   Eigenvalues:   -21.0294    -0.5625   177.4045
     17  C    Isotropic =    51.9482   Anisotropy =   149.1264
   XX=    50.7296   YX=   -23.9353   ZX=   -18.4207
   XY=   -16.7271   YY=   -41.8764   ZY=    17.8662
   XZ=   -14.3278   YZ=    11.4871   ZZ=   146.9915
   Eigenvalues:   -46.7796    51.2584   151.3658
     18  H    Isotropic =    24.0122   Anisotropy =     7.5163
   XX=    28.5811   YX=    -0.0866   ZX=     1.5071
   XY=    -0.2466   YY=    24.3342   ZY=    -0.7657
   XZ=     2.5088   YZ=    -1.5208   ZZ=    19.1214
   Eigenvalues:    18.5094    24.5041    29.0231
     19  C    Isotropic =    51.7356   Anisotropy =   148.5924
   XX=     2.4559   YX=   -45.6913   ZX=   -31.2531
   XY=   -53.4448   YY=     7.4698   ZY=    -1.8888
   XZ=   -23.5601   YZ=    -1.2765   ZZ=   145.2810
   Eigenvalues:   -46.9894    51.3989   150.7972
     20  H    Isotropic =    23.9071   Anisotropy =     7.6651
   XX=    25.5796   YX=    -2.0226   ZX=     1.4905
   XY=    -1.9998   YY=    27.3706   ZY=    -0.5164
   XZ=     2.7276   YZ=    -1.1179   ZZ=    18.7711
   Eigenvalues:    18.1643    24.5398    29.0172
     21  C    Isotropic =    45.9767   Anisotropy =   203.9316
   XX=   -16.2108   YX=    13.1802   ZX=   -44.5913
   XY=     6.5714   YY=   -20.6329   ZY=     0.0949
   XZ=   -28.8984   YZ=   -13.0883   ZZ=   174.7736
   Eigenvalues:   -30.5796   -13.4215   181.9311
     22  C    Isotropic =    52.0450   Anisotropy =   188.1157
   XX=    -0.0787   YX=     2.5023   ZX=   -16.3451
   XY=    18.9327   YY=   -14.4798   ZY=   -34.4335
   XZ=   -50.6032   YZ=    19.9104   ZZ=   170.6934
   Eigenvalues:   -20.7705    -0.5500   177.4554
     23  C    Isotropic =    53.2392   Anisotropy =   146.7412
   XX=   -22.0674   YX=   -32.0012   ZX=   -49.4857
   XY=   -23.2043   YY=    44.3661   ZY=   -15.6400
   XZ=   -43.8090   YZ=   -20.2525   ZZ=   137.4189
   Eigenvalues:   -45.6776    54.3286   151.0667
     24  H    Isotropic =    23.8249   Anisotropy =     7.5289
   XX=    25.1073   YX=    -1.7330   ZX=     1.5380
   XY=    -1.5944   YY=    28.0047   ZY=     0.0879
   XZ=     1.2557   YZ=    -0.8283   ZZ=    18.3628
   Eigenvalues:    18.0848    24.5458    28.8442
     25  C    Isotropic =    51.4969   Anisotropy =   150.1066
   XX=   -28.4915   YX=    33.9684   ZX=   -52.3137
   XY=    22.0311   YY=    46.6072   ZY=    -3.8075
   XZ=   -44.5594   YZ=   -10.6355   ZZ=   136.3748
   Eigenvalues:   -48.3857    51.3083   151.5679
     26  H    Isotropic =    23.7431   Anisotropy =     7.4052
   XX=    24.0663   YX=     1.1141   ZX=     1.9989
   XY=     0.9693   YY=    28.1000   ZY=     1.6568
   XZ=     2.0795   YZ=     0.8886   ZZ=    19.0630
   Eigenvalues:    18.2615    24.2880    28.6799
     27  C    Isotropic =    45.8108   Anisotropy =   207.2710
   XX=    -2.7702   YX=    13.7697   ZX=   -61.4651
   XY=     6.5593   YY=   -12.0335   ZY=   -41.6456
   XZ=   -62.6381   YZ=   -44.9232   ZZ=   152.2361
   Eigenvalues:   -28.0803   -18.4787   183.9915
     28  C    Isotropic =    47.8398   Anisotropy =   197.2870
   XX=    19.6900   YX=    14.4398   ZX=   -60.5682
   XY=    28.5650   YY=   -19.3566   ZY=   -56.7015
   XZ=   -63.1331   YZ=   -24.4782   ZZ=   143.1859
   Eigenvalues:   -30.5979    -5.2472   179.3644
     29  C    Isotropic =    49.3441   Anisotropy =   179.7793
   XX=    -3.4110   YX=    38.3775   ZX=   -80.8875
   XY=    36.1252   YY=    25.9805   ZY=   -23.7573
   XZ=   -78.1065   YZ=    -3.9802   ZZ=   125.4627
   Eigenvalues:   -51.6645    30.4997   169.1970
     30  H    Isotropic =    23.1387   Anisotropy =    13.3222
   XX=    22.4354   YX=    -0.7013   ZX=    -0.2375
   XY=    -2.1539   YY=    28.3546   ZY=     4.5555
   XZ=    -3.4181   YZ=     8.3231   ZZ=    18.6259
   Eigenvalues:    15.2751    22.1208    32.0201
     31  C    Isotropic =    55.4410   Anisotropy =   174.9390
   XX=    17.1871   YX=   -14.0890   ZX=   -84.0024
   XY=   -17.9030   YY=    37.4745   ZY=   -50.3662
   XZ=   -84.6557   YZ=   -54.8325   ZZ=   111.6615
   Eigenvalues:   -51.9248    46.1808   172.0670
     32  H    Isotropic =    24.5337   Anisotropy =     7.2554
   XX=    24.6185   YX=    -2.5264   ZX=     0.7632
   XY=    -2.7385   YY=    27.4630   ZY=     1.0335
   XZ=     1.1913   YZ=     3.7573   ZZ=    21.5194
   Eigenvalues:    19.8987    24.3316    29.3706
     33  C    Isotropic =    53.1814   Anisotropy =   179.0596
   XX=    60.9231   YX=    35.2256   ZX=   -42.9515
   XY=    32.0226   YY=   -38.1801   ZY=   -45.5652
   XZ=   -44.2248   YZ=   -50.7831   ZZ=   136.8014
   Eigenvalues:   -55.1197    42.1095   172.5545
     34  H    Isotropic =    24.2825   Anisotropy =     5.1861
   XX=    26.7643   YX=    -0.0934   ZX=     2.5955
   XY=    -0.2993   YY=    24.8157   ZY=     0.8589
   XZ=     2.3715   YZ=     1.4580   ZZ=    21.2676
   Eigenvalues:    20.0339    25.0737    27.7399
     35  C    Isotropic =    51.5295   Anisotropy =   155.1748
   XX=    -0.5131   YX=    52.5760   ZX=   -52.1551
   XY=    55.6135   YY=    25.1843   ZY=   -14.2643
   XZ=   -45.7255   YZ=   -17.1625   ZZ=   129.9171
   Eigenvalues:   -48.3147    47.9237   154.9793
     36  H    Isotropic =    23.8384   Anisotropy =     7.3073
   XX=    24.2302   YX=     1.4459   ZX=     2.1759
   XY=     1.2147   YY=    27.1572   ZY=     2.0665
   XZ=     1.6853   YZ=     2.7775   ZZ=    20.1277
   Eigenvalues:    18.9464    23.8588    28.7099
     37  Bq   Isotropic =    35.0302   Anisotropy =    38.2124
   XX=    22.9780   YX=   -11.9098   ZX=    -8.4768
   XY=   -16.0498   YY=    24.7535   ZY=    -2.3291
   XZ=   -13.2517   YZ=    -6.0793   ZZ=    57.3591
   Eigenvalues:     7.4895    37.0960    60.5052
     38  Bq   Isotropic =    17.8524   Anisotropy =    29.3900
   XX=    12.5503   YX=    -2.1509   ZX=    -5.6567
   XY=    -1.0557   YY=     5.4698   ZY=    -3.9469
   XZ=    -3.0928   YZ=    -8.6716   ZZ=    35.5371
   Eigenvalues:     3.5075    12.6040    37.4457
     39  Bq   Isotropic =    35.0795   Anisotropy =    41.8019
   XX=    22.0634   YX=   -13.5631   ZX=    -9.2585
   XY=   -16.1029   YY=    24.0979   ZY=    -3.7476
   XZ=   -15.8811   YZ=    -4.5097   ZZ=    59.0773
   Eigenvalues:     5.4755    36.8157    62.9475
     40  Bq   Isotropic =    15.1430   Anisotropy =    28.9740
   XX=    10.0608   YX=    -1.8057   ZX=    -5.4086
   XY=     0.0533   YY=     2.6936   ZY=    -3.9091
   XZ=    -2.9845   YZ=    -8.0066   ZZ=    32.6745
   Eigenvalues:     1.2272     9.7427    34.4590
     41  Bq   Isotropic =    34.9609   Anisotropy =    44.1490
   XX=    21.5473   YX=   -14.5871   ZX=   -10.2822
   XY=   -14.9287   YY=    23.5744   ZY=    -5.7713
   XZ=   -17.8800   YZ=    -3.0959   ZZ=    59.7610
   Eigenvalues:     4.4860    36.0032    64.3936
     42  Bq   Isotropic =    30.4999   Anisotropy =    30.1997
   XX=    22.5681   YX=    -6.2347   ZX=    -7.0758
   XY=    -9.8356   YY=    20.4166   ZY=    -2.4310
   XZ=    -6.0011   YZ=    -9.4624   ZZ=    48.5150
   Eigenvalues:    11.3100    29.5567    50.6331
     43  Bq   Isotropic =    29.3004   Anisotropy =    32.5007
   XX=    21.1758   YX=    -5.6985   ZX=    -5.7085
   XY=    -7.8757   YY=    17.0126   ZY=    -1.8378
   XZ=    -4.5035   YZ=    -7.5039   ZZ=    49.7127
   Eigenvalues:    10.8061    26.1275    50.9675
     44  Bq   Isotropic =    35.3041   Anisotropy =    36.7017
   XX=    23.9273   YX=    -9.6723   ZX=    -5.9431
   XY=   -14.2717   YY=    23.5876   ZY=    -0.7186
   XZ=    -7.7632   YZ=    -6.7360   ZZ=    58.3974
   Eigenvalues:    10.6129    35.5275    59.7719
     45  Bq   Isotropic =    25.6112   Anisotropy =    31.7341
   XX=    18.5189   YX=    -4.2746   ZX=    -5.6885
   XY=    -5.1034   YY=    12.8352   ZY=    -2.3637
   XZ=    -3.6223   YZ=    -7.4906   ZZ=    45.4794
   Eigenvalues:     9.0008    21.0655    46.7672
     46  Bq   Isotropic =    36.8149   Anisotropy =    40.8152
   XX=    23.3706   YX=   -12.0202   ZX=    -6.5393
   XY=   -17.0624   YY=    24.7708   ZY=    -0.6900
   XZ=   -10.1736   YZ=    -6.0254   ZZ=    62.3034
   Eigenvalues:     8.2099    38.2098    64.0250
     47  Bq   Isotropic =    21.9732   Anisotropy =    31.2423
   XX=    15.5882   YX=    -3.2340   ZX=    -5.6381
   XY=    -2.8693   YY=     8.8322   ZY=    -2.7171
   XZ=    -3.0890   YZ=    -7.2641   ZZ=    41.4992
   Eigenvalues:     6.5334    16.5848    42.8014
     48  Bq   Isotropic =    37.1396   Anisotropy =    45.8191
   XX=    21.7101   YX=   -14.3134   ZX=    -7.8335
   XY=   -18.8329   YY=    24.3522   ZY=    -1.5303
   XZ=   -12.8503   YZ=    -5.2760   ZZ=    65.3565
   Eigenvalues:     4.7698    38.9633    67.6857
     49  Bq   Isotropic =    18.6257   Anisotropy =    30.7253
   XX=    12.7152   YX=    -2.5240   ZX=    -5.5494
   XY=    -1.1887   YY=     5.3384   ZY=    -2.8957
   XZ=    -2.7788   YZ=    -6.8891   ZZ=    37.8234
   Eigenvalues:     3.9053    12.8625    39.1092
     50  Bq   Isotropic =    36.6536   Anisotropy =    50.4451
   XX=    19.7630   YX=   -16.1933   ZX=    -9.9757
   XY=   -19.1333   YY=    23.0941   ZY=    -3.4178
   XZ=   -15.3595   YZ=    -4.6551   ZZ=    67.1036
   Eigenvalues:     1.4349    38.2422    70.2836
     51  Bq   Isotropic =    15.6914   Anisotropy =    30.0325
   XX=    10.1044   YX=    -2.0730   ZX=    -5.4280
   XY=    -0.0028   YY=     2.4995   ZY=    -2.9317
   XZ=    -2.5900   YZ=    -6.4280   ZZ=    34.4702
   Eigenvalues:     1.5160     9.8451    35.7130
     52  Bq   Isotropic =    36.0359   Anisotropy =    53.2001
   XX=    18.5756   YX=   -17.2197   ZX=   -12.7192
   XY=   -17.8603   YY=    22.2588   ZY=    -6.0270
   XZ=   -17.2015   YZ=    -4.2468   ZZ=    67.2732
   Eigenvalues:    -0.3965    37.0015    71.5026
     53  Bq   Isotropic =    32.6773   Anisotropy =    33.9941
   XX=    23.1233   YX=    -7.5167   ZX=    -5.7483
   XY=   -11.0407   YY=    20.8206   ZY=    -1.2194
   XZ=    -5.8579   YZ=    -7.2538   ZZ=    54.0882
   Eigenvalues:    11.4636    31.2284    55.3401
     54  Bq   Isotropic =    30.1255   Anisotropy =    34.5920
   XX=    20.5950   YX=    -6.2051   ZX=    -4.3616
   XY=    -7.7494   YY=    17.2253   ZY=    -0.3897
   XZ=    -4.1964   YZ=    -4.5245   ZZ=    52.5561
   Eigenvalues:    11.2226    25.9670    53.1868
     55  Bq   Isotropic =    36.0816   Anisotropy =    40.4695
   XX=    21.9243   YX=   -10.3705   ZX=    -3.7302
   XY=   -14.2838   YY=    24.0010   ZY=     0.7773
   XZ=    -7.3136   YZ=    -3.7797   ZZ=    62.3193
   Eigenvalues:    10.0949    35.0886    63.0612
     56  Bq   Isotropic =    26.2854   Anisotropy =    33.3007
   XX=    18.1642   YX=    -4.6957   ZX=    -4.8120
   XY=    -4.9715   YY=    12.8908   ZY=    -0.9710
   XZ=    -3.3186   YZ=    -4.7330   ZZ=    47.8014
   Eigenvalues:     9.4815    20.8889    48.4859
     57  Bq   Isotropic =    37.1452   Anisotropy =    45.7242
   XX=    19.8588   YX=   -12.8071   ZX=    -4.3737
   XY=   -17.2154   YY=    24.9913   ZY=     0.7674
   XZ=    -9.6169   YZ=    -3.5017   ZZ=    66.5854
   Eigenvalues:     6.5457    37.2618    67.6280
     58  Bq   Isotropic =    22.4885   Anisotropy =    32.4360
   XX=    15.3234   YX=    -3.5786   ZX=    -5.1313
   XY=    -2.7521   YY=     8.7711   ZY=    -1.3971
   XZ=    -2.7513   YZ=    -4.7862   ZZ=    43.3710
   Eigenvalues:     6.9642    16.3888    44.1125
     59  Bq   Isotropic =    36.6509   Anisotropy =    51.9599
   XX=    16.1913   YX=   -15.1486   ZX=    -6.4330
   XY=   -19.1230   YY=    24.0706   ZY=    -0.1978
   XZ=   -12.1980   YZ=    -3.5474   ZZ=    69.6909
   Eigenvalues:     1.4921    37.1698    71.2909
     60  Bq   Isotropic =    19.0030   Anisotropy =    31.6503
   XX=    12.4781   YX=    -2.8008   ZX=    -5.3017
   XY=    -1.0938   YY=     5.2070   ZY=    -1.6648
   XZ=    -2.3863   YZ=    -4.7066   ZZ=    39.3239
   Eigenvalues:     4.2429    12.6629    40.1032
     61  Bq   Isotropic =    35.1501   Anisotropy =    57.6612
   XX=    12.2206   YX=   -16.9829   ZX=   -10.1896
   XY=   -19.4628   YY=    22.1501   ZY=    -2.3154
   XZ=   -14.6114   YZ=    -4.0161   ZZ=    71.0794
   Eigenvalues:    -3.5750    35.4343    73.5908
     62  Bq   Isotropic =    15.9591   Anisotropy =    30.7591
   XX=     9.8696   YX=    -2.2905   ZX=    -5.3453
   XY=     0.0691   YY=     2.3348   ZY=    -1.8023
   XZ=    -2.1382   YZ=    -4.5313   ZZ=    35.6728
   Eigenvalues:     1.7620     9.6500    36.4651
     63  Bq   Isotropic =    33.7420   Anisotropy =    60.9173
   XX=     9.8065   YX=   -17.8162   ZX=   -15.1060
   XY=   -18.0562   YY=    20.8939   ZY=    -5.2013
   XZ=   -16.2982   YZ=    -4.7797   ZZ=    70.5256
   Eigenvalues:    -6.6063    33.4788    74.3535
     64  Bq   Isotropic =    33.5759   Anisotropy =    36.8120
   XX=    22.0513   YX=    -8.1172   ZX=    -3.9000
   XY=   -10.9577   YY=    21.1865   ZY=     0.2658
   XZ=    -5.5001   YZ=    -4.1777   ZZ=    57.4899
   Eigenvalues:    11.5960    31.0145    58.1172
     65  Bq   Isotropic =    29.8917   Anisotropy =    35.6281
   XX=    18.9689   YX=    -6.0935   ZX=    -2.8002
   XY=    -6.6163   YY=    17.3811   ZY=     0.9442
   XZ=    -3.7892   YZ=    -1.2622   ZZ=    53.3251
   Eigenvalues:    11.6425    24.3889    53.6438
     66  Bq   Isotropic =    35.1148   Anisotropy =    42.3709
   XX=    17.9352   YX=    -9.7063   ZX=    -1.0635
   XY=   -12.2254   YY=    24.4649   ZY=     2.0139
   XZ=    -6.7381   YZ=    -0.4326   ZZ=    62.9443
   Eigenvalues:     9.6254    32.3569    63.3621
     67  Bq   Isotropic =    26.1627   Anisotropy =    34.0765
   XX=    17.0568   YX=    -4.7219   ZX=    -3.7779
   XY=    -4.1843   YY=    12.9057   ZY=     0.3729
   XZ=    -2.9287   YZ=    -1.7376   ZZ=    48.5258
   Eigenvalues:     9.9194    19.6884    48.8804
     68  Bq   Isotropic =    35.3143   Anisotropy =    48.2993
   XX=    13.6471   YX=   -11.7030   ZX=    -1.5718
   XY=   -14.6382   YY=    25.3984   ZY=     1.9906
   XZ=    -8.9261   YZ=    -0.5186   ZZ=    66.8975
   Eigenvalues:     4.8410    33.5881    67.5138
     69  Bq   Isotropic =    22.4172   Anisotropy =    33.0251
   XX=    14.5216   YX=    -3.6782   ZX=    -4.5015
   XY=    -2.2257   YY=     8.7037   ZY=    -0.0836
   XZ=    -2.3420   YZ=    -2.1100   ZZ=    44.0263
   Eigenvalues:     7.3163    15.5013    44.4339
     70  Bq   Isotropic =    33.5512   Anisotropy =    55.3845
   XX=     7.1107   YX=   -13.5046   ZX=    -4.2410
   XY=   -16.0518   YY=    24.1057   ZY=     1.1134
   XZ=   -11.4081   YZ=    -1.2749   ZZ=    69.4370
   Eigenvalues:    -2.0917    32.2710    70.4741
     71  Bq   Isotropic =    18.9579   Anisotropy =    32.1037
   XX=    11.8632   YX=    -2.9293   ZX=    -4.9540
   XY=    -0.7540   YY=     5.1054   ZY=    -0.4168
   XZ=    -1.9373   YZ=    -2.3588   ZZ=    39.9051
   Eigenvalues:     4.4953    12.0179    40.3603
     72  Bq   Isotropic =    30.6081   Anisotropy =    61.9540
   XX=     0.2681   YX=   -14.7413   ZX=    -9.5891
   XY=   -15.9688   YY=    21.5503   ZY=    -0.7610
   XZ=   -13.7019   YZ=    -2.7282   ZZ=    70.0058
   Eigenvalues:    -9.3402    29.2538    71.9107
     73  Bq   Isotropic =    15.9287   Anisotropy =    31.1128
   XX=     9.3738   YX=    -2.4201   ZX=    -5.1800
   XY=     0.2807   YY=     2.2282   ZY=    -0.6452
   XZ=    -1.6441   YZ=    -2.4968   ZZ=    36.1840
   Eigenvalues:     1.9440     9.1715    36.6705
     74  Bq   Isotropic =    28.1436   Anisotropy =    65.7016
   XX=    -3.8851   YX=   -15.0163   ZX=   -16.8315
   XY=   -14.2846   YY=    19.7552   ZY=    -3.2304
   XZ=   -15.1463   YZ=    -4.5308   ZZ=    68.5606
   Eigenvalues:   -14.0378    26.5239    71.9446
     75  Bq   Isotropic =    33.0995   Anisotropy =    38.2123
   XX=    19.5351   YX=    -7.7815   ZX=    -1.7426
   XY=    -9.3943   YY=    21.5194   ZY=     1.5554
   XZ=    -5.0289   YZ=    -0.7681   ZZ=    58.2439
   Eigenvalues:    11.7709    28.9531    58.5744
     76  Bq   Isotropic =    28.7061   Anisotropy =    35.4809
   XX=    16.7041   YX=    -5.3094   ZX=    -1.2639
   XY=    -4.6045   YY=    17.3370   ZY=     1.8369
   XZ=    -3.3740   YZ=     1.7759   ZZ=    52.0772
   Eigenvalues:    12.0482    21.7101    52.3600
     77  Bq   Isotropic =    32.7215   Anisotropy =    42.0209
   XX=    13.1245   YX=    -7.5041   ZX=     1.6513
   XY=    -8.2286   YY=    24.6603   ZY=     2.4759
   XZ=    -6.1825   YZ=     2.6482   ZZ=    60.3797
   Eigenvalues:     9.1233    28.3057    60.7355
     78  Bq   Isotropic =    25.3106   Anisotropy =    33.9944
   XX=    15.4370   YX=    -4.3163   ZX=    -2.7458
   XY=    -2.8361   YY=    12.8021   ZY=     1.4121
   XZ=    -2.5170   YZ=     1.0860   ZZ=    47.6927
   Eigenvalues:    10.3020    17.6562    47.9736
     79  Bq   Isotropic =    31.8701   Anisotropy =    47.9137
   XX=     6.6005   YX=    -8.3908   ZX=     1.4733
   XY=    -9.3807   YY=    25.6193   ZY=     2.3716
   XZ=    -8.2452   YZ=     2.2897   ZZ=    63.3905
   Eigenvalues:     3.0073    28.7905    63.8126
     80  Bq   Isotropic =    21.8038   Anisotropy =    32.9777
   XX=    13.3274   YX=    -3.5033   ZX=    -3.8491
   XY=    -1.3519   YY=     8.5932   ZY=     1.0235
   XZ=    -1.9047   YZ=     0.4428   ZZ=    43.4907
   Eigenvalues:     7.5640    14.0584    43.7889
     81  Bq   Isotropic =    28.7146   Anisotropy =    55.1394
   XX=    -2.7786   YX=    -8.8661   ZX=    -1.4589
   XY=    -9.5210   YY=    24.1012   ZY=     1.7547
   XZ=   -10.5799   YZ=     1.0515   ZZ=    64.8212
   Eigenvalues:    -6.0257    26.6954    65.4742
     82  Bq   Isotropic =    18.5198   Anisotropy =    32.0716
   XX=    10.9595   YX=    -2.8841   ZX=    -4.5666
   XY=    -0.2058   YY=     5.0190   ZY=     0.6915
   XZ=    -1.4611   YZ=    -0.0947   ZZ=    39.5810
   Eigenvalues:     4.6358    11.0228    39.9009
     83  Bq   Isotropic =    24.2598   Anisotropy =    62.0354
   XX=   -12.4712   YX=    -8.7553   ZX=    -7.9458
   XY=    -8.4018   YY=    21.0116   ZY=     0.6630
   XZ=   -12.6415   YZ=    -1.0196   ZZ=    64.2390
   Eigenvalues:   -15.8046    22.9672    65.6167
     84  Bq   Isotropic =    15.6198   Anisotropy =    31.0881
   XX=     8.6735   YX=    -2.4395   ZX=    -4.9664
   XY=     0.6127   YY=     2.1763   ZY=     0.4168
   XZ=    -1.1282   YZ=    -0.5148   ZZ=    36.0095
   Eigenvalues:     2.0437     8.4704    36.3451
     85  Bq   Isotropic =    20.7163   Anisotropy =    66.0735
   XX=   -18.3726   YX=    -8.0124   ZX=   -17.0736
   XY=    -6.2402   YY=    18.6034   ZY=    -0.5214
   XZ=   -13.6455   YZ=    -3.4241   ZZ=    61.9182
   Eigenvalues:   -22.5298    19.9135    64.7653
     86  Bq   Isotropic =    31.4288   Anisotropy =    37.9672
   XX=    16.2681   YX=    -6.4155   ZX=     0.3919
   XY=    -6.4994   YY=    21.5896   ZY=     2.2346
   XZ=    -4.5668   YZ=     2.3752   ZZ=    56.4287
   Eigenvalues:    11.9400    25.6061    56.7403
     87  Bq   Isotropic =    26.8375   Anisotropy =    34.2433
   XX=    14.3665   YX=    -3.9732   ZX=    -0.0250
   XY=    -2.0801   YY=    16.8802   ZY=     2.1484
   XZ=    -3.0398   YZ=     4.1818   ZZ=    49.2658
   Eigenvalues:    12.3395    18.5066    49.6664
     88  Bq   Isotropic =    29.5524   Anisotropy =    39.5453
   XX=     9.0648   YX=    -4.0927   ZX=     3.8737
   XY=    -3.0760   YY=    24.0939   ZY=     2.0065
   XZ=    -5.7856   YZ=     4.9339   ZZ=    55.4985
   Eigenvalues:     8.2532    24.4881    55.9160
     89  Bq   Isotropic =    23.9066   Anisotropy =    33.1267
   XX=    13.6458   YX=    -3.5435   ZX=    -1.8931
   XY=    -1.1603   YY=    12.4534   ZY=     2.0134
   XZ=    -2.1473   YZ=     3.4035   ZZ=    45.6205
   Eigenvalues:    10.5988    15.1299    45.9911
     90  Bq   Isotropic =    27.8318   Anisotropy =    44.6470
   XX=     1.2467   YX=    -3.3633   ZX=     4.1292
   XY=    -2.4971   YY=    25.0128   ZY=     1.7053
   XZ=    -7.7006   YZ=     4.3891   ZZ=    57.2358
   Eigenvalues:     0.8555    25.0434    57.5964
     91  Bq   Isotropic =    20.7666   Anisotropy =    32.3501
   XX=    11.9492   YX=    -3.0839   ZX=    -3.2867
   XY=    -0.2733   YY=     8.3656   ZY=     1.8025
   XZ=    -1.4843   YZ=     2.6054   ZZ=    41.9850
   Eigenvalues:     7.6598    12.3067    42.3333
     92  Bq   Isotropic =    23.6845   Anisotropy =    51.1631
   XX=    -9.6757   YX=    -1.9333   ZX=     1.3643
   XY=    -0.8687   YY=    23.3477   ZY=     1.4017
   XZ=    -9.7707   YZ=     2.9660   ZZ=    57.3815
   Eigenvalues:    -9.9860    23.2463    57.7932
     93  Bq   Isotropic =    17.7675   Anisotropy =    31.5986
   XX=     9.8961   YX=    -2.6754   ZX=    -4.2096
   XY=     0.4670   YY=     4.9039   ZY=     1.5534
   XZ=    -0.9897   YZ=     1.8766   ZZ=    38.5026
   Eigenvalues:     4.6303     9.8389    38.8332
     94  Bq   Isotropic =    18.2553   Anisotropy =    57.6266
   XX=   -20.8682   YX=     0.0346   ZX=    -5.4189
   XY=     1.6432   YY=    19.8997   ZY=     1.4118
   XZ=   -11.3895   YZ=     0.7884   ZZ=    55.7345
   Eigenvalues:   -21.8012    19.8941    56.6730
     95  Bq   Isotropic =    15.0838   Anisotropy =    30.7196
   XX=     7.8492   YX=    -2.3486   ZX=    -4.7472
   XY=     1.0185   YY=     2.1516   ZY=     1.2929
   XZ=    -0.6142   YZ=     1.2526   ZZ=    35.2507
   Eigenvalues:     2.0462     7.6418    35.5636
     96  Bq   Isotropic =    14.0590   Anisotropy =    61.5757
   XX=   -27.6885   YX=     2.0352   ZX=   -15.3278
   XY=     4.3230   YY=    16.9659   ZY=     2.0689
   XZ=   -11.7124   YZ=    -1.6208   ZZ=    52.8994
   Eigenvalues:   -30.1102    17.1776    55.1094
     97  Bq   Isotropic =    28.9787   Anisotropy =    36.1935
   XX=    13.1971   YX=    -4.2252   ZX=     2.1038
   XY=    -2.8219   YY=    21.0592   ZY=     2.1594
   XZ=    -4.2318   YZ=     4.7737   ZZ=    52.6799
   Eigenvalues:    11.8475    21.9809    53.1077
     98  Bq   Isotropic =    24.6415   Anisotropy =    32.2331
   XX=    12.4558   YX=    -2.3816   ZX=     0.6946
   XY=     0.4432   YY=    15.8749   ZY=     1.9766
   XZ=    -2.8429   YZ=     5.7537   ZZ=    45.5938
   Eigenvalues:    12.2001    15.5942    46.1303
     99  Bq   Isotropic =    26.3538   Anisotropy =    35.6134
   XX=     6.9558   YX=    -0.3302   ZX=     5.1321
   XY=     1.9747   YY=    22.4677   ZY=     0.9185
   XZ=    -5.6234   YZ=     6.1944   ZZ=    49.6378
   Eigenvalues:     6.9078    22.0574    50.0960
    100  Bq   Isotropic =    22.1935   Anisotropy =    31.6862
   XX=    12.0039   YX=    -2.5699   ZX=    -1.3664
   XY=     0.5284   YY=    11.7701   ZY=     2.2041
   XZ=    -1.8642   YZ=     5.0345   ZZ=    42.8064
   Eigenvalues:    10.7579    12.5050    43.3176
    101  Bq   Isotropic =    24.2631   Anisotropy =    39.3971
   XX=    -0.6057   YX=     2.0118   ZX=     5.7719
   XY=     4.1628   YY=    23.1887   ZY=     0.3672
   XZ=    -7.3577   YZ=     5.5232   ZZ=    50.2064
   Eigenvalues:    -1.0262    23.2877    50.5279
    102  Bq   Isotropic =    19.4700   Anisotropy =    31.2869
   XX=    10.5930   YX=    -2.5107   ZX=    -2.9109
   XY=     0.8214   YY=     7.9596   ZY=     2.2392
   XZ=    -1.1161   YZ=     4.2223   ZZ=    39.8573
   Eigenvalues:     7.4976    10.5844    40.3279
    103  Bq   Isotropic =    19.9408   Anisotropy =    44.5592
   XX=   -10.9851   YX=     5.2596   ZX=     3.5133
   XY=     7.3608   YY=    21.4235   ZY=     0.3247
   XZ=    -9.0077   YZ=     4.1541   ZZ=    49.3840
   Eigenvalues:   -12.3277    22.5031    49.6469
    104  Bq   Isotropic =    16.8108   Anisotropy =    30.7853
   XX=     8.8050   YX=    -2.3505   ZX=    -3.9465
   XY=     1.1544   YY=     4.7153   ZY=     2.1342
   XZ=    -0.5510   YZ=     3.4252   ZZ=    36.9120
   Eigenvalues:     4.4383     8.6597    37.3343
    105  Bq   Isotropic =    14.5383   Anisotropy =    49.9439
   XX=   -21.5151   YX=     8.8880   ZX=    -2.6480
   XY=    10.9944   YY=    17.8967   ZY=     1.3549
   XZ=    -9.9402   YZ=     2.2899   ZZ=    47.2333
   Eigenvalues:   -24.4780    20.2587    47.8342
    106  Bq   Isotropic =    14.3934   Anisotropy =    30.0792
   XX=     6.9857   YX=    -2.1709   ZX=    -4.5643
   XY=     1.4352   YY=     2.1195   ZY=     1.9409
   XZ=    -0.1242   YZ=     2.6991   ZZ=    34.0750
   Eigenvalues:     1.9439     6.7901    34.4462
    107  Bq   Isotropic =    10.4605   Anisotropy =    53.4187
   XX=   -27.9030   YX=    11.8815   ZX=   -11.9555
   XY=    13.9249   YY=    14.7531   ZY=     3.7153
   XZ=    -9.3943   YZ=     0.3712   ZZ=    44.5314
   Eigenvalues:   -33.0156    18.3242    46.0730
    108  Bq   Isotropic =    26.2665   Anisotropy =    33.3606
   XX=    11.0997   YX=    -1.7243   ZX=     3.0633
   XY=     0.8209   YY=    19.7221   ZY=     1.5294
   XZ=    -4.0927   YZ=     6.2105   ZZ=    47.9778
   Eigenvalues:    11.0733    19.2193    48.5069
    109  Bq   Isotropic =    22.4600   Anisotropy =    29.9036
   XX=    11.2255   YX=    -0.9112   ZX=     0.8080
   XY=     2.4776   YY=    14.3682   ZY=     1.5798
   XZ=    -2.7859   YZ=     6.5170   ZZ=    41.7863
   Eigenvalues:    10.9092    14.0751    42.3957
    110  Bq   Isotropic =    23.6901   Anisotropy =    31.1919
   XX=     7.0559   YX=     2.7602   ZX=     5.2567
   XY=     5.7317   YY=    19.9393   ZY=    -0.2116
   XZ=    -5.6794   YZ=     6.5291   ZZ=    44.0751
   Eigenvalues:     5.7498    20.8359    44.4847
    111  Bq   Isotropic =    20.4180   Anisotropy =    29.9749
   XX=    10.7103   YX=    -1.6154   ZX=    -1.2327
   XY=     1.9296   YY=    10.7658   ZY=     2.1325
   XZ=    -1.6791   YZ=     5.9713   ZZ=    39.7780
   Eigenvalues:    10.0127    10.8401    40.4012
    112  Bq   Isotropic =    21.8100   Anisotropy =    33.5070
   XX=     1.1509   YX=     6.1528   ZX=     6.1298
   XY=     8.8535   YY=    20.3777   ZY=    -0.9410
   XZ=    -7.2137   YZ=     5.7713   ZZ=    43.9015
   Eigenvalues:    -1.4679    22.7499    44.1480
    113  Bq   Isotropic =    18.0864   Anisotropy =    29.9907
   XX=     9.4045   YX=    -1.9102   ZX=    -2.7734
   XY=     1.7509   YY=     7.3677   ZY=     2.4092
   XZ=    -0.8159   YZ=     5.2660   ZZ=    37.4872
   Eigenvalues:     6.8778     9.3013    38.0802
    114  Bq   Isotropic =    18.1426   Anisotropy =    37.0917
   XX=    -6.9082   YX=    10.4401   ZX=     4.5250
   XY=    12.7973   YY=    18.6340   ZY=    -0.8109
   XZ=    -8.3485   YZ=     4.5628   ZZ=    42.7020
   Eigenvalues:   -11.5142    23.0716    42.8704
    115  Bq   Isotropic =    15.7676   Anisotropy =    29.7706
   XX=     7.7886   YX=    -1.9817   ZX=    -3.8171
   XY=     1.7484   YY=     4.4342   ZY=     2.4649
   XZ=    -0.1620   YZ=     4.5140   ZZ=    35.0801
   Eigenvalues:     4.0387     7.6494    35.6147
    116  Bq   Isotropic =    13.7032   Anisotropy =    41.1124
   XX=   -15.0071   YX=    14.8603   ZX=    -0.3951
   XY=    16.7603   YY=    15.3815   ZY=     0.8395
   XZ=    -8.4623   YZ=     3.1620   ZZ=    40.7354
   Eigenvalues:   -22.1163    22.1145    41.1115
    117  Bq   Isotropic =    13.6278   Anisotropy =    29.2643
   XX=     6.1528   YX=    -1.9473   ZX=    -4.4474
   XY=     1.8000   YY=     2.0562   ZY=     2.3659
   XZ=     0.3257   YZ=     3.7854   ZZ=    32.6745
   Eigenvalues:     1.7463     5.9998    33.1374
    118  Bq   Isotropic =    10.4385   Anisotropy =    43.9058
   XX=   -19.8800   YX=    18.1664   ZX=    -8.0507
   XY=    19.4741   YY=    12.4554   ZY=     4.1679
   XZ=    -6.9875   YZ=     1.8919   ZZ=    38.7401
   Eigenvalues:   -29.4846    21.0911    39.7090
    119  Bq   Isotropic =    23.7454   Anisotropy =    30.1394
   XX=    10.2634   YX=     0.4567   ZX=     3.1535
   XY=     3.6542   YY=    17.6738   ZY=     0.7524
   XZ=    -4.1404   YZ=     6.7530   ZZ=    43.2989
   Eigenvalues:     9.6690    17.7288    43.8383
    120  Bq   Isotropic =    20.5390   Anisotropy =    27.7050
   XX=    10.6462   YX=     0.1247   ZX=     0.3912
   XY=     3.7233   YY=    12.5811   ZY=     1.2311
   XZ=    -2.8217   YZ=     6.6581   ZZ=    38.3897
   Eigenvalues:     9.1120    13.4960    39.0090
    121  Bq   Isotropic =    21.7963   Anisotropy =    27.1840
   XX=     8.7491   YX=     4.4815   ZX=     4.4447
   XY=     7.5861   YY=    17.0335   ZY=    -0.8941
   XZ=    -5.8627   YZ=     6.2429   ZZ=    39.6065
   Eigenvalues:     5.4688    20.0012    39.9190
    122  Bq   Isotropic =    18.7761   Anisotropy =    28.3004
   XX=     9.8075   YX=    -0.8791   ZX=    -1.4592
   XY=     2.8463   YY=     9.5615   ZY=     1.9816
   XZ=    -1.5695   YZ=     6.3385   ZZ=    36.9594
   Eigenvalues:     8.0838    10.6015    37.6430
    123  Bq   Isotropic =    20.5406   Anisotropy =    28.1862
   XX=     5.1873   YX=     8.1106   ZX=     5.4065
   XY=    10.7932   YY=    17.2653   ZY=    -1.6547
   XZ=    -7.2132   YZ=     5.4346   ZZ=    39.1692
   Eigenvalues:    -0.0639    22.3543    39.3314
    124  Bq   Isotropic =    16.7620   Anisotropy =    28.6723
   XX=     8.4434   YX=    -1.4064   ZX=    -2.8669
   XY=     2.3888   YY=     6.6463   ZY=     2.4284
   XZ=    -0.5775   YZ=     5.8132   ZZ=    35.1963
   Eigenvalues:     5.8519     8.5573    35.8768
    125  Bq   Isotropic =    18.0105   Anisotropy =    30.3090
[...]
   135  Bq   0.000000
   136  Bq   0.000000
   137  Bq   0.000000
   138  Bq   0.000000
   139  Bq   0.000000
   140  Bq   0.000000
   141  Bq   0.000000
   142  Bq   0.000000
   143  Bq   0.000000
   144  Bq   0.000000
   145  Bq   0.000000
   146  Bq   0.000000
   147  Bq   0.000000
   148  Bq   0.000000
   149  Bq   0.000000
   150  Bq   0.000000
   151  Bq   0.000000
   152  Bq   0.000000
   153  Bq   0.000000
   154  Bq   0.000000
   155  Bq   0.000000
   156  Bq   0.000000
   157  Bq   0.000000
   158  Bq   0.000000
   159  Bq   0.000000
   160  Bq   0.000000
   161  Bq   0.000000
   162  Bq   0.000000
   163  Bq   0.000000
   164  Bq   0.000000
   165  Bq   0.000000
   166  Bq   0.000000
   167  Bq   0.000000
   168  Bq   0.000000
   169  Bq   0.000000
   170  Bq   0.000000
   171  Bq   0.000000
   172  Bq   0.000000
   173  Bq   0.000000
   174  Bq   0.000000
   175  Bq   0.000000
   176  Bq   0.000000
   177  Bq   0.000000
   178  Bq   0.000000
   179  Bq   0.000000
   180  Bq   0.000000
   181  Bq   0.000000
   182  Bq   0.000000
   183  Bq   0.000000
   184  Bq   0.000000
   185  Bq   0.000000
   186  Bq   0.000000
   187  Bq   0.000000
   188  Bq   0.000000
   189  Bq   0.000000
   190  Bq   0.000000
   191  Bq   0.000000
   192  Bq   0.000000
   193  Bq   0.000000
   194  Bq   0.000000
   195  Bq   0.000000
   196  Bq   0.000000
   197  Bq   0.000000
   198  Bq   0.000000
   199  Bq   0.000000
   200  Bq   0.000000
   201  Bq   0.000000
   202  Bq   0.000000
   203  Bq   0.000000
   204  Bq   0.000000
   205  Bq   0.000000
   206  Bq   0.000000
   207  Bq   0.000000
   208  Bq   0.000000
   209  Bq   0.000000
   210  Bq   0.000000
   211  Bq   0.000000
   212  Bq   0.000000
   213  Bq   0.000000
   214  Bq   0.000000
   215  Bq   0.000000
   216  Bq   0.000000
   217  Bq   0.000000
   218  Bq   0.000000
   219  Bq   0.000000
   220  Bq   0.000000
   221  Bq   0.000000
   222  Bq   0.000000
   223  Bq   0.000000
   224  Bq   0.000000
   225  Bq   0.000000
   226  Bq   0.000000
   227  Bq   0.000000
   228  Bq   0.000000
   229  Bq   0.000000
   230  Bq   0.000000
   231  Bq   0.000000
   232  Bq   0.000000
   233  Bq   0.000000
   234  Bq   0.000000
   235  Bq   0.000000
   236  Bq   0.000000
 Sum of Mulliken charges =   0.00000
 Mulliken charges with hydrogens summed into heavy atoms:
               1
     1  C   -0.255498
     3  C    0.169409
     5  C    0.448258
     6  C    0.064351
     7  C   -0.333926
     9  C   -0.139521
    11  C   -0.205988
    13  C   -0.119315
    15  C    0.653397
    16  C    0.034822
    17  C   -0.317410
    19  C   -0.316854
    21  C    0.651066
    22  C    0.037784
    23  C   -0.117289
    25  C   -0.205316
    27  C    0.448331
    28  C    0.061983
    29  C   -0.333381
    31  C   -0.139505
    33  C   -0.255977
    35  C    0.170579
    37  Bq   0.000000
    38  Bq   0.000000
    39  Bq   0.000000
    40  Bq   0.000000
    41  Bq   0.000000
    42  Bq   0.000000
    43  Bq   0.000000
    44  Bq   0.000000
    45  Bq   0.000000
    46  Bq   0.000000
    47  Bq   0.000000
    48  Bq   0.000000
    49  Bq   0.000000
    50  Bq   0.000000
    51  Bq   0.000000
    52  Bq   0.000000
    53  Bq   0.000000
    54  Bq   0.000000
    55  Bq   0.000000
    56  Bq   0.000000
    57  Bq   0.000000
    58  Bq   0.000000
    59  Bq   0.000000
    60  Bq   0.000000
    61  Bq   0.000000
    62  Bq   0.000000
    63  Bq   0.000000
    64  Bq   0.000000
    65  Bq   0.000000
    66  Bq   0.000000
    67  Bq   0.000000
    68  Bq   0.000000
    69  Bq   0.000000
    70  Bq   0.000000
    71  Bq   0.000000
    72  Bq   0.000000
    73  Bq   0.000000
    74  Bq   0.000000
    75  Bq   0.000000
    76  Bq   0.000000
    77  Bq   0.000000
    78  Bq   0.000000
    79  Bq   0.000000
    80  Bq   0.000000
    81  Bq   0.000000
    82  Bq   0.000000
    83  Bq   0.000000
    84  Bq   0.000000
    85  Bq   0.000000
    86  Bq   0.000000
    87  Bq   0.000000
    88  Bq   0.000000
    89  Bq   0.000000
    90  Bq   0.000000
    91  Bq   0.000000
    92  Bq   0.000000
    93  Bq   0.000000
    94  Bq   0.000000
    95  Bq   0.000000
    96  Bq   0.000000
    97  Bq   0.000000
    98  Bq   0.000000
    99  Bq   0.000000
   100  Bq   0.000000
   101  Bq   0.000000
   102  Bq   0.000000
   103  Bq   0.000000
   104  Bq   0.000000
   105  Bq   0.000000
   106  Bq   0.000000
   107  Bq   0.000000
   108  Bq   0.000000
   109  Bq   0.000000
   110  Bq   0.000000
   111  Bq   0.000000
   112  Bq   0.000000
   113  Bq   0.000000
   114  Bq   0.000000
   115  Bq   0.000000
   116  Bq   0.000000
   117  Bq   0.000000
   118  Bq   0.000000
   119  Bq   0.000000
   120  Bq   0.000000
   121  Bq   0.000000
   122  Bq   0.000000
   123  Bq   0.000000
   124  Bq   0.000000
   125  Bq   0.000000
   126  Bq   0.000000
   127  Bq   0.000000
   128  Bq   0.000000
   129  Bq   0.000000
   130  Bq   0.000000
   131  Bq   0.000000
   132  Bq   0.000000
   133  Bq   0.000000
   134  Bq   0.000000
   135  Bq   0.000000
   136  Bq   0.000000
   137  Bq   0.000000
   138  Bq   0.000000
   139  Bq   0.000000
   140  Bq   0.000000
   141  Bq   0.000000
   142  Bq   0.000000
   143  Bq   0.000000
   144  Bq   0.000000
   145  Bq   0.000000
   146  Bq   0.000000
   147  Bq   0.000000
   148  Bq   0.000000
   149  Bq   0.000000
   150  Bq   0.000000
   151  Bq   0.000000
   152  Bq   0.000000
   153  Bq   0.000000
   154  Bq   0.000000
   155  Bq   0.000000
   156  Bq   0.000000
   157  Bq   0.000000
   158  Bq   0.000000
   159  Bq   0.000000
   160  Bq   0.000000
   161  Bq   0.000000
   162  Bq   0.000000
   163  Bq   0.000000
   164  Bq   0.000000
   165  Bq   0.000000
   166  Bq   0.000000
   167  Bq   0.000000
   168  Bq   0.000000
   169  Bq   0.000000
   170  Bq   0.000000
   171  Bq   0.000000
   172  Bq   0.000000
   173  Bq   0.000000
   174  Bq   0.000000
   175  Bq   0.000000
   176  Bq   0.000000
   177  Bq   0.000000
   178  Bq   0.000000
   179  Bq   0.000000
   180  Bq   0.000000
   181  Bq   0.000000
   182  Bq   0.000000
   183  Bq   0.000000
   184  Bq   0.000000
   185  Bq   0.000000
   186  Bq   0.000000
   187  Bq   0.000000
   188  Bq   0.000000
   189  Bq   0.000000
   190  Bq   0.000000
   191  Bq   0.000000
   192  Bq   0.000000
   193  Bq   0.000000
   194  Bq   0.000000
   195  Bq   0.000000
   196  Bq   0.000000
   197  Bq   0.000000
   198  Bq   0.000000
   199  Bq   0.000000
   200  Bq   0.000000
   201  Bq   0.000000
   202  Bq   0.000000
   203  Bq   0.000000
   204  Bq   0.000000
   205  Bq   0.000000
   206  Bq   0.000000
   207  Bq   0.000000
   208  Bq   0.000000
   209  Bq   0.000000
   210  Bq   0.000000
   211  Bq   0.000000
   212  Bq   0.000000
   213  Bq   0.000000
   214  Bq   0.000000
   215  Bq   0.000000
   216  Bq   0.000000
   217  Bq   0.000000
   218  Bq   0.000000
   219  Bq   0.000000
   220  Bq   0.000000
   221  Bq   0.000000
   222  Bq   0.000000
   223  Bq   0.000000
   224  Bq   0.000000
   225  Bq   0.000000
   226  Bq   0.000000
   227  Bq   0.000000
   228  Bq   0.000000
   229  Bq   0.000000
   230  Bq   0.000000
   231  Bq   0.000000
   232  Bq   0.000000
   233  Bq   0.000000
   234  Bq   0.000000
   235  Bq   0.000000
   236  Bq   0.000000
 Electronic spatial extent (au):  <R**2>=           5736.9264
 Charge=              0.0000 electrons
 Dipole moment (field-independent basis, Debye):
    X=              0.0475    Y=              0.0856    Z=              0.0029  Tot=              0.0979
 Quadrupole moment (field-independent basis, Debye-Ang):
   XX=           -113.7056   YY=           -113.9456   ZZ=           -133.2669
   XY=             -0.3834   XZ=              3.2102   YZ=             -1.1839
 Traceless Quadrupole moment (field-independent basis, Debye-Ang):
   XX=              6.6005   YY=              6.3604   ZZ=            -12.9609
   XY=             -0.3834   XZ=              3.2102   YZ=             -1.1839
 Octapole moment (field-independent basis, Debye-Ang**2):
  XXX=            -16.4668  YYY=            -16.1860  ZZZ=             -1.7007  XYY=              2.5576
  XXY=             -6.5650  XXZ=             13.6547  XZZ=             -8.9478  YZZ=            -17.7168
  YYZ=            -13.2941  XYZ=              8.8036
 Hexadecapole moment (field-independent basis, Debye-Ang**3):
 XXXX=          -3951.1638 YYYY=          -3112.2161 ZZZZ=           -504.8311 XXXY=            340.6935
 XXXZ=            156.4968 YYYX=            335.5625 YYYZ=            -87.0893 ZZZX=            120.2262
 ZZZY=           -108.7373 XXYY=          -1176.4844 XXZZ=           -856.7291 YYZZ=           -665.7275
 XXYZ=            -68.9016 YYXZ=             48.1602 ZZXY=            153.0375
 N-N= 1.610917615562D+03 E-N=-5.186891130729D+03  KE= 8.436329774449D+02
 1\1\GINC-XHYSTOS\SP\RB3LYP\6-311+G(d,p)\C22H14\YANNICK\22-Aug-2020\0\\
 # rb3lyp/6-311+g** NMR geom=connectivity\\Title\\0,1\C,0,-4.0500558,-0
 .5771862,0.8136712\H,0,-5.0263804,-1.0082727,1.002476\C,0,-3.9381552,0
 .6617804,0.2400876\H,0,-4.8252424,1.233889,-0.0111295\C,0,-2.676841,1.
 2433246,0.0057578\C,0,-1.4974121,0.5051527,0.2848253\C,0,-1.6508332,-0
 .7338728,0.9404026\H,0,-0.7713646,-1.2730967,1.2633753\C,0,-2.8898548,
 -1.2624035,1.1994307\H,0,-2.9683706,-2.2124563,1.7152676\C,0,-2.577318
 5,2.5963696,-0.419293\H,0,-3.4870728,3.1412239,-0.6474055\C,0,-1.37418
 95,3.2147896,-0.436403\H,0,-1.2997315,4.2742019,-0.6578144\C,0,-0.1719
 488,2.499409,-0.1734588\C,0,-0.2043917,1.1018437,0.0192689\C,0,1.05134
 91,3.204256,-0.0676222\H,0,1.0427344,4.2819499,-0.1896997\C,0,2.194209
 1,2.5487446,0.2579577\H,0,3.1168527,3.0912848,0.4334727\C,0,2.2216473,
 1.1336562,0.293499\C,0,1.0486931,0.3945528,0.0302412\C,0,3.4483363,0.4
 614633,0.5573939\H,0,4.3095794,1.0606054,0.8334846\C,0,3.5427346,-0.88
 55926,0.4749463\H,0,4.4731467,-1.3939704,0.7038822\C,0,2.4490052,-1.64
 74447,-0.0196319\C,0,1.2150704,-1.0057258,-0.3013573\C,0,0.2531113,-1.
 743444,-1.0216591\H,0,-0.6541356,-1.2535051,-1.3462847\C,0,0.4494193,-
 3.0628597,-1.3413779\H,0,-0.3083162,-3.5944309,-1.905406\C,0,1.6251726
 ,-3.7207967,-0.9552541\H,0,1.7670048,-4.7687404,-1.1927019\C,0,2.61098
 72,-3.0144177,-0.318305\H,0,3.5525612,-3.4902813,-0.0646367\Bq,0,1.753
 4560496,0.6042071283,0.3576536953\Bq,0,1.5737039994,0.5046135151,1.026
 8101139\Bq,0,1.779134914,0.6184347873,0.2620599212\Bq,0,1.5480251351,0
 .490385856,1.122403888\Bq,0,1.8048137783,0.6326624463,0.1664661471\Bq,
 0,1.6764194567,0.5615241512,0.6444350176\Bq,0,1.6470495418,0.646279186
 2,0.7537693312\Bq,0,1.6984072705,0.6747345042,0.562581783\Bq,0,1.62137
 06775,0.6320515272,0.8493631053\Bq,0,1.7240861348,0.6889621633,0.46698
 80089\Bq,0,1.5956918132,0.6178238681,0.9449568794\Bq,0,1.7497649991,0.
 7031898223,0.3713942348\Bq,0,1.5700129488,0.6035962091,1.0405506535\Bq
 ,0,1.7754438634,0.7174174813,0.2758004607\Bq,0,1.5443340845,0.58936855
 01,1.1361444276\Bq,0,1.8011227277,0.7316451404,0.1802066866\Bq,0,1.672
 7284061,0.6605068452,0.6581755571\Bq,0,1.6433584913,0.7452618802,0.767
 5098708\Bq,0,1.6947162199,0.7737171983,0.5763223226\Bq,0,1.617679627,0
 .7310342212,0.8631036449\Bq,0,1.7203950842,0.7879448573,0.4807285485\B
 q,0,1.5920007626,0.7168065622,0.958697419\Bq,0,1.7460739486,0.80217251
 63,0.3851347744\Bq,0,1.5663218983,0.7025789031,1.0542911931\Bq,0,1.771
 7528129,0.8164001754,0.2895410003\Bq,0,1.540643034,0.6883512441,1.1498
 849672\Bq,0,1.7974316772,0.8306278344,0.1939472262\Bq,0,1.6690373556,0
 .7594895393,0.6719160967\Bq,0,1.6396674407,0.8442445743,0.7812504103\B
 q,0,1.6910251694,0.8726998923,0.5900628621\Bq,0,1.6139885764,0.8300169
 152,0.8768441844\Bq,0,1.7167040337,0.8869275513,0.494469088\Bq,0,1.588
 3097121,0.8157892562,0.9724379585\Bq,0,1.742382898,0.9011552104,0.3988
 75314\Bq,0,1.5626308478,0.8015615972,1.0680317326\Bq,0,1.7680617624,0.
 9153828694,0.3032815399\Bq,0,1.5369519835,0.7873339381,1.1636255067\Bq
 ,0,1.7937406267,0.9296105284,0.2076877658\Bq,0,1.6653463051,0.85847223
 33,0.6856566362\Bq,0,1.6359763902,0.9432272683,0.7949909499\Bq,0,1.687
 3341189,0.9716825864,0.6038034017\Bq,0,1.6102975259,0.9289996093,0.890
 584724\Bq,0,1.7130129832,0.9859102454,0.5082096276\Bq,0,1.5846186616,0
 .9147719502,0.9861784981\Bq,0,1.7386918475,1.0001379044,0.4126158535\B
 q,0,1.5589397972,0.9005442912,1.0817722722\Bq,0,1.7643707118,1.0143655
 634,0.3170220794\Bq,0,1.5332609329,0.8863166322,1.1773660463\Bq,0,1.79
 00495761,1.0285932225,0.2214283053\Bq,0,1.6616552545,0.9574549273,0.69
 93971758\Bq,0,1.6322853397,1.0422099623,0.8087314894\Bq,0,1.6836430683
 ,1.0706652804,0.6175439413\Bq,0,1.6066064753,1.0279823033,0.9043252635
 \Bq,0,1.7093219326,1.0848929394,0.5219501672\Bq,0,1.580927611,1.013754
 6443,0.9999190376\Bq,0,1.735000797,1.0991205984,0.4263563931\Bq,0,1.55
 52487467,0.9995269852,1.0955128117\Bq,0,1.7606796613,1.1133482575,0.33
 0762619\Bq,0,1.5295698824,0.9852993262,1.1911065858\Bq,0,1.7863585256,
 1.1275759165,0.2351688449\Bq,0,1.657964204,1.0564376214,0.7131377154\B
 q,0,1.6285942891,1.1411926564,0.822472029\Bq,0,1.6799520178,1.16964797
 44,0.6312844808\Bq,0,1.6029154248,1.1269649973,0.9180658031\Bq,0,1.705
 6308821,1.1838756335,0.5356907067\Bq,0,1.5772365605,1.1127373383,1.013
 6595772\Bq,0,1.7313097464,1.1981032925,0.4400969326\Bq,0,1.5515576962,
 1.0985096793,1.1092533513\Bq,0,1.7569886107,1.2123309515,0.3445031585\
 Bq,0,1.5258788318,1.0842820203,1.2048471254\Bq,0,1.7826674751,1.226558
 6105,0.2489093844\Bq,0,1.6542731535,1.1554203154,0.7268782549\Bq,0,1.6
 249032386,1.2401753504,0.8362125686\Bq,0,1.6762609672,1.2686306685,0.6
 450250204\Bq,0,1.5992243743,1.2259476914,0.9318063427\Bq,0,1.701939831
 6,1.2828583275,0.5494312463\Bq,0,1.57354551,1.2117200323,1.0274001168\
 Bq,0,1.7276186959,1.2970859865,0.4538374722\Bq,0,1.5478666456,1.197492
 3733,1.1229938909\Bq,0,1.7532975602,1.3113136455,0.3582436981\Bq,0,1.5
 221877813,1.1832647143,1.2185876649\Bq,0,1.7789764245,1.3255413046,0.2
 62649924\Bq,0,1.6505821029,1.2544030094,0.7406187945\Bq,0,1.6212121881
 ,1.3391580444,0.8499531081\Bq,0,1.6725699167,1.3676133625,0.6587655599
 \Bq,0,1.5955333237,1.3249303854,0.9455468822\Bq,0,1.698248781,1.381841
 0215,0.5631717858\Bq,0,1.5698544594,1.3107027264,1.0411406563\Bq,0,1.7
 239276454,1.3960686806,0.4675780117\Bq,0,1.5441755951,1.2964750674,1.1
 367344304\Bq,0,1.7496065097,1.4102963396,0.3719842377\Bq,0,1.518496730
 8,1.2822474083,1.2323282045\Bq,0,1.775285374,1.4245239986,0.2763904636
 \Bq,0,1.6468910524,1.3533857035,0.754359334\Bq,0,1.6175211375,1.438140
 7385,0.8636936477\Bq,0,1.6688788662,1.4665960565,0.6725060995\Bq,0,1.5
 918422732,1.4239130794,0.9592874218\Bq,0,1.6945577305,1.4808237156,0.5
 769123254\Bq,0,1.5661634089,1.4096854204,1.0548811959\Bq,0,1.720236594
 8,1.4950513746,0.4813185513\Bq,0,1.5404845446,1.3954577614,1.15047497\
 Bq,0,1.7459154591,1.5092790336,0.3857247772\Bq,0,1.5148056802,1.381230
 1024,1.2460687441\Bq,0,1.7715943235,1.5235066926,0.2901310031\Bq,0,1.6
 432000019,1.4523683975,0.7680998736\Bq,0,1.613830087,1.5371234325,0.87
 74341872\Bq,0,1.6651878156,1.5655787506,0.6862466391\Bq,0,1.5881512227
 ,1.5228957735,0.9730279613\Bq,0,1.69086668,1.5798064096,0.590652865\Bq
 ,0,1.5624723583,1.5086681145,1.0686217354\Bq,0,1.7165455443,1.59403406
 86,0.4950590909\Bq,0,1.536793494,1.4944404554,1.1642155095\Bq,0,1.7422
 244086,1.6082617277,0.3994653168\Bq,0,1.5111146297,1.4802127964,1.2598
 092836\Bq,0,1.7679032729,1.6224893867,0.3038715427\Bq,0,1.6395089513,1
 .5513510915,0.7818404131\Bq,0,1.6101390365,1.6361061265,0.8911747268\B
 q,0,1.6614967651,1.6645614446,0.6999871786\Bq,0,1.5844601721,1.6218784
 675,0.9867685009\Bq,0,1.6871756294,1.6787891036,0.6043934045\Bq,0,1.55
 87813078,1.6076508085,1.082362275\Bq,0,1.7128544937,1.6930167627,0.508
 7996304\Bq,0,1.5331024435,1.5934231495,1.1779560491\Bq,0,1.7385333581,
 1.7072444217,0.4132058563\Bq,0,1.5074235792,1.5791954904,1.2735498232\
 Bq,0,1.7642122224,1.7214720807,0.3176120822\Bq,0,1.6358179008,1.650333
 7856,0.7955809527\Bq,0,1.6064479859,1.7350888206,0.9049152664\Bq,0,1.6
 578057146,1.7635441386,0.7137277182\Bq,0,1.5807691216,1.7208611616,1.0
 005090405\Bq,0,1.6834845789,1.7777717977,0.6181339441\Bq,0,1.555090257
 3,1.7066335025,1.0961028145\Bq,0,1.7091634432,1.7919994567,0.52254017\
 Bq,0,1.529411393,1.6924058435,1.1916965886\Bq,0,1.7348423075,1.8062271
 157,0.4269463959\Bq,0,1.5037325286,1.6781781845,1.2872903627\Bq,0,1.76
 05211719,1.8204547748,0.3313526218\Bq,0,1.6321268502,1.7493164796,0.80
 93214923\Bq,0,1.6027569354,1.8340715146,0.9186558059\Bq,0,1.654114664,
 1.8625268327,0.7274682577\Bq,0,1.5770780711,1.8198438556,1.01424958\Bq
 ,0,1.6797935284,1.8767544917,0.6318744836\Bq,0,1.5513992067,1.80561619
 66,1.1098433541\Bq,0,1.7054723927,1.8909821507,0.5362807095\Bq,0,1.525
 7203424,1.7913885375,1.2054371282\Bq,0,1.731151257,1.9052098098,0.4406
 869354\Bq,0,1.5000414781,1.7771608785,1.3010309023\Bq,0,1.7568301213,1
 .9194374688,0.3450931614\Bq,0,1.6284357997,1.8482991736,0.8230620318\B
 q,0,1.5990658849,1.9330542087,0.9323963455\Bq,0,1.6504236135,1.9615095
 267,0.7412087973\Bq,0,1.5733870205,1.9188265496,1.0279901196\Bq,0,1.67
 61024778,1.9757371857,0.6456150232\Bq,0,1.5477081562,1.9045988906,1.12
 35838937\Bq,0,1.7017813421,1.9899648448,0.5500212491\Bq,0,1.5220292919
 ,1.8903712316,1.2191776678\Bq,0,1.7274602065,2.0041925038,0.454427475\
 Bq,0,1.4963504276,1.8761435725,1.3147714419\Bq,0,1.7531390708,2.018420
 1628,0.3588337009\Bq,0,1.6247447492,1.9472818677,0.8368025714\Bq,0,1.5
 953748343,2.0320369027,0.946136885\Bq,0,1.646732563,2.0604922207,0.754
 9493368\Bq,0,1.56969597,2.0178092437,1.0417306591\Bq,0,1.6724114273,2.
 0747198798,0.6593555628\Bq,0,1.5440171057,2.0035815846,1.1373244332\Bq
 ,0,1.6980902916,2.0889475388,0.5637617887\Bq,0,1.5183382413,1.98935392
 56,1.2329182073\Bq,0,1.7237691559,2.1031751978,0.4681680146\Bq,0,1.492
 659377,1.9751262666,1.3285119814\Bq,0,1.7494480203,2.1174028569,0.3725
 742405\Bq,0,1.6210536986,2.0462645617,0.8505431109\Bq,0,1.5916837838,2
 .1310195967,0.9598774246\Bq,0,1.6430415124,2.1594749148,0.7686898764\B
 q,0,1.5660049195,2.1167919377,1.0554711987\Bq,0,1.6687203767,2.1737025
 738,0.6730961023\Bq,0,1.5403260551,2.1025642787,1.1510649728\Bq,0,1.69
 43992411,2.1879302328,0.5775023282\Bq,0,1.5146471908,2.0883366196,1.24
 66587469\Bq,0,1.7200781054,2.2021578919,0.4819085541\Bq,0,1.4889683265
 ,2.0741089606,1.342252521\Bq,0,1.7457569697,2.2163855509,0.38631478\Bq
 ,0,1.6173626481,2.1452472558,0.8642836505\Bq,0,1.8728125606,-2.8181151
 051,0.2987932284\Bq,0,1.9241702892,-2.789659787,0.1076056803\Bq,0,1.84
 71336963,-2.8323427641,0.3943870025\Bq,0,1.9498491536,-2.775432128,0.0
 120119062\Bq,0,1.821454832,-2.8465704231,0.4899807766\Bq,0,1.975528017
 9,-2.761204469,-0.0835818679\Bq,0,1.7957759676,-2.8607980821,0.5855745
 507\Bq,0,2.0012068822,-2.7469768099,-0.179175642\Bq,0,1.7700971033,-2.
 8750257412,0.6811683248\Bq,0,2.0268857465,-2.7327491509,-0.2747694161\
 Bq,0,1.8984914249,-2.803887446,0.2031994543\Bq,0,1.8691215101,-2.71913
 2411,0.312533768\Bq,0,1.9204792387,-2.690677093,0.1213462198\Bq,0,1.84
 34426457,-2.7333600701,0.4081275421\Bq,0,1.946158103,-2.6764494339,0.0
 257524457\Bq,0,1.8177637814,-2.7475877291,0.5037213162\Bq,0,1.97183696
 74,-2.6622217749,-0.0698413284\Bq,0,1.7920849171,-2.7618153881,0.59931
 50903\\Version=ES64L-G09RevD.01\HF=-847.0032898\RMSD=7.577e-09\Dipole=
 0.0186808,0.0336671,0.0011595\Quadrupole=4.9072795,4.7288219,-9.636101
 4,-0.2850201,2.3867064,-0.880172\PG=C01 [X(C22H14)]\\@


 THE UNDERLYING PHYSICAL LAWS NECESSARY FOR THE 
 MATHEMATICAL THEORY OF A LARGE PART OF PHYSICS AND THE
 WHOLE OF CHEMISTRY ARE THUS COMPLETELY KNOWN, AND THE
 DIFFICULTY IS ONLY THAT THE EXACT APPLICATION OF THESE
 LAWS LEADS TO EQUATIONS MUCH TOO COMPLICATED 
 TO BE SOLUBLE.

                                        -- P. A. M. DIRAC, 1929
 Job cpu time:       0 days  2 hours 35 minutes 21.9 seconds.
 File lengths (MBytes):  RWF=    184 Int=      0 D2E=      0 Chk=     19 Scr=      1
 Normal termination of Gaussian 09 at Sat Aug 22 17:22:44 2020.
