 Entering Gaussian System, Link 0=g09
 Input=input_cycle_05_batch_01800.com
 Output=input_cycle_05_batch_01800.log
 Initial command:
 /share/programs/GAUSSIAN/64/g09/l1.exe "/scratch/yannick.30672/Gau-2854714.inp" -scrdir="/scratch/yannick.30672/"
 Entering Link 1 = /share/programs/GAUSSIAN/64/g09/l1.exe PID=   2854715.
  
 Copyright (c) 1988,1990,1992,1993,1995,1998,2003,2009,2013,
            Gaussian, Inc.  All Rights Reserved.
  
 This is part of the Gaussian(R) 09 program.  It is based on
 the Gaussian(R) 03 system (copyright 2003, Gaussian, Inc.),
 the Gaussian(R) 98 system (copyright 1998, Gaussian, Inc.),
 the Gaussian(R) 94 system (copyright 1995, Gaussian, Inc.),
 the Gaussian 92(TM) system (copyright 1992, Gaussian, Inc.),
 the Gaussian 90(TM) system (copyright 1990, Gaussian, Inc.),
 the Gaussian 88(TM) system (copyright 1988, Gaussian, Inc.),
 the Gaussian 86(TM) system (copyright 1986, Carnegie Mellon
 University), and the Gaussian 82(TM) system (copyright 1983,
 Carnegie Mellon University). Gaussian is a federally registered
 trademark of Gaussian, Inc.
  
 This software contains proprietary and confidential information,
 including trade secrets, belonging to Gaussian, Inc.
  
 This software is provided under written license and may be
 used, copied, transmitted, or stored only in accord with that
 written license.
  
 The following legend is applicable only to US Government
 contracts under FAR:
  
                    RESTRICTED RIGHTS LEGEND
  
 Use, reproduction and disclosure by the US Government is
 subject to restrictions as set forth in subparagraphs (a)
 and (c) of the Commercial Computer Software - Restricted
 Rights clause in FAR 52.227-19.
  
 Gaussian, Inc.
 340 Quinnipiac St., Bldg. 40, Wallingford CT 06492
  
  
 ---------------------------------------------------------------
 Warning -- This program may not be used in any manner that
 competes with the business of Gaussian, Inc. or will provide
 assistance to any competitor of Gaussian, Inc.  The licensee
 of this program is prohibited from giving any competitor of
 Gaussian, Inc. access to this program.  By using this program,
 the user acknowledges that Gaussian, Inc. is engaged in the
 business of creating and licensing software in the field of
 computational chemistry and represents and warrants to the
 licensee that it is not a competitor of Gaussian, Inc. and that
 it will not use this program in any manner prohibited above.
 ---------------------------------------------------------------
  

 Cite this work as:
 Gaussian 09, Revision D.01,
 M. J. Frisch, G. W. Trucks, H. B. Schlegel, G. E. Scuseria, 
 M. A. Robb, J. R. Cheeseman, G. Scalmani, V. Barone, B. Mennucci, 
 G. A. Petersson, H. Nakatsuji, M. Caricato, X. Li, H. P. Hratchian, 
 A. F. Izmaylov, J. Bloino, G. Zheng, J. L. Sonnenberg, M. Hada, 
 M. Ehara, K. Toyota, R. Fukuda, J. Hasegawa, M. Ishida, T. Nakajima, 
 Y. Honda, O. Kitao, H. Nakai, T. Vreven, J. A. Montgomery, Jr., 
 J. E. Peralta, F. Ogliaro, M. Bearpark, J. J. Heyd, E. Brothers, 
 K. N. Kudin, V. N. Staroverov, T. Keith, R. Kobayashi, J. Normand, 
 K. Raghavachari, A. Rendell, J. C. Burant, S. S. Iyengar, J. Tomasi, 
 M. Cossi, N. Rega, J. M. Millam, M. Klene, J. E. Knox, J. B. Cross, 
 V. Bakken, C. Adamo, J. Jaramillo, R. Gomperts, R. E. Stratmann, 
 O. Yazyev, A. J. Austin, R. Cammi, C. Pomelli, J. W. Ochterski, 
 R. L. Martin, K. Morokuma, V. G. Zakrzewski, G. A. Voth, 
 P. Salvador, J. J. Dannenberg, S. Dapprich, A. D. Daniels, 
 O. Farkas, J. B. Foresman, J. V. Ortiz, J. Cioslowski, 
 and D. J. Fox, Gaussian, Inc., Wallingford CT, 2013.
 
 ******************************************
 Gaussian 09:  ES64L-G09RevD.01 24-Apr-2013
                23-Aug-2020 
 ******************************************
 %nproc=8
 Will use up to    8 processors via shared memory.
 %mem=1000MB
 ----------------------------------------
 # rb3lyp/6-311+g** NMR geom=connectivity
 ----------------------------------------
 1/38=1,57=2/1;
 2/12=2,17=6,18=5,40=1/2;
 3/5=4,6=6,7=111,11=2,16=1,25=1,30=1,74=-5,116=1/1,2,8,3;
 4//1;
 5/5=2,38=5/2;
 8/6=1,10=90,11=11/1;
 10/13=100,45=16/2;
 6/7=2,8=2,9=2,10=2,28=1/1;
 99/9=1/99;
 -----
 Title
 -----
 Symbolic Z-matrix:
 Charge =  0 Multiplicity = 1
 C                    -4.05006  -0.57719   0.81367 
 H                    -5.02638  -1.00827   1.00248 
 C                    -3.93816   0.66178   0.24009 
 H                    -4.82524   1.23389  -0.01113 
 C                    -2.67684   1.24332   0.00576 
 C                    -1.49741   0.50515   0.28483 
 C                    -1.65083  -0.73387   0.9404 
 H                    -0.77136  -1.2731    1.26338 
 C                    -2.88985  -1.2624    1.19943 
 H                    -2.96837  -2.21246   1.71527 
 C                    -2.57732   2.59637  -0.41929 
 H                    -3.48707   3.14122  -0.64741 
 C                    -1.37419   3.21479  -0.4364 
 H                    -1.29973   4.2742   -0.65781 
 C                    -0.17195   2.49941  -0.17346 
 C                    -0.20439   1.10184   0.01927 
 C                     1.05135   3.20426  -0.06762 
 H                     1.04273   4.28195  -0.1897 
 C                     2.19421   2.54874   0.25796 
 H                     3.11685   3.09128   0.43347 
 C                     2.22165   1.13366   0.2935 
 C                     1.04869   0.39455   0.03024 
 C                     3.44834   0.46146   0.55739 
 H                     4.30958   1.06061   0.83348 
 C                     3.54273  -0.88559   0.47495 
 H                     4.47315  -1.39397   0.70388 
 C                     2.44901  -1.64744  -0.01963 
 C                     1.21507  -1.00573  -0.30136 
 C                     0.25311  -1.74344  -1.02166 
 H                    -0.65414  -1.25351  -1.34628 
 C                     0.44942  -3.06286  -1.34138 
 H                    -0.30832  -3.59443  -1.90541 
 C                     1.62517  -3.7208   -0.95525 
 H                     1.767    -4.76874  -1.1927 
 C                     2.61099  -3.01442  -0.31831 
 H                     3.55256  -3.49028  -0.06464 
 Bq                   -4.98959  -0.98663   2.03474 
 Bq                   -4.98676  -1.33449   1.31433 
 Bq                   -4.98995  -0.94314   2.12479 
 Bq                   -4.98641  -1.37797   1.22428 
 Bq                   -4.98818  -1.16056   1.67454 
 Bq                   -4.98836  -1.02702   1.72111 
 Bq                   -4.98765  -1.11399   1.541 
 Bq                   -4.98871  -0.98354   1.81116 
 Bq                   -4.9873   -1.15747   1.45095 
 Bq                   -4.98907  -0.94006   1.90121 
 Bq                   -4.98694  -1.20095   1.3609 
 Bq                   -4.98942  -0.89658   1.99126 
 Bq                   -4.98659  -1.24444   1.27085 
 Bq                   -4.98977  -0.85309   2.08131 
 Bq                   -4.98623  -1.28792   1.1808 
 Bq                   -4.988    -1.07051   1.63105 
 Bq                   -4.98819  -0.93697   1.67762 
 Bq                   -4.98748  -1.02394   1.49752 
 Bq                   -4.98854  -0.89349   1.76767 
 Bq                   -4.98713  -1.06742   1.40747 
 Bq                   -4.9889   -0.85001   1.85772 
 Bq                   -4.98677  -1.1109    1.31742 
 Bq                   -4.98925  -0.80652   1.94777 
 Bq                   -4.98642  -1.15439   1.22737 
 Bq                   -4.9896   -0.76304   2.03783 
 Bq                   -4.98606  -1.19787   1.13732 
 Bq                   -4.98783  -0.98046   1.58757 
 Bq                   -4.98802  -0.84692   1.63414 
 Bq                   -4.98731  -0.93389   1.45404 
 Bq                   -4.98837  -0.80344   1.72419 
 Bq                   -4.98695  -0.97737   1.36399 
 Bq                   -4.98872  -0.75996   1.81424 
 Bq                   -4.9866   -1.02085   1.27394 
 Bq                   -4.98908  -0.71647   1.90429 
 Bq                   -4.98625  -1.06433   1.18389 
 Bq                   -4.98943  -0.67299   1.99434 
 Bq                   -4.98589  -1.10782   1.09384 
 Bq                   -4.98766  -0.8904    1.54409 
 Bq                   -4.98785  -0.75687   1.59066 
 Bq                   -4.98714  -0.84384   1.41056 
 Bq                   -4.9882   -0.71339   1.68071 
 Bq                   -4.98678  -0.88732   1.32051 
 Bq                   -4.98855  -0.6699    1.77076 
 Bq                   -4.98643  -0.9308    1.23046 
 Bq                   -4.98891  -0.62642   1.86081 
 Bq                   -4.98608  -0.97428   1.1404 
 Bq                   -4.98926  -0.58294   1.95086 
 Bq                   -4.98572  -1.01777   1.05035 
 Bq                   -4.98749  -0.80035   1.50061 
 Bq                   -4.98767  -0.66682   1.54718 
 Bq                   -4.98697  -0.75378   1.36707 
 Bq                   -4.98803  -0.62334   1.63723 
 Bq                   -4.98661  -0.79727   1.27702 
 Bq                   -4.98838  -0.57985   1.72728 
 Bq                   -4.98626  -0.84075   1.18697 
 Bq                   -4.98874  -0.53637   1.81733 
 Bq                   -4.98591  -0.88423   1.09692 
 Bq                   -4.98909  -0.49289   1.90738 
 Bq                   -4.98555  -0.92771   1.00687 
 Bq                   -4.98732  -0.7103    1.45712 
 Bq                   -4.9875   -0.57677   1.50369 
 Bq                   -4.9868   -0.66373   1.32359 
 Bq                   -4.98786  -0.53328   1.59374 
 Bq                   -4.98644  -0.70722   1.23354 
 Bq                   -4.98821  -0.4898    1.68379 
 Bq                   -4.98609  -0.7507    1.14349 
 Bq                   -4.98857  -0.44632   1.77385 
 Bq                   -4.98573  -0.79418   1.05344 
 Bq                   -4.98892  -0.40284   1.8639 
 Bq                   -4.98538  -0.83766   0.96339 
 Bq                   -4.98715  -0.62025   1.41364 
 Bq                   -4.98733  -0.48672   1.46021 
 Bq                   -4.98663  -0.57368   1.28011 
 Bq                   -4.98769  -0.44323   1.55026 
 Bq                   -4.98627  -0.61716   1.19006 
 Bq                   -4.98804  -0.39975   1.64031 
 Bq                   -4.98592  -0.66065   1.10001 
 Bq                   -4.9884   -0.35627   1.73036 
 Bq                   -4.98556  -0.70413   1.00996 
 Bq                   -4.98875  -0.31278   1.82041 
 Bq                   -4.98521  -0.74761   0.91991 
 Bq                   -4.98698  -0.5302    1.37016 
 Bq                   -4.98716  -0.39666   1.41673 
 Bq                   -4.98645  -0.48363   1.23663 
 Bq                   -4.98752  -0.35318   1.50678 
 Bq                   -4.9861   -0.52711   1.14658 
 Bq                   -4.98787  -0.3097    1.59683 
 Bq                   -4.98575  -0.5706    1.05653 
 Bq                   -4.98822  -0.26622   1.68688 
 Bq                   -4.98539  -0.61408   0.96647 
 Bq                   -4.98858  -0.22273   1.77693 
 Bq                   -4.98504  -0.65756   0.87642 
 Bq                   -4.98681  -0.44015   1.32668 
 Bq                   -4.98699  -0.30661   1.37325 
 Bq                   -4.98628  -0.39358   1.19314 
 Bq                   -4.98735  -0.26313   1.4633 
 Bq                   -4.98593  -0.43706   1.10309 
 Bq                   -4.9877   -0.21965   1.55335 
 Bq                   -4.98558  -0.48054   1.01304 
 Bq                   -4.98805  -0.17616   1.6434 
 Bq                   -4.98522  -0.52403   0.92299 
 Bq                   -4.98841  -0.13268   1.73345 
 Bq                   -4.98487  -0.56751   0.83294 
 Bq                   -4.98664  -0.3501    1.2832 
 Bq                   -4.98682  -0.21656   1.32976 
 Bq                   -4.98611  -0.30353   1.14966 
 Bq                   -4.98717  -0.17308   1.41981 
 Bq                   -4.98576  -0.34701   1.05961 
 Bq                   -4.98753  -0.1296    1.50987 
 Bq                   -4.9854   -0.39049   0.96956 
 Bq                   -4.98788  -0.08611   1.59992 
 Bq                   -4.98505  -0.43398   0.87951 
 Bq                   -4.98824  -0.04263   1.68997 
 Bq                   -4.9847   -0.47746   0.78946 
 Bq                   -4.98647  -0.26004   1.23971 
 Bq                   -4.98665  -0.12651   1.28628 
 Bq                   -4.98594  -0.21348   1.10618 
 Bq                   -4.987    -0.08303   1.37633 
 Bq                   -4.98559  -0.25696   1.01613 
 Bq                   -4.98736  -0.03954   1.46638 
 Bq                   -4.98523  -0.30044   0.92608 
 Bq                   -4.98771   0.00394   1.55643 
 Bq                   -4.98488  -0.34392   0.83603 
 Bq                   -4.98807   0.04742   1.64648 
 Bq                   -4.98453  -0.38741   0.74598 
 Bq                   -4.9863   -0.16999   1.19623 
 Bq                   -4.98648  -0.03646   1.2428 
 Bq                   -4.98577  -0.12342   1.0627 
 Bq                   -4.98683   0.00702   1.33285 
 Bq                   -4.98542  -0.16691   0.97265 
 Bq                   -4.98719   0.05051   1.4229 
 Bq                   -4.98506  -0.21039   0.8826 
 Bq                   -4.98754   0.09399   1.51295 
 Bq                   -4.98471  -0.25387   0.79255 
 Bq                   -4.98789   0.13747   1.603 
 Bq                   -4.98435  -0.29735   0.70249 
 Bq                   -4.98612  -0.07994   1.15275 
 Bq                   -4.98631   0.05359   1.19932 
 Bq                   -4.9856   -0.03337   1.01922 
 Bq                   -4.98666   0.09708   1.28937 
 Bq                   -4.98525  -0.07686   0.92916 
 Bq                   -4.98702   0.14056   1.37942 
 Bq                   -4.98489  -0.12034   0.83911 
 Bq                   -4.98737   0.18404   1.46947 
 Bq                   -4.98454  -0.16382   0.74906 
 Bq                   -4.98772   0.22752   1.55952 
 Bq                   -4.98418  -0.2073    0.65901 
 Bq                   -4.98595   0.01011   1.10927 
 Bq                   -4.98614   0.14364   1.15583 
 Bq                   -4.98543   0.05668   0.97573 
 Bq                   -4.98649   0.18713   1.24588 
 Bq                   -4.98507   0.0132    0.88568 
 Bq                   -4.98684   0.23061   1.33594 
 Bq                   -4.98472  -0.03029   0.79563 
 Bq                   -4.9872    0.27409   1.42599 
 Bq                   -4.98437  -0.07377   0.70558 
 Bq                   -4.98755   0.31757   1.51604 
 Bq                   -4.98401  -0.11725   0.61553 
 Bq                   -4.98578   0.10016   1.06578 
 Bq                   -4.98597   0.2337    1.11235 
 Bq                   -4.98526   0.14673   0.93225 
 Bq                   -4.98632   0.27718   1.2024 
 Bq                   -4.9849    0.10325   0.8422 
 Bq                   -4.98667   0.32066   1.29245 
 Bq                   -4.98455   0.05976   0.75215 
 Bq                   -4.98703   0.36414   1.3825 
 Bq                   -4.9842    0.01628   0.6621 
 Bq                   -4.98738   0.40763   1.47255 
 Bq                   -4.98384  -0.0272    0.57205 
 Bq                   -4.98561   0.19021   1.0223 
 Bq                   -4.98579   0.32375   1.06887 
 Bq                   -4.98509   0.23678   0.88877 
 Bq                   -4.98615   0.36723   1.15892 
 Bq                   -4.98473   0.1933    0.79872 
 Bq                   -4.9865    0.41071   1.24897 
 Bq                   -4.98438   0.14982   0.70867 
 Bq                   -4.98686   0.4542    1.33902 
 Bq                   -4.98402   0.10633   0.61862 
 Bq                   -4.98721   0.49768   1.42907 
 Bq                   -4.98367   0.06285   0.52857 
 Bq                   -4.98544   0.28026   0.97882 
 Bq                   -4.98562   0.4138    1.02539 
 Bq                   -4.98492   0.32683   0.84529 
 Bq                   -4.98598   0.45728   1.11544 
 Bq                   -4.98456   0.28335   0.75523 
 Bq                   -4.98633   0.50076   1.20549 
 Bq                   -4.98421   0.23987   0.66518 
 Bq                   -4.98669   0.54425   1.29554 
 Bq                   -4.98385   0.19638   0.57513 
 Bq                   -4.98704   0.58773   1.38559 
 Bq                   -4.9835    0.1529    0.48508 
 Bq                   -4.98527   0.37032   0.93534 
 Bq                   -4.98545   0.50385   0.9819 
 Bq                   -4.98474   0.41688   0.8018 
 Bq                   -4.98581   0.54733   1.07196 
 Bq                   -4.98439   0.3734    0.71175 
 Bq                   -4.98616   0.59082   1.16201 
 Bq                   -4.98404   0.32992   0.6217 
 Bq                   -4.98651   0.6343    1.25206 
 Bq                   -4.98368   0.28644   0.53165 
 
 Symmetry turned off:
 Cannot cope with ghost atoms or with translation vectors.
 Stoichiometry    C22H14
 Framework group  C1[X(C22H14)]
 NUMDOF-- NAT=    36 NAtoms=   236
 Deg. of freedom     0
 Full point group                 C1      NOp   1
                          Input orientation:                          
 ---------------------------------------------------------------------
 Center     Atomic      Atomic             Coordinates (Angstroms)
 Number     Number       Type             X           Y           Z
 ---------------------------------------------------------------------
      1          6           0       -4.050056   -0.577186    0.813671
      2          1           0       -5.026380   -1.008273    1.002476
      3          6           0       -3.938155    0.661780    0.240088
      4          1           0       -4.825242    1.233889   -0.011130
      5          6           0       -2.676841    1.243325    0.005758
      6          6           0       -1.497412    0.505153    0.284825
      7          6           0       -1.650833   -0.733873    0.940403
      8          1           0       -0.771365   -1.273097    1.263375
      9          6           0       -2.889855   -1.262404    1.199431
     10          1           0       -2.968371   -2.212456    1.715268
     11          6           0       -2.577319    2.596370   -0.419293
     12          1           0       -3.487073    3.141224   -0.647406
     13          6           0       -1.374190    3.214790   -0.436403
     14          1           0       -1.299732    4.274202   -0.657814
     15          6           0       -0.171949    2.499409   -0.173459
     16          6           0       -0.204392    1.101844    0.019269
     17          6           0        1.051349    3.204256   -0.067622
     18          1           0        1.042734    4.281950   -0.189700
     19          6           0        2.194209    2.548745    0.257958
     20          1           0        3.116853    3.091285    0.433473
     21          6           0        2.221647    1.133656    0.293499
     22          6           0        1.048693    0.394553    0.030241
     23          6           0        3.448336    0.461463    0.557394
     24          1           0        4.309579    1.060605    0.833485
     25          6           0        3.542735   -0.885593    0.474946
     26          1           0        4.473147   -1.393970    0.703882
     27          6           0        2.449005   -1.647445   -0.019632
     28          6           0        1.215070   -1.005726   -0.301357
     29          6           0        0.253111   -1.743444   -1.021659
     30          1           0       -0.654136   -1.253505   -1.346285
     31          6           0        0.449419   -3.062860   -1.341378
     32          1           0       -0.308316   -3.594431   -1.905406
     33          6           0        1.625173   -3.720797   -0.955254
     34          1           0        1.767005   -4.768740   -1.192702
     35          6           0        2.610987   -3.014418   -0.318305
     36          1           0        3.552561   -3.490281   -0.064637
     37          0           0       -4.989592   -0.986627    2.034740
     38          0           0       -4.986760   -1.334489    1.314334
     39          0           0       -4.989946   -0.943145    2.124790
     40          0           0       -4.986406   -1.377972    1.224283
     41          0           0       -4.988176   -1.160558    1.674537
     42          0           0       -4.988359   -1.027024    1.721105
     43          0           0       -4.987651   -1.113989    1.541004
     44          0           0       -4.988713   -0.983541    1.811156
     45          0           0       -4.987297   -1.157472    1.450953
     46          0           0       -4.989067   -0.940059    1.901206
     47          0           0       -4.986943   -1.200955    1.360902
     48          0           0       -4.989421   -0.896576    1.991257
     49          0           0       -4.986589   -1.244438    1.270852
     50          0           0       -4.989775   -0.853093    2.081308
     51          0           0       -4.986235   -1.287920    1.180801
     52          0           0       -4.988005   -1.070507    1.631054
     53          0           0       -4.988188   -0.936973    1.677623
     54          0           0       -4.987480   -1.023938    1.497521
     55          0           0       -4.988542   -0.893490    1.767673
     56          0           0       -4.987126   -1.067421    1.407471
     57          0           0       -4.988896   -0.850007    1.857724
     58          0           0       -4.986772   -1.110903    1.317420
     59          0           0       -4.989250   -0.806524    1.947775
     60          0           0       -4.986418   -1.154386    1.227369
     61          0           0       -4.989604   -0.763042    2.037826
     62          0           0       -4.986064   -1.197869    1.137319
     63          0           0       -4.987834   -0.980455    1.587572
     64          0           0       -4.988017   -0.846921    1.634140
     65          0           0       -4.987309   -0.933887    1.454039
     66          0           0       -4.988371   -0.803438    1.724191
     67          0           0       -4.986955   -0.977369    1.363988
     68          0           0       -4.988725   -0.759956    1.814242
     69          0           0       -4.986601   -1.020852    1.273938
     70          0           0       -4.989079   -0.716473    1.904292
     71          0           0       -4.986247   -1.064335    1.183887
     72          0           0       -4.989433   -0.672990    1.994343
     73          0           0       -4.985893   -1.107818    1.093836
     74          0           0       -4.987663   -0.890404    1.544090
     75          0           0       -4.987846   -0.756870    1.590658
     76          0           0       -4.987138   -0.843835    1.410557
     77          0           0       -4.988200   -0.713387    1.680709
     78          0           0       -4.986784   -0.887318    1.320506
     79          0           0       -4.988554   -0.669904    1.770759
     80          0           0       -4.986430   -0.930801    1.230455
     81          0           0       -4.988908   -0.626422    1.860810
     82          0           0       -4.986076   -0.974283    1.140404
     83          0           0       -4.989262   -0.582939    1.950861
     84          0           0       -4.985722   -1.017766    1.050354
     85          0           0       -4.987492   -0.800353    1.500607
     86          0           0       -4.987675   -0.666818    1.547176
     87          0           0       -4.986967   -0.753784    1.367074
     88          0           0       -4.988029   -0.623336    1.637226
     89          0           0       -4.986613   -0.797267    1.277023
     90          0           0       -4.988383   -0.579853    1.727277
     91          0           0       -4.986259   -0.840749    1.186973
     92          0           0       -4.988737   -0.536370    1.817328
     93          0           0       -4.985905   -0.884232    1.096922
     94          0           0       -4.989091   -0.492888    1.907378
     95          0           0       -4.985551   -0.927715    1.006871
     96          0           0       -4.987321   -0.710301    1.457125
     97          0           0       -4.987504   -0.576767    1.503693
     98          0           0       -4.986796   -0.663732    1.323592
     99          0           0       -4.987858   -0.533284    1.593744
    100          0           0       -4.986442   -0.707215    1.233541
    101          0           0       -4.988212   -0.489802    1.683795
    102          0           0       -4.986088   -0.750698    1.143490
    103          0           0       -4.988566   -0.446319    1.773845
    104          0           0       -4.985734   -0.794181    1.053440
    105          0           0       -4.988920   -0.402836    1.863896
    106          0           0       -4.985380   -0.837663    0.963389
    107          0           0       -4.987150   -0.620250    1.413642
    108          0           0       -4.987333   -0.486716    1.460211
    109          0           0       -4.986625   -0.573681    1.280109
    110          0           0       -4.987687   -0.443233    1.550262
    111          0           0       -4.986271   -0.617164    1.190059
    112          0           0       -4.988041   -0.399750    1.640312
    113          0           0       -4.985917   -0.660647    1.100008
    114          0           0       -4.988395   -0.356267    1.730363
    115          0           0       -4.985563   -0.704129    1.009957
    116          0           0       -4.988749   -0.312785    1.820414
    117          0           0       -4.985209   -0.747612    0.919907
    118          0           0       -4.986979   -0.530198    1.370160
    119          0           0       -4.987162   -0.396664    1.416728
    120          0           0       -4.986454   -0.483630    1.236627
    121          0           0       -4.987516   -0.353182    1.506779
    122          0           0       -4.986100   -0.527112    1.146576
    123          0           0       -4.987870   -0.309699    1.596830
    124          0           0       -4.985746   -0.570595    1.056526
    125          0           0       -4.988224   -0.266216    1.686881
    126          0           0       -4.985392   -0.614078    0.966475
    127          0           0       -4.988578   -0.222733    1.776931
    128          0           0       -4.985038   -0.657561    0.876424
    129          0           0       -4.986808   -0.440147    1.326678
    130          0           0       -4.986991   -0.306613    1.373246
    131          0           0       -4.986283   -0.393578    1.193145
    132          0           0       -4.987345   -0.263130    1.463297
    133          0           0       -4.985929   -0.437061    1.103094
    134          0           0       -4.987699   -0.219647    1.553347
    135          0           0       -4.985575   -0.480544    1.013043
    136          0           0       -4.988053   -0.176165    1.643398
    137          0           0       -4.985221   -0.524026    0.922993
    138          0           0       -4.988407   -0.132682    1.733449
    139          0           0       -4.984867   -0.567509    0.832942
    140          0           0       -4.986637   -0.350096    1.283195
    141          0           0       -4.986820   -0.216561    1.329764
    142          0           0       -4.986112   -0.303527    1.149662
    143          0           0       -4.987174   -0.173079    1.419814
    144          0           0       -4.985758   -0.347010    1.059612
    145          0           0       -4.987528   -0.129596    1.509865
    146          0           0       -4.985404   -0.390492    0.969561
    147          0           0       -4.987882   -0.086113    1.599916
    148          0           0       -4.985050   -0.433975    0.879510
    149          0           0       -4.988236   -0.042631    1.689966
    150          0           0       -4.984696   -0.477458    0.789459
    151          0           0       -4.986466   -0.260044    1.239713
    152          0           0       -4.986649   -0.126510    1.286281
    153          0           0       -4.985941   -0.213476    1.106180
    154          0           0       -4.987003   -0.083027    1.376332
    155          0           0       -4.985587   -0.256958    1.016129
    156          0           0       -4.987357   -0.039545    1.466383
    157          0           0       -4.985233   -0.300441    0.926078
    158          0           0       -4.987711    0.003938    1.556433
    159          0           0       -4.984879   -0.343924    0.836028
    160          0           0       -4.988065    0.047421    1.646484
    161          0           0       -4.984525   -0.387406    0.745977
    162          0           0       -4.986295   -0.169993    1.196231
    163          0           0       -4.986478   -0.036459    1.242799
    164          0           0       -4.985770   -0.123424    1.062698
    165          0           0       -4.986832    0.007024    1.332850
    166          0           0       -4.985416   -0.166907    0.972647
    167          0           0       -4.987186    0.050507    1.422900
    168          0           0       -4.985062   -0.210390    0.882596
    169          0           0       -4.987540    0.093989    1.512951
    170          0           0       -4.984708   -0.253872    0.792545
    171          0           0       -4.987894    0.137472    1.603002
    172          0           0       -4.984354   -0.297355    0.702495
    173          0           0       -4.986124   -0.079941    1.152748
    174          0           0       -4.986308    0.053593    1.199317
    175          0           0       -4.985600   -0.033373    1.019215
    176          0           0       -4.986662    0.097075    1.289367
    177          0           0       -4.985246   -0.076855    0.929164
    178          0           0       -4.987016    0.140558    1.379418
    179          0           0       -4.984892   -0.120338    0.839114
    180          0           0       -4.987370    0.184041    1.469469
    181          0           0       -4.984538   -0.163821    0.749063
    182          0           0       -4.987724    0.227524    1.559519
    183          0           0       -4.984184   -0.207304    0.659012
    184          0           0       -4.985954    0.010110    1.109266
    185          0           0       -4.986137    0.143644    1.155834
    186          0           0       -4.985429    0.056679    0.975733
    187          0           0       -4.986491    0.187127    1.245885
    188          0           0       -4.985075    0.013196    0.885682
    189          0           0       -4.986845    0.230610    1.335936
    190          0           0       -4.984721   -0.030287    0.795631
    191          0           0       -4.987199    0.274092    1.425986
    192          0           0       -4.984367   -0.073769    0.705581
    193          0           0       -4.987553    0.317575    1.516037
    194          0           0       -4.984013   -0.117252    0.615530
    195          0           0       -4.985783    0.100161    1.065783
    196          0           0       -4.985966    0.233696    1.112352
    197          0           0       -4.985258    0.146730    0.932250
    198          0           0       -4.986320    0.277178    1.202402
    199          0           0       -4.984904    0.103247    0.842200
    200          0           0       -4.986674    0.320661    1.292453
    201          0           0       -4.984550    0.059765    0.752149
    202          0           0       -4.987028    0.364144    1.382504
    203          0           0       -4.984196    0.016282    0.662098
    204          0           0       -4.987382    0.407626    1.472555
    205          0           0       -4.983842   -0.027201    0.572048
    206          0           0       -4.985612    0.190213    1.022301
    207          0           0       -4.985795    0.323747    1.068869
    208          0           0       -4.985087    0.236781    0.888768
    209          0           0       -4.986149    0.367230    1.158920
    210          0           0       -4.984733    0.193299    0.798717
    211          0           0       -4.986503    0.410712    1.248971
    212          0           0       -4.984379    0.149816    0.708667
    213          0           0       -4.986857    0.454195    1.339021
    214          0           0       -4.984025    0.106333    0.618616
    215          0           0       -4.987211    0.497678    1.429072
    216          0           0       -4.983671    0.062851    0.528565
    217          0           0       -4.985441    0.280264    0.978819
    218          0           0       -4.985624    0.413798    1.025387
    219          0           0       -4.984916    0.326833    0.845286
    220          0           0       -4.985978    0.457281    1.115438
    221          0           0       -4.984562    0.283350    0.755235
    222          0           0       -4.986332    0.500764    1.205488
    223          0           0       -4.984208    0.239867    0.665184
    224          0           0       -4.986686    0.544246    1.295539
    225          0           0       -4.983854    0.196385    0.575134
    226          0           0       -4.987040    0.587729    1.385590
    227          0           0       -4.983500    0.152902    0.485083
    228          0           0       -4.985270    0.370316    0.935336
    229          0           0       -4.985453    0.503850    0.981905
    230          0           0       -4.984745    0.416884    0.801803
    231          0           0       -4.985807    0.547332    1.071955
    232          0           0       -4.984391    0.373402    0.711753
    233          0           0       -4.986161    0.590815    1.162006
    234          0           0       -4.984037    0.329919    0.621702
    235          0           0       -4.986515    0.634298    1.252057
    236          0           0       -4.983683    0.286436    0.531651
 ---------------------------------------------------------------------
 Rotational constants (GHZ):      0.4529074      0.2836956      0.1879557
 Standard basis: 6-311+G(d,p) (5D, 7F)
 Warning:  center  37 has no basis functions!
 Warning:  center  38 has no basis functions!
 Warning:  center  39 has no basis functions!
 Warning:  center  40 has no basis functions!
 Warning:  center  41 has no basis functions!
 Warning:  center  42 has no basis functions!
 Warning:  center  43 has no basis functions!
 Warning:  center  44 has no basis functions!
 Warning:  center  45 has no basis functions!
 Warning:  center  46 has no basis functions!
 Warning:  center  47 has no basis functions!
 Warning:  center  48 has no basis functions!
 Warning:  center  49 has no basis functions!
 Warning:  center  50 has no basis functions!
 Warning:  center  51 has no basis functions!
 Warning:  center  52 has no basis functions!
 Warning:  center  53 has no basis functions!
 Warning:  center  54 has no basis functions!
 Warning:  center  55 has no basis functions!
 Warning:  center  56 has no basis functions!
 Warning:  center  57 has no basis functions!
 Warning:  center  58 has no basis functions!
 Warning:  center  59 has no basis functions!
 Warning:  center  60 has no basis functions!
 Warning:  center  61 has no basis functions!
 Warning:  center  62 has no basis functions!
 Warning:  center  63 has no basis functions!
 Warning:  center  64 has no basis functions!
 Warning:  center  65 has no basis functions!
 Warning:  center  66 has no basis functions!
 Warning:  center  67 has no basis functions!
 Warning:  center  68 has no basis functions!
 Warning:  center  69 has no basis functions!
 Warning:  center  70 has no basis functions!
 Warning:  center  71 has no basis functions!
 Warning:  center  72 has no basis functions!
 Warning:  center  73 has no basis functions!
 Warning:  center  74 has no basis functions!
 Warning:  center  75 has no basis functions!
 Warning:  center  76 has no basis functions!
 Warning:  center  77 has no basis functions!
 Warning:  center  78 has no basis functions!
 Warning:  center  79 has no basis functions!
 Warning:  center  80 has no basis functions!
 Warning:  center  81 has no basis functions!
 Warning:  center  82 has no basis functions!
 Warning:  center  83 has no basis functions!
 Warning:  center  84 has no basis functions!
 Warning:  center  85 has no basis functions!
 Warning:  center  86 has no basis functions!
 Warning:  center  87 has no basis functions!
 Warning:  center  88 has no basis functions!
 Warning:  center  89 has no basis functions!
 Warning:  center  90 has no basis functions!
 Warning:  center  91 has no basis functions!
 Warning:  center  92 has no basis functions!
 Warning:  center  93 has no basis functions!
 Warning:  center  94 has no basis functions!
 Warning:  center  95 has no basis functions!
 Warning:  center  96 has no basis functions!
 Warning:  center  97 has no basis functions!
 Warning:  center  98 has no basis functions!
 Warning:  center  99 has no basis functions!
 Warning:  center 100 has no basis functions!
 Warning:  center 101 has no basis functions!
 Warning:  center 102 has no basis functions!
 Warning:  center 103 has no basis functions!
 Warning:  center 104 has no basis functions!
 Warning:  center 105 has no basis functions!
 Warning:  center 106 has no basis functions!
 Warning:  center 107 has no basis functions!
 Warning:  center 108 has no basis functions!
 Warning:  center 109 has no basis functions!
 Warning:  center 110 has no basis functions!
 Warning:  center 111 has no basis functions!
 Warning:  center 112 has no basis functions!
 Warning:  center 113 has no basis functions!
 Warning:  center 114 has no basis functions!
 Warning:  center 115 has no basis functions!
 Warning:  center 116 has no basis functions!
 Warning:  center 117 has no basis functions!
 Warning:  center 118 has no basis functions!
 Warning:  center 119 has no basis functions!
 Warning:  center 120 has no basis functions!
 Warning:  center 121 has no basis functions!
 Warning:  center 122 has no basis functions!
 Warning:  center 123 has no basis functions!
 Warning:  center 124 has no basis functions!
 Warning:  center 125 has no basis functions!
 Warning:  center 126 has no basis functions!
 Warning:  center 127 has no basis functions!
 Warning:  center 128 has no basis functions!
 Warning:  center 129 has no basis functions!
 Warning:  center 130 has no basis functions!
 Warning:  center 131 has no basis functions!
 Warning:  center 132 has no basis functions!
 Warning:  center 133 has no basis functions!
 Warning:  center 134 has no basis functions!
 Warning:  center 135 has no basis functions!
 Warning:  center 136 has no basis functions!
 Warning:  center 137 has no basis functions!
 Warning:  center 138 has no basis functions!
 Warning:  center 139 has no basis functions!
 Warning:  center 140 has no basis functions!
 Warning:  center 141 has no basis functions!
 Warning:  center 142 has no basis functions!
 Warning:  center 143 has no basis functions!
 Warning:  center 144 has no basis functions!
 Warning:  center 145 has no basis functions!
 Warning:  center 146 has no basis functions!
 Warning:  center 147 has no basis functions!
 Warning:  center 148 has no basis functions!
 Warning:  center 149 has no basis functions!
 Warning:  center 150 has no basis functions!
 Warning:  center 151 has no basis functions!
 Warning:  center 152 has no basis functions!
 Warning:  center 153 has no basis functions!
 Warning:  center 154 has no basis functions!
 Warning:  center 155 has no basis functions!
 Warning:  center 156 has no basis functions!
 Warning:  center 157 has no basis functions!
 Warning:  center 158 has no basis functions!
 Warning:  center 159 has no basis functions!
 Warning:  center 160 has no basis functions!
 Warning:  center 161 has no basis functions!
 Warning:  center 162 has no basis functions!
 Warning:  center 163 has no basis functions!
 Warning:  center 164 has no basis functions!
 Warning:  center 165 has no basis functions!
 Warning:  center 166 has no basis functions!
 Warning:  center 167 has no basis functions!
 Warning:  center 168 has no basis functions!
 Warning:  center 169 has no basis functions!
 Warning:  center 170 has no basis functions!
 Warning:  center 171 has no basis functions!
 Warning:  center 172 has no basis functions!
 Warning:  center 173 has no basis functions!
 Warning:  center 174 has no basis functions!
 Warning:  center 175 has no basis functions!
 Warning:  center 176 has no basis functions!
 Warning:  center 177 has no basis functions!
 Warning:  center 178 has no basis functions!
 Warning:  center 179 has no basis functions!
 Warning:  center 180 has no basis functions!
 Warning:  center 181 has no basis functions!
 Warning:  center 182 has no basis functions!
 Warning:  center 183 has no basis functions!
 Warning:  center 184 has no basis functions!
 Warning:  center 185 has no basis functions!
 Warning:  center 186 has no basis functions!
 Warning:  center 187 has no basis functions!
 Warning:  center 188 has no basis functions!
 Warning:  center 189 has no basis functions!
 Warning:  center 190 has no basis functions!
 Warning:  center 191 has no basis functions!
 Warning:  center 192 has no basis functions!
 Warning:  center 193 has no basis functions!
 Warning:  center 194 has no basis functions!
 Warning:  center 195 has no basis functions!
 Warning:  center 196 has no basis functions!
 Warning:  center 197 has no basis functions!
 Warning:  center 198 has no basis functions!
 Warning:  center 199 has no basis functions!
 Warning:  center 200 has no basis functions!
 Warning:  center 201 has no basis functions!
 Warning:  center 202 has no basis functions!
 Warning:  center 203 has no basis functions!
 Warning:  center 204 has no basis functions!
 Warning:  center 205 has no basis functions!
 Warning:  center 206 has no basis functions!
 Warning:  center 207 has no basis functions!
 Warning:  center 208 has no basis functions!
 Warning:  center 209 has no basis functions!
 Warning:  center 210 has no basis functions!
 Warning:  center 211 has no basis functions!
 Warning:  center 212 has no basis functions!
 Warning:  center 213 has no basis functions!
 Warning:  center 214 has no basis functions!
 Warning:  center 215 has no basis functions!
 Warning:  center 216 has no basis functions!
 Warning:  center 217 has no basis functions!
 Warning:  center 218 has no basis functions!
 Warning:  center 219 has no basis functions!
 Warning:  center 220 has no basis functions!
 Warning:  center 221 has no basis functions!
 Warning:  center 222 has no basis functions!
 Warning:  center 223 has no basis functions!
 Warning:  center 224 has no basis functions!
 Warning:  center 225 has no basis functions!
 Warning:  center 226 has no basis functions!
 Warning:  center 227 has no basis functions!
 Warning:  center 228 has no basis functions!
 Warning:  center 229 has no basis functions!
 Warning:  center 230 has no basis functions!
 Warning:  center 231 has no basis functions!
 Warning:  center 232 has no basis functions!
 Warning:  center 233 has no basis functions!
 Warning:  center 234 has no basis functions!
 Warning:  center 235 has no basis functions!
 Warning:  center 236 has no basis functions!
   568 basis functions,   904 primitive gaussians,   590 cartesian basis functions
    73 alpha electrons       73 beta electrons
       nuclear repulsion energy      1610.9176155625 Hartrees.
 NAtoms=  236 NActive=  236 NUniq=  236 SFac= 1.00D+00 NAtFMM=   60 NAOKFM=T Big=T
 Integral buffers will be    131072 words long.
 Raffenetti 2 integral format.
 Two-electron integral symmetry is turned off.
 One-electron integrals computed using PRISM.
 NBasis=   568 RedAO= T EigKep=  1.78D-06  NBF=   568
 NBsUse=   556 1.00D-06 EigRej=  9.09D-07 NBFU=   556
 ExpMin= 4.38D-02 ExpMax= 4.56D+03 ExpMxC= 6.82D+02 IAcc=2 IRadAn=         4 AccDes= 0.00D+00
 Harris functional with IExCor=  402 and IRadAn=       4 diagonalized for initial guess.
 HarFok:  IExCor=  402 AccDes= 0.00D+00 IRadAn=         4 IDoV= 1 UseB2=F ITyADJ=14
 ICtDFT=  3500011 ScaDFX=  1.000000  1.000000  1.000000  1.000000
 FoFCou: FMM=F IPFlag=           0 FMFlag=      100000 FMFlg1=        2001
         NFxFlg=           0 DoJE=T BraDBF=F KetDBF=T FulRan=T
         wScrn=  0.000000 ICntrl=     500 IOpCl=  0 I1Cent=   200000004 NGrid=           0
         NMat0=    1 NMatS0=      1 NMatT0=    0 NMatD0=    1 NMtDS0=    0 NMtDT0=    0
 Symmetry not used in FoFCou.
 Requested convergence on RMS density matrix=1.00D-08 within 128 cycles.
 Requested convergence on MAX density matrix=1.00D-06.
 Requested convergence on             energy=1.00D-06.
 No special actions if energy rises.
 SCF Done:  E(RB3LYP) =  -847.003289847     A.U. after   15 cycles
            NFock= 15  Conv=0.75D-08     -V/T= 2.0040
 DoSCS=F DFT=T ScalE2(SS,OS)=  1.000000  1.000000
 Range of M.O.s used for correlation:     1   556
 NBasis=   568 NAE=    73 NBE=    73 NFC=     0 NFV=     0
 NROrb=    556 NOA=    73 NOB=    73 NVA=   483 NVB=   483

 **** Warning!!: The largest alpha MO coefficient is  0.10971036D+03

          Differentiating once with respect to magnetic field using GIAOs.
          Electric field/nuclear overlap derivatives assumed to be zero.
 FoFCou: FMM=F IPFlag=           0 FMFlag=      100000 FMFlg1=        2001
         NFxFlg=           0 DoJE=F BraDBF=F KetDBF=T FulRan=T
         wScrn=  0.000000 ICntrl=    6100 IOpCl=  0 I1Cent=           7 NGrid=         236
         NMat0=    1 NMatS0=      1 NMatT0=    0 NMatD0=    1 NMtDS0=    0 NMtDT0=    0
 Symmetry not used in FoFCou.
 FoFJK:  IHMeth= 1 ICntrl=    6127 DoSepK=F KAlg= 0 I1Cent=   0 FoldK=F
 IRaf=         1 NMat=   1 IRICut=       1 DoRegI=T DoRafI=F ISym2E= 0.
          There are     3 degrees of freedom in the 1st order CPHF.  IDoFFX=0 NUNeed=     3.
      3 vectors produced by pass  0 Test12= 1.18D-12 3.33D-08 XBig12= 2.07D+03 9.18D+00.
 AX will form     3 AO Fock derivatives at one time.
      3 vectors produced by pass  1 Test12= 1.18D-12 3.33D-08 XBig12= 3.56D+00 8.03D-01.
      3 vectors produced by pass  2 Test12= 1.18D-12 3.33D-08 XBig12= 2.10D-02 6.92D-02.
      3 vectors produced by pass  3 Test12= 1.18D-12 3.33D-08 XBig12= 5.45D-05 1.89D-03.
      3 vectors produced by pass  4 Test12= 1.18D-12 3.33D-08 XBig12= 1.20D-07 7.79D-05.
      3 vectors produced by pass  5 Test12= 1.18D-12 3.33D-08 XBig12= 4.02D-10 4.73D-06.
      3 vectors produced by pass  6 Test12= 1.18D-12 3.33D-08 XBig12= 1.32D-12 2.61D-07.
 InvSVY:  IOpt=1 It=  1 EMax= 7.11D-15
 Solved reduced A of dimension    21 with     3 vectors.
 Calculating GIAO nuclear magnetic shielding tensors.
 SCF GIAO Magnetic shielding tensor (ppm):
      1  C    Isotropic =    53.8139   Anisotropy =   178.0260
   XX=   -41.4327   YX=   -32.3458   ZX=    10.0287
   XY=   -28.3572   YY=    59.0527   ZY=    55.1899
   XZ=    13.1759   YZ=    58.7550   ZZ=   143.8218
   Eigenvalues:   -53.8775    42.8214   172.4979
      2  H    Isotropic =    24.3095   Anisotropy =     4.8536
   XX=    25.5771   YX=    -1.0289   ZX=     0.5661
   XY=    -0.7431   YY=    26.1829   ZY=    -2.3306
   XZ=    -0.1707   YZ=    -2.4411   ZZ=    21.1687
   Eigenvalues:    20.2108    25.1725    27.5453
      3  C    Isotropic =    51.4055   Anisotropy =   157.8639
   XX=   -31.5399   YX=    38.5015   ZX=   -17.9316
   XY=    34.3519   YY=    49.9437   ZY=    49.6392
   XZ=    -9.8383   YZ=    44.6006   ZZ=   135.8127
   Eigenvalues:   -50.5747    48.1432   156.6481
      4  H    Isotropic =    23.8290   Anisotropy =     7.1838
   XX=    25.3635   YX=     1.8486   ZX=    -0.3559
   XY=     1.9656   YY=    26.4581   ZY=    -2.4103
   XZ=    -1.2941   YZ=    -2.6614   ZZ=    19.6654
   Eigenvalues:    18.8176    24.0511    28.6182
      5  C    Isotropic =    46.0697   Anisotropy =   207.6751
   XX=   -19.2123   YX=    -4.8852   ZX=    -1.6475
   XY=     2.8938   YY=    -2.9860   ZY=    66.5656
   XZ=     2.5356   YZ=    67.9144   ZZ=   160.4073
   Eigenvalues:   -27.2455   -19.0652   184.5197
      6  C    Isotropic =    47.5218   Anisotropy =   196.9389
   XX=   -28.1552   YX=    -2.7889   ZX=    12.0660
   XY=   -14.3886   YY=    21.2063   ZY=    74.2521
   XZ=   -18.6356   YZ=    61.1113   ZZ=   149.5144
   Eigenvalues:   -30.2925    -5.9564   178.8144
      7  C    Isotropic =    49.3915   Anisotropy =   179.8333
   XX=   -12.5211   YX=    28.7048   ZX=   -24.6745
   XY=    31.5123   YY=    29.7000   ZY=    77.7459
   XZ=   -40.0095   YZ=    65.3072   ZZ=   130.9956
   Eigenvalues:   -52.1299    31.0240   169.2804
      8  H    Isotropic =    23.1586   Anisotropy =    13.5525
   XX=    28.5711   YX=     1.5482   ZX=    -3.6986
   XY=     3.2466   YY=    22.7592   ZY=    -2.1157
   XZ=    -8.3753   YZ=    -1.0821   ZZ=    18.1456
   Eigenvalues:    15.3521    21.9301    32.1936
      9  C    Isotropic =    55.1460   Anisotropy =   174.7426
   XX=    46.7071   YX=    -2.6162   ZX=    -2.8420
   XY=     0.6223   YY=    -1.6258   ZY=    92.8272
   XZ=     0.5159   YZ=    95.6598   ZZ=   120.3568
   Eigenvalues:   -52.8932    46.6901   171.6411
     10  H    Isotropic =    24.6278   Anisotropy =     7.1815
   XX=    29.1040   YX=     0.1399   ZX=    -0.3694
   XY=     0.3642   YY=    23.4778   ZY=    -1.0805
   XZ=    -2.4493   YZ=    -2.9465   ZZ=    21.3016
   Eigenvalues:    19.9703    24.4977    29.4155
     11  C    Isotropic =    51.5607   Anisotropy =   151.2142
   XX=     2.1639   YX=    40.9287   ZX=   -26.0048
   XY=    49.9131   YY=    12.2331   ZY=    42.1342
   XZ=   -15.6145   YZ=    38.6614   ZZ=   140.2851
   Eigenvalues:   -48.1951    50.5071   152.3701
     12  H    Isotropic =    23.8537   Anisotropy =     7.3815
   XX=    25.9672   YX=     2.3738   ZX=    -0.2390
   XY=     2.4320   YY=    26.3975   ZY=    -1.8291
   XZ=     0.3529   YZ=    -1.7731   ZZ=    19.1964
   Eigenvalues:    18.7149    24.0714    28.7747
     13  C    Isotropic =    52.8653   Anisotropy =   147.4265
   XX=    51.2944   YX=    19.9221   ZX=   -13.4678
   XY=    11.5478   YY=   -34.0176   ZY=    42.5079
   XZ=    -9.2241   YZ=    40.0716   ZZ=   141.3192
   Eigenvalues:   -46.5152    53.9616   151.1497
     14  H    Isotropic =    24.0156   Anisotropy =     7.3485
   XX=    28.6644   YX=     0.6281   ZX=     1.0808
   XY=     0.5926   YY=    24.4325   ZY=    -1.0823
   XZ=     1.6846   YZ=    -0.3842   ZZ=    18.9500
   Eigenvalues:    18.6430    24.4892    28.9146
     15  C    Isotropic =    46.2221   Anisotropy =   203.9048
   XX=   -27.2215   YX=    -0.0442   ZX=   -28.9124
   XY=     4.6427   YY=   -10.5571   ZY=    28.3830
   XZ=   -10.2704   YZ=    26.7376   ZZ=   176.4448
   Eigenvalues:   -30.5512   -12.9411   182.1586
     16  C    Isotropic =    51.9375   Anisotropy =   188.2004
   XX=   -19.4441   YX=     5.5046   ZX=    15.7858
   XY=    -8.3874   YY=     2.4863   ZY=    22.9264
   XZ=   -50.6243   YZ=    23.3340   ZZ=   172.7704
   Eigenvalues:   -21.0294    -0.5625   177.4045
     17  C    Isotropic =    51.9482   Anisotropy =   149.1264
   XX=    50.7296   YX=   -23.9353   ZX=   -18.4207
   XY=   -16.7271   YY=   -41.8764   ZY=    17.8662
   XZ=   -14.3278   YZ=    11.4871   ZZ=   146.9915
   Eigenvalues:   -46.7796    51.2584   151.3658
     18  H    Isotropic =    24.0122   Anisotropy =     7.5163
   XX=    28.5811   YX=    -0.0866   ZX=     1.5071
   XY=    -0.2466   YY=    24.3342   ZY=    -0.7657
   XZ=     2.5088   YZ=    -1.5208   ZZ=    19.1214
   Eigenvalues:    18.5094    24.5041    29.0231
     19  C    Isotropic =    51.7356   Anisotropy =   148.5924
   XX=     2.4559   YX=   -45.6913   ZX=   -31.2531
   XY=   -53.4448   YY=     7.4698   ZY=    -1.8888
   XZ=   -23.5601   YZ=    -1.2765   ZZ=   145.2810
   Eigenvalues:   -46.9894    51.3989   150.7972
     20  H    Isotropic =    23.9071   Anisotropy =     7.6651
   XX=    25.5796   YX=    -2.0226   ZX=     1.4905
   XY=    -1.9998   YY=    27.3706   ZY=    -0.5164
   XZ=     2.7276   YZ=    -1.1179   ZZ=    18.7711
   Eigenvalues:    18.1643    24.5398    29.0172
     21  C    Isotropic =    45.9767   Anisotropy =   203.9316
   XX=   -16.2108   YX=    13.1802   ZX=   -44.5913
   XY=     6.5714   YY=   -20.6329   ZY=     0.0949
   XZ=   -28.8984   YZ=   -13.0883   ZZ=   174.7736
   Eigenvalues:   -30.5796   -13.4215   181.9311
     22  C    Isotropic =    52.0450   Anisotropy =   188.1157
   XX=    -0.0787   YX=     2.5023   ZX=   -16.3451
   XY=    18.9327   YY=   -14.4798   ZY=   -34.4335
   XZ=   -50.6032   YZ=    19.9104   ZZ=   170.6934
   Eigenvalues:   -20.7705    -0.5500   177.4554
     23  C    Isotropic =    53.2392   Anisotropy =   146.7412
   XX=   -22.0674   YX=   -32.0012   ZX=   -49.4857
   XY=   -23.2043   YY=    44.3661   ZY=   -15.6400
   XZ=   -43.8090   YZ=   -20.2525   ZZ=   137.4189
   Eigenvalues:   -45.6776    54.3286   151.0667
     24  H    Isotropic =    23.8249   Anisotropy =     7.5289
   XX=    25.1073   YX=    -1.7330   ZX=     1.5380
   XY=    -1.5944   YY=    28.0047   ZY=     0.0879
   XZ=     1.2557   YZ=    -0.8283   ZZ=    18.3628
   Eigenvalues:    18.0848    24.5458    28.8442
     25  C    Isotropic =    51.4969   Anisotropy =   150.1066
   XX=   -28.4915   YX=    33.9684   ZX=   -52.3137
   XY=    22.0311   YY=    46.6072   ZY=    -3.8075
   XZ=   -44.5594   YZ=   -10.6355   ZZ=   136.3748
   Eigenvalues:   -48.3857    51.3083   151.5679
     26  H    Isotropic =    23.7431   Anisotropy =     7.4052
   XX=    24.0663   YX=     1.1141   ZX=     1.9989
   XY=     0.9693   YY=    28.1000   ZY=     1.6568
   XZ=     2.0795   YZ=     0.8886   ZZ=    19.0630
   Eigenvalues:    18.2615    24.2880    28.6799
     27  C    Isotropic =    45.8108   Anisotropy =   207.2710
   XX=    -2.7702   YX=    13.7697   ZX=   -61.4651
   XY=     6.5593   YY=   -12.0335   ZY=   -41.6456
   XZ=   -62.6381   YZ=   -44.9232   ZZ=   152.2361
   Eigenvalues:   -28.0803   -18.4787   183.9915
     28  C    Isotropic =    47.8398   Anisotropy =   197.2870
   XX=    19.6900   YX=    14.4398   ZX=   -60.5682
   XY=    28.5650   YY=   -19.3566   ZY=   -56.7015
   XZ=   -63.1331   YZ=   -24.4782   ZZ=   143.1859
   Eigenvalues:   -30.5979    -5.2472   179.3644
     29  C    Isotropic =    49.3441   Anisotropy =   179.7793
   XX=    -3.4110   YX=    38.3775   ZX=   -80.8875
   XY=    36.1252   YY=    25.9805   ZY=   -23.7573
   XZ=   -78.1065   YZ=    -3.9802   ZZ=   125.4627
   Eigenvalues:   -51.6645    30.4997   169.1970
     30  H    Isotropic =    23.1387   Anisotropy =    13.3222
   XX=    22.4354   YX=    -0.7013   ZX=    -0.2375
   XY=    -2.1539   YY=    28.3546   ZY=     4.5555
   XZ=    -3.4181   YZ=     8.3231   ZZ=    18.6259
   Eigenvalues:    15.2751    22.1208    32.0201
     31  C    Isotropic =    55.4410   Anisotropy =   174.9390
   XX=    17.1871   YX=   -14.0890   ZX=   -84.0024
   XY=   -17.9030   YY=    37.4745   ZY=   -50.3662
   XZ=   -84.6557   YZ=   -54.8325   ZZ=   111.6615
   Eigenvalues:   -51.9248    46.1808   172.0670
     32  H    Isotropic =    24.5337   Anisotropy =     7.2554
   XX=    24.6185   YX=    -2.5264   ZX=     0.7632
   XY=    -2.7385   YY=    27.4630   ZY=     1.0335
   XZ=     1.1913   YZ=     3.7573   ZZ=    21.5194
   Eigenvalues:    19.8987    24.3316    29.3706
     33  C    Isotropic =    53.1814   Anisotropy =   179.0596
   XX=    60.9231   YX=    35.2256   ZX=   -42.9515
   XY=    32.0226   YY=   -38.1801   ZY=   -45.5652
   XZ=   -44.2248   YZ=   -50.7831   ZZ=   136.8014
   Eigenvalues:   -55.1197    42.1095   172.5545
     34  H    Isotropic =    24.2825   Anisotropy =     5.1861
   XX=    26.7643   YX=    -0.0934   ZX=     2.5955
   XY=    -0.2993   YY=    24.8157   ZY=     0.8589
   XZ=     2.3715   YZ=     1.4580   ZZ=    21.2676
   Eigenvalues:    20.0339    25.0737    27.7399
     35  C    Isotropic =    51.5295   Anisotropy =   155.1748
   XX=    -0.5131   YX=    52.5760   ZX=   -52.1551
   XY=    55.6135   YY=    25.1843   ZY=   -14.2643
   XZ=   -45.7255   YZ=   -17.1625   ZZ=   129.9171
   Eigenvalues:   -48.3147    47.9237   154.9793
     36  H    Isotropic =    23.8384   Anisotropy =     7.3073
   XX=    24.2302   YX=     1.4459   ZX=     2.1759
   XY=     1.2147   YY=    27.1572   ZY=     2.0665
   XZ=     1.6853   YZ=     2.7775   ZZ=    20.1277
   Eigenvalues:    18.9464    23.8588    28.7099
     37  Bq   Isotropic =     1.1648   Anisotropy =    12.4126
   XX=     2.7994   YX=     0.8886   ZX=    -2.3271
   XY=    -0.8650   YY=    -2.9496   ZY=    -1.6723
   XZ=    -8.5802   YZ=    -6.3850   ZZ=     3.6445
   Eigenvalues:    -5.7095    -0.2360     9.4398
     38  Bq   Isotropic =     7.1920   Anisotropy =    12.3180
   XX=     9.2680   YX=     0.5924   ZX=    -0.2680
   XY=     2.2587   YY=     9.2906   ZY=    -6.7830
   XZ=    -3.8901   YZ=    -8.6884   ZZ=     3.0174
   Eigenvalues:    -2.2703     8.4423    15.4040
     39  Bq   Isotropic =     0.8935   Anisotropy =    12.2359
   XX=     2.3803   YX=     0.7825   ZX=    -2.4530
   XY=    -1.0421   YY=    -3.1819   ZY=    -1.2633
   XZ=    -8.6169   YZ=    -5.8620   ZZ=     3.4820
   Eigenvalues:    -5.6749    -0.6954     9.0508
     40  Bq   Isotropic =     7.5894   Anisotropy =    12.3576
   XX=     9.6473   YX=     0.5417   ZX=    -0.1041
   XY=     2.9548   YY=    11.5333   ZY=    -6.5671
   XZ=    -2.5150   YZ=    -7.2602   ZZ=     1.5876
   Eigenvalues:    -1.9678     8.9082    15.8278
     41  Bq   Isotropic =     3.5006   Anisotropy =    12.5778
   XX=     5.4899   YX=     1.0162   ZX=    -1.3922
   XY=     0.1748   YY=     0.3357   ZY=    -4.1954
   XZ=    -7.4610   YZ=    -8.7870   ZZ=     4.6762
   Eigenvalues:    -4.8187     3.4347    11.8858
     42  Bq   Isotropic =     3.7410   Anisotropy =    12.7810
   XX=     5.4902   YX=     0.9450   ZX=    -1.7002
   XY=    -0.7093   YY=    -0.3771   ZY=    -2.5504
   XZ=    -8.7296   YZ=    -7.6580   ZZ=     6.1099
   Eigenvalues:    -3.9289     2.8903    12.2617
     43  Bq   Isotropic =     6.2570   Anisotropy =    12.2611
   XX=     8.0178   YX=     0.7478   ZX=    -1.0161
   XY=    -0.1164   YY=     3.2671   ZY=    -4.1146
   XZ=    -7.6718   YZ=    -8.8179   ZZ=     7.4862
   Eigenvalues:    -2.0068     6.3467    14.4311
     44  Bq   Isotropic =     2.8335   Anisotropy =    12.8917
   XX=     4.5469   YX=     0.9534   ZX=    -1.9907
   XY=    -0.9218   YY=    -1.4878   ZY=    -1.9453
   XZ=    -9.0289   YZ=    -7.0496   ZZ=     5.4414
   Eigenvalues:    -4.5282     1.6007    11.4280
     45  Bq   Isotropic =     7.7723   Anisotropy =    11.9005
   XX=     9.5327   YX=     0.5676   ZX=    -0.6568
   XY=     0.3348   YY=     5.8810   ZY=    -4.9947
   XZ=    -6.8342   YZ=    -9.1755   ZZ=     7.9032
   Eigenvalues:    -0.7300     8.3408    15.7059
     46  Bq   Isotropic =     2.1407   Anisotropy =    12.9071
   XX=     3.7856   YX=     0.9108   ZX=    -2.2332
   XY=    -1.1048   YY=    -2.2430   ZY=    -1.4529
   XZ=    -9.2101   YZ=    -6.4767   ZZ=     4.8795
   Eigenvalues:    -4.9269     0.6036    10.7455
     47  Bq   Isotropic =     9.2658   Anisotropy =    11.5727
   XX=    11.0297   YX=     0.3603   ZX=    -0.3221
   XY=     0.9429   YY=     8.9165   ZY=    -5.7807
   XZ=    -5.7192   YZ=    -9.1425   ZZ=     7.8511
   Eigenvalues:     0.5916    10.2248    16.9809
     48  Bq   Isotropic =     1.6265   Anisotropy =    12.8360
   XX=     3.1691   YX=     0.8294   ZX=    -2.4230
   XY=    -1.2650   YY=    -2.7303   ZY=    -1.0526
   XZ=    -9.2901   YZ=    -5.9491   ZZ=     4.4407
   Eigenvalues:    -5.1667    -0.1377    10.1838
     49  Bq   Isotropic =    10.4853   Anisotropy =    11.3784
   XX=    12.2507   YX=     0.1694   ZX=    -0.0513
   XY=     1.7154   YY=    12.0764   ZY=    -6.2393
   XZ=    -4.2819   YZ=    -8.4488   ZZ=     7.1288
   Eigenvalues:     1.7107    11.6744    18.0709
     50  Bq   Isotropic =     1.2547   Anisotropy =    12.6873
   XX=     2.6660   YX=     0.7220   ZX=    -2.5596
   XY=    -1.4037   YY=    -3.0200   ZY=    -0.7236
   XZ=    -9.2818   YZ=    -5.4662   ZZ=     4.1182
   Eigenvalues:    -5.2821    -0.6667     9.7129
     51  Bq   Isotropic =    11.1387   Anisotropy =    11.3608
   XX=    12.8864   YX=     0.0609   ZX=     0.1210
   XY=     2.5909   YY=    14.8093   ZY=    -6.1075
   XZ=    -2.5553   YZ=    -6.8848   ZZ=     5.7202
   Eigenvalues:     2.3158    12.3876    18.7125
     52  Bq   Isotropic =     4.8866   Anisotropy =    12.5684
   XX=     6.6474   YX=     0.8769   ZX=    -1.3706
   XY=    -0.4507   YY=     1.1835   ZY=    -3.2787
   XZ=    -8.2885   YZ=    -8.2705   ZZ=     6.8290
   Eigenvalues:    -3.0915     4.4858    13.2656
     53  Bq   Isotropic =     4.8671   Anisotropy =    12.7822
   XX=     6.3885   YX=     0.8186   ZX=    -1.7129
   XY=    -1.4162   YY=     0.5386   ZY=    -1.4511
   XZ=    -9.5708   YZ=    -6.7722   ZZ=     7.6742
   Eigenvalues:    -2.3651     3.5778    13.3886
     54  Bq   Isotropic =     8.2764   Anisotropy =    11.7050
   XX=     9.6948   YX=     0.5069   ZX=    -0.9299
   XY=    -1.0455   YY=     4.8813   ZY=    -2.7910
   XZ=    -8.5154   YZ=    -7.8261   ZZ=    10.2530
   Eigenvalues:     0.6855     8.0639    16.0797
     55  Bq   Isotropic =     3.6728   Anisotropy =    13.0614
   XX=     5.2111   YX=     0.8576   ZX=    -2.0408
   XY=    -1.5315   YY=    -0.8008   ZY=    -0.9878
   XZ=    -9.8422   YZ=    -6.2545   ZZ=     6.6081
   Eigenvalues:    -3.3566     1.9945    12.3804
     56  Bq   Isotropic =    10.4100   Anisotropy =    10.9419
   XX=    11.7820   YX=     0.2435   ZX=    -0.5095
   XY=    -0.6828   YY=     7.9812   ZY=    -3.6497
   XZ=    -7.6303   YZ=    -8.2158   ZZ=    11.4669
   Eigenvalues:     2.7191    10.8064    17.7046
     57  Bq   Isotropic =     2.7732   Anisotropy =    13.1919
   XX=     4.2858   YX=     0.8312   ZX=    -2.3119
   XY=    -1.6335   YY=    -1.7237   ZY=    -0.6319
   XZ=    -9.9855   YZ=    -5.7748   ZZ=     5.7577
   Eigenvalues:    -4.0590     0.8109    11.5678
     58  Bq   Isotropic =    12.6051   Anisotropy =    10.1715
   XX=    13.9560   YX=    -0.0618   ZX=    -0.1102
   XY=    -0.0980   YY=    11.6101   ZY=    -4.5210
   XZ=    -6.3899   YZ=    -8.2813   ZZ=    12.2493
   Eigenvalues:     4.9102    13.5190    19.3862
     59  Bq   Isotropic =     2.1109   Anisotropy =    13.1958
   XX=     3.5522   YX=     0.7558   ZX=    -2.5217
   XY=    -1.7283   YY=    -2.3338   ZY=    -0.3540
   XZ=   -10.0212   YZ=    -5.3342   ZZ=     5.1143
   Eigenvalues:    -4.5328    -0.0426    10.9081
     60  Bq   Isotropic =    14.4995   Anisotropy =     9.6360
   XX=    15.8535   YX=    -0.3573   ZX=     0.2121
   XY=     0.7647   YY=    15.4390   ZY=    -5.1569
   XZ=    -4.6802   YZ=    -7.6789   ZZ=    12.2059
   Eigenvalues:     6.8990    15.6760    20.9235
     61  Bq   Isotropic =     1.6325   Anisotropy =    13.0918
   XX=     2.9629   YX=     0.6481   ZX=    -2.6701
   XY=    -1.8142   YY=    -2.7138   ZY=    -0.1300
   XZ=    -9.9650   YZ=    -4.9281   ZZ=     4.6484
   Eigenvalues:    -4.8276    -0.6352    10.3604
     62  Bq   Isotropic =    15.5645   Anisotropy =     9.5208
   XX=    16.9101   YX=    -0.5462   ZX=     0.3959
   XY=     1.8555   YY=    18.7001   ZY=    -5.1866
   XZ=    -2.4981   YZ=    -6.0548   ZZ=    11.0834
   Eigenvalues:     8.0582    16.7236    21.9117
     63  Bq   Isotropic =     6.4014   Anisotropy =    12.3322
   XX=     7.8763   YX=     0.7023   ZX=    -1.3379
   XY=    -1.2680   YY=     2.4051   ZY=    -2.0489
   XZ=    -9.1421   YZ=    -7.3117   ZZ=     8.9229
   Eigenvalues:    -1.0260     5.6074    14.6229
     64  Bq   Isotropic =     5.9640   Anisotropy =    12.6359
   XX=     7.2346   YX=     0.6774   ZX=    -1.7163
   XY=    -2.2363   YY=     1.7922   ZY=    -0.2416
   XZ=   -10.3854   YZ=    -5.5762   ZZ=     8.8651
   Eigenvalues:    -0.7334     4.2374    14.3879
     65  Bq   Isotropic =    10.2691   Anisotropy =    10.9179
   XX=    11.2752   YX=     0.2393   ZX=    -0.8306
   XY=    -2.1942   YY=     6.9259   ZY=    -1.1976
   XZ=    -9.3035   YZ=    -6.3416   ZZ=    12.6063
   Eigenvalues:     3.4782     9.7814    17.5478
     66  Bq   Isotropic =     4.4896   Anisotropy =    13.1132
   XX=     5.8438   YX=     0.7495   ZX=    -2.0857
   XY=    -2.2247   YY=     0.1685   ZY=     0.0343
   XZ=   -10.6407   YZ=    -5.2177   ZZ=     7.4563
   Eigenvalues:    -2.1369     2.3739    13.2317
     67  Bq   Isotropic =    13.0632   Anisotropy =     9.6443
   XX=    13.9495   YX=    -0.1151   ZX=    -0.3519
   XY=    -2.0113   YY=    10.5322   ZY=    -1.9142
   XZ=    -8.3615   YZ=    -6.6606   ZZ=    14.7079
   Eigenvalues:     6.3218    13.3751    19.4927
     68  Bq   Isotropic =     3.3897   Anisotropy =    13.3847
   XX=     4.7694   YX=     0.7399   ZX=    -2.3893
   XY=    -2.2254   YY=    -0.9735   ZY=     0.2236
   XZ=   -10.7540   YZ=    -4.8850   ZZ=     6.3733
   Eigenvalues:    -3.1635     1.0198    12.3128
     69  Bq   Isotropic =    16.0763   Anisotropy =     8.1907
   XX=    16.9002   YX=    -0.5260   ZX=     0.1087
   XY=    -1.5663   YY=    14.7553   ZY=    -2.7472
   XZ=    -6.9876   YZ=    -6.7513   ZZ=    16.5735
   Eigenvalues:     9.5444    17.1478    21.5368
     70  Bq   Isotropic =     2.5846   Anisotropy =    13.4846
   XX=     3.9284   YX=     0.6702   ZX=    -2.6218
   XY=    -2.2402   YY=    -1.7503   ZY=     0.3606
   XZ=   -10.7502   YZ=    -4.5722   ZZ=     5.5757
   Eigenvalues:    -3.8884     0.0679    11.5744
     71  Bq   Isotropic =    18.8412   Anisotropy =     7.1194
   XX=    19.6672   YX=    -0.9357   ZX=     0.4873
   XY=    -0.7154   YY=    19.2162   ZY=    -3.5115
   XZ=    -4.9930   YZ=    -6.2757   ZZ=    17.6401
   Eigenvalues:    12.7342    20.2019    23.5874
     72  Bq   Isotropic =     2.0038   Anisotropy =    13.4415
   XX=     3.2586   YX=     0.5616   ZX=    -2.7835
   XY=    -2.2626   YY=    -2.2564   ZY=     0.4688
   XZ=   -10.6483   YZ=    -4.2734   ZZ=     5.0092
   Eigenvalues:    -4.3738    -0.5796    10.9648
     73  Bq   Isotropic =    20.4897   Anisotropy =     7.1070
   XX=    21.3109   YX=    -1.2285   ZX=     0.6936
   XY=     0.5987   YY=    22.9186   ZY=    -3.8150
   XZ=    -2.2803   YZ=    -4.7686   ZZ=    17.2395
   Eigenvalues:    14.8222    21.4192    25.2277
     74  Bq   Isotropic =     7.8828   Anisotropy =    11.9143
   XX=     9.0282   YX=     0.5081   ZX=    -1.2925
   XY=    -2.2413   YY=     4.0172   ZY=    -0.6423
   XZ=    -9.9543   YZ=    -5.9583   ZZ=    10.6029
   Eigenvalues:     1.1227     6.7000    15.8256
     75  Bq   Isotropic =     6.8924   Anisotropy =    12.3786
   XX=     7.9200   YX=     0.5448   ZX=    -1.7099
   XY=    -3.1013   YY=     3.3280   ZY=     0.8863
   XZ=   -11.1155   YZ=    -4.2056   ZZ=     9.4293
   Eigenvalues:     0.6373     4.8951    15.1449
     76  Bq   Isotropic =    11.9098   Anisotropy =    10.0757
   XX=    12.4628   YX=    -0.0117   ZX=    -0.7231
   XY=    -3.4437   YY=     9.2835   ZY=     0.3538
   XZ=    -9.9280   YZ=    -4.5709   ZZ=    13.9832
   Eigenvalues:     5.7758    11.3267    18.6269
     77  Bq   Isotropic =     5.1937   Anisotropy =    13.0608
   XX=     6.3823   YX=     0.6442   ZX=    -2.1249
   XY=    -2.9526   YY=     1.3827   ZY=     0.9754
   XZ=   -11.3805   YZ=    -4.0436   ZZ=     7.8160
   Eigenvalues:    -1.1168     2.7970    13.9009
     78  Bq   Isotropic =    15.2391   Anisotropy =     8.3441
   XX=    15.5636   YX=    -0.4540   ZX=    -0.2007
   XY=    -3.5106   YY=    13.3626   ZY=    -0.1599
   XZ=    -8.8747   YZ=    -4.7369   ZZ=    16.7910
   Eigenvalues:     9.2445    15.6709    20.8018
     79  Bq   Isotropic =     3.9313   Anisotropy =    13.4885
   XX=     5.2004   YX=     0.6460   ZX=    -2.4650
   XY=    -2.8457   YY=    -0.0180   ZY=     1.0049
   XZ=   -11.4820   YZ=    -3.8859   ZZ=     6.6115
   Eigenvalues:    -2.4257     1.2960    12.9236
     80  Bq   Isotropic =    18.9395   Anisotropy =     6.1042
   XX=    19.1231   YX=    -0.9602   ZX=     0.2956
   XY=    -3.3272   YY=    18.0623   ZY=    -0.8612
   XZ=    -7.3145   YZ=    -4.7739   ZZ=    19.6331
   Eigenvalues:    13.2892    20.5202    23.0090
     81  Bq   Isotropic =     3.0086   Anisotropy =    13.7007
   XX=     4.2768   YX=     0.5774   ZX=    -2.7230
   XY=    -2.7760   YY=    -0.9978   ZY=     1.0104
   XZ=   -11.4509   YZ=    -3.7219   ZZ=     5.7468
   Eigenvalues:    -3.3694     0.2527    12.1424
     82  Bq   Isotropic =    22.4965   Anisotropy =     4.5400
   XX=    22.6436   YX=    -1.4582   ZX=     0.7099
   XY=    -2.6832   YY=    22.8936   ZY=    -1.6557
   XZ=    -5.0320   YZ=    -4.4343   ZZ=    21.9521
   Eigenvalues:    17.5777    24.3885    25.5232
     83  Bq   Isotropic =     2.3419   Anisotropy =    13.7325
   XX=     3.5405   YX=     0.4649   ZX=    -2.8994
   XY=    -2.7312   YY=    -1.6613   ZY=     1.0131
   XZ=   -11.3114   YZ=    -3.5459   ZZ=     5.1466
   Eigenvalues:    -4.0182    -0.4529    11.4969
     84  Bq   Isotropic =    24.8581   Anisotropy =     5.6130
   XX=    24.9827   YX=    -1.8384   ZX=     0.9425
   XY=    -1.3321   YY=    26.7467   ZY=    -2.2610
   XZ=    -1.7813   YZ=    -3.2494   ZZ=    22.8449
   Eigenvalues:    21.0909    24.8833    28.6001
     85  Bq   Isotropic =     9.1165   Anisotropy =    11.3987
   XX=     9.9206   YX=     0.3273   ZX=    -1.2352
   XY=    -3.2788   YY=     5.9376   ZY=     0.6928
   XZ=   -10.6475   YZ=    -4.3823   ZZ=    11.4913
   Eigenvalues:     2.9156     7.7183    16.7157
     86  Bq   Isotropic =     7.5183   Anisotropy =    12.0528
   XX=     8.3563   YX=     0.4542   ZX=    -1.6992
   XY=    -3.9157   YY=     5.0012   ZY=     1.7147
   XZ=   -11.7137   YZ=    -2.8585   ZZ=     9.1974
   Eigenvalues:     1.3088     5.6927    15.5535
     87  Bq   Isotropic =    12.8758   Anisotropy =     9.3850
   XX=    12.9945   YX=    -0.1778   ZX=    -0.6154
   XY=    -4.5937   YY=    11.6657   ZY=     1.4562
   XZ=   -10.3078   YZ=    -2.8753   ZZ=    13.9672
   Eigenvalues:     6.9191    12.5759    19.1325
     88  Bq   Isotropic =     5.6982   Anisotropy =    12.9258
   XX=     6.7766   YX=     0.5625   ZX=    -2.1628
   XY=    -3.6492   YY=     2.7404   ZY=     1.6764
   XZ=   -12.0230   YZ=    -2.8777   ZZ=     7.5775
   Eigenvalues:    -0.6308     3.4100    14.3154
     89  Bq   Isotropic =    16.4214   Anisotropy =     7.5967
   XX=    16.1662   YX=    -0.6869   ZX=    -0.0665
   XY=    -4.8903   YY=    16.0567   ZY=     1.0547
   XZ=    -9.0575   YZ=    -2.9310   ZZ=    17.0413
   Eigenvalues:    10.6453    17.1330    21.4859
     90  Bq   Isotropic =     4.3410   Anisotropy =    13.5143
   XX=     5.5506   YX=     0.5614   ZX=    -2.5420
   XY=    -3.4489   YY=     1.0716   ZY=     1.5965
   XZ=   -12.1381   YZ=    -2.8842   ZZ=     6.4008
   Eigenvalues:    -2.0856     1.7581    13.3506
     91  Bq   Isotropic =    20.3464   Anisotropy =     5.7501
   XX=    19.8153   YX=    -1.2616   ZX=     0.4308
   XY=    -4.9687   YY=    20.9135   ZY=     0.3957
   XZ=    -7.2206   YZ=    -2.9779   ZZ=    20.3105
   Eigenvalues:    14.9401    21.9194    24.1798
     92  Bq   Isotropic =     3.3448   Anisotropy =    13.8489
   XX=     4.5811   YX=     0.4838   ZX=    -2.8270
   XY=    -3.3044   YY=    -0.1269   ZY=     1.5120
   XZ=   -12.0980   YZ=    -2.8611   ZZ=     5.5800
   Eigenvalues:    -3.1397     0.5966    12.5773
     93  Bq   Isotropic =    24.0994   Anisotropy =     5.7059
   XX=    23.4376   YX=    -1.7991   ZX=     0.8209
   XY=    -4.5849   YY=    25.5900   ZY=    -0.5043
   XZ=    -4.5533   YZ=    -2.8634   ZZ=    23.2707
   Eigenvalues:    19.4905    24.9044    27.9033
     94  Bq   Isotropic =     2.6210   Anisotropy =    13.9656
   XX=     3.7989   YX=     0.3609   ZX=    -3.0183
   XY=    -3.1982   YY=    -0.9641   ZY=     1.4423
   XZ=   -11.9335   YZ=    -2.8026   ZZ=     5.0282
   Eigenvalues:    -3.8699    -0.1984    11.9314
     95  Bq   Isotropic =    26.5529   Anisotropy =     6.5386
   XX=    25.8371   YX=    -2.1471   ZX=     1.0206
   XY=    -3.4355   YY=    28.7710   ZY=    -1.4428
   XZ=    -0.8771   YZ=    -2.2466   ZZ=    25.0507
   Eigenvalues:    23.4832    25.2636    30.9120
     96  Bq   Isotropic =     9.8954   Anisotropy =    10.8743
   XX=    10.4001   YX=     0.2099   ZX=    -1.1727
   XY=    -4.2420   YY=     7.9615   ZY=     1.6592
   XZ=   -11.1617   YZ=    -2.8511   ZZ=    11.3246
   Eigenvalues:     3.8098     8.7314    17.1449
     97  Bq   Isotropic =     7.7544   Anisotropy =    11.6956
   XX=     8.5139   YX=     0.4399   ZX=    -1.6995
   XY=    -4.5808   YY=     6.6020   ZY=     2.0713
   XZ=   -12.1574   YZ=    -1.7376   ZZ=     8.1474
   Eigenvalues:     1.0716     6.6402    15.5515
     98  Bq   Isotropic =    12.9863   Anisotropy =     9.0003
   XX=    12.7815   YX=    -0.1789   ZX=    -0.5276
   XY=    -5.4321   YY=    13.6790   ZY=     1.8031
   XZ=   -10.4421   YZ=    -1.6158   ZZ=    12.4985
   Eigenvalues:     6.6185    13.3539    18.9865
     99  Bq   Isotropic =     5.9430   Anisotropy =    12.7355
   XX=     7.0097   YX=     0.5243   ZX=    -2.2103
   XY=    -4.2467   YY=     4.0901   ZY=     2.0104
   XZ=   -12.5442   YZ=    -1.8708   ZZ=     6.7290
   Eigenvalues:    -0.8366     4.2322    14.4333
    100  Bq   Isotropic =    16.3577   Anisotropy =     7.8559
   XX=    15.6124   YX=    -0.7055   ZX=     0.0352
   XY=    -5.8341   YY=    18.0876   ZY=     1.3268
   XZ=    -8.9422   YZ=    -1.7225   ZZ=    15.3732
   Eigenvalues:    10.2390    17.2392    21.5950
    101  Bq   Isotropic =     4.5773   Anisotropy =    13.4816
   XX=     5.8100   YX=     0.4964   ZX=    -2.6273
   XY=    -3.9885   YY=     2.1873   ZY=     1.9057
   XZ=   -12.6993   YZ=    -1.9909   ZZ=     5.7345
   Eigenvalues:    -2.2570     2.4238    13.5650
    102  Bq   Isotropic =    19.9611   Anisotropy =     7.6104
   XX=    18.7610   YX=    -1.3021   ZX=     0.5109
   XY=    -6.0218   YY=    22.6499   ZY=     0.5170
   XZ=    -6.8126   YZ=    -1.9757   ZZ=    18.4724
   Eigenvalues:    14.2609    20.5876    25.0347
    103  Bq   Isotropic =     3.5641   Anisotropy =    13.9415
   XX=     4.8350   YX=     0.3943   ZX=    -2.9376
   XY=    -3.7929   YY=     0.7859   ZY=     1.7980
   XZ=   -12.6706   YZ=    -2.0715   ZZ=     5.0714
   Eigenvalues:    -3.2796     1.1135    12.8585
    104  Bq   Isotropic =    23.2253   Anisotropy =     8.1966
   XX=    21.7354   YX=    -1.8451   ZX=     0.8486
   XY=    -5.7108   YY=    26.5763   ZY=    -0.6406
   XZ=    -3.8650   YZ=    -2.3048   ZZ=    21.3641
   Eigenvalues:    18.3072    22.6790    28.6897
    105  Bq   Isotropic =     2.8205   Anisotropy =    14.1475
   XX=     4.0295   YX=     0.2515   ZX=    -3.1421
   XY=    -3.6407   YY=    -0.2194   ZY=     1.7078
   XZ=   -12.4968   YZ=    -2.1037   ZZ=     4.6515
   Eigenvalues:    -3.9844     0.1937    12.2522
    106  Bq   Isotropic =    25.1525   Anisotropy =     8.6226
   XX=    23.5280   YX=    -2.1642   ZX=     1.0009
   XY=    -4.5998   YY=    28.6081   ZY=    -1.9070
   XZ=    -0.1601   YZ=    -2.4413   ZZ=    23.3215
   Eigenvalues:    21.5540    23.0026    30.9010
    107  Bq   Isotropic =    10.0931   Anisotropy =    10.4033
   XX=    10.4148   YX=     0.2100   ZX=    -1.1238
   XY=    -4.9870   YY=     9.8005   ZY=     2.0263
   XZ=   -11.4805   YZ=    -1.6354   ZZ=    10.0641
   Eigenvalues:     3.5466     9.7041    17.0287
    108  Bq   Isotropic =     7.5881   Anisotropy =    11.3417
   XX=     8.4403   YX=     0.5198   ZX=    -1.7351
   XY=    -5.0259   YY=     7.9134   ZY=     1.8894
   XZ=   -12.4517   YZ=    -0.9876   ZZ=     6.4106
   Eigenvalues:     0.0891     7.5260    15.1492
    109  Bq   Isotropic =    12.2762   Anisotropy =     8.9893
   XX=    11.9714   YX=     0.0425   ZX=    -0.4989
   XY=    -5.8290   YY=    14.9903   ZY=     1.3359
   XZ=   -10.4051   YZ=    -0.9866   ZZ=     9.8668
   Eigenvalues:     5.0582    13.5013    18.2690
    110  Bq   Isotropic =     5.9117   Anisotropy =    12.5262
   XX=     7.1071   YX=     0.5376   ZX=    -2.2838
   XY=    -4.6944   YY=     5.2673   ZY=     1.9219
   XZ=   -12.9373   YZ=    -1.1379   ZZ=     5.3607
   Eigenvalues:    -1.6052     5.0778    14.2625
    111  Bq   Isotropic =    15.1761   Anisotropy =     8.9469
   XX=    14.1774   YX=    -0.4244   ZX=     0.0637
   XY=    -6.1759   YY=    19.1037   ZY=     0.6485
   XZ=    -8.6806   YZ=    -1.3000   ZZ=    12.2473
   Eigenvalues:     8.2723    16.1154    21.1407
    112  Bq   Isotropic =     4.6243   Anisotropy =    13.4203
   XX=     5.9913   YX=     0.4539   ZX=    -2.7308
   XY=    -4.4279   YY=     3.2071   ZY=     1.8885
   XZ=   -13.1536   YZ=    -1.2954   ZZ=     4.6745
   Eigenvalues:    -2.8525     3.1543    13.5712
    113  Bq   Isotropic =    18.1341   Anisotropy =     9.7810
   XX=    16.5041   YX=    -0.9721   ZX=     0.5016
   XY=    -6.2921   YY=    23.0334   ZY=    -0.3964
   XZ=    -6.3519   YZ=    -1.8946   ZZ=    14.8648
   Eigenvalues:    11.7360    18.0115    24.6547
    114  Bq   Isotropic =     3.6530   Anisotropy =    13.9994
   XX=     5.0443   YX=     0.3087   ZX=    -3.0600
   XY=    -4.2153   YY=     1.6518   ZY=     1.8344
   XZ=   -13.1550   YZ=    -1.4218   ZZ=     4.2629
   Eigenvalues:    -3.7371     1.7102    12.9859
    115  Bq   Isotropic =    20.6516   Anisotropy =    10.6821
   XX=    18.5613   YX=    -1.4755   ZX=     0.7684
   XY=    -5.9255   YY=    26.0000   ZY=    -1.7535
   XZ=    -3.3534   YZ=    -2.7038   ZZ=    17.3937
   Eigenvalues:    15.0687    19.1132    27.7730
    116  Bq   Isotropic =     2.9291   Anisotropy =    14.2910
   XX=     4.2342   YX=     0.1357   ZX=    -3.2724
   XY=    -4.0393   YY=     0.5085   ZY=     1.7832
   XZ=   -12.9873   YZ=    -1.5013   ZZ=     4.0445
   Eigenvalues:    -4.3345     0.6653    12.4564
    117  Bq   Isotropic =    22.0435   Anisotropy =    11.0421
   XX=    19.7188   YX=    -1.7755   ZX=     0.8447
   XY=    -4.8443   YY=    27.0808   ZY=    -3.1387
   XZ=     0.1420   YZ=    -3.4489   ZZ=    19.3310
   Eigenvalues:    17.6741    19.0516    29.4049
    118  Bq   Isotropic =     9.7099   Anisotropy =    10.0164
   XX=    10.0490   YX=     0.3620   ZX=    -1.1213
   XY=    -5.4165   YY=    11.1785   ZY=     1.7221
   XZ=   -11.6325   YZ=    -0.9094   ZZ=     7.9020
   Eigenvalues:     2.3036    10.4385    16.3875
    119  Bq   Isotropic =     7.0808   Anisotropy =    11.0355
   XX=     8.2452   YX=     0.6809   ZX=    -1.8311
   XY=    -5.2302   YY=     8.7741   ZY=     1.2230
   XZ=   -12.6199   YZ=    -0.6614   ZZ=     4.2232
   Eigenvalues:    -1.3999     8.2046    14.4378
    120  Bq   Isotropic =    10.9552   Anisotropy =     9.3270
   XX=    10.8817   YX=     0.4795   ZX=    -0.5747
   XY=    -5.7787   YY=    15.4459   ZY=     0.2199
   XZ=   -10.2879   YZ=    -0.9810   ZZ=     6.5379
   Eigenvalues:     2.6013    13.0911    17.1732
    121  Bq   Isotropic =     5.6343   Anisotropy =    12.3498
   XX=     7.1290   YX=     0.5903   ZX=    -2.3992
   XY=    -4.9729   YY=     6.1371   ZY=     1.4405
   XZ=   -13.2101   YZ=    -0.7336   ZZ=     3.6369
   Eigenvalues:    -2.7529     5.7883    13.8675
    122  Bq   Isotropic =    13.2416   Anisotropy =    10.3563
   XX=    12.3753   YX=     0.1584   ZX=    -0.0345
   XY=    -5.9460   YY=    19.0479   ZY=    -0.7037
   XZ=    -8.4200   YZ=    -1.5670   ZZ=     8.3015
   Eigenvalues:     5.1834    14.3955    20.1458
    123  Bq   Isotropic =     4.4950   Anisotropy =    13.3721
   XX=     6.1262   YX=     0.4235   ZX=    -2.8613
   XY=    -4.7503   YY=     4.0245   ZY=     1.5602
   XZ=   -13.4995   YZ=    -0.8477   ZZ=     3.3342
   Eigenvalues:    -3.7355     3.8107    13.4097
    124  Bq   Isotropic =    15.4756   Anisotropy =    11.8187
   XX=    13.8533   YX=    -0.2591   ZX=     0.3468
   XY=    -5.8741   YY=    22.2252   ZY=    -1.9357
   XZ=    -6.0213   YZ=    -2.5032   ZZ=    10.3484
   Eigenvalues:     7.9225    15.1497    23.3548
    125  Bq   Isotropic =     3.6155   Anisotropy =    14.0511
[...]
   139  Bq   0.000000
   140  Bq   0.000000
   141  Bq   0.000000
   142  Bq   0.000000
   143  Bq   0.000000
   144  Bq   0.000000
   145  Bq   0.000000
   146  Bq   0.000000
   147  Bq   0.000000
   148  Bq   0.000000
   149  Bq   0.000000
   150  Bq   0.000000
   151  Bq   0.000000
   152  Bq   0.000000
   153  Bq   0.000000
   154  Bq   0.000000
   155  Bq   0.000000
   156  Bq   0.000000
   157  Bq   0.000000
   158  Bq   0.000000
   159  Bq   0.000000
   160  Bq   0.000000
   161  Bq   0.000000
   162  Bq   0.000000
   163  Bq   0.000000
   164  Bq   0.000000
   165  Bq   0.000000
   166  Bq   0.000000
   167  Bq   0.000000
   168  Bq   0.000000
   169  Bq   0.000000
   170  Bq   0.000000
   171  Bq   0.000000
   172  Bq   0.000000
   173  Bq   0.000000
   174  Bq   0.000000
   175  Bq   0.000000
   176  Bq   0.000000
   177  Bq   0.000000
   178  Bq   0.000000
   179  Bq   0.000000
   180  Bq   0.000000
   181  Bq   0.000000
   182  Bq   0.000000
   183  Bq   0.000000
   184  Bq   0.000000
   185  Bq   0.000000
   186  Bq   0.000000
   187  Bq   0.000000
   188  Bq   0.000000
   189  Bq   0.000000
   190  Bq   0.000000
   191  Bq   0.000000
   192  Bq   0.000000
   193  Bq   0.000000
   194  Bq   0.000000
   195  Bq   0.000000
   196  Bq   0.000000
   197  Bq   0.000000
   198  Bq   0.000000
   199  Bq   0.000000
   200  Bq   0.000000
   201  Bq   0.000000
   202  Bq   0.000000
   203  Bq   0.000000
   204  Bq   0.000000
   205  Bq   0.000000
   206  Bq   0.000000
   207  Bq   0.000000
   208  Bq   0.000000
   209  Bq   0.000000
   210  Bq   0.000000
   211  Bq   0.000000
   212  Bq   0.000000
   213  Bq   0.000000
   214  Bq   0.000000
   215  Bq   0.000000
   216  Bq   0.000000
   217  Bq   0.000000
   218  Bq   0.000000
   219  Bq   0.000000
   220  Bq   0.000000
   221  Bq   0.000000
   222  Bq   0.000000
   223  Bq   0.000000
   224  Bq   0.000000
   225  Bq   0.000000
   226  Bq   0.000000
   227  Bq   0.000000
   228  Bq   0.000000
   229  Bq   0.000000
   230  Bq   0.000000
   231  Bq   0.000000
   232  Bq   0.000000
   233  Bq   0.000000
   234  Bq   0.000000
   235  Bq   0.000000
   236  Bq   0.000000
 Sum of Mulliken charges =   0.00000
 Mulliken charges with hydrogens summed into heavy atoms:
               1
     1  C   -0.379265
     3  C    0.169409
     5  C    0.448258
     6  C    0.064351
     7  C   -0.333926
     9  C   -0.139521
    11  C   -0.205988
    13  C   -0.119315
    15  C    0.653397
    16  C    0.034822
    17  C   -0.317410
    19  C   -0.316854
    21  C    0.651066
    22  C    0.037784
    23  C   -0.117289
    25  C   -0.205316
    27  C    0.448331
    28  C    0.061983
    29  C   -0.333381
    31  C   -0.139505
    33  C   -0.255977
    35  C    0.170579
    37  Bq   0.000000
    38  Bq   0.000000
    39  Bq   0.000000
    40  Bq   0.000000
    41  Bq   0.000000
    42  Bq   0.000000
    43  Bq   0.000000
    44  Bq   0.000000
    45  Bq   0.000000
    46  Bq   0.000000
    47  Bq   0.000000
    48  Bq   0.000000
    49  Bq   0.000000
    50  Bq   0.000000
    51  Bq   0.000000
    52  Bq   0.000000
    53  Bq   0.000000
    54  Bq   0.000000
    55  Bq   0.000000
    56  Bq   0.000000
    57  Bq   0.000000
    58  Bq   0.000000
    59  Bq   0.000000
    60  Bq   0.000000
    61  Bq   0.000000
    62  Bq   0.000000
    63  Bq   0.000000
    64  Bq   0.000000
    65  Bq   0.000000
    66  Bq   0.000000
    67  Bq   0.000000
    68  Bq   0.000000
    69  Bq   0.000000
    70  Bq   0.000000
    71  Bq   0.000000
    72  Bq   0.000000
    73  Bq   0.000000
    74  Bq   0.000000
    75  Bq   0.000000
    76  Bq   0.000000
    77  Bq   0.000000
    78  Bq   0.000000
    79  Bq   0.000000
    80  Bq   0.000000
    81  Bq   0.000000
    82  Bq   0.000000
    83  Bq   0.000000
    84  Bq   0.123768
    85  Bq   0.000000
    86  Bq   0.000000
    87  Bq   0.000000
    88  Bq   0.000000
    89  Bq   0.000000
    90  Bq   0.000000
    91  Bq   0.000000
    92  Bq   0.000000
    93  Bq   0.000000
    94  Bq   0.000000
    95  Bq   0.000000
    96  Bq   0.000000
    97  Bq   0.000000
    98  Bq   0.000000
    99  Bq   0.000000
   100  Bq   0.000000
   101  Bq   0.000000
   102  Bq   0.000000
   103  Bq   0.000000
   104  Bq   0.000000
   105  Bq   0.000000
   106  Bq   0.000000
   107  Bq   0.000000
   108  Bq   0.000000
   109  Bq   0.000000
   110  Bq   0.000000
   111  Bq   0.000000
   112  Bq   0.000000
   113  Bq   0.000000
   114  Bq   0.000000
   115  Bq   0.000000
   116  Bq   0.000000
   117  Bq   0.000000
   118  Bq   0.000000
   119  Bq   0.000000
   120  Bq   0.000000
   121  Bq   0.000000
   122  Bq   0.000000
   123  Bq   0.000000
   124  Bq   0.000000
   125  Bq   0.000000
   126  Bq   0.000000
   127  Bq   0.000000
   128  Bq   0.000000
   129  Bq   0.000000
   130  Bq   0.000000
   131  Bq   0.000000
   132  Bq   0.000000
   133  Bq   0.000000
   134  Bq   0.000000
   135  Bq   0.000000
   136  Bq   0.000000
   137  Bq   0.000000
   138  Bq   0.000000
   139  Bq   0.000000
   140  Bq   0.000000
   141  Bq   0.000000
   142  Bq   0.000000
   143  Bq   0.000000
   144  Bq   0.000000
   145  Bq   0.000000
   146  Bq   0.000000
   147  Bq   0.000000
   148  Bq   0.000000
   149  Bq   0.000000
   150  Bq   0.000000
   151  Bq   0.000000
   152  Bq   0.000000
   153  Bq   0.000000
   154  Bq   0.000000
   155  Bq   0.000000
   156  Bq   0.000000
   157  Bq   0.000000
   158  Bq   0.000000
   159  Bq   0.000000
   160  Bq   0.000000
   161  Bq   0.000000
   162  Bq   0.000000
   163  Bq   0.000000
   164  Bq   0.000000
   165  Bq   0.000000
   166  Bq   0.000000
   167  Bq   0.000000
   168  Bq   0.000000
   169  Bq   0.000000
   170  Bq   0.000000
   171  Bq   0.000000
   172  Bq   0.000000
   173  Bq   0.000000
   174  Bq   0.000000
   175  Bq   0.000000
   176  Bq   0.000000
   177  Bq   0.000000
   178  Bq   0.000000
   179  Bq   0.000000
   180  Bq   0.000000
   181  Bq   0.000000
   182  Bq   0.000000
   183  Bq   0.000000
   184  Bq   0.000000
   185  Bq   0.000000
   186  Bq   0.000000
   187  Bq   0.000000
   188  Bq   0.000000
   189  Bq   0.000000
   190  Bq   0.000000
   191  Bq   0.000000
   192  Bq   0.000000
   193  Bq   0.000000
   194  Bq   0.000000
   195  Bq   0.000000
   196  Bq   0.000000
   197  Bq   0.000000
   198  Bq   0.000000
   199  Bq   0.000000
   200  Bq   0.000000
   201  Bq   0.000000
   202  Bq   0.000000
   203  Bq   0.000000
   204  Bq   0.000000
   205  Bq   0.000000
   206  Bq   0.000000
   207  Bq   0.000000
   208  Bq   0.000000
   209  Bq   0.000000
   210  Bq   0.000000
   211  Bq   0.000000
   212  Bq   0.000000
   213  Bq   0.000000
   214  Bq   0.000000
   215  Bq   0.000000
   216  Bq   0.000000
   217  Bq   0.000000
   218  Bq   0.000000
   219  Bq   0.000000
   220  Bq   0.000000
   221  Bq   0.000000
   222  Bq   0.000000
   223  Bq   0.000000
   224  Bq   0.000000
   225  Bq   0.000000
   226  Bq   0.000000
   227  Bq   0.000000
   228  Bq   0.000000
   229  Bq   0.000000
   230  Bq   0.000000
   231  Bq   0.000000
   232  Bq   0.000000
   233  Bq   0.000000
   234  Bq   0.000000
   235  Bq   0.000000
   236  Bq   0.000000
 Electronic spatial extent (au):  <R**2>=           5736.9264
 Charge=              0.0000 electrons
 Dipole moment (field-independent basis, Debye):
    X=              0.0475    Y=              0.0856    Z=              0.0029  Tot=              0.0979
 Quadrupole moment (field-independent basis, Debye-Ang):
   XX=           -113.7056   YY=           -113.9456   ZZ=           -133.2669
   XY=             -0.3834   XZ=              3.2102   YZ=             -1.1839
 Traceless Quadrupole moment (field-independent basis, Debye-Ang):
   XX=              6.6005   YY=              6.3604   ZZ=            -12.9609
   XY=             -0.3834   XZ=              3.2102   YZ=             -1.1839
 Octapole moment (field-independent basis, Debye-Ang**2):
  XXX=            -16.4668  YYY=            -16.1860  ZZZ=             -1.7007  XYY=              2.5576
  XXY=             -6.5650  XXZ=             13.6547  XZZ=             -8.9478  YZZ=            -17.7168
  YYZ=            -13.2941  XYZ=              8.8036
 Hexadecapole moment (field-independent basis, Debye-Ang**3):
 XXXX=          -3951.1638 YYYY=          -3112.2161 ZZZZ=           -504.8311 XXXY=            340.6935
 XXXZ=            156.4968 YYYX=            335.5625 YYYZ=            -87.0893 ZZZX=            120.2262
 ZZZY=           -108.7373 XXYY=          -1176.4844 XXZZ=           -856.7291 YYZZ=           -665.7275
 XXYZ=            -68.9016 YYXZ=             48.1602 ZZXY=            153.0375
 N-N= 1.610917615562D+03 E-N=-5.186891130729D+03  KE= 8.436329774448D+02
 1\1\GINC-PLANA\SP\RB3LYP\6-311+G(d,p)\C22H14\YANNICK\23-Aug-2020\0\\# 
 rb3lyp/6-311+g** NMR geom=connectivity\\Title\\0,1\C,0,-4.0500558,-0.5
 771862,0.8136712\H,0,-5.0263804,-1.0082727,1.002476\C,0,-3.9381552,0.6
 617804,0.2400876\H,0,-4.8252424,1.233889,-0.0111295\C,0,-2.676841,1.24
 33246,0.0057578\C,0,-1.4974121,0.5051527,0.2848253\C,0,-1.6508332,-0.7
 338728,0.9404026\H,0,-0.7713646,-1.2730967,1.2633753\C,0,-2.8898548,-1
 .2624035,1.1994307\H,0,-2.9683706,-2.2124563,1.7152676\C,0,-2.5773185,
 2.5963696,-0.419293\H,0,-3.4870728,3.1412239,-0.6474055\C,0,-1.3741895
 ,3.2147896,-0.436403\H,0,-1.2997315,4.2742019,-0.6578144\C,0,-0.171948
 8,2.499409,-0.1734588\C,0,-0.2043917,1.1018437,0.0192689\C,0,1.0513491
 ,3.204256,-0.0676222\H,0,1.0427344,4.2819499,-0.1896997\C,0,2.1942091,
 2.5487446,0.2579577\H,0,3.1168527,3.0912848,0.4334727\C,0,2.2216473,1.
 1336562,0.293499\C,0,1.0486931,0.3945528,0.0302412\C,0,3.4483363,0.461
 4633,0.5573939\H,0,4.3095794,1.0606054,0.8334846\C,0,3.5427346,-0.8855
 926,0.4749463\H,0,4.4731467,-1.3939704,0.7038822\C,0,2.4490052,-1.6474
 447,-0.0196319\C,0,1.2150704,-1.0057258,-0.3013573\C,0,0.2531113,-1.74
 3444,-1.0216591\H,0,-0.6541356,-1.2535051,-1.3462847\C,0,0.4494193,-3.
 0628597,-1.3413779\H,0,-0.3083162,-3.5944309,-1.905406\C,0,1.6251726,-
 3.7207967,-0.9552541\H,0,1.7670048,-4.7687404,-1.1927019\C,0,2.6109872
 ,-3.0144177,-0.318305\H,0,3.5525612,-3.4902813,-0.0646367\Bq,0,-4.9895
 916292,-0.986627237,2.0347395674\Bq,0,-4.9867596646,-1.3344889731,1.31
 43339923\Bq,0,-4.9899456248,-0.94314452,2.1247902643\Bq,0,-4.986405669
 ,-1.3779716901,1.2242832954\Bq,0,-4.9881756469,-1.160558105,1.67453677
 98\Bq,0,-4.9883587102,-1.0270239954,1.7211050957\Bq,0,-4.987650719,-1.
 1139894294,1.5410037019\Bq,0,-4.9887127058,-0.9835412784,1.8111557926\
 Bq,0,-4.9872967235,-1.1574721464,1.450953005\Bq,0,-4.9890667013,-0.940
 0585614,1.9012064895\Bq,0,-4.9869427279,-1.2009548634,1.3609023082\Bq,
 0,-4.9894206969,-0.8965758443,1.9912571863\Bq,0,-4.9865887323,-1.24443
 75804,1.2708516113\Bq,0,-4.9897746925,-0.8530931273,2.0813078832\Bq,0,
 -4.9862347367,-1.2879202974,1.1808009144\Bq,0,-4.9880047146,-1.0705067
 124,1.6310543988\Bq,0,-4.9881877779,-0.9369726027,1.6776227147\Bq,0,-4
 .9874797868,-1.0239380367,1.4975213209\Bq,0,-4.9885417735,-0.893489885
 7,1.7676734115\Bq,0,-4.9871257912,-1.0674207537,1.407470624\Bq,0,-4.98
 88957691,-0.8500071687,1.8577241084\Bq,0,-4.9867717956,-1.1109034707,1
 .3174199271\Bq,0,-4.9892497646,-0.8065244517,1.9477748053\Bq,0,-4.9864
 178,-1.1543861877,1.2273692302\Bq,0,-4.9896037602,-0.7630417347,2.0378
 255022\Bq,0,-4.9860638045,-1.1978689047,1.1373185334\Bq,0,-4.987833782
 3,-0.9804553197,1.5875720178\Bq,0,-4.9880168456,-0.84692121,1.63414033
 36\Bq,0,-4.9873088545,-0.933886644,1.4540389399\Bq,0,-4.9883708412,-0.
 803438493,1.7241910305\Bq,0,-4.9869548589,-0.977369361,1.363988243\Bq,
 0,-4.9887248368,-0.759955776,1.8142417274\Bq,0,-4.9866008633,-1.020852
 078,1.2739375461\Bq,0,-4.9890788324,-0.716473059,1.9042924243\Bq,0,-4.
 9862468678,-1.064334795,1.1838868492\Bq,0,-4.9894328279,-0.672990342,1
 .9943431212\Bq,0,-4.9858928722,-1.107817512,1.0938361523\Bq,0,-4.98766
 28501,-0.890403927,1.5440896367\Bq,0,-4.9878459134,-0.7568698173,1.590
 6579526\Bq,0,-4.9871379222,-0.8438352514,1.4105565588\Bq,0,-4.98819990
 89,-0.7133871003,1.6807086495\Bq,0,-4.9867839266,-0.8873179684,1.32050
 58619\Bq,0,-4.9885539045,-0.6699043833,1.7707593464\Bq,0,-4.9864299311
 ,-0.9308006854,1.2304551651\Bq,0,-4.9889079001,-0.6264216663,1.8608100
 432\Bq,0,-4.9860759355,-0.9742834024,1.1404044682\Bq,0,-4.9892618957,-
 0.5829389493,1.9508607401\Bq,0,-4.9857219399,-1.0177661194,1.050353771
 3\Bq,0,-4.9874919178,-0.8003525344,1.5006072557\Bq,0,-4.9876749811,-0.
 6668184247,1.5471755716\Bq,0,-4.9869669899,-0.7537838587,1.3670741778\
 Bq,0,-4.9880289767,-0.6233357077,1.6372262684\Bq,0,-4.9866129944,-0.79
 72665757,1.2770234809\Bq,0,-4.9883829722,-0.5798529907,1.7272769653\Bq
 ,0,-4.9862589988,-0.8407492927,1.186972784\Bq,0,-4.9887369678,-0.53637
 02737,1.8173276622\Bq,0,-4.9859050032,-0.8842320097,1.0969220871\Bq,0,
 -4.9890909634,-0.4928875567,1.9073783591\Bq,0,-4.9855510076,-0.9277147
 267,1.0068713903\Bq,0,-4.9873209855,-0.7103011417,1.4571248747\Bq,0,-4
 .9875040488,-0.576767032,1.5036931905\Bq,0,-4.9867960577,-0.663732466,
 1.3235917968\Bq,0,-4.9878580444,-0.533284315,1.5937438874\Bq,0,-4.9864
 420621,-0.707215183,1.2335410999\Bq,0,-4.98821204,-0.489801598,1.68379
 45843\Bq,0,-4.9860880665,-0.7506979,1.143490403\Bq,0,-4.9885660355,-0.
 446318881,1.7738452812\Bq,0,-4.9857340709,-0.794180617,1.0534397061\Bq
 ,0,-4.9889200311,-0.402836164,1.8638959781\Bq,0,-4.9853800754,-0.83766
 3334,0.9633890092\Bq,0,-4.9871500532,-0.620249749,1.4136424936\Bq,0,-4
 .9873331165,-0.4867156393,1.4602108095\Bq,0,-4.9866251254,-0.573681073
 3,1.2801094157\Bq,0,-4.9876871121,-0.4432329223,1.5502615064\Bq,0,-4.9
 862711298,-0.6171637904,1.1900587188\Bq,0,-4.9880411077,-0.3997502053,
 1.6403122033\Bq,0,-4.9859171342,-0.6606465074,1.100008022\Bq,0,-4.9883
 951033,-0.3562674883,1.7303629001\Bq,0,-4.9855631387,-0.7041292244,1.0
 099573251\Bq,0,-4.9887490988,-0.3127847713,1.820413597\Bq,0,-4.9852091
 431,-0.7476119414,0.9199066282\Bq,0,-4.986979121,-0.5301983563,1.37016
 01126\Bq,0,-4.9871621843,-0.3966642467,1.4167284285\Bq,0,-4.9864541931
 ,-0.4836296807,1.2366270347\Bq,0,-4.9875161798,-0.3531815297,1.5067791
 253\Bq,0,-4.9861001975,-0.5271123977,1.1465763378\Bq,0,-4.9878701754,-
 0.3096988127,1.5968298222\Bq,0,-4.985746202,-0.5705951147,1.0565256409
 \Bq,0,-4.988224171,-0.2662160957,1.6868805191\Bq,0,-4.9853922064,-0.61
 40778317,0.966474944\Bq,0,-4.9885781666,-0.2227333786,1.776931216\Bq,0
 ,-4.9850382108,-0.6575605487,0.8764242472\Bq,0,-4.9868081887,-0.440146
 9637,1.3266777316\Bq,0,-4.986991252,-0.306612854,1.3732460474\Bq,0,-4.
 9862832608,-0.393578288,1.1931446537\Bq,0,-4.9873452476,-0.263130137,1
 .4632967443\Bq,0,-4.9859292653,-0.437061005,1.1030939568\Bq,0,-4.98769
 92431,-0.21964742,1.5533474412\Bq,0,-4.9855752697,-0.480543722,1.01304
 32599\Bq,0,-4.9880532387,-0.176164703,1.6433981381\Bq,0,-4.9852212741,
 -0.524026439,0.922992563\Bq,0,-4.9884072343,-0.132681986,1.733448835\B
 q,0,-4.9848672785,-0.567509156,0.8329418661\Bq,0,-4.9866372564,-0.3500
 95571,1.2831953505\Bq,0,-4.9868203197,-0.2165614613,1.3297636664\Bq,0,
 -4.9861123286,-0.3035268953,1.1496622726\Bq,0,-4.9871743153,-0.1730787
 443,1.4198143633\Bq,0,-4.985758333,-0.3470096123,1.0596115757\Bq,0,-4.
 9875283109,-0.1295960273,1.5098650602\Bq,0,-4.9854043374,-0.3904923293
 ,0.9695608789\Bq,0,-4.9878823064,-0.0861133103,1.599915757\Bq,0,-4.985
 0503418,-0.4339750463,0.879510182\Bq,0,-4.988236302,-0.0426305933,1.68
 99664539\Bq,0,-4.9846963463,-0.4774577634,0.7894594851\Bq,0,-4.9864663
 241,-0.2600441783,1.2397129695\Bq,0,-4.9866493874,-0.1265100687,1.2862
 812854\Bq,0,-4.9859413963,-0.2134755027,1.1061798916\Bq,0,-4.987003383
 ,-0.0830273517,1.3763319822\Bq,0,-4.9855874007,-0.2569582197,1.0161291
 947\Bq,0,-4.9873573786,-0.0395446346,1.4663826791\Bq,0,-4.9852334051,-
 0.3004409367,0.9260784978\Bq,0,-4.9877113742,0.0039380824,1.556433376\
 Bq,0,-4.9848794096,-0.3439236537,0.836027801\Bq,0,-4.9880653697,0.0474
 207994,1.6464840729\Bq,0,-4.984525414,-0.3874063707,0.7459771041\Bq,0,
 -4.9862953919,-0.1699927857,1.1962305885\Bq,0,-4.9864784552,-0.0364586
 76,1.2427989043\Bq,0,-4.985770464,-0.12342411,1.0626975106\Bq,0,-4.986
 8324507,0.007024041,1.3328496012\Bq,0,-4.9854164684,-0.166906827,0.972
 6468137\Bq,0,-4.9871864463,0.050506758,1.4229002981\Bq,0,-4.9850624729
 ,-0.210389544,0.8825961168\Bq,0,-4.9875404419,0.093989475,1.512950995\
 Bq,0,-4.9847084773,-0.253872261,0.7925454199\Bq,0,-4.9878944375,0.1374
 72192,1.6030016919\Bq,0,-4.9843544817,-0.297354978,0.702494723\Bq,0,-4
 .9861244596,-0.079941393,1.1527482074\Bq,0,-4.9863075229,0.0535927167,
 1.1993165233\Bq,0,-4.9855995317,-0.0333727173,1.0192151295\Bq,0,-4.986
 6615185,0.0970754337,1.2893672202\Bq,0,-4.9852455362,-0.0768554343,0.9
 291644327\Bq,0,-4.987015514,0.1405581507,1.3794179171\Bq,0,-4.98489154
 06,-0.1203381513,0.8391137358\Bq,0,-4.9873695096,0.1840408677,1.469468
 6139\Bq,0,-4.984537545,-0.1638208683,0.7490630389\Bq,0,-4.9877235052,0
 .2275235847,1.5595193108\Bq,0,-4.9841835494,-0.2073035853,0.659012342\
 Bq,0,-4.9859535273,0.0101099997,1.1092658264\Bq,0,-4.9861365906,0.1436
 441094,1.1558341423\Bq,0,-4.9854285995,0.0566786753,0.9757327485\Bq,0,
 -4.9864905862,0.1871268264,1.2458848391\Bq,0,-4.9850746039,0.013195958
 3,0.8856820516\Bq,0,-4.9868445818,0.2306095434,1.335935536\Bq,0,-4.984
 7206083,-0.0302867587,0.7956313547\Bq,0,-4.9871985773,0.2740922604,1.4
 259862329\Bq,0,-4.9843666127,-0.0737694757,0.7055806579\Bq,0,-4.987552
 5729,0.3175749774,1.5160369298\Bq,0,-4.9840126172,-0.1172521927,0.6155
 29961\Bq,0,-4.985782595,0.1001613924,1.0657834454\Bq,0,-4.9859656583,0
 .233695502,1.1123517612\Bq,0,-4.9852576672,0.146730068,0.9322503675\Bq
 ,0,-4.9863196539,0.277178219,1.2024024581\Bq,0,-4.9849036716,0.1032473
 51,0.8421996706\Bq,0,-4.9866736495,0.320660936,1.292453155\Bq,0,-4.984
 549676,0.059764634,0.7521489737\Bq,0,-4.9870276451,0.364143653,1.38250
 38519\Bq,0,-4.9841956805,0.016281917,0.6620982768\Bq,0,-4.9873816406,0
 .40762637,1.4725545488\Bq,0,-4.9838416849,-0.0272008,0.5720475799\Bq,0
 ,-4.9856116628,0.190212785,1.0223010644\Bq,0,-4.9857947261,0.323746894
 7,1.0688693802\Bq,0,-4.9850867349,0.2367814607,0.8887679864\Bq,0,-4.98
 61487216,0.3672296117,1.1589200771\Bq,0,-4.9847327393,0.1932987437,0.7
 987172896\Bq,0,-4.9865027172,0.4107123287,1.248970774\Bq,0,-4.98437874
 38,0.1498160267,0.7086665927\Bq,0,-4.9868567128,0.4541950457,1.3390214
 708\Bq,0,-4.9840247482,0.1063333097,0.6186158958\Bq,0,-4.9872107084,0.
 4976777627,1.4290721677\Bq,0,-4.9836707526,0.0628505927,0.5285651989\B
 q,0,-4.9854407305,0.2802641777,0.9788186833\Bq,0,-4.9856237938,0.41379
 82874,1.0253869992\Bq,0,-4.9849158026,0.3268328534,0.8452856054\Bq,0,-
 4.9859777894,0.4572810044,1.1154376961\Bq,0,-4.9845618071,0.2833501364
 ,0.7552349085\Bq,0,-4.9863317849,0.5007637214,1.2054883929\Bq,0,-4.984
 2078115,0.2398674194,0.6651842116\Bq,0,-4.9866857805,0.5442464384,1.29
 55390898\Bq,0,-4.9838538159,0.1963847023,0.5751335148\Bq,0,-4.98703977
 61,0.5877291554,1.3855897867\Bq,0,-4.9834998203,0.1529019853,0.4850828
 179\Bq,0,-4.9852697982,0.3703155704,0.9353363023\Bq,0,-4.9854528615,0.
 50384968,0.9819046181\Bq,0,-4.9847448704,0.416884246,0.8018032244\Bq,0
 ,-4.9858068571,0.547332397,1.071955315\Bq,0,-4.9843908748,0.373401529,
 0.7117525275\Bq,0,-4.9861608527,0.590815114,1.1620060119\Bq,0,-4.98403
 68792,0.329918812,0.6217018306\Bq,0,-4.9865148482,0.6342978311,1.25205
 67088\Bq,0,-4.9836828836,0.286436095,0.5316511337\\Version=ES64L-G09Re
 vD.01\HF=-847.0032898\RMSD=7.537e-09\Dipole=0.0186808,0.0336671,0.0011
 595\Quadrupole=4.9072795,4.7288219,-9.6361014,-0.2850201,2.3867064,-0.
 880172\PG=C01 [X(C22H14)]\\@


 THE THINKER DIES, BUT HIS THOUGHTS ARE BEYOND THE 
 REACH OF DESTRUCTION.  MEN ARE MORTAL; BUT IDEAS 
 ARE IMMORTAL.
                              -- WALTER LIPPMANN
 Job cpu time:       0 days  3 hours 59 minutes 24.9 seconds.
 File lengths (MBytes):  RWF=    184 Int=      0 D2E=      0 Chk=     19 Scr=      1
 Normal termination of Gaussian 09 at Sun Aug 23 00:32:10 2020.
