 Entering Gaussian System, Link 0=g09
 Input=input_cycle_03_batch_02600.com
 Output=input_cycle_03_batch_02600.log
 Initial command:
 /share/programs/GAUSSIAN/64/g09/l1.exe "/scratch/yannick.30235/Gau-2643081.inp" -scrdir="/scratch/yannick.30235/"
 Entering Link 1 = /share/programs/GAUSSIAN/64/g09/l1.exe PID=   2643082.
  
 Copyright (c) 1988,1990,1992,1993,1995,1998,2003,2009,2013,
            Gaussian, Inc.  All Rights Reserved.
  
 This is part of the Gaussian(R) 09 program.  It is based on
 the Gaussian(R) 03 system (copyright 2003, Gaussian, Inc.),
 the Gaussian(R) 98 system (copyright 1998, Gaussian, Inc.),
 the Gaussian(R) 94 system (copyright 1995, Gaussian, Inc.),
 the Gaussian 92(TM) system (copyright 1992, Gaussian, Inc.),
 the Gaussian 90(TM) system (copyright 1990, Gaussian, Inc.),
 the Gaussian 88(TM) system (copyright 1988, Gaussian, Inc.),
 the Gaussian 86(TM) system (copyright 1986, Carnegie Mellon
 University), and the Gaussian 82(TM) system (copyright 1983,
 Carnegie Mellon University). Gaussian is a federally registered
 trademark of Gaussian, Inc.
  
 This software contains proprietary and confidential information,
 including trade secrets, belonging to Gaussian, Inc.
  
 This software is provided under written license and may be
 used, copied, transmitted, or stored only in accord with that
 written license.
  
 The following legend is applicable only to US Government
 contracts under FAR:
  
                    RESTRICTED RIGHTS LEGEND
  
 Use, reproduction and disclosure by the US Government is
 subject to restrictions as set forth in subparagraphs (a)
 and (c) of the Commercial Computer Software - Restricted
 Rights clause in FAR 52.227-19.
  
 Gaussian, Inc.
 340 Quinnipiac St., Bldg. 40, Wallingford CT 06492
  
  
 ---------------------------------------------------------------
 Warning -- This program may not be used in any manner that
 competes with the business of Gaussian, Inc. or will provide
 assistance to any competitor of Gaussian, Inc.  The licensee
 of this program is prohibited from giving any competitor of
 Gaussian, Inc. access to this program.  By using this program,
 the user acknowledges that Gaussian, Inc. is engaged in the
 business of creating and licensing software in the field of
 computational chemistry and represents and warrants to the
 licensee that it is not a competitor of Gaussian, Inc. and that
 it will not use this program in any manner prohibited above.
 ---------------------------------------------------------------
  

 Cite this work as:
 Gaussian 09, Revision D.01,
 M. J. Frisch, G. W. Trucks, H. B. Schlegel, G. E. Scuseria, 
 M. A. Robb, J. R. Cheeseman, G. Scalmani, V. Barone, B. Mennucci, 
 G. A. Petersson, H. Nakatsuji, M. Caricato, X. Li, H. P. Hratchian, 
 A. F. Izmaylov, J. Bloino, G. Zheng, J. L. Sonnenberg, M. Hada, 
 M. Ehara, K. Toyota, R. Fukuda, J. Hasegawa, M. Ishida, T. Nakajima, 
 Y. Honda, O. Kitao, H. Nakai, T. Vreven, J. A. Montgomery, Jr., 
 J. E. Peralta, F. Ogliaro, M. Bearpark, J. J. Heyd, E. Brothers, 
 K. N. Kudin, V. N. Staroverov, T. Keith, R. Kobayashi, J. Normand, 
 K. Raghavachari, A. Rendell, J. C. Burant, S. S. Iyengar, J. Tomasi, 
 M. Cossi, N. Rega, J. M. Millam, M. Klene, J. E. Knox, J. B. Cross, 
 V. Bakken, C. Adamo, J. Jaramillo, R. Gomperts, R. E. Stratmann, 
 O. Yazyev, A. J. Austin, R. Cammi, C. Pomelli, J. W. Ochterski, 
 R. L. Martin, K. Morokuma, V. G. Zakrzewski, G. A. Voth, 
 P. Salvador, J. J. Dannenberg, S. Dapprich, A. D. Daniels, 
 O. Farkas, J. B. Foresman, J. V. Ortiz, J. Cioslowski, 
 and D. J. Fox, Gaussian, Inc., Wallingford CT, 2013.
 
 ******************************************
 Gaussian 09:  ES64L-G09RevD.01 24-Apr-2013
                22-Aug-2020 
 ******************************************
 %nproc=8
 Will use up to    8 processors via shared memory.
 %mem=1000MB
 ----------------------------------------
 # rb3lyp/6-311+g** NMR geom=connectivity
 ----------------------------------------
 1/38=1,57=2/1;
 2/12=2,17=6,18=5,40=1/2;
 3/5=4,6=6,7=111,11=2,16=1,25=1,30=1,74=-5,116=1/1,2,8,3;
 4//1;
 5/5=2,38=5/2;
 8/6=1,10=90,11=11/1;
 10/13=100,45=16/2;
 6/7=2,8=2,9=2,10=2,28=1/1;
 99/9=1/99;
 -----
 Title
 -----
 Symbolic Z-matrix:
 Charge =  0 Multiplicity = 1
 C                    -4.05006  -0.57719   0.81367 
 H                    -5.02638  -1.00827   1.00248 
 C                    -3.93816   0.66178   0.24009 
 H                    -4.82524   1.23389  -0.01113 
 C                    -2.67684   1.24332   0.00576 
 C                    -1.49741   0.50515   0.28483 
 C                    -1.65083  -0.73387   0.9404 
 H                    -0.77136  -1.2731    1.26338 
 C                    -2.88985  -1.2624    1.19943 
 H                    -2.96837  -2.21246   1.71527 
 C                    -2.57732   2.59637  -0.41929 
 H                    -3.48707   3.14122  -0.64741 
 C                    -1.37419   3.21479  -0.4364 
 H                    -1.29973   4.2742   -0.65781 
 C                    -0.17195   2.49941  -0.17346 
 C                    -0.20439   1.10184   0.01927 
 C                     1.05135   3.20426  -0.06762 
 H                     1.04273   4.28195  -0.1897 
 C                     2.19421   2.54874   0.25796 
 H                     3.11685   3.09128   0.43347 
 C                     2.22165   1.13366   0.2935 
 C                     1.04869   0.39455   0.03024 
 C                     3.44834   0.46146   0.55739 
 H                     4.30958   1.06061   0.83348 
 C                     3.54273  -0.88559   0.47495 
 H                     4.47315  -1.39397   0.70388 
 C                     2.44901  -1.64744  -0.01963 
 C                     1.21507  -1.00573  -0.30136 
 C                     0.25311  -1.74344  -1.02166 
 H                    -0.65414  -1.25351  -1.34628 
 C                     0.44942  -3.06286  -1.34138 
 H                    -0.30832  -3.59443  -1.90541 
 C                     1.62517  -3.7208   -0.95525 
 H                     1.767    -4.76874  -1.1927 
 C                     2.61099  -3.01442  -0.31831 
 H                     3.55256  -3.49028  -0.06464 
 Bq                   -1.09301   2.52764   0.01806 
 Bq                   -1.16539   2.55221   0.51218 
 Bq                   -1.07853   2.52273  -0.08076 
 Bq                   -1.17987   2.55712   0.61101 
 Bq                   -1.06406   2.51781  -0.17959 
 Bq                   -1.19434   2.56203   0.70983 
 Bq                   -1.04958   2.5129   -0.27841 
 Bq                   -1.12196   2.53747   0.21571 
 Bq                   -1.13573   2.64226   0.30967 
 Bq                   -1.10677   2.63243   0.11202 
 Bq                   -1.1502    2.64717   0.4085 
 Bq                   -1.0923    2.62752   0.0132 
 Bq                   -1.16468   2.65209   0.50732 
 Bq                   -1.07782   2.6226   -0.08563 
 Bq                   -1.17915   2.657     0.60615 
 Bq                   -1.06335   2.61769  -0.18445 
 Bq                   -1.19363   2.66191   0.70497 
 Bq                   -1.04887   2.61278  -0.28327 
 Bq                   -1.12125   2.63734   0.21085 
 Bq                   -1.13501   2.74214   0.30481 
 Bq                   -1.10606   2.73231   0.10716 
 Bq                   -1.14949   2.74705   0.40364 
 Bq                   -1.09159   2.7274    0.00834 
 Bq                   -1.16397   2.75196   0.50246 
 Bq                   -1.07711   2.72248  -0.09049 
 Bq                   -1.17844   2.75688   0.60129 
 Bq                   -1.06263   2.71757  -0.18931 
 Bq                   -1.19292   2.76179   0.70011 
 Bq                   -1.04816   2.71266  -0.28814 
 Bq                   -1.12054   2.73722   0.20599 
 Bq                   -1.1343    2.84202   0.29995 
 Bq                   -1.10535   2.83219   0.1023 
 Bq                   -1.14878   2.84693   0.39877 
 Bq                   -1.09087   2.82728   0.00348 
 Bq                   -1.16325   2.85184   0.4976 
 Bq                   -1.0764    2.82236  -0.09535 
 Bq                   -1.17773   2.85676   0.59642 
 Bq                   -1.06192   2.81745  -0.19417 
 Bq                   -1.19221   2.86167   0.69525 
 Bq                   -1.04745   2.81254  -0.293 
 Bq                   -1.11983   2.8371    0.20113 
 Bq                   -1.13359   2.9419    0.29509 
 Bq                   -1.10464   2.93207   0.09744 
 Bq                   -1.14807   2.94681   0.39391 
 Bq                   -1.09016   2.92716  -0.00139 
 Bq                   -1.16254   2.95172   0.49274 
 Bq                   -1.07569   2.92224  -0.10021 
 Bq                   -1.17702   2.95664   0.59156 
 Bq                   -1.06121   2.91733  -0.19903 
 Bq                   -1.19149   2.96155   0.69039 
 Bq                   -1.04673   2.91242  -0.29786 
 Bq                   -1.11911   2.93698   0.19626 
 Bq                   -1.13288   3.04178   0.29023 
 Bq                   -1.10393   3.03195   0.09258 
 Bq                   -1.14735   3.04669   0.38905 
 Bq                   -1.08945   3.02703  -0.00625 
 Bq                   -1.16183   3.0516    0.48788 
 Bq                   -1.07497   3.02212  -0.10507 
 Bq                   -1.1763    3.05652   0.5867 
 Bq                   -1.0605    3.01721  -0.2039 
 Bq                   -1.19078   3.06143   0.68553 
 Bq                   -1.04602   3.01229  -0.30272 
 Bq                   -1.1184    3.03686   0.1914 
 Bq                   -1.13216   3.14165   0.28537 
 Bq                   -1.10321   3.13183   0.08772 
 Bq                   -1.14664   3.14657   0.38419 
 Bq                   -1.08874   3.12691  -0.01111 
 Bq                   -1.16112   3.15148   0.48301 
 Bq                   -1.07426   3.122    -0.10993 
 Bq                   -1.17559   3.15639   0.58184 
 Bq                   -1.05979   3.11709  -0.20876 
 Bq                   -1.19007   3.16131   0.68066 
 Bq                   -1.04531   3.11217  -0.30758 
 Bq                   -1.11769   3.13674   0.18654 
 Bq                   -1.13145   3.24153   0.2805 
 Bq                   -1.1025    3.23171   0.08285 
 Bq                   -1.14593   3.24645   0.37933 
 Bq                   -1.08802   3.22679  -0.01597 
 Bq                   -1.1604    3.25136   0.47815 
 Bq                   -1.07355   3.22188  -0.11479 
 Bq                   -1.17488   3.25627   0.57698 
 Bq                   -1.05907   3.21697  -0.21362 
 Bq                   -1.18936   3.26119   0.6758 
 Bq                   -1.0446    3.21205  -0.31244 
 Bq                   -1.11698   3.23662   0.18168 
 Bq                   -1.13074   3.34141   0.27564 
 Bq                   -1.10179   3.33159   0.07799 
 Bq                   -1.14522   3.34633   0.37447 
 Bq                   -1.08731   3.32667  -0.02083 
 Bq                   -1.15969   3.35124   0.47329 
 Bq                   -1.07284   3.32176  -0.11966 
 Bq                   -1.17417   3.35615   0.57212 
 Bq                   -1.05836   3.31685  -0.21848 
 Bq                   -1.18864   3.36107   0.67094 
 Bq                   -1.04388   3.31193  -0.31731 
 Bq                   -1.11626   3.3365    0.17682 
 Bq                   -1.13003   3.44129   0.27078 
 Bq                   -1.10108   3.43147   0.07313 
 Bq                   -1.1445    3.44621   0.3696 
 Bq                   -1.0866    3.42655  -0.02569 
 Bq                   -1.15898   3.45112   0.46843 
 Bq                   -1.07212   3.42164  -0.12452 
 Bq                   -1.17346   3.45603   0.56725 
 Bq                   -1.05765   3.41672  -0.22334 
 Bq                   -1.18793   3.46095   0.66608 
 Bq                   -1.04317   3.41181  -0.32217 
 Bq                   -1.11555   3.43638   0.17196 
 Bq                   -1.12932   3.54117   0.26592 
 Bq                   -1.10036   3.53134   0.06827 
 Bq                   -1.14379   3.54608   0.36474 
 Bq                   -1.08589   3.52643  -0.03056 
 Bq                   -1.15827   3.551     0.46357 
 Bq                   -1.07141   3.52152  -0.12938 
 Bq                   -1.17274   3.55591   0.56239 
 Bq                   -1.05694   3.5166   -0.2282 
 Bq                   -1.18722   3.56083   0.66122 
 Bq                   -1.04246   3.51169  -0.32703 
 Bq                   -1.11484   3.53626   0.16709 
 Bq                   -1.1286    3.64105   0.26106 
 Bq                   -1.09965   3.63122   0.06341 
 Bq                   -1.14308   3.64596   0.35988 
 Bq                   -1.08518   3.62631  -0.03542 
 Bq                   -1.15756   3.65088   0.45871 
 Bq                   -1.0707    3.6214   -0.13424 
 Bq                   -1.17203   3.65579   0.55753 
 Bq                   -1.05622   3.61648  -0.23307 
 Bq                   -1.18651   3.6607    0.65636 
 Bq                   -1.04175   3.61157  -0.33189 
 Bq                   -1.11413   3.63614   0.16223 
 Bq                   -1.12789   3.74093   0.2562 
 Bq                   -1.09894   3.7311    0.05855 
 Bq                   -1.14237   3.74584   0.35502 
 Bq                   -1.08446   3.72619  -0.04028 
 Bq                   -1.15684   3.75076   0.45384 
 Bq                   -1.06999   3.72128  -0.1391 
 Bq                   -1.17132   3.75567   0.55267 
 Bq                   -1.05551   3.71636  -0.23793 
 Bq                   -1.1858    3.76058   0.65149 
 Bq                   -1.04104   3.71145  -0.33675 
 Bq                   -1.11342   3.73602   0.15737 
 Bq                   -1.12718   3.84081   0.25133 
 Bq                   -1.09823   3.83098   0.05368 
 Bq                   -1.14166   3.84572   0.35016 
 Bq                   -1.08375   3.82607  -0.04514 
 Bq                   -1.15613   3.85064   0.44898 
 Bq                   -1.06928   3.82115  -0.14396 
 Bq                   -1.17061   3.85555   0.54781 
 Bq                   -1.0548    3.81624  -0.24279 
 Bq                   -1.18508   3.86046   0.64663 
 Bq                   -1.04032   3.81133  -0.34161 
 Bq                   -1.1127    3.8359    0.15251 
 Bq                   -1.12647   3.94069   0.24647 
 Bq                   -1.09752   3.93086   0.04882 
 Bq                   -1.14094   3.9456    0.3453 
 Bq                   -1.08304   3.92595  -0.05 
 Bq                   -1.15542   3.95052   0.44412 
 Bq                   -1.06856   3.92103  -0.14883 
 Bq                   -1.1699    3.95543   0.54295 
 Bq                   -1.05409   3.91612  -0.24765 
 Bq                   -1.18437   3.96034   0.64177 
 Bq                   -1.03961   3.91121  -0.34648 
 Bq                   -1.11199   3.93577   0.14765 
 Bq                   -1.12576   4.04057   0.24161 
 Bq                   -1.0968    4.03074   0.04396 
 Bq                   -1.14023   4.04548   0.34044 
 Bq                   -1.08233   4.02583  -0.05486 
 Bq                   -1.15471   4.05039   0.43926 
 Bq                   -1.06785   4.02091  -0.15369 
 Bq                   -1.16918   4.05531   0.53808 
 Bq                   -1.05338   4.016    -0.25251 
 Bq                   -1.18366   4.06022   0.63691 
 Bq                   -1.0389    4.01109  -0.35134 
 Bq                   -1.11128   4.03565   0.14279 
 Bq                   -1.12504   4.14045   0.23675 
 Bq                   -1.09609   4.13062   0.0391 
 Bq                   -1.13952   4.14536   0.33557 
 Bq                   -1.08162   4.12571  -0.05972 
 Bq                   -1.154     4.15027   0.4344 
 Bq                   -1.06714   4.12079  -0.15855 
 Bq                   -1.16847   4.15519   0.53322 
 Bq                   -1.05266   4.11588  -0.25737 
 Bq                   -1.18295   4.1601    0.63205 
 Bq                   -1.03819   4.11097  -0.3562 
 Bq                   -1.11057   4.13553   0.13792 
 Bq                   -1.12433   4.24033   0.23189 
 Bq                   -1.09538   4.2305    0.03424 
 Bq                   -1.13881   4.24524   0.33071 
 Bq                   -1.0809    4.22559  -0.06459 
 Bq                   -1.15328   4.25015   0.42954 
 Bq                   -1.06643   4.22067  -0.16341 
 Bq                   -1.16776   4.25507   0.52836 
 Bq                   -1.05195   4.21576  -0.26224 
 Bq                   -1.18224   4.25998   0.62719 
 Bq                   -1.03748   4.21084  -0.36106 
 Bq                   -1.10986   4.23541   0.13306 
 Bq                   -1.12362   4.34021   0.22703 
 Bq                   -1.09467   4.33038   0.02938 
 Bq                   -1.1381    4.34512   0.32585 
 Bq                   -1.08019   4.32546  -0.06945 
 Bq                   -1.15257   4.35003   0.42468 
 
 Symmetry turned off:
 Cannot cope with ghost atoms or with translation vectors.
 Stoichiometry    C22H14
 Framework group  C1[X(C22H14)]
 NUMDOF-- NAT=    36 NAtoms=   236
 Deg. of freedom     0
 Full point group                 C1      NOp   1
                          Input orientation:                          
 ---------------------------------------------------------------------
 Center     Atomic      Atomic             Coordinates (Angstroms)
 Number     Number       Type             X           Y           Z
 ---------------------------------------------------------------------
      1          6           0       -4.050056   -0.577186    0.813671
      2          1           0       -5.026380   -1.008273    1.002476
      3          6           0       -3.938155    0.661780    0.240088
      4          1           0       -4.825242    1.233889   -0.011130
      5          6           0       -2.676841    1.243325    0.005758
      6          6           0       -1.497412    0.505153    0.284825
      7          6           0       -1.650833   -0.733873    0.940403
      8          1           0       -0.771365   -1.273097    1.263375
      9          6           0       -2.889855   -1.262404    1.199431
     10          1           0       -2.968371   -2.212456    1.715268
     11          6           0       -2.577319    2.596370   -0.419293
     12          1           0       -3.487073    3.141224   -0.647406
     13          6           0       -1.374190    3.214790   -0.436403
     14          1           0       -1.299732    4.274202   -0.657814
     15          6           0       -0.171949    2.499409   -0.173459
     16          6           0       -0.204392    1.101844    0.019269
     17          6           0        1.051349    3.204256   -0.067622
     18          1           0        1.042734    4.281950   -0.189700
     19          6           0        2.194209    2.548745    0.257958
     20          1           0        3.116853    3.091285    0.433473
     21          6           0        2.221647    1.133656    0.293499
     22          6           0        1.048693    0.394553    0.030241
     23          6           0        3.448336    0.461463    0.557394
     24          1           0        4.309579    1.060605    0.833485
     25          6           0        3.542735   -0.885593    0.474946
     26          1           0        4.473147   -1.393970    0.703882
     27          6           0        2.449005   -1.647445   -0.019632
     28          6           0        1.215070   -1.005726   -0.301357
     29          6           0        0.253111   -1.743444   -1.021659
     30          1           0       -0.654136   -1.253505   -1.346285
     31          6           0        0.449419   -3.062860   -1.341378
     32          1           0       -0.308316   -3.594431   -1.905406
     33          6           0        1.625173   -3.720797   -0.955254
     34          1           0        1.767005   -4.768740   -1.192702
     35          6           0        2.610987   -3.014418   -0.318305
     36          1           0        3.552561   -3.490281   -0.064637
     37          0           0       -1.093010    2.527639    0.018061
     38          0           0       -1.165390    2.552206    0.512184
     39          0           0       -1.078534    2.522725   -0.080764
     40          0           0       -1.179866    2.557120    0.611009
     41          0           0       -1.064058    2.517812   -0.179588
     42          0           0       -1.194342    2.562033    0.709833
     43          0           0       -1.049582    2.512898   -0.278413
     44          0           0       -1.121962    2.537466    0.215710
     45          0           0       -1.135726    2.642258    0.309673
     46          0           0       -1.106774    2.632431    0.112024
     47          0           0       -1.150202    2.647172    0.408498
     48          0           0       -1.092298    2.627518    0.013199
     49          0           0       -1.164677    2.652085    0.507322
     50          0           0       -1.077822    2.622604   -0.085625
     51          0           0       -1.179153    2.656999    0.606147
     52          0           0       -1.063346    2.617691   -0.184450
     53          0           0       -1.193629    2.661912    0.704972
     54          0           0       -1.048870    2.612777   -0.283275
     55          0           0       -1.121250    2.637345    0.210849
     56          0           0       -1.135013    2.742138    0.304812
     57          0           0       -1.106062    2.732311    0.107162
     58          0           0       -1.149489    2.747051    0.403636
     59          0           0       -1.091586    2.727397    0.008338
     60          0           0       -1.163965    2.751965    0.502461
     61          0           0       -1.077110    2.722484   -0.090487
     62          0           0       -1.178441    2.756878    0.601285
     63          0           0       -1.062634    2.717570   -0.189311
     64          0           0       -1.192917    2.761792    0.700110
     65          0           0       -1.048158    2.712657   -0.288136
     66          0           0       -1.120537    2.737224    0.205987
     67          0           0       -1.134301    2.842017    0.299950
     68          0           0       -1.105349    2.832190    0.102301
     69          0           0       -1.148777    2.846930    0.398775
     70          0           0       -1.090873    2.827276    0.003476
     71          0           0       -1.163253    2.851844    0.497599
     72          0           0       -1.076397    2.822363   -0.095348
     73          0           0       -1.177729    2.856757    0.596424
     74          0           0       -1.061922    2.817449   -0.194173
     75          0           0       -1.192205    2.861671    0.695248
     76          0           0       -1.047446    2.812536   -0.292998
     77          0           0       -1.119825    2.837103    0.201125
     78          0           0       -1.133589    2.941896    0.295088
     79          0           0       -1.104637    2.932069    0.097439
     80          0           0       -1.148065    2.946809    0.393913
     81          0           0       -1.090161    2.927156   -0.001385
     82          0           0       -1.162541    2.951723    0.492738
     83          0           0       -1.075685    2.922242   -0.100210
     84          0           0       -1.177017    2.956636    0.591562
     85          0           0       -1.061209    2.917329   -0.199035
     86          0           0       -1.191493    2.961550    0.690387
     87          0           0       -1.046733    2.912415   -0.297859
     88          0           0       -1.119113    2.936983    0.196264
     89          0           0       -1.132877    3.041775    0.290227
     90          0           0       -1.103925    3.031948    0.092578
     91          0           0       -1.147353    3.046689    0.389051
     92          0           0       -1.089449    3.027035   -0.006247
     93          0           0       -1.161829    3.051602    0.487876
     94          0           0       -1.074973    3.022121   -0.105072
     95          0           0       -1.176305    3.056516    0.586701
     96          0           0       -1.060497    3.017208   -0.203896
     97          0           0       -1.190781    3.061429    0.685525
     98          0           0       -1.046021    3.012294   -0.302721
     99          0           0       -1.118401    3.036862    0.191402
    100          0           0       -1.132165    3.141654    0.285365
    101          0           0       -1.103213    3.131827    0.087716
    102          0           0       -1.146641    3.146568    0.384190
    103          0           0       -1.088737    3.126914   -0.011109
    104          0           0       -1.161117    3.151481    0.483014
    105          0           0       -1.074261    3.122000   -0.109933
    106          0           0       -1.175593    3.156395    0.581839
    107          0           0       -1.059785    3.117087   -0.208758
    108          0           0       -1.190069    3.161308    0.680664
    109          0           0       -1.045309    3.112174   -0.307583
    110          0           0       -1.117689    3.136741    0.186541
    111          0           0       -1.131453    3.241534    0.280504
    112          0           0       -1.102501    3.231707    0.082854
    113          0           0       -1.145929    3.246447    0.379328
    114          0           0       -1.088025    3.226793   -0.015970
    115          0           0       -1.160405    3.251361    0.478153
    116          0           0       -1.073549    3.221880   -0.114795
    117          0           0       -1.174881    3.256274    0.576977
    118          0           0       -1.059073    3.216966   -0.213620
    119          0           0       -1.189357    3.261188    0.675802
    120          0           0       -1.044597    3.212053   -0.312444
    121          0           0       -1.116977    3.236620    0.181679
    122          0           0       -1.130741    3.341413    0.275642
    123          0           0       -1.101789    3.331586    0.077993
    124          0           0       -1.145217    3.346326    0.374467
    125          0           0       -1.087313    3.326672   -0.020832
    126          0           0       -1.159693    3.351240    0.473291
    127          0           0       -1.072837    3.321759   -0.119657
    128          0           0       -1.174168    3.356153    0.572116
    129          0           0       -1.058361    3.316845   -0.218481
    130          0           0       -1.188644    3.361067    0.670940
    131          0           0       -1.043885    3.311932   -0.317306
    132          0           0       -1.116265    3.336499    0.176817
    133          0           0       -1.130028    3.441292    0.270780
    134          0           0       -1.101077    3.431465    0.073131
    135          0           0       -1.144504    3.446206    0.369605
    136          0           0       -1.086601    3.426552   -0.025694
    137          0           0       -1.158980    3.451119    0.468430
    138          0           0       -1.072125    3.421638   -0.124518
    139          0           0       -1.173456    3.456033    0.567254
    140          0           0       -1.057649    3.416725   -0.223343
    141          0           0       -1.187932    3.460946    0.666079
    142          0           0       -1.043173    3.411811   -0.322167
    143          0           0       -1.115553    3.436379    0.171956
    144          0           0       -1.129316    3.541171    0.265919
    145          0           0       -1.100364    3.531344    0.068270
    146          0           0       -1.143792    3.546085    0.364743
    147          0           0       -1.085889    3.526431   -0.030555
    148          0           0       -1.158268    3.550998    0.463568
    149          0           0       -1.071413    3.521517   -0.129380
    150          0           0       -1.172744    3.555912    0.562393
    151          0           0       -1.056937    3.516604   -0.228204
    152          0           0       -1.187220    3.560825    0.661217
    153          0           0       -1.042461    3.511690   -0.327029
    154          0           0       -1.114840    3.536258    0.167094
    155          0           0       -1.128604    3.641051    0.261057
    156          0           0       -1.099652    3.631224    0.063408
    157          0           0       -1.143080    3.645964    0.359882
    158          0           0       -1.085176    3.626310   -0.035417
    159          0           0       -1.157556    3.650877    0.458706
    160          0           0       -1.070700    3.621397   -0.134241
    161          0           0       -1.172032    3.655791    0.557531
    162          0           0       -1.056224    3.616483   -0.233066
    163          0           0       -1.186508    3.660704    0.656356
    164          0           0       -1.041749    3.611570   -0.331891
    165          0           0       -1.114128    3.636137    0.162233
    166          0           0       -1.127892    3.740930    0.256196
    167          0           0       -1.098940    3.731103    0.058546
    168          0           0       -1.142368    3.745843    0.355020
    169          0           0       -1.084464    3.726189   -0.040278
    170          0           0       -1.156844    3.750757    0.453845
    171          0           0       -1.069988    3.721276   -0.139103
    172          0           0       -1.171320    3.755670    0.552669
    173          0           0       -1.055512    3.716362   -0.237928
    174          0           0       -1.185796    3.760584    0.651494
    175          0           0       -1.041036    3.711449   -0.336752
    176          0           0       -1.113416    3.736016    0.157371
    177          0           0       -1.127180    3.840809    0.251334
    178          0           0       -1.098228    3.830982    0.053685
    179          0           0       -1.141656    3.845722    0.350159
    180          0           0       -1.083752    3.826068   -0.045140
    181          0           0       -1.156132    3.850636    0.448983
    182          0           0       -1.069276    3.821155   -0.143965
    183          0           0       -1.170608    3.855549    0.547808
    184          0           0       -1.054800    3.816242   -0.242789
    185          0           0       -1.185084    3.860463    0.646632
    186          0           0       -1.040324    3.811328   -0.341614
    187          0           0       -1.112704    3.835895    0.152509
    188          0           0       -1.126468    3.940688    0.246472
    189          0           0       -1.097516    3.930861    0.048823
    190          0           0       -1.140944    3.945602    0.345297
    191          0           0       -1.083040    3.925948   -0.050002
    192          0           0       -1.155420    3.950515    0.444122
    193          0           0       -1.068564    3.921034   -0.148826
    194          0           0       -1.169896    3.955429    0.542946
    195          0           0       -1.054088    3.916121   -0.247651
    196          0           0       -1.184372    3.960342    0.641771
    197          0           0       -1.039612    3.911207   -0.346475
    198          0           0       -1.111992    3.935775    0.147648
    199          0           0       -1.125756    4.040567    0.241611
    200          0           0       -1.096804    4.030740    0.043961
    201          0           0       -1.140232    4.045481    0.340435
    202          0           0       -1.082328    4.025827   -0.054863
    203          0           0       -1.154708    4.050394    0.439260
    204          0           0       -1.067852    4.020913   -0.153688
    205          0           0       -1.169184    4.055308    0.538085
    206          0           0       -1.053376    4.016000   -0.252512
    207          0           0       -1.183660    4.060221    0.636909
    208          0           0       -1.038900    4.011086   -0.351337
    209          0           0       -1.111280    4.035654    0.142786
    210          0           0       -1.125044    4.140447    0.236749
    211          0           0       -1.096092    4.130620    0.039100
    212          0           0       -1.139520    4.145360    0.335574
    213          0           0       -1.081616    4.125706   -0.059725
    214          0           0       -1.153995    4.150274    0.434398
    215          0           0       -1.067140    4.120793   -0.158549
    216          0           0       -1.168471    4.155187    0.533223
    217          0           0       -1.052664    4.115879   -0.257374
    218          0           0       -1.182947    4.160101    0.632048
    219          0           0       -1.038188    4.110966   -0.356199
    220          0           0       -1.110568    4.135533    0.137924
    221          0           0       -1.124331    4.240326    0.231888
    222          0           0       -1.095380    4.230499    0.034238
    223          0           0       -1.138807    4.245239    0.330712
    224          0           0       -1.080904    4.225585   -0.064586
    225          0           0       -1.153283    4.250153    0.429537
    226          0           0       -1.066428    4.220672   -0.163411
    227          0           0       -1.167759    4.255066    0.528361
    228          0           0       -1.051952    4.215758   -0.262236
    229          0           0       -1.182235    4.259980    0.627186
    230          0           0       -1.037476    4.210845   -0.361060
    231          0           0       -1.109855    4.235412    0.133063
    232          0           0       -1.123619    4.340205    0.227026
    233          0           0       -1.094667    4.330378    0.029377
    234          0           0       -1.138095    4.345118    0.325851
    235          0           0       -1.080191    4.325465   -0.069448
    236          0           0       -1.152571    4.350032    0.424675
 ---------------------------------------------------------------------
 Rotational constants (GHZ):      0.4529074      0.2836956      0.1879557
 Standard basis: 6-311+G(d,p) (5D, 7F)
 Warning:  center  37 has no basis functions!
 Warning:  center  38 has no basis functions!
 Warning:  center  39 has no basis functions!
 Warning:  center  40 has no basis functions!
 Warning:  center  41 has no basis functions!
 Warning:  center  42 has no basis functions!
 Warning:  center  43 has no basis functions!
 Warning:  center  44 has no basis functions!
 Warning:  center  45 has no basis functions!
 Warning:  center  46 has no basis functions!
 Warning:  center  47 has no basis functions!
 Warning:  center  48 has no basis functions!
 Warning:  center  49 has no basis functions!
 Warning:  center  50 has no basis functions!
 Warning:  center  51 has no basis functions!
 Warning:  center  52 has no basis functions!
 Warning:  center  53 has no basis functions!
 Warning:  center  54 has no basis functions!
 Warning:  center  55 has no basis functions!
 Warning:  center  56 has no basis functions!
 Warning:  center  57 has no basis functions!
 Warning:  center  58 has no basis functions!
 Warning:  center  59 has no basis functions!
 Warning:  center  60 has no basis functions!
 Warning:  center  61 has no basis functions!
 Warning:  center  62 has no basis functions!
 Warning:  center  63 has no basis functions!
 Warning:  center  64 has no basis functions!
 Warning:  center  65 has no basis functions!
 Warning:  center  66 has no basis functions!
 Warning:  center  67 has no basis functions!
 Warning:  center  68 has no basis functions!
 Warning:  center  69 has no basis functions!
 Warning:  center  70 has no basis functions!
 Warning:  center  71 has no basis functions!
 Warning:  center  72 has no basis functions!
 Warning:  center  73 has no basis functions!
 Warning:  center  74 has no basis functions!
 Warning:  center  75 has no basis functions!
 Warning:  center  76 has no basis functions!
 Warning:  center  77 has no basis functions!
 Warning:  center  78 has no basis functions!
 Warning:  center  79 has no basis functions!
 Warning:  center  80 has no basis functions!
 Warning:  center  81 has no basis functions!
 Warning:  center  82 has no basis functions!
 Warning:  center  83 has no basis functions!
 Warning:  center  84 has no basis functions!
 Warning:  center  85 has no basis functions!
 Warning:  center  86 has no basis functions!
 Warning:  center  87 has no basis functions!
 Warning:  center  88 has no basis functions!
 Warning:  center  89 has no basis functions!
 Warning:  center  90 has no basis functions!
 Warning:  center  91 has no basis functions!
 Warning:  center  92 has no basis functions!
 Warning:  center  93 has no basis functions!
 Warning:  center  94 has no basis functions!
 Warning:  center  95 has no basis functions!
 Warning:  center  96 has no basis functions!
 Warning:  center  97 has no basis functions!
 Warning:  center  98 has no basis functions!
 Warning:  center  99 has no basis functions!
 Warning:  center 100 has no basis functions!
 Warning:  center 101 has no basis functions!
 Warning:  center 102 has no basis functions!
 Warning:  center 103 has no basis functions!
 Warning:  center 104 has no basis functions!
 Warning:  center 105 has no basis functions!
 Warning:  center 106 has no basis functions!
 Warning:  center 107 has no basis functions!
 Warning:  center 108 has no basis functions!
 Warning:  center 109 has no basis functions!
 Warning:  center 110 has no basis functions!
 Warning:  center 111 has no basis functions!
 Warning:  center 112 has no basis functions!
 Warning:  center 113 has no basis functions!
 Warning:  center 114 has no basis functions!
 Warning:  center 115 has no basis functions!
 Warning:  center 116 has no basis functions!
 Warning:  center 117 has no basis functions!
 Warning:  center 118 has no basis functions!
 Warning:  center 119 has no basis functions!
 Warning:  center 120 has no basis functions!
 Warning:  center 121 has no basis functions!
 Warning:  center 122 has no basis functions!
 Warning:  center 123 has no basis functions!
 Warning:  center 124 has no basis functions!
 Warning:  center 125 has no basis functions!
 Warning:  center 126 has no basis functions!
 Warning:  center 127 has no basis functions!
 Warning:  center 128 has no basis functions!
 Warning:  center 129 has no basis functions!
 Warning:  center 130 has no basis functions!
 Warning:  center 131 has no basis functions!
 Warning:  center 132 has no basis functions!
 Warning:  center 133 has no basis functions!
 Warning:  center 134 has no basis functions!
 Warning:  center 135 has no basis functions!
 Warning:  center 136 has no basis functions!
 Warning:  center 137 has no basis functions!
 Warning:  center 138 has no basis functions!
 Warning:  center 139 has no basis functions!
 Warning:  center 140 has no basis functions!
 Warning:  center 141 has no basis functions!
 Warning:  center 142 has no basis functions!
 Warning:  center 143 has no basis functions!
 Warning:  center 144 has no basis functions!
 Warning:  center 145 has no basis functions!
 Warning:  center 146 has no basis functions!
 Warning:  center 147 has no basis functions!
 Warning:  center 148 has no basis functions!
 Warning:  center 149 has no basis functions!
 Warning:  center 150 has no basis functions!
 Warning:  center 151 has no basis functions!
 Warning:  center 152 has no basis functions!
 Warning:  center 153 has no basis functions!
 Warning:  center 154 has no basis functions!
 Warning:  center 155 has no basis functions!
 Warning:  center 156 has no basis functions!
 Warning:  center 157 has no basis functions!
 Warning:  center 158 has no basis functions!
 Warning:  center 159 has no basis functions!
 Warning:  center 160 has no basis functions!
 Warning:  center 161 has no basis functions!
 Warning:  center 162 has no basis functions!
 Warning:  center 163 has no basis functions!
 Warning:  center 164 has no basis functions!
 Warning:  center 165 has no basis functions!
 Warning:  center 166 has no basis functions!
 Warning:  center 167 has no basis functions!
 Warning:  center 168 has no basis functions!
 Warning:  center 169 has no basis functions!
 Warning:  center 170 has no basis functions!
 Warning:  center 171 has no basis functions!
 Warning:  center 172 has no basis functions!
 Warning:  center 173 has no basis functions!
 Warning:  center 174 has no basis functions!
 Warning:  center 175 has no basis functions!
 Warning:  center 176 has no basis functions!
 Warning:  center 177 has no basis functions!
 Warning:  center 178 has no basis functions!
 Warning:  center 179 has no basis functions!
 Warning:  center 180 has no basis functions!
 Warning:  center 181 has no basis functions!
 Warning:  center 182 has no basis functions!
 Warning:  center 183 has no basis functions!
 Warning:  center 184 has no basis functions!
 Warning:  center 185 has no basis functions!
 Warning:  center 186 has no basis functions!
 Warning:  center 187 has no basis functions!
 Warning:  center 188 has no basis functions!
 Warning:  center 189 has no basis functions!
 Warning:  center 190 has no basis functions!
 Warning:  center 191 has no basis functions!
 Warning:  center 192 has no basis functions!
 Warning:  center 193 has no basis functions!
 Warning:  center 194 has no basis functions!
 Warning:  center 195 has no basis functions!
 Warning:  center 196 has no basis functions!
 Warning:  center 197 has no basis functions!
 Warning:  center 198 has no basis functions!
 Warning:  center 199 has no basis functions!
 Warning:  center 200 has no basis functions!
 Warning:  center 201 has no basis functions!
 Warning:  center 202 has no basis functions!
 Warning:  center 203 has no basis functions!
 Warning:  center 204 has no basis functions!
 Warning:  center 205 has no basis functions!
 Warning:  center 206 has no basis functions!
 Warning:  center 207 has no basis functions!
 Warning:  center 208 has no basis functions!
 Warning:  center 209 has no basis functions!
 Warning:  center 210 has no basis functions!
 Warning:  center 211 has no basis functions!
 Warning:  center 212 has no basis functions!
 Warning:  center 213 has no basis functions!
 Warning:  center 214 has no basis functions!
 Warning:  center 215 has no basis functions!
 Warning:  center 216 has no basis functions!
 Warning:  center 217 has no basis functions!
 Warning:  center 218 has no basis functions!
 Warning:  center 219 has no basis functions!
 Warning:  center 220 has no basis functions!
 Warning:  center 221 has no basis functions!
 Warning:  center 222 has no basis functions!
 Warning:  center 223 has no basis functions!
 Warning:  center 224 has no basis functions!
 Warning:  center 225 has no basis functions!
 Warning:  center 226 has no basis functions!
 Warning:  center 227 has no basis functions!
 Warning:  center 228 has no basis functions!
 Warning:  center 229 has no basis functions!
 Warning:  center 230 has no basis functions!
 Warning:  center 231 has no basis functions!
 Warning:  center 232 has no basis functions!
 Warning:  center 233 has no basis functions!
 Warning:  center 234 has no basis functions!
 Warning:  center 235 has no basis functions!
 Warning:  center 236 has no basis functions!
   568 basis functions,   904 primitive gaussians,   590 cartesian basis functions
    73 alpha electrons       73 beta electrons
       nuclear repulsion energy      1610.9176155625 Hartrees.
 NAtoms=  236 NActive=  236 NUniq=  236 SFac= 1.00D+00 NAtFMM=   60 NAOKFM=T Big=T
 Integral buffers will be    131072 words long.
 Raffenetti 2 integral format.
 Two-electron integral symmetry is turned off.
 One-electron integrals computed using PRISM.
 NBasis=   568 RedAO= T EigKep=  1.78D-06  NBF=   568
 NBsUse=   556 1.00D-06 EigRej=  9.09D-07 NBFU=   556
 ExpMin= 4.38D-02 ExpMax= 4.56D+03 ExpMxC= 6.82D+02 IAcc=2 IRadAn=         4 AccDes= 0.00D+00
 Harris functional with IExCor=  402 and IRadAn=       4 diagonalized for initial guess.
 HarFok:  IExCor=  402 AccDes= 0.00D+00 IRadAn=         4 IDoV= 1 UseB2=F ITyADJ=14
 ICtDFT=  3500011 ScaDFX=  1.000000  1.000000  1.000000  1.000000
 FoFCou: FMM=F IPFlag=           0 FMFlag=      100000 FMFlg1=        2001
         NFxFlg=           0 DoJE=T BraDBF=F KetDBF=T FulRan=T
         wScrn=  0.000000 ICntrl=     500 IOpCl=  0 I1Cent=   200000004 NGrid=           0
         NMat0=    1 NMatS0=      1 NMatT0=    0 NMatD0=    1 NMtDS0=    0 NMtDT0=    0
 Symmetry not used in FoFCou.
 Requested convergence on RMS density matrix=1.00D-08 within 128 cycles.
 Requested convergence on MAX density matrix=1.00D-06.
 Requested convergence on             energy=1.00D-06.
 No special actions if energy rises.
 SCF Done:  E(RB3LYP) =  -847.003289847     A.U. after   15 cycles
            NFock= 15  Conv=0.76D-08     -V/T= 2.0040
 DoSCS=F DFT=T ScalE2(SS,OS)=  1.000000  1.000000
 Range of M.O.s used for correlation:     1   556
 NBasis=   568 NAE=    73 NBE=    73 NFC=     0 NFV=     0
 NROrb=    556 NOA=    73 NOB=    73 NVA=   483 NVB=   483

 **** Warning!!: The largest alpha MO coefficient is  0.10971036D+03

          Differentiating once with respect to magnetic field using GIAOs.
          Electric field/nuclear overlap derivatives assumed to be zero.
 FoFCou: FMM=F IPFlag=           0 FMFlag=      100000 FMFlg1=        2001
         NFxFlg=           0 DoJE=F BraDBF=F KetDBF=T FulRan=T
         wScrn=  0.000000 ICntrl=    6100 IOpCl=  0 I1Cent=           7 NGrid=         236
         NMat0=    1 NMatS0=      1 NMatT0=    0 NMatD0=    1 NMtDS0=    0 NMtDT0=    0
 Symmetry not used in FoFCou.
 FoFJK:  IHMeth= 1 ICntrl=    6127 DoSepK=F KAlg= 0 I1Cent=   0 FoldK=F
 IRaf=         1 NMat=   1 IRICut=       1 DoRegI=T DoRafI=F ISym2E= 0.
          There are     3 degrees of freedom in the 1st order CPHF.  IDoFFX=0 NUNeed=     3.
      3 vectors produced by pass  0 Test12= 1.18D-12 3.33D-08 XBig12= 2.07D+03 9.18D+00.
 AX will form     3 AO Fock derivatives at one time.
      3 vectors produced by pass  1 Test12= 1.18D-12 3.33D-08 XBig12= 3.56D+00 8.03D-01.
      3 vectors produced by pass  2 Test12= 1.18D-12 3.33D-08 XBig12= 2.10D-02 6.92D-02.
      3 vectors produced by pass  3 Test12= 1.18D-12 3.33D-08 XBig12= 5.45D-05 1.89D-03.
      3 vectors produced by pass  4 Test12= 1.18D-12 3.33D-08 XBig12= 1.20D-07 7.79D-05.
      3 vectors produced by pass  5 Test12= 1.18D-12 3.33D-08 XBig12= 4.02D-10 4.73D-06.
      3 vectors produced by pass  6 Test12= 1.18D-12 3.33D-08 XBig12= 1.32D-12 2.61D-07.
 InvSVY:  IOpt=1 It=  1 EMax= 7.11D-15
 Solved reduced A of dimension    21 with     3 vectors.
 Calculating GIAO nuclear magnetic shielding tensors.
 SCF GIAO Magnetic shielding tensor (ppm):
      1  C    Isotropic =    53.8139   Anisotropy =   178.0260
   XX=   -41.4327   YX=   -32.3458   ZX=    10.0287
   XY=   -28.3572   YY=    59.0527   ZY=    55.1899
   XZ=    13.1759   YZ=    58.7550   ZZ=   143.8218
   Eigenvalues:   -53.8775    42.8214   172.4979
      2  H    Isotropic =    24.3095   Anisotropy =     4.8536
   XX=    25.5771   YX=    -1.0289   ZX=     0.5661
   XY=    -0.7431   YY=    26.1829   ZY=    -2.3306
   XZ=    -0.1707   YZ=    -2.4411   ZZ=    21.1687
   Eigenvalues:    20.2108    25.1725    27.5453
      3  C    Isotropic =    51.4055   Anisotropy =   157.8639
   XX=   -31.5399   YX=    38.5015   ZX=   -17.9316
   XY=    34.3519   YY=    49.9437   ZY=    49.6392
   XZ=    -9.8383   YZ=    44.6006   ZZ=   135.8127
   Eigenvalues:   -50.5747    48.1432   156.6481
      4  H    Isotropic =    23.8290   Anisotropy =     7.1838
   XX=    25.3635   YX=     1.8486   ZX=    -0.3559
   XY=     1.9656   YY=    26.4581   ZY=    -2.4103
   XZ=    -1.2941   YZ=    -2.6614   ZZ=    19.6654
   Eigenvalues:    18.8176    24.0511    28.6182
      5  C    Isotropic =    46.0697   Anisotropy =   207.6751
   XX=   -19.2123   YX=    -4.8852   ZX=    -1.6475
   XY=     2.8938   YY=    -2.9860   ZY=    66.5656
   XZ=     2.5356   YZ=    67.9144   ZZ=   160.4073
   Eigenvalues:   -27.2455   -19.0652   184.5197
      6  C    Isotropic =    47.5218   Anisotropy =   196.9389
   XX=   -28.1552   YX=    -2.7889   ZX=    12.0660
   XY=   -14.3886   YY=    21.2063   ZY=    74.2521
   XZ=   -18.6356   YZ=    61.1113   ZZ=   149.5144
   Eigenvalues:   -30.2925    -5.9564   178.8144
      7  C    Isotropic =    49.3915   Anisotropy =   179.8333
   XX=   -12.5211   YX=    28.7048   ZX=   -24.6745
   XY=    31.5123   YY=    29.7000   ZY=    77.7459
   XZ=   -40.0095   YZ=    65.3072   ZZ=   130.9956
   Eigenvalues:   -52.1299    31.0240   169.2804
      8  H    Isotropic =    23.1586   Anisotropy =    13.5525
   XX=    28.5711   YX=     1.5482   ZX=    -3.6986
   XY=     3.2466   YY=    22.7592   ZY=    -2.1157
   XZ=    -8.3753   YZ=    -1.0821   ZZ=    18.1456
   Eigenvalues:    15.3521    21.9301    32.1936
      9  C    Isotropic =    55.1460   Anisotropy =   174.7426
   XX=    46.7071   YX=    -2.6162   ZX=    -2.8420
   XY=     0.6223   YY=    -1.6258   ZY=    92.8272
   XZ=     0.5159   YZ=    95.6598   ZZ=   120.3568
   Eigenvalues:   -52.8932    46.6901   171.6411
     10  H    Isotropic =    24.6278   Anisotropy =     7.1815
   XX=    29.1040   YX=     0.1399   ZX=    -0.3694
   XY=     0.3642   YY=    23.4778   ZY=    -1.0805
   XZ=    -2.4493   YZ=    -2.9465   ZZ=    21.3016
   Eigenvalues:    19.9703    24.4977    29.4155
     11  C    Isotropic =    51.5607   Anisotropy =   151.2142
   XX=     2.1639   YX=    40.9287   ZX=   -26.0048
   XY=    49.9131   YY=    12.2331   ZY=    42.1342
   XZ=   -15.6145   YZ=    38.6614   ZZ=   140.2851
   Eigenvalues:   -48.1951    50.5071   152.3701
     12  H    Isotropic =    23.8537   Anisotropy =     7.3815
   XX=    25.9672   YX=     2.3738   ZX=    -0.2390
   XY=     2.4320   YY=    26.3975   ZY=    -1.8291
   XZ=     0.3529   YZ=    -1.7731   ZZ=    19.1964
   Eigenvalues:    18.7149    24.0714    28.7747
     13  C    Isotropic =    52.8653   Anisotropy =   147.4265
   XX=    51.2944   YX=    19.9221   ZX=   -13.4678
   XY=    11.5478   YY=   -34.0176   ZY=    42.5079
   XZ=    -9.2241   YZ=    40.0716   ZZ=   141.3192
   Eigenvalues:   -46.5152    53.9616   151.1497
     14  H    Isotropic =    24.0156   Anisotropy =     7.3485
   XX=    28.6644   YX=     0.6281   ZX=     1.0808
   XY=     0.5926   YY=    24.4325   ZY=    -1.0823
   XZ=     1.6846   YZ=    -0.3842   ZZ=    18.9500
   Eigenvalues:    18.6430    24.4892    28.9146
     15  C    Isotropic =    46.2221   Anisotropy =   203.9048
   XX=   -27.2215   YX=    -0.0442   ZX=   -28.9124
   XY=     4.6427   YY=   -10.5571   ZY=    28.3830
   XZ=   -10.2704   YZ=    26.7376   ZZ=   176.4448
   Eigenvalues:   -30.5512   -12.9411   182.1586
     16  C    Isotropic =    51.9375   Anisotropy =   188.2004
   XX=   -19.4441   YX=     5.5046   ZX=    15.7858
   XY=    -8.3874   YY=     2.4863   ZY=    22.9264
   XZ=   -50.6243   YZ=    23.3340   ZZ=   172.7704
   Eigenvalues:   -21.0294    -0.5625   177.4045
     17  C    Isotropic =    51.9482   Anisotropy =   149.1264
   XX=    50.7296   YX=   -23.9353   ZX=   -18.4207
   XY=   -16.7271   YY=   -41.8764   ZY=    17.8662
   XZ=   -14.3278   YZ=    11.4871   ZZ=   146.9915
   Eigenvalues:   -46.7796    51.2584   151.3658
     18  H    Isotropic =    24.0122   Anisotropy =     7.5163
   XX=    28.5811   YX=    -0.0866   ZX=     1.5071
   XY=    -0.2466   YY=    24.3342   ZY=    -0.7657
   XZ=     2.5088   YZ=    -1.5208   ZZ=    19.1214
   Eigenvalues:    18.5094    24.5041    29.0231
     19  C    Isotropic =    51.7356   Anisotropy =   148.5924
   XX=     2.4559   YX=   -45.6913   ZX=   -31.2531
   XY=   -53.4448   YY=     7.4698   ZY=    -1.8888
   XZ=   -23.5601   YZ=    -1.2765   ZZ=   145.2810
   Eigenvalues:   -46.9894    51.3989   150.7972
     20  H    Isotropic =    23.9071   Anisotropy =     7.6651
   XX=    25.5796   YX=    -2.0226   ZX=     1.4905
   XY=    -1.9998   YY=    27.3706   ZY=    -0.5164
   XZ=     2.7276   YZ=    -1.1179   ZZ=    18.7711
   Eigenvalues:    18.1643    24.5398    29.0172
     21  C    Isotropic =    45.9767   Anisotropy =   203.9316
   XX=   -16.2108   YX=    13.1802   ZX=   -44.5913
   XY=     6.5714   YY=   -20.6329   ZY=     0.0949
   XZ=   -28.8984   YZ=   -13.0883   ZZ=   174.7736
   Eigenvalues:   -30.5796   -13.4215   181.9311
     22  C    Isotropic =    52.0450   Anisotropy =   188.1157
   XX=    -0.0787   YX=     2.5023   ZX=   -16.3451
   XY=    18.9327   YY=   -14.4798   ZY=   -34.4335
   XZ=   -50.6032   YZ=    19.9104   ZZ=   170.6934
   Eigenvalues:   -20.7705    -0.5500   177.4554
     23  C    Isotropic =    53.2392   Anisotropy =   146.7412
   XX=   -22.0674   YX=   -32.0012   ZX=   -49.4857
   XY=   -23.2043   YY=    44.3661   ZY=   -15.6400
   XZ=   -43.8090   YZ=   -20.2525   ZZ=   137.4189
   Eigenvalues:   -45.6776    54.3286   151.0667
     24  H    Isotropic =    23.8249   Anisotropy =     7.5289
   XX=    25.1073   YX=    -1.7330   ZX=     1.5380
   XY=    -1.5944   YY=    28.0047   ZY=     0.0879
   XZ=     1.2557   YZ=    -0.8283   ZZ=    18.3628
   Eigenvalues:    18.0848    24.5458    28.8442
     25  C    Isotropic =    51.4969   Anisotropy =   150.1066
   XX=   -28.4915   YX=    33.9684   ZX=   -52.3137
   XY=    22.0311   YY=    46.6072   ZY=    -3.8075
   XZ=   -44.5594   YZ=   -10.6355   ZZ=   136.3748
   Eigenvalues:   -48.3857    51.3083   151.5679
     26  H    Isotropic =    23.7431   Anisotropy =     7.4052
   XX=    24.0663   YX=     1.1141   ZX=     1.9989
   XY=     0.9693   YY=    28.1000   ZY=     1.6568
   XZ=     2.0795   YZ=     0.8886   ZZ=    19.0630
   Eigenvalues:    18.2615    24.2880    28.6799
     27  C    Isotropic =    45.8108   Anisotropy =   207.2710
   XX=    -2.7702   YX=    13.7697   ZX=   -61.4651
   XY=     6.5593   YY=   -12.0335   ZY=   -41.6456
   XZ=   -62.6381   YZ=   -44.9232   ZZ=   152.2361
   Eigenvalues:   -28.0803   -18.4787   183.9915
     28  C    Isotropic =    47.8398   Anisotropy =   197.2870
   XX=    19.6900   YX=    14.4398   ZX=   -60.5682
   XY=    28.5650   YY=   -19.3566   ZY=   -56.7015
   XZ=   -63.1331   YZ=   -24.4782   ZZ=   143.1859
   Eigenvalues:   -30.5979    -5.2472   179.3644
     29  C    Isotropic =    49.3441   Anisotropy =   179.7793
   XX=    -3.4110   YX=    38.3775   ZX=   -80.8875
   XY=    36.1252   YY=    25.9805   ZY=   -23.7573
   XZ=   -78.1065   YZ=    -3.9802   ZZ=   125.4627
   Eigenvalues:   -51.6645    30.4997   169.1970
     30  H    Isotropic =    23.1387   Anisotropy =    13.3222
   XX=    22.4354   YX=    -0.7013   ZX=    -0.2375
   XY=    -2.1539   YY=    28.3546   ZY=     4.5555
   XZ=    -3.4181   YZ=     8.3231   ZZ=    18.6259
   Eigenvalues:    15.2751    22.1208    32.0201
     31  C    Isotropic =    55.4410   Anisotropy =   174.9390
   XX=    17.1871   YX=   -14.0890   ZX=   -84.0024
   XY=   -17.9030   YY=    37.4745   ZY=   -50.3662
   XZ=   -84.6557   YZ=   -54.8325   ZZ=   111.6615
   Eigenvalues:   -51.9248    46.1808   172.0670
     32  H    Isotropic =    24.5337   Anisotropy =     7.2554
   XX=    24.6185   YX=    -2.5264   ZX=     0.7632
   XY=    -2.7385   YY=    27.4630   ZY=     1.0335
   XZ=     1.1913   YZ=     3.7573   ZZ=    21.5194
   Eigenvalues:    19.8987    24.3316    29.3706
     33  C    Isotropic =    53.1814   Anisotropy =   179.0596
   XX=    60.9231   YX=    35.2256   ZX=   -42.9515
   XY=    32.0226   YY=   -38.1801   ZY=   -45.5652
   XZ=   -44.2248   YZ=   -50.7831   ZZ=   136.8014
   Eigenvalues:   -55.1197    42.1095   172.5545
     34  H    Isotropic =    24.2825   Anisotropy =     5.1861
   XX=    26.7643   YX=    -0.0934   ZX=     2.5955
   XY=    -0.2993   YY=    24.8157   ZY=     0.8589
   XZ=     2.3715   YZ=     1.4580   ZZ=    21.2676
   Eigenvalues:    20.0339    25.0737    27.7399
     35  C    Isotropic =    51.5295   Anisotropy =   155.1748
   XX=    -0.5131   YX=    52.5760   ZX=   -52.1551
   XY=    55.6135   YY=    25.1843   ZY=   -14.2643
   XZ=   -45.7255   YZ=   -17.1625   ZZ=   129.9171
   Eigenvalues:   -48.3147    47.9237   154.9793
     36  H    Isotropic =    23.8384   Anisotropy =     7.3073
   XX=    24.2302   YX=     1.4459   ZX=     2.1759
   XY=     1.2147   YY=    27.1572   ZY=     2.0665
   XZ=     1.6853   YZ=     2.7775   ZZ=    20.1277
   Eigenvalues:    18.9464    23.8588    28.7099
     37  Bq   Isotropic =    19.9846   Anisotropy =    18.0826
   XX=    16.8581   YX=     3.0524   ZX=    -0.0329
   XY=     3.6947   YY=    13.8351   ZY=     8.8542
   XZ=    -7.9506   YZ=     3.9087   ZZ=    29.2606
   Eigenvalues:     8.8716    19.0425    32.0397
     38  Bq   Isotropic =    15.1575   Anisotropy =    24.0236
   XX=     9.1670   YX=    -0.9020   ZX=    -0.8616
   XY=     0.4558   YY=     8.5986   ZY=     6.0045
   XZ=    -4.8781   YZ=    10.6458   ZZ=    27.7070
   Eigenvalues:     5.3019     8.9975    31.1733
     39  Bq   Isotropic =    20.1867   Anisotropy =    17.7816
   XX=    17.2207   YX=     3.7247   ZX=    -0.3218
   XY=     5.0593   YY=    14.1272   ZY=     8.5248
   XZ=    -6.9031   YZ=     4.9946   ZZ=    29.2122
   Eigenvalues:     8.2490    20.2700    32.0411
     40  Bq   Isotropic =    13.8429   Anisotropy =    24.8366
   XX=     7.3938   YX=    -1.2223   ZX=    -1.1143
   XY=     0.4253   YY=     7.4061   ZY=     5.5514
   XZ=    -4.1398   YZ=    11.9658   ZZ=    26.7287
   Eigenvalues:     3.9244     7.2036    30.4006
     41  Bq   Isotropic =    20.3592   Anisotropy =    18.3135
   XX=    17.2559   YX=     4.0150   ZX=    -0.7448
   XY=     6.3851   YY=    14.3541   ZY=     7.5359
   XZ=    -4.8229   YZ=     7.4200   ZZ=    29.4676
   Eigenvalues:     7.6788    20.8306    32.5682
     42  Bq   Isotropic =    12.6072   Anisotropy =    25.2970
   XX=     5.8266   YX=    -1.3886   ZX=    -1.3070
   XY=     0.4749   YY=     6.3674   ZY=     5.2237
   XZ=    -3.5590   YZ=    12.9036   ZZ=    25.6276
   Eigenvalues:     2.6962     5.6535    29.4719
     43  Bq   Isotropic =    20.7161   Anisotropy =    19.7723
   XX=    17.1990   YX=     3.8443   ZX=    -1.1739
   XY=     7.3696   YY=    14.7508   ZY=     6.0324
   XZ=    -1.9152   YZ=    10.6761   ZZ=    30.1985
   Eigenvalues:     7.6264    20.6243    33.8977
     44  Bq   Isotropic =    18.7925   Anisotropy =    20.1663
   XX=    14.6714   YX=     1.1897   ZX=    -0.0417
   XY=     1.5958   YY=    12.3683   ZY=     8.0207
   XZ=    -7.5508   YZ=     5.3978   ZZ=    29.3378
   Eigenvalues:     8.8248    15.3160    32.2367
     45  Bq   Isotropic =    19.7801   Anisotropy =    23.8120
   XX=    15.3548   YX=     0.7161   ZX=    -0.5752
   XY=     1.7305   YY=    12.0482   ZY=     8.9431
   XZ=    -6.4701   YZ=     8.5811   ZZ=    31.9371
   Eigenvalues:     7.9368    15.7486    35.6547
     46  Bq   Isotropic =    22.4588   Anisotropy =    22.8259
   XX=    19.5017   YX=     3.4202   ZX=    -0.8956
   XY=     4.3778   YY=    13.8729   ZY=    11.5301
   XZ=    -8.8035   YZ=     5.3384   ZZ=    34.0017
   Eigenvalues:     8.2145    21.4858    37.6761
     47  Bq   Isotropic =    18.0568   Anisotropy =    24.6224
   XX=    12.9094   YX=    -0.2518   ZX=    -0.6221
   XY=     1.0315   YY=    10.6311   ZY=     7.7313
   XZ=    -5.2621   YZ=    10.4856   ZZ=    30.6299
   Eigenvalues:     6.7600    12.9386    34.4717
     48  Bq   Isotropic =    23.1486   Anisotropy =    23.0484
   XX=    20.7039   YX=     4.9113   ZX=    -1.2851
   XY=     6.3718   YY=    13.9254   ZY=    12.3216
   XZ=    -9.2553   YZ=     4.9822   ZZ=    34.8165
   Eigenvalues:     7.0413    23.8903    38.5142
     49  Bq   Isotropic =    16.2969   Anisotropy =    25.3391
   XX=    10.5339   YX=    -0.9266   ZX=    -0.7413
   XY=     0.6357   YY=     9.1672   ZY=     6.7459
   XZ=    -4.2539   YZ=    12.1402   ZZ=    29.1895
   Eigenvalues:     5.2934    10.4076    33.1896
     50  Bq   Isotropic =    23.4324   Anisotropy =    23.8073
   XX=    21.1745   YX=     6.2079   ZX=    -1.7320
   XY=     8.6438   YY=    13.4734   ZY=    12.2422
   XZ=    -8.6612   YZ=     6.0634   ZZ=    35.6492
   Eigenvalues:     5.3104    25.6828    39.3039
     51  Bq   Isotropic =    14.6204   Anisotropy =    25.8191
   XX=     8.3797   YX=    -1.3432   ZX=    -0.8850
   XY=     0.4520   YY=     7.8051   ZY=     5.9997
   XZ=    -3.4853   YZ=    13.4062   ZZ=    27.6763
   Eigenvalues:     3.8146     8.2134    31.8331
     52  Bq   Isotropic =    23.5537   Anisotropy =    25.0704
   XX=    21.0752   YX=     7.0631   ZX=    -2.0811
   XY=    10.8422   YY=    12.9233   ZY=    11.0139
   XZ=    -6.7591   YZ=     8.5929   ZZ=    36.6625
   Eigenvalues:     3.7174    26.6764    40.2673
     53  Bq   Isotropic =    13.0961   Anisotropy =    26.0049
   XX=     6.5219   YX=    -1.5572   ZX=    -1.0204
   XY=     0.4040   YY=     6.6208   ZY=     5.4618
   XZ=    -2.9402   YZ=    14.2541   ZZ=    26.1455
   Eigenvalues:     2.4956     6.3599    30.4327
     54  Bq   Isotropic =    23.8290   Anisotropy =    26.7449
   XX=    20.7523   YX=     7.2901   ZX=    -2.1788
   XY=    12.4641   YY=    12.8141   ZY=     8.7319
   XZ=    -3.6878   YZ=    11.9770   ZZ=    37.9206
   Eigenvalues:     3.0975    26.7305    41.6589
     55  Bq   Isotropic =    21.3034   Anisotropy =    23.1316
   XX=    17.6421   YX=     1.9669   ZX=    -0.6543
   XY=     2.8249   YY=    13.2046   ZY=    10.2840
   XZ=    -7.7411   YZ=     6.7157   ZZ=    33.0634
   Eigenvalues:     8.5038    18.6818    36.7245
     56  Bq   Isotropic =    21.5748   Anisotropy =    25.7281
   XX=    17.6585   YX=     0.9277   ZX=    -0.9940
   XY=     2.4314   YY=    13.1857   ZY=    10.7601
   XZ=    -6.0103   YZ=    10.6163   ZZ=    33.8802
   Eigenvalues:     7.7787    18.2188    38.7269
     57  Bq   Isotropic =    24.9931   Anisotropy =    26.4964
   XX=    22.7155   YX=     4.3345   ZX=    -2.2209
   XY=     6.1928   YY=    14.7262   ZY=    14.8696
   XZ=    -9.3851   YZ=     7.2794   ZZ=    37.5377
   Eigenvalues:     6.9965    25.3255    42.6574
     58  Bq   Isotropic =    19.4067   Anisotropy =    26.0333
   XX=    14.6825   YX=    -0.2244   ZX=    -0.7238
   XY=     1.4245   YY=    11.6059   ZY=     8.9858
   XZ=    -4.5603   YZ=    12.4640   ZZ=    31.9319
   Eigenvalues:     6.6695    14.7884    36.7623
     59  Bq   Isotropic =    25.7796   Anisotropy =    28.0775
   XX=    24.0034   YX=     6.3671   ZX=    -3.0607
   XY=     9.0686   YY=    14.0721   ZY=    16.4099
   XZ=   -10.5522   YZ=     6.8104   ZZ=    39.2632
   Eigenvalues:     4.6339    28.2069    44.4979
     60  Bq   Isotropic =    17.2429   Anisotropy =    26.3773
   XX=    11.8416   YX=    -1.0066   ZX=    -0.6291
   XY=     0.8254   YY=     9.9255   ZY=     7.5822
   XZ=    -3.4590   YZ=    14.0026   ZZ=    29.9617
   Eigenvalues:     5.1363    11.7647    34.8278
     61  Bq   Isotropic =    25.8947   Anisotropy =    30.3321
   XX=    24.1482   YX=     8.2935   ZX=    -3.7586
   XY=    12.4049   YY=    12.5124   ZY=    16.7468
   XZ=   -10.6021   YZ=     7.7810   ZZ=    41.0236
   Eigenvalues:     1.3654    30.2027    46.1161
     62  Bq   Isotropic =    15.2300   Anisotropy =    26.5650
   XX=     9.3135   YX=    -1.4785   ZX=    -0.6441
   XY=     0.5091   YY=     8.3521   ZY=     6.5345
   XZ=    -2.6983   YZ=    15.1144   ZZ=    28.0243
   Eigenvalues:     3.5527     9.1973    32.9400
     63  Bq   Isotropic =    25.6620   Anisotropy =    32.8080
   XX=    23.3753   YX=     9.7764   ZX=    -3.9855
   XY=    15.6825   YY=    10.7189   ZY=    15.3035
   XZ=    -9.0526   YZ=    10.1999   ZZ=    42.8919
   Eigenvalues:    -1.7376    31.1897    47.5340
     64  Bq   Isotropic =    13.4418   Anisotropy =    26.5124
   XX=     7.1721   YX=    -1.7146   ZX=    -0.7142
   XY=     0.3757   YY=     6.9888   ZY=     5.7823
   XZ=    -2.2201   YZ=    15.7899   ZZ=    26.1645
   Eigenvalues:     2.1452     7.0635    31.1168
     65  Bq   Isotropic =    25.6062   Anisotropy =    34.9694
   XX=    22.3141   YX=    10.5003   ZX=    -3.5170
   XY=    18.1091   YY=     9.7145   ZY=    12.0489
   XZ=    -5.8995   YZ=    13.3976   ZZ=    44.7898
   Eigenvalues:    -3.2767    31.1761    48.9191
     66  Bq   Isotropic =    23.5244   Anisotropy =    25.7697
   XX=    20.4695   YX=     2.4668   ZX=    -1.4938
   XY=     3.9836   YY=    14.3481   ZY=    12.8139
   XZ=    -7.7101   YZ=     8.7361   ZZ=    35.7557
   Eigenvalues:     8.0140    21.8551    40.7042
     67  Bq   Isotropic =    22.8753   Anisotropy =    27.0017
   XX=    19.5060   YX=     0.8675   ZX=    -1.4582
   XY=     2.9545   YY=    14.6824   ZY=    12.3699
   XZ=    -5.2116   YZ=    13.0472   ZZ=    34.4375
   Eigenvalues:     7.6032    20.1463    40.8764
     68  Bq   Isotropic =    26.7280   Anisotropy =    29.3146
   XX=    24.9220   YX=     4.6482   ZX=    -3.8433
   XY=     7.6263   YY=    16.1123   ZY=    17.9894
   XZ=    -9.5487   YZ=     9.7414   ZZ=    39.1496
   Eigenvalues:     5.8466    28.0663    46.2710
     69  Bq   Isotropic =    20.3533   Anisotropy =    26.9243
   XX=    16.1284   YX=    -0.3506   ZX=    -0.8216
   XY=     1.7250   YY=    12.8443   ZY=    10.0948
   XZ=    -3.6029   YZ=    14.7402   ZZ=    32.0871
   Eigenvalues:     6.4918    16.2651    38.3028
     70  Bq   Isotropic =    27.3179   Anisotropy =    32.3052
   XX=    25.7294   YX=     7.0482   ZX=    -5.3271
   XY=    11.3280   YY=    14.7031   ZY=    20.3887
   XZ=   -11.5122   YZ=     9.1212   ZZ=    41.5212
   Eigenvalues:     2.1676    30.9313    48.8547
     71  Bq   Isotropic =    17.8611   Anisotropy =    26.9972
   XX=    12.9105   YX=    -1.1574   ZX=    -0.4937
   XY=     0.9836   YY=    10.8763   ZY=     8.3352
   XZ=    -2.4850   YZ=    16.0707   ZZ=    29.7964
   Eigenvalues:     4.8543    12.8697    35.8592
     72  Bq   Isotropic =    26.8338   Anisotropy =    36.3056
   XX=    24.7208   YX=     9.4650   ZX=    -6.4343
   XY=    15.7588   YY=    11.7949   ZY=    21.3134
   XZ=   -12.3905   YZ=     9.8304   ZZ=    43.9858
   Eigenvalues:    -2.9650    32.4290    51.0376
     73  Bq   Isotropic =    15.5762   Anisotropy =    26.9733
   XX=    10.0721   YX=    -1.6315   ZX=    -0.3764
   XY=     0.5738   YY=     9.0427   ZY=     7.0365
   XZ=    -1.7915   YZ=    16.9513   ZZ=    27.6138
   Eigenvalues:     3.1600    10.0102    33.5584
     74  Bq   Isotropic =    25.7303   Anisotropy =    40.3863
   XX=    22.2913   YX=    11.4981   ZX=    -6.5381
   XY=    20.2249   YY=     8.3440   ZY=    19.7861
   XZ=   -11.4282   YZ=    11.8674   ZZ=    46.5556
   Eigenvalues:    -8.0539    32.5903    52.6545
     75  Bq   Isotropic =    13.5782   Anisotropy =    26.7463
   XX=     7.6935   YX=    -1.8589   ZX=    -0.3842
   XY=     0.3774   YY=     7.4667   ZY=     6.1060
   XZ=    -1.4218   YZ=    17.3951   ZZ=    25.5743
   Eigenvalues:     1.6746     7.6508    31.4090
     76  Bq   Isotropic =    24.9137   Anisotropy =    43.3286
   XX=    19.6753   YX=    12.7148   ZX=    -5.2524
   XY=    23.5461   YY=     6.0410   ZY=    15.5357
   XZ=    -8.3722   YZ=    14.5232   ZZ=    49.0247
   Eigenvalues:   -10.9231    31.8646    53.7994
     77  Bq   Isotropic =    25.1301   Anisotropy =    27.6375
   XX=    22.6351   YX=     2.5422   ZX=    -2.4756
   XY=     4.8608   YY=    15.9561   ZY=    15.1002
   XZ=    -7.2735   YZ=    11.2364   ZZ=    36.7990
   Eigenvalues:     7.5791    24.2560    43.5551
     78  Bq   Isotropic =    23.4709   Anisotropy =    27.3852
   XX=    20.5848   YX=     0.5049   ZX=    -1.8656
   XY=     3.1890   YY=    16.4864   ZY=    13.2730
   XZ=    -4.0089   YZ=    15.5308   ZZ=    33.3416
   Eigenvalues:     7.5057    21.1793    41.7277
     79  Bq   Isotropic =    27.3212   Anisotropy =    30.5657
   XX=    25.5600   YX=     4.1535   ZX=    -5.5635
   XY=     8.2959   YY=    18.1672   ZY=    19.8834
   XZ=    -8.9941   YZ=    12.2365   ZZ=    38.2366
   Eigenvalues:     5.2478    29.0175    47.6984
     80  Bq   Isotropic =    20.7420   Anisotropy =    27.1462
   XX=    17.0231   YX=    -0.6325   ZX=    -0.8559
   XY=     1.8766   YY=    14.2809   ZY=    10.7264
   XZ=    -2.3852   YZ=    17.0319   ZZ=    30.9219
   Eigenvalues:     6.2520    17.1344    38.8395
     81  Bq   Isotropic =    27.3487   Anisotropy =    34.6229
   XX=    25.1435   YX=     6.5563   ZX=    -7.8656
   XY=    12.5150   YY=    16.1778   ZY=    22.9913
   XZ=   -11.6800   YZ=    11.3429   ZZ=    40.7249
   Eigenvalues:     0.4503    31.1653    50.4307
     82  Bq   Isotropic =    18.0425   Anisotropy =    27.1031
   XX=    13.5838   YX=    -1.3704   ZX=    -0.3059
   XY=     1.0816   YY=    11.9609   ZY=     8.7863
   XZ=    -1.3578   YZ=    18.1151   ZZ=    28.5829
   Eigenvalues:     4.4521    13.5641    36.1113
     83  Bq   Isotropic =    25.7369   Anisotropy =    40.1964
   XX=    21.9089   YX=     9.0503   ZX=    -9.5593
   XY=    17.7516   YY=    11.9639   ZY=    24.5365
   XZ=   -13.4414   YZ=    11.5510   ZZ=    43.3381
   Eigenvalues:    -6.5274    31.2037    52.5346
     84  Bq   Isotropic =    15.5849   Anisotropy =    26.9788
   XX=    10.5482   YX=    -1.7914   ZX=    -0.0720
   XY=     0.6306   YY=     9.8313   ZY=     7.3613
   XZ=    -0.8033   YZ=    18.7331   ZZ=    26.3751
   Eigenvalues:     2.6436    10.5403    33.5707
     85  Bq   Isotropic =    23.1016   Anisotropy =    45.9355
   XX=    16.5318   YX=    11.2249   ZX=    -9.5743
   XY=    23.1736   YY=     6.6922   ZY=    23.1378
   XZ=   -13.2527   YZ=    12.8634   ZZ=    46.0808
   Eigenvalues:   -13.8201    29.3996    53.7252
     86  Bq   Isotropic =    13.4562   Anisotropy =    26.6602
   XX=     8.0141   YX=    -1.9807   ZX=    -0.0316
   XY=     0.3999   YY=     8.0222   ZY=     6.3363
   XZ=    -0.5849   YZ=    18.9242   ZZ=    24.3324
   Eigenvalues:     1.0997     8.0393    31.2297
     87  Bq   Isotropic =    20.9434   Anisotropy =    49.8029
   XX=    11.2939   YX=    12.6347   ZX=    -7.2393
   XY=    27.1750   YY=     2.8226   ZY=    18.1988
   XZ=   -10.5497   YZ=    14.6301   ZZ=    48.7136
   Eigenvalues:   -18.3358    27.0206    54.1453
     88  Bq   Isotropic =    25.8457   Anisotropy =    28.3102
   XX=    23.7152   YX=     2.1005   ZX=    -3.4465
   XY=     5.2449   YY=    18.0335   ZY=    16.4130
   XZ=    -6.2678   YZ=    13.8049   ZZ=    35.7883
   Eigenvalues:     7.4414    25.3765    44.7191
     89  Bq   Isotropic =    23.2396   Anisotropy =    26.7316
   XX=    20.7355   YX=    -0.1302   ZX=    -2.0923
   XY=     3.0672   YY=    18.3511   ZY=    13.0039
   XZ=    -2.4146   YZ=    17.6579   ZZ=    30.6323
   Eigenvalues:     7.5109    21.1474    41.0607
     90  Bq   Isotropic =    26.6456   Anisotropy =    29.6484
   XX=    24.5348   YX=     2.7482   ZX=    -7.0213
   XY=     7.8381   YY=    20.6456   ZY=    19.4615
   XZ=    -7.4678   YZ=    14.1522   ZZ=    34.7565
   Eigenvalues:     5.6685    27.8572    46.4112
     91  Bq   Isotropic =    20.4828   Anisotropy =    26.6258
   XX=    17.2364   YX=    -1.0350   ZX=    -0.7679
   XY=     1.8524   YY=    15.7267   ZY=    10.5835
   XZ=    -0.9608   YZ=    19.0148   ZZ=    28.4852
   Eigenvalues:     5.9314    17.2836    38.2333
     92  Bq   Isotropic =    25.8252   Anisotropy =    33.9354
   XX=    22.3279   YX=     4.5871   ZX=   -10.1676
   XY=    11.9000   YY=    18.4277   ZY=    22.6957
   XZ=   -10.5368   YZ=    12.7594   ZZ=    36.7199
   Eigenvalues:     0.4300    28.5967    48.4488
     93  Bq   Isotropic =    17.7263   Anisotropy =    26.6560
   XX=    13.7645   YX=    -1.6165   ZX=    -0.0445
   XY=     1.1074   YY=    13.0437   ZY=     8.7427
   XZ=    -0.1428   YZ=    19.8822   ZZ=    26.3707
   Eigenvalues:     3.9168    13.7651    35.4970
     94  Bq   Isotropic =    22.6980   Anisotropy =    40.2591
   XX=    16.0849   YX=     6.3981   ZX=   -12.5042
   XY=    17.0819   YY=    13.2876   ZY=    24.5293
   XZ=   -12.8968   YZ=    12.1404   ZZ=    38.7214
   Eigenvalues:    -7.7379    26.2945    49.5374
     95  Bq   Isotropic =    15.2174   Anisotropy =    26.5584
   XX=    10.6732   YX=    -1.9378   ZX=     0.2704
   XY=     0.6726   YY=    10.6246   ZY=     7.3801
   XZ=     0.2045   YZ=    20.2634   ZZ=    24.3544
   Eigenvalues:     2.0061    10.7231    32.9230
     96  Bq   Isotropic =    18.0115   Anisotropy =    47.0507
   XX=     6.8221   YX=     7.8236   ZX=   -12.4134
   XY=    22.5042   YY=     6.4333   ZY=    23.4011
   XZ=   -13.3575   YZ=    12.3423   ZZ=    40.7793
   Eigenvalues:   -16.8103    21.4662    49.3787
     97  Bq   Isotropic =    13.0531   Anisotropy =    26.2391
   XX=     8.0869   YX=    -2.0669   ZX=     0.3356
   XY=     0.4374   YY=     8.5927   ZY=     6.3847
   XZ=     0.2369   YZ=    20.2263   ZZ=    22.4796
   Eigenvalues:     0.4345     8.1788    30.5458
     98  Bq   Isotropic =    14.0040   Anisotropy =    51.5691
   XX=    -1.7634   YX=     8.6493   ZX=    -8.8850
   XY=    26.2998   YY=     1.0185   ZY=    18.4933
   XZ=   -11.1915   YZ=    12.9398   ZZ=    42.7570
   Eigenvalues:   -22.9003    16.5289    48.3834
     99  Bq   Isotropic =    25.5281   Anisotropy =    27.4858
   XX=    23.5487   YX=     1.1368   ZX=    -4.1817
   XY=     4.9721   YY=    20.2979   ZY=    16.0272
   XZ=    -4.6113   YZ=    15.9349   ZZ=    32.7377
   Eigenvalues:     7.7722    24.9601    43.8520
    100  Bq   Isotropic =    22.1884   Anisotropy =    25.0548
   XX=    20.0052   YX=    -0.9392   ZX=    -2.0222
   XY=     2.5977   YY=    19.8581   ZY=    11.3561
   XZ=    -0.5446   YZ=    19.0824   ZZ=    26.7019
   Eigenvalues:     7.5126    20.1610    38.8916
    101  Bq   Isotropic =    24.8661   Anisotropy =    26.4020
   XX=    22.3489   YX=     0.5696   ZX=    -7.7567
   XY=     6.1058   YY=    22.8248   ZY=    16.1293
   XZ=    -4.9154   YZ=    15.0165   ZZ=    29.4246
   Eigenvalues:     7.2854    24.8455    42.4674
    102  Bq   Isotropic =    19.5759   Anisotropy =    25.3885
   XX=    16.7665   YX=    -1.4904   ZX=    -0.5147
   XY=     1.6644   YY=    16.8944   ZY=     9.5350
   XZ=     0.5546   YZ=    20.4114   ZZ=    25.0668
   Eigenvalues:     5.4596    16.7665    36.5016
    103  Bq   Isotropic =    23.1781   Anisotropy =    29.7622
   XX=    18.4280   YX=     1.2398   ZX=   -11.4904
   XY=     9.0401   YY=    20.6764   ZY=    18.5326
   XZ=    -7.7668   YZ=    12.8847   ZZ=    30.4300
   Eigenvalues:     2.7060    23.8088    43.0196
    104  Bq   Isotropic =    16.9153   Anisotropy =    25.6815
   XX=    13.4375   YX=    -1.8534   ZX=     0.2970
   XY=     1.0675   YY=    13.9328   ZY=     8.1136
   XZ=     1.0620   YZ=    21.1553   ZZ=    23.3756
   Eigenvalues:     3.2265    13.4830    34.0363
    105  Bq   Isotropic =    18.6203   Anisotropy =    35.4595
   XX=     9.4843   YX=     1.5019   ZX=   -14.2430
   XY=    12.7422   YY=    15.1222   ZY=    19.9043
   XZ=   -10.0208   YZ=    11.1918   ZZ=    31.2545
   Eigenvalues:    -5.3727    18.9737    42.2600
    106  Bq   Isotropic =    14.4798   Anisotropy =    25.7341
   XX=    10.4309   YX=    -2.0464   ZX=     0.6416
   XY=     0.7001   YY=    11.2952   ZY=     7.0252
   XZ=     1.1543   YZ=    21.3758   ZZ=    21.7133
   Eigenvalues:     1.2546    10.5490    31.6358
    107  Bq   Isotropic =    12.0024   Anisotropy =    42.0357
   XX=    -3.1206   YX=     1.1393   ZX=   -13.9041
   XY=    16.4257   YY=     7.2444   ZY=    18.9888
   XZ=   -10.5043   YZ=    10.0949   ZZ=    31.8834
   Eigenvalues:   -15.1182    11.0992    40.0262
    108  Bq   Isotropic =    12.3766   Anisotropy =    25.5005
   XX=     7.8985   YX=    -2.1051   ZX=     0.7026
   XY=     0.4863   YY=     9.0938   ZY=     6.1981
   XZ=     0.9848   YZ=    21.1747   ZZ=    20.1376
   Eigenvalues:    -0.3020     8.0549    29.3769
    109  Bq   Isotropic =     6.1983   Anisotropy =    46.4654
   XX=   -14.3723   YX=     0.4683   ZX=    -9.2663
   XY=    18.4508   YY=     0.6215   ZY=    15.1176
   XZ=    -8.7426   YZ=     9.4841   ZZ=    32.3456
   Eigenvalues:   -22.3731     3.7927    37.1752
    110  Bq   Isotropic =    24.2237   Anisotropy =    25.1351
   XX=    22.3184   YX=    -0.2216   ZX=    -4.4325
   XY=     4.0154   YY=    22.1723   ZY=    13.5954
   XZ=    -2.3770   YZ=    17.2108   ZZ=    28.1805
   Eigenvalues:     8.5240    23.1667    40.9805
    111  Bq   Isotropic =    20.4618   Anisotropy =    22.5668
   XX=    18.6188   YX=    -1.7643   ZX=    -1.5941
   XY=     1.8873   YY=    20.5674   ZY=     8.5486
   XZ=     1.3883   YZ=    19.6503   ZZ=    22.1991
   Eigenvalues:     7.2591    18.6199    35.5063
    112  Bq   Isotropic =    22.3955   Anisotropy =    21.3971
   XX=    19.8752   YX=    -1.9212   ZX=    -7.4152
   XY=     3.4013   YY=    23.7808   ZY=    10.3703
   XZ=    -1.6347   YZ=    14.7676   ZZ=    23.5305
   Eigenvalues:     9.6802    20.8461    36.6602
    113  Bq   Isotropic =    18.1187   Anisotropy =    23.5718
   XX=    15.7321   YX=    -1.9114   ZX=    -0.0868
   XY=     1.3666   YY=    17.4935   ZY=     7.7042
   XZ=     2.0029   YZ=    21.0773   ZZ=    21.1304
   Eigenvalues:     4.7428    15.7800    33.8332
    114  Bq   Isotropic =    20.1680   Anisotropy =    22.9216
   XX=    15.1435   YX=    -2.7263   ZX=   -11.2107
   XY=     4.3579   YY=    21.7088   ZY=    11.0813
   XZ=    -3.6589   YZ=    11.8229   ZZ=    23.6518
   Eigenvalues:     6.8851    18.1698    35.4491
    115  Bq   Isotropic =    15.6789   Anisotropy =    24.2725
   XX=    12.6675   YX=    -2.0359   ZX=     0.7066
   XY=     0.9851   YY=    14.4368   ZY=     6.9590
   XZ=     2.1445   YZ=    21.8119   ZZ=    19.9322
   Eigenvalues:     2.3711    12.8049    31.8605
    116  Bq   Isotropic =    14.8896   Anisotropy =    26.7436
   XX=     5.2128   YX=    -4.4074   ZX=   -13.9157
   XY=     5.2452   YY=    16.0793   ZY=    11.2504
   XZ=    -5.0577   YZ=     9.1347   ZZ=    23.3766
   Eigenvalues:    -0.2857    12.2357    32.7187
    117  Bq   Isotropic =    13.4232   Anisotropy =    24.5708
   XX=     9.8576   YX=    -2.0961   ZX=     1.0228
   XY=     0.7194   YY=    11.7160   ZY=     6.3184
   XZ=     1.9686   YZ=    21.9717   ZZ=    18.6959
   Eigenvalues:     0.4094    10.0565    29.8037
    118  Bq   Isotropic =     7.3760   Anisotropy =    31.9114
   XX=    -8.3278   YX=    -6.8877   ZX=   -13.2421
   XY=     5.5456   YY=     7.8491   ZY=    10.4393
   XZ=    -4.8673   YZ=     7.0700   ZZ=    22.6067
   Eigenvalues:   -10.9448     4.4224    28.6503
    119  Bq   Isotropic =    11.4653   Anisotropy =    24.4911
   XX=     7.4696   YX=    -2.0873   ZX=     1.0505
   XY=     0.5441   YY=     9.4400   ZY=     5.7772
   XZ=     1.6053   YZ=    21.6921   ZZ=    17.4863
   Eigenvalues:    -1.0826     7.6858    27.7927
    120  Bq   Isotropic =     0.7085   Anisotropy =    35.7037
   XX=   -20.0232   YX=    -9.1814   ZX=    -8.0313
   XY=     4.4904   YY=     0.6584   ZY=     8.5232
   XZ=    -3.1550   YZ=     5.7211   ZZ=    21.4903
   Eigenvalues:   -20.8591    -1.5264    24.5110
    121  Bq   Isotropic =    22.1670   Anisotropy =    21.6039
   XX=    20.4646   YX=    -1.7006   ZX=    -4.0321
   XY=     2.5644   YY=    23.0055   ZY=     9.4640
   XZ=     0.1693   YZ=    17.4980   ZZ=    23.0309
   Eigenvalues:     9.2866    20.6449    36.5696
    122  Bq   Isotropic =    18.3053   Anisotropy =    19.6485
   XX=    16.8771   YX=    -2.4300   ZX=    -0.8431
   XY=     1.1194   YY=    20.2321   ZY=     5.1910
   XZ=     3.1280   YZ=    19.4488   ZZ=    17.8066
   Eigenvalues:     6.4807    17.0309    31.4043
    123  Bq   Isotropic =    19.7337   Anisotropy =    15.8963
   XX=    17.8582   YX=    -4.0748   ZX=    -5.9842
   XY=     0.4792   YY=    22.9843   ZY=     3.7406
   XZ=     1.7566   YZ=    13.7962   ZZ=    18.3585
   Eigenvalues:    11.5467    17.3232    30.3312
    124  Bq   Isotropic =    16.2841   Anisotropy =    21.4101
   XX=    14.3235   YX=    -2.2135   ZX=     0.4796
   XY=     1.0417   YY=    17.3530   ZY=     5.4475
   XZ=     3.2240   YZ=    21.0399   ZZ=    17.1758
   Eigenvalues:     3.7380    14.5568    30.5575
    125  Bq   Isotropic =    17.5197   Anisotropy =    15.7125
[...]
   140  Bq   0.000000
   141  Bq   0.000000
   142  Bq   0.000000
   143  Bq   0.000000
   144  Bq   0.000000
   145  Bq   0.000000
   146  Bq   0.000000
   147  Bq   0.000000
   148  Bq   0.000000
   149  Bq   0.000000
   150  Bq   0.000000
   151  Bq   0.000000
   152  Bq   0.000000
   153  Bq   0.000000
   154  Bq   0.000000
   155  Bq   0.000000
   156  Bq   0.000000
   157  Bq   0.000000
   158  Bq   0.000000
   159  Bq   0.000000
   160  Bq   0.000000
   161  Bq   0.000000
   162  Bq   0.000000
   163  Bq   0.000000
   164  Bq   0.000000
   165  Bq   0.000000
   166  Bq   0.000000
   167  Bq   0.000000
   168  Bq   0.000000
   169  Bq   0.000000
   170  Bq   0.000000
   171  Bq   0.000000
   172  Bq   0.000000
   173  Bq   0.000000
   174  Bq   0.000000
   175  Bq   0.000000
   176  Bq   0.000000
   177  Bq   0.000000
   178  Bq   0.000000
   179  Bq   0.000000
   180  Bq   0.000000
   181  Bq   0.000000
   182  Bq   0.000000
   183  Bq   0.000000
   184  Bq   0.000000
   185  Bq   0.000000
   186  Bq   0.000000
   187  Bq   0.000000
   188  Bq   0.000000
   189  Bq   0.000000
   190  Bq   0.000000
   191  Bq   0.000000
   192  Bq   0.000000
   193  Bq   0.000000
   194  Bq   0.000000
   195  Bq   0.000000
   196  Bq   0.000000
   197  Bq   0.000000
   198  Bq   0.000000
   199  Bq   0.000000
   200  Bq   0.000000
   201  Bq   0.000000
   202  Bq   0.000000
   203  Bq   0.000000
   204  Bq   0.000000
   205  Bq   0.000000
   206  Bq   0.000000
   207  Bq   0.000000
   208  Bq   0.000000
   209  Bq   0.000000
   210  Bq   0.000000
   211  Bq   0.000000
   212  Bq   0.000000
   213  Bq   0.000000
   214  Bq   0.000000
   215  Bq   0.000000
   216  Bq   0.000000
   217  Bq   0.000000
   218  Bq   0.000000
   219  Bq   0.000000
   220  Bq   0.000000
   221  Bq   0.000000
   222  Bq   0.000000
   223  Bq   0.000000
   224  Bq   0.000000
   225  Bq   0.000000
   226  Bq   0.000000
   227  Bq   0.000000
   228  Bq   0.000000
   229  Bq   0.000000
   230  Bq   0.000000
   231  Bq   0.000000
   232  Bq   0.000000
   233  Bq   0.000000
   234  Bq   0.000000
   235  Bq   0.000000
   236  Bq   0.000000
 Sum of Mulliken charges =   0.00000
 Mulliken charges with hydrogens summed into heavy atoms:
               1
     1  C   -0.255498
     3  C    0.169409
     5  C    0.448258
     6  C    0.064351
     7  C   -0.333926
     9  C   -0.139521
    11  C   -0.205988
    13  C   -0.235853
    15  C    0.653397
    16  C    0.034822
    17  C   -0.317410
    19  C   -0.316854
    21  C    0.651066
    22  C    0.037784
    23  C   -0.117289
    25  C   -0.205316
    27  C    0.448331
    28  C    0.061983
    29  C   -0.333381
    31  C   -0.139505
    33  C   -0.255977
    35  C    0.170579
    37  Bq   0.000000
    38  Bq   0.000000
    39  Bq   0.000000
    40  Bq   0.000000
    41  Bq   0.000000
    42  Bq   0.000000
    43  Bq   0.000000
    44  Bq   0.000000
    45  Bq   0.000000
    46  Bq   0.000000
    47  Bq   0.000000
    48  Bq   0.000000
    49  Bq   0.000000
    50  Bq   0.000000
    51  Bq   0.000000
    52  Bq   0.000000
    53  Bq   0.000000
    54  Bq   0.000000
    55  Bq   0.000000
    56  Bq   0.000000
    57  Bq   0.000000
    58  Bq   0.000000
    59  Bq   0.000000
    60  Bq   0.000000
    61  Bq   0.000000
    62  Bq   0.000000
    63  Bq   0.000000
    64  Bq   0.000000
    65  Bq   0.000000
    66  Bq   0.000000
    67  Bq   0.000000
    68  Bq   0.000000
    69  Bq   0.000000
    70  Bq   0.000000
    71  Bq   0.000000
    72  Bq   0.000000
    73  Bq   0.000000
    74  Bq   0.000000
    75  Bq   0.000000
    76  Bq   0.000000
    77  Bq   0.000000
    78  Bq   0.000000
    79  Bq   0.000000
    80  Bq   0.000000
    81  Bq   0.000000
    82  Bq   0.000000
    83  Bq   0.000000
    84  Bq   0.000000
    85  Bq   0.000000
    86  Bq   0.000000
    87  Bq   0.000000
    88  Bq   0.000000
    89  Bq   0.000000
    90  Bq   0.000000
    91  Bq   0.000000
    92  Bq   0.000000
    93  Bq   0.000000
    94  Bq   0.000000
    95  Bq   0.000000
    96  Bq   0.000000
    97  Bq   0.000000
    98  Bq   0.000000
    99  Bq   0.000000
   100  Bq   0.000000
   101  Bq   0.000000
   102  Bq   0.000000
   103  Bq   0.000000
   104  Bq   0.000000
   105  Bq   0.000000
   106  Bq   0.000000
   107  Bq   0.000000
   108  Bq   0.000000
   109  Bq   0.000000
   110  Bq   0.000000
   111  Bq   0.000000
   112  Bq   0.000000
   113  Bq   0.000000
   114  Bq   0.000000
   115  Bq   0.000000
   116  Bq   0.000000
   117  Bq   0.000000
   118  Bq   0.000000
   119  Bq   0.000000
   120  Bq   0.000000
   121  Bq   0.000000
   122  Bq   0.000000
   123  Bq   0.000000
   124  Bq   0.000000
   125  Bq   0.000000
   126  Bq   0.000000
   127  Bq   0.000000
   128  Bq   0.000000
   129  Bq   0.000000
   130  Bq   0.000000
   131  Bq   0.000000
   132  Bq   0.000000
   133  Bq   0.000000
   134  Bq   0.000000
   135  Bq   0.000000
   136  Bq   0.000000
   137  Bq   0.000000
   138  Bq   0.000000
   139  Bq   0.000000
   140  Bq   0.000000
   141  Bq   0.000000
   142  Bq   0.000000
   143  Bq   0.000000
   144  Bq   0.000000
   145  Bq   0.000000
   146  Bq   0.000000
   147  Bq   0.000000
   148  Bq   0.000000
   149  Bq   0.000000
   150  Bq   0.000000
   151  Bq   0.000000
   152  Bq   0.000000
   153  Bq   0.000000
   154  Bq   0.000000
   155  Bq   0.000000
   156  Bq   0.000000
   157  Bq   0.000000
   158  Bq   0.000000
   159  Bq   0.000000
   160  Bq   0.000000
   161  Bq   0.000000
   162  Bq   0.000000
   163  Bq   0.000000
   164  Bq   0.000000
   165  Bq   0.000000
   166  Bq   0.000000
   167  Bq   0.000000
   168  Bq   0.000000
   169  Bq   0.000000
   170  Bq   0.000000
   171  Bq   0.000000
   172  Bq   0.000000
   173  Bq   0.000000
   174  Bq   0.000000
   175  Bq   0.000000
   176  Bq   0.000000
   177  Bq   0.000000
   178  Bq   0.000000
   179  Bq   0.000000
   180  Bq   0.000000
   181  Bq   0.000000
   182  Bq   0.000000
   183  Bq   0.000000
   184  Bq   0.000000
   185  Bq   0.000000
   186  Bq   0.000000
   187  Bq   0.000000
   188  Bq   0.000000
   189  Bq   0.000000
   190  Bq   0.000000
   191  Bq   0.000000
   192  Bq   0.000000
   193  Bq   0.000000
   194  Bq   0.000000
   195  Bq   0.000000
   196  Bq   0.000000
   197  Bq   0.000000
   198  Bq   0.000000
   199  Bq   0.000000
   200  Bq   0.000000
   201  Bq   0.000000
   202  Bq   0.000000
   203  Bq   0.000000
   204  Bq   0.000000
   205  Bq   0.000000
   206  Bq   0.000000
   207  Bq   0.000000
   208  Bq   0.000000
   209  Bq   0.000000
   210  Bq   0.000000
   211  Bq   0.000000
   212  Bq   0.000000
   213  Bq   0.000000
   214  Bq   0.000000
   215  Bq   0.000000
   216  Bq   0.000000
   217  Bq   0.000000
   218  Bq   0.000000
   219  Bq   0.000000
   220  Bq   0.000000
   221  Bq   0.000000
   222  Bq   0.000000
   223  Bq   0.000000
   224  Bq   0.000000
   225  Bq   0.000000
   226  Bq   0.000000
   227  Bq   0.000000
   228  Bq   0.000000
   229  Bq   0.000000
   230  Bq   0.116538
   231  Bq   0.000000
   232  Bq   0.000000
   233  Bq   0.000000
   234  Bq   0.000000
   235  Bq   0.000000
   236  Bq   0.000000
 Electronic spatial extent (au):  <R**2>=           5736.9264
 Charge=              0.0000 electrons
 Dipole moment (field-independent basis, Debye):
    X=              0.0475    Y=              0.0856    Z=              0.0029  Tot=              0.0979
 Quadrupole moment (field-independent basis, Debye-Ang):
   XX=           -113.7056   YY=           -113.9456   ZZ=           -133.2669
   XY=             -0.3834   XZ=              3.2102   YZ=             -1.1839
 Traceless Quadrupole moment (field-independent basis, Debye-Ang):
   XX=              6.6005   YY=              6.3604   ZZ=            -12.9609
   XY=             -0.3834   XZ=              3.2102   YZ=             -1.1839
 Octapole moment (field-independent basis, Debye-Ang**2):
  XXX=            -16.4668  YYY=            -16.1860  ZZZ=             -1.7007  XYY=              2.5576
  XXY=             -6.5650  XXZ=             13.6547  XZZ=             -8.9478  YZZ=            -17.7168
  YYZ=            -13.2941  XYZ=              8.8036
 Hexadecapole moment (field-independent basis, Debye-Ang**3):
 XXXX=          -3951.1638 YYYY=          -3112.2161 ZZZZ=           -504.8311 XXXY=            340.6935
 XXXZ=            156.4968 YYYX=            335.5625 YYYZ=            -87.0893 ZZZX=            120.2262
 ZZZY=           -108.7373 XXYY=          -1176.4844 XXZZ=           -856.7291 YYZZ=           -665.7275
 XXYZ=            -68.9016 YYXZ=             48.1602 ZZXY=            153.0375
 N-N= 1.610917615562D+03 E-N=-5.186891130729D+03  KE= 8.436329774449D+02
 1\1\GINC-MUHKA\SP\RB3LYP\6-311+G(d,p)\C22H14\YANNICK\22-Aug-2020\0\\# 
 rb3lyp/6-311+g** NMR geom=connectivity\\Title\\0,1\C,0,-4.0500558,-0.5
 771862,0.8136712\H,0,-5.0263804,-1.0082727,1.002476\C,0,-3.9381552,0.6
 617804,0.2400876\H,0,-4.8252424,1.233889,-0.0111295\C,0,-2.676841,1.24
 33246,0.0057578\C,0,-1.4974121,0.5051527,0.2848253\C,0,-1.6508332,-0.7
 338728,0.9404026\H,0,-0.7713646,-1.2730967,1.2633753\C,0,-2.8898548,-1
 .2624035,1.1994307\H,0,-2.9683706,-2.2124563,1.7152676\C,0,-2.5773185,
 2.5963696,-0.419293\H,0,-3.4870728,3.1412239,-0.6474055\C,0,-1.3741895
 ,3.2147896,-0.436403\H,0,-1.2997315,4.2742019,-0.6578144\C,0,-0.171948
 8,2.499409,-0.1734588\C,0,-0.2043917,1.1018437,0.0192689\C,0,1.0513491
 ,3.204256,-0.0676222\H,0,1.0427344,4.2819499,-0.1896997\C,0,2.1942091,
 2.5487446,0.2579577\H,0,3.1168527,3.0912848,0.4334727\C,0,2.2216473,1.
 1336562,0.293499\C,0,1.0486931,0.3945528,0.0302412\C,0,3.4483363,0.461
 4633,0.5573939\H,0,4.3095794,1.0606054,0.8334846\C,0,3.5427346,-0.8855
 926,0.4749463\H,0,4.4731467,-1.3939704,0.7038822\C,0,2.4490052,-1.6474
 447,-0.0196319\C,0,1.2150704,-1.0057258,-0.3013573\C,0,0.2531113,-1.74
 3444,-1.0216591\H,0,-0.6541356,-1.2535051,-1.3462847\C,0,0.4494193,-3.
 0628597,-1.3413779\H,0,-0.3083162,-3.5944309,-1.905406\C,0,1.6251726,-
 3.7207967,-0.9552541\H,0,1.7670048,-4.7687404,-1.1927019\C,0,2.6109872
 ,-3.0144177,-0.318305\H,0,3.5525612,-3.4902813,-0.0646367\Bq,0,-1.0930
 098395,2.5276386796,0.0180609399\Bq,0,-1.1653896047,2.552206105,0.5121
 840128\Bq,0,-1.0785338865,2.5227251945,-0.0807636747\Bq,0,-1.179865557
 8,2.55711959,0.6110086274\Bq,0,-1.0640579334,2.5178117094,-0.179588289
 3\Bq,0,-1.1943415108,2.5620330751,0.709833242\Bq,0,-1.0495819804,2.512
 8982243,-0.2784129039\Bq,0,-1.1219617456,2.5374656497,0.215710169\Bq,0
 ,-1.1357255647,2.6422583502,0.3096731788\Bq,0,-1.1067736586,2.63243138
 ,0.1120239497\Bq,0,-1.1502015177,2.6471718353,0.4084977934\Bq,0,-1.092
 2977056,2.6275178949,0.0131993351\Bq,0,-1.1646774708,2.6520853203,0.50
 7322408\Bq,0,-1.0778217525,2.6226044098,-0.0856252795\Bq,0,-1.17915342
 38,2.6569988054,0.6061470226\Bq,0,-1.0633457995,2.6176909248,-0.184449
 8941\Bq,0,-1.1936293769,2.6619122905,0.7049716372\Bq,0,-1.0488698464,2
 .6127774397,-0.2832745087\Bq,0,-1.1212496117,2.6373448651,0.2108485643
 \Bq,0,-1.1350134308,2.7421375656,0.3048115741\Bq,0,-1.1060615247,2.732
 3105954,0.1071623449\Bq,0,-1.1494893838,2.7470510506,0.4036361887\Bq,0
 ,-1.0915855716,2.7273971103,0.0083377303\Bq,0,-1.1639653368,2.75196453
 57,0.5024608033\Bq,0,-1.0771096186,2.7224836252,-0.0904868843\Bq,0,-1.
 1784412899,2.7568780208,0.6012854178\Bq,0,-1.0626336655,2.7175701401,-
 0.1893114988\Bq,0,-1.1929172429,2.7617915059,0.7001100324\Bq,0,-1.0481
 577125,2.7126566551,-0.2881361134\Bq,0,-1.1205374777,2.7372240805,0.20
 59869595\Bq,0,-1.1343012968,2.8420167809,0.2999499693\Bq,0,-1.10534939
 07,2.8321898108,0.1023007401\Bq,0,-1.1487772499,2.846930266,0.39877458
 39\Bq,0,-1.0908734377,2.8272763257,0.0034761256\Bq,0,-1.1632532029,2.8
 518437511,0.4975991985\Bq,0,-1.0763974846,2.8223628406,-0.095348489\Bq
 ,0,-1.177729156,2.8567572362,0.5964238131\Bq,0,-1.0619215316,2.8174493
 555,-0.1941731036\Bq,0,-1.192205109,2.8616707213,0.6952484277\Bq,0,-1.
 0474455786,2.8125358704,-0.2929977182\Bq,0,-1.1198253438,2.8371032959,
 0.2011253547\Bq,0,-1.1335891629,2.9418959963,0.2950883646\Bq,0,-1.1046
 372568,2.9320690261,0.0974391354\Bq,0,-1.1480651159,2.9468094814,0.393
 9129791\Bq,0,-1.0901613037,2.9271555411,-0.0013854792\Bq,0,-1.16254106
 9,2.9517229665,0.4927375937\Bq,0,-1.0756853507,2.922242056,-0.10021009
 38\Bq,0,-1.177017022,2.9566364516,0.5915622083\Bq,0,-1.0612093977,2.91
 73285709,-0.1990347084\Bq,0,-1.1914929751,2.9615499366,0.6903868229\Bq
 ,0,-1.0467334446,2.9124150858,-0.297859323\Bq,0,-1.1191132098,2.936982
 5112,0.19626375\Bq,0,-1.1328770289,3.0417752117,0.2902267598\Bq,0,-1.1
 039251228,3.0319482415,0.0925775306\Bq,0,-1.147352982,3.0466886968,0.3
 890513744\Bq,0,-1.0894491698,3.0270347564,-0.006247084\Bq,0,-1.1618289
 35,3.0516021819,0.487875989\Bq,0,-1.0749732168,3.0221212714,-0.1050716
 986\Bq,0,-1.1763048881,3.0565156669,0.5867006035\Bq,0,-1.0604972637,3.
 0172077863,-0.2038963131\Bq,0,-1.1907808411,3.061429152,0.6855252181\B
 q,0,-1.0460213107,3.0122943012,-0.3027209277\Bq,0,-1.1184010759,3.0368
 617266,0.1914021452\Bq,0,-1.132164895,3.1416544271,0.285365155\Bq,0,-1
 .1032129889,3.1318274569,0.0877159258\Bq,0,-1.146640848,3.1465679121,0
 .3841897696\Bq,0,-1.0887370359,3.1269139718,-0.0111086887\Bq,0,-1.1611
 168011,3.1514813972,0.4830143842\Bq,0,-1.0742610828,3.1220004867,-0.10
 99333033\Bq,0,-1.1755927541,3.1563948823,0.5818389988\Bq,0,-1.05978512
 98,3.1170870017,-0.2087579179\Bq,0,-1.1900687072,3.1613083674,0.680663
 6134\Bq,0,-1.0453091767,3.1121735166,-0.3075825325\Bq,0,-1.1176889419,
 3.136740942,0.1865405404\Bq,0,-1.1314527611,3.2415336424,0.2805035503\
 Bq,0,-1.102500855,3.2317066723,0.0828543211\Bq,0,-1.1459287141,3.24644
 71275,0.3793281648\Bq,0,-1.0880249019,3.2267931872,-0.0159702935\Bq,0,
 -1.1604046671,3.2513606126,0.4781527794\Bq,0,-1.0735489489,3.221879702
 1,-0.1147949081\Bq,0,-1.1748806202,3.2562740977,0.576977394\Bq,0,-1.05
 90729958,3.216966217,-0.2136195227\Bq,0,-1.1893565732,3.2611875828,0.6
 758020086\Bq,0,-1.0445970428,3.2120527319,-0.3124441373\Bq,0,-1.116976
 808,3.2366201574,0.1816789357\Bq,0,-1.1307406271,3.3414128578,0.275641
 9455\Bq,0,-1.101788721,3.3315858877,0.0779927163\Bq,0,-1.1452165802,3.
 3463263429,0.3744665601\Bq,0,-1.087312768,3.3266724026,-0.0208318983\B
 q,0,-1.1596925332,3.351239828,0.4732911747\Bq,0,-1.0728368149,3.321758
 9175,-0.1196565129\Bq,0,-1.1741684862,3.3561533131,0.5721157892\Bq,0,-
 1.0583608619,3.3168454324,-0.2184811274\Bq,0,-1.1886444393,3.361066798
 1,0.6709404038\Bq,0,-1.0438849088,3.3119319473,-0.317305742\Bq,0,-1.11
 62646741,3.3364993727,0.1768173309\Bq,0,-1.1300284932,3.4412920732,0.2
 707803407\Bq,0,-1.1010765871,3.431465103,0.0731311115\Bq,0,-1.14450444
 62,3.4462055583,0.3696049553\Bq,0,-1.086600634,3.4265516179,-0.0256935
 03\Bq,0,-1.1589803993,3.4511190434,0.4684295699\Bq,0,-1.072124681,3.42
 16381329,-0.1245181176\Bq,0,-1.1734563523,3.4560325284,0.5672541845\Bq
 ,0,-1.0576487279,3.4167246478,-0.2233427322\Bq,0,-1.1879323053,3.46094
 60135,0.6660787991\Bq,0,-1.0431727749,3.4118111627,-0.3221673468\Bq,0,
 -1.1155525401,3.4363785881,0.1719557261\Bq,0,-1.1293163592,3.541171288
 6,0.265918736\Bq,0,-1.1003644531,3.5313443184,0.0682695068\Bq,0,-1.143
 7923123,3.5460847737,0.3647433505\Bq,0,-1.0858885001,3.5264308333,-0.0
 305551078\Bq,0,-1.1582682653,3.5509982587,0.4635679651\Bq,0,-1.0714125
 47,3.5215173482,-0.1293797224\Bq,0,-1.1727442184,3.5559117438,0.562392
 5797\Bq,0,-1.056936594,3.5166038632,-0.228204337\Bq,0,-1.1872201714,3.
 5608252289,0.6612171943\Bq,0,-1.042460641,3.5116903781,-0.3270289516\B
 q,0,-1.1148404062,3.5362578035,0.1670941214\Bq,0,-1.1286042253,3.64105
 05039,0.2610571312\Bq,0,-1.0996523192,3.6312235338,0.063407902\Bq,0,-1
 .1430801783,3.645963989,0.3598817458\Bq,0,-1.0851763662,3.6263100487,-
 0.0354167126\Bq,0,-1.1575561314,3.6508774741,0.4587063604\Bq,0,-1.0707
 004131,3.6213965636,-0.1342413272\Bq,0,-1.1720320844,3.6557909592,0.55
 75309749\Bq,0,-1.0562244601,3.6164830785,-0.2330659417\Bq,0,-1.1865080
 375,3.6607044443,0.6563555895\Bq,0,-1.041748507,3.6115695935,-0.331890
 5563\Bq,0,-1.1141282722,3.6361370189,0.1622325166\Bq,0,-1.1278920913,3
 .7409297193,0.2561955264\Bq,0,-1.0989401853,3.7311027492,0.0585462972\
 Bq,0,-1.1423680444,3.7458432044,0.355020141\Bq,0,-1.0844642322,3.72618
 92641,-0.0402783173\Bq,0,-1.1568439974,3.7507566895,0.4538447556\Bq,0,
 -1.0699882792,3.721275779,-0.1391029319\Bq,0,-1.1713199505,3.755670174
 6,0.5526693702\Bq,0,-1.0555123261,3.7163622939,-0.2379275465\Bq,0,-1.1
 857959035,3.7605836597,0.6514939848\Bq,0,-1.0410363731,3.7114488088,-0
 .3367521611\Bq,0,-1.1134161383,3.7360162342,0.1573709118\Bq,0,-1.12717
 99574,3.8408089347,0.2513339217\Bq,0,-1.0982280513,3.8309819645,0.0536
 846925\Bq,0,-1.1416559104,3.8457224198,0.3501585362\Bq,0,-1.0837520983
 ,3.8260684795,-0.0451399221\Bq,0,-1.1561318635,3.8506359049,0.44898315
 08\Bq,0,-1.0692761452,3.8211549944,-0.1439645367\Bq,0,-1.1706078165,3.
 85554939,0.5478077654\Bq,0,-1.0548001922,3.8162415093,-0.2427891513\Bq
 ,0,-1.1850837696,3.860462875,0.64663238\Bq,0,-1.0403242391,3.811328024
 2,-0.3416137659\Bq,0,-1.1127040044,3.8358954496,0.1525093071\Bq,0,-1.1
 264678235,3.9406881501,0.2464723169\Bq,0,-1.0975159174,3.9308611799,0.
 0488230877\Bq,0,-1.1409437765,3.9456016352,0.3452969315\Bq,0,-1.083039
 9643,3.9259476948,-0.0500015269\Bq,0,-1.1554197295,3.9505151202,0.4441
 215461\Bq,0,-1.0685640113,3.9210342098,-0.1488261415\Bq,0,-1.169895682
 6,3.9554286053,0.5429461606\Bq,0,-1.0540880582,3.9161207247,-0.2476507
 56\Bq,0,-1.1843716356,3.9603420904,0.6417707752\Bq,0,-1.0396121052,3.9
 112072396,-0.3464753706\Bq,0,-1.1119918704,3.935774665,0.1476477023\Bq
 ,0,-1.1257556895,4.0405673655,0.2416107121\Bq,0,-1.0968037834,4.030740
 3953,0.0439614829\Bq,0,-1.1402316426,4.0454808505,0.3404353267\Bq,0,-1
 .0823278304,4.0258269102,-0.0548631316\Bq,0,-1.1547075956,4.0503943356
 ,0.4392599413\Bq,0,-1.0678518773,4.0209134251,-0.1536877462\Bq,0,-1.16
 91835487,4.0553078207,0.5380845559\Bq,0,-1.0533759243,4.01599994,-0.25
 25123608\Bq,0,-1.1836595017,4.0602213058,0.6369091705\Bq,0,-1.03889997
 13,4.011086455,-0.3513369754\Bq,0,-1.1112797365,4.0356538804,0.1427860
 975\Bq,0,-1.1250435556,4.1404465808,0.2367491074\Bq,0,-1.0960916495,4.
 1306196107,0.0390998782\Bq,0,-1.1395195086,4.1453600659,0.3355737219\B
 q,0,-1.0816156964,4.1257061256,-0.0597247364\Bq,0,-1.1539954617,4.1502
 73551,0.4343983365\Bq,0,-1.0671397434,4.1207926405,-0.158549351\Bq,0,-
 1.1684714147,4.1551870361,0.5332229511\Bq,0,-1.0526637904,4.1158791554
 ,-0.2573739656\Bq,0,-1.1829473678,4.1601005212,0.6320475657\Bq,0,-1.03
 81878373,4.1109656703,-0.3561985802\Bq,0,-1.1105676025,4.1355330958,0.
 1379244928\Bq,0,-1.1243314216,4.2403257962,0.2318875026\Bq,0,-1.095379
 5155,4.230498826,0.0342382734\Bq,0,-1.1388073747,4.2452392813,0.330712
 1172\Bq,0,-1.0809035625,4.225585341,-0.0645863412\Bq,0,-1.1532833277,4
 .2501527664,0.4295367318\Bq,0,-1.0664276095,4.2206718559,-0.1634109558
 \Bq,0,-1.1677592808,4.2550662515,0.5283613463\Bq,0,-1.0519516564,4.215
 7583708,-0.2622355703\Bq,0,-1.1822352338,4.2599797365,0.6271859609\Bq,
 0,-1.0374757034,4.2108448857,-0.3610601849\Bq,0,-1.1098554686,4.235412
 3111,0.133062888\Bq,0,-1.1236192877,4.3402050116,0.2270258978\Bq,0,-1.
 0946673816,4.3303780414,0.0293766687\Bq,0,-1.1380952407,4.3451184967,0
 .3258505124\Bq,0,-1.0801914286,4.3254645563,-0.0694479459\Bq,0,-1.1525
 711938,4.3500319818,0.424675127\\Version=ES64L-G09RevD.01\HF=-847.0032
 898\RMSD=7.606e-09\Dipole=0.0186808,0.0336671,0.0011595\Quadrupole=4.9
 072795,4.7288219,-9.6361014,-0.2850201,2.3867064,-0.880172\PG=C01 [X(C
 22H14)]\\@


 WE ARE REACHING THE STAGE WHERE THE PROBLEMS WE MUST SOLVE ARE 
 GOING TO BECOME INSOLUBLE WITHOUT COMPUTERS.
 I DO NOT FEAR COMPUTERS.  I FEAR THE LACK OF THEM.

                                   -- ISSAC ASIMOV
 Job cpu time:       0 days  2 hours 49 minutes 12.3 seconds.
 File lengths (MBytes):  RWF=    184 Int=      0 D2E=      0 Chk=     19 Scr=      1
 Normal termination of Gaussian 09 at Sat Aug 22 04:46:38 2020.
