 Entering Gaussian System, Link 0=g09
 Input=input_cycle_04_batch_07400.com
 Output=input_cycle_04_batch_07400.log
 Initial command:
 /share/programs/GAUSSIAN/64/g09/l1.exe "/scratch/yannick.30438/Gau-19832.inp" -scrdir="/scratch/yannick.30438/"
 Entering Link 1 = /share/programs/GAUSSIAN/64/g09/l1.exe PID=     19833.
  
 Copyright (c) 1988,1990,1992,1993,1995,1998,2003,2009,2013,
            Gaussian, Inc.  All Rights Reserved.
  
 This is part of the Gaussian(R) 09 program.  It is based on
 the Gaussian(R) 03 system (copyright 2003, Gaussian, Inc.),
 the Gaussian(R) 98 system (copyright 1998, Gaussian, Inc.),
 the Gaussian(R) 94 system (copyright 1995, Gaussian, Inc.),
 the Gaussian 92(TM) system (copyright 1992, Gaussian, Inc.),
 the Gaussian 90(TM) system (copyright 1990, Gaussian, Inc.),
 the Gaussian 88(TM) system (copyright 1988, Gaussian, Inc.),
 the Gaussian 86(TM) system (copyright 1986, Carnegie Mellon
 University), and the Gaussian 82(TM) system (copyright 1983,
 Carnegie Mellon University). Gaussian is a federally registered
 trademark of Gaussian, Inc.
  
 This software contains proprietary and confidential information,
 including trade secrets, belonging to Gaussian, Inc.
  
 This software is provided under written license and may be
 used, copied, transmitted, or stored only in accord with that
 written license.
  
 The following legend is applicable only to US Government
 contracts under FAR:
  
                    RESTRICTED RIGHTS LEGEND
  
 Use, reproduction and disclosure by the US Government is
 subject to restrictions as set forth in subparagraphs (a)
 and (c) of the Commercial Computer Software - Restricted
 Rights clause in FAR 52.227-19.
  
 Gaussian, Inc.
 340 Quinnipiac St., Bldg. 40, Wallingford CT 06492
  
  
 ---------------------------------------------------------------
 Warning -- This program may not be used in any manner that
 competes with the business of Gaussian, Inc. or will provide
 assistance to any competitor of Gaussian, Inc.  The licensee
 of this program is prohibited from giving any competitor of
 Gaussian, Inc. access to this program.  By using this program,
 the user acknowledges that Gaussian, Inc. is engaged in the
 business of creating and licensing software in the field of
 computational chemistry and represents and warrants to the
 licensee that it is not a competitor of Gaussian, Inc. and that
 it will not use this program in any manner prohibited above.
 ---------------------------------------------------------------
  

 Cite this work as:
 Gaussian 09, Revision D.01,
 M. J. Frisch, G. W. Trucks, H. B. Schlegel, G. E. Scuseria, 
 M. A. Robb, J. R. Cheeseman, G. Scalmani, V. Barone, B. Mennucci, 
 G. A. Petersson, H. Nakatsuji, M. Caricato, X. Li, H. P. Hratchian, 
 A. F. Izmaylov, J. Bloino, G. Zheng, J. L. Sonnenberg, M. Hada, 
 M. Ehara, K. Toyota, R. Fukuda, J. Hasegawa, M. Ishida, T. Nakajima, 
 Y. Honda, O. Kitao, H. Nakai, T. Vreven, J. A. Montgomery, Jr., 
 J. E. Peralta, F. Ogliaro, M. Bearpark, J. J. Heyd, E. Brothers, 
 K. N. Kudin, V. N. Staroverov, T. Keith, R. Kobayashi, J. Normand, 
 K. Raghavachari, A. Rendell, J. C. Burant, S. S. Iyengar, J. Tomasi, 
 M. Cossi, N. Rega, J. M. Millam, M. Klene, J. E. Knox, J. B. Cross, 
 V. Bakken, C. Adamo, J. Jaramillo, R. Gomperts, R. E. Stratmann, 
 O. Yazyev, A. J. Austin, R. Cammi, C. Pomelli, J. W. Ochterski, 
 R. L. Martin, K. Morokuma, V. G. Zakrzewski, G. A. Voth, 
 P. Salvador, J. J. Dannenberg, S. Dapprich, A. D. Daniels, 
 O. Farkas, J. B. Foresman, J. V. Ortiz, J. Cioslowski, 
 and D. J. Fox, Gaussian, Inc., Wallingford CT, 2013.
 
 ******************************************
 Gaussian 09:  ES64L-G09RevD.01 24-Apr-2013
                22-Aug-2020 
 ******************************************
 %nproc=8
 Will use up to    8 processors via shared memory.
 %mem=1000MB
 ----------------------------------------
 # rb3lyp/6-311+g** NMR geom=connectivity
 ----------------------------------------
 1/38=1,57=2/1;
 2/12=2,17=6,18=5,40=1/2;
 3/5=4,6=6,7=111,11=2,16=1,25=1,30=1,74=-5,116=1/1,2,8,3;
 4//1;
 5/5=2,38=5/2;
 8/6=1,10=90,11=11/1;
 10/13=100,45=16/2;
 6/7=2,8=2,9=2,10=2,28=1/1;
 99/9=1/99;
 -----
 Title
 -----
 Symbolic Z-matrix:
 Charge =  0 Multiplicity = 1
 C                    -4.05006  -0.57719   0.81367 
 H                    -5.02638  -1.00827   1.00248 
 C                    -3.93816   0.66178   0.24009 
 H                    -4.82524   1.23389  -0.01113 
 C                    -2.67684   1.24332   0.00576 
 C                    -1.49741   0.50515   0.28483 
 C                    -1.65083  -0.73387   0.9404 
 H                    -0.77136  -1.2731    1.26338 
 C                    -2.88985  -1.2624    1.19943 
 H                    -2.96837  -2.21246   1.71527 
 C                    -2.57732   2.59637  -0.41929 
 H                    -3.48707   3.14122  -0.64741 
 C                    -1.37419   3.21479  -0.4364 
 H                    -1.29973   4.2742   -0.65781 
 C                    -0.17195   2.49941  -0.17346 
 C                    -0.20439   1.10184   0.01927 
 C                     1.05135   3.20426  -0.06762 
 H                     1.04273   4.28195  -0.1897 
 C                     2.19421   2.54874   0.25796 
 H                     3.11685   3.09128   0.43347 
 C                     2.22165   1.13366   0.2935 
 C                     1.04869   0.39455   0.03024 
 C                     3.44834   0.46146   0.55739 
 H                     4.30958   1.06061   0.83348 
 C                     3.54273  -0.88559   0.47495 
 H                     4.47315  -1.39397   0.70388 
 C                     2.44901  -1.64744  -0.01963 
 C                     1.21507  -1.00573  -0.30136 
 C                     0.25311  -1.74344  -1.02166 
 H                    -0.65414  -1.25351  -1.34628 
 C                     0.44942  -3.06286  -1.34138 
 H                    -0.30832  -3.59443  -1.90541 
 C                     1.62517  -3.7208   -0.95525 
 H                     1.767    -4.76874  -1.1927 
 C                     2.61099  -3.01442  -0.31831 
 H                     3.55256  -3.49028  -0.06464 
 Bq                    1.19538  -1.85613  -0.26305 
 Bq                    0.96427  -1.98418   0.59729 
 Bq                    1.22106  -1.8419   -0.35865 
 Bq                    1.09266  -1.91304   0.11932 
 Bq                    1.06329  -1.82829   0.22866 
 Bq                    1.11465  -1.79983   0.03747 
 Bq                    1.03761  -1.84252   0.32425 
 Bq                    1.14033  -1.78561  -0.05812 
 Bq                    1.01193  -1.85674   0.41984 
 Bq                    1.16601  -1.77138  -0.15372 
 Bq                    0.98626  -1.87097   0.51544 
 Bq                    1.19169  -1.75715  -0.24931 
 Bq                    0.96058  -1.8852    0.61103 
 Bq                    1.21737  -1.74292  -0.34491 
 Bq                    1.08897  -1.81406   0.13306 
 Bq                    1.0596   -1.72931   0.2424 
 Bq                    1.11096  -1.70085   0.05121 
 Bq                    1.03392  -1.74353   0.33799 
 Bq                    1.13664  -1.68662  -0.04438 
 Bq                    1.00824  -1.75776   0.43358 
 Bq                    1.16232  -1.67239  -0.13998 
 Bq                    0.98256  -1.77199   0.52918 
 Bq                    1.188    -1.65817  -0.23557 
 Bq                    0.95689  -1.78622   0.62477 
 Bq                    1.21367  -1.64394  -0.33117 
 Bq                    1.08528  -1.71508   0.1468 
 Bq                    1.05591  -1.63032   0.25614 
 Bq                    1.10727  -1.60187   0.06495 
 Bq                    1.03023  -1.64455   0.35173 
 Bq                    1.13295  -1.58764  -0.03064 
 Bq                    1.00455  -1.65878   0.44732 
 Bq                    1.15863  -1.57341  -0.12624 
 Bq                    0.97887  -1.67301   0.54292 
 Bq                    1.1843   -1.55918  -0.22183 
 Bq                    0.95319  -1.68723   0.63851 
 Bq                    1.20998  -1.54496  -0.31743 
 Bq                    1.08159  -1.6161    0.16054 
 Bq                    1.05222  -1.53134   0.26988 
 Bq                    1.10358  -1.50288   0.07869 
 Bq                    1.02654  -1.54557   0.36547 
 Bq                    1.12926  -1.48866  -0.0169 
 Bq                    1.00086  -1.5598    0.46107 
 Bq                    1.15493  -1.47443  -0.1125 
 Bq                    0.97518  -1.57402   0.55666 
 Bq                    1.18061  -1.4602   -0.20809 
 Bq                    0.9495   -1.58825   0.65225 
 Bq                    1.20629  -1.44597  -0.30368 
 Bq                    1.0779   -1.51711   0.17428 
 Bq                    1.04853  -1.43236   0.28362 
 Bq                    1.09989  -1.4039    0.09243 
 Bq                    1.02285  -1.44659   0.37921 
 Bq                    1.12556  -1.38967  -0.00316 
 Bq                    0.99717  -1.46081   0.47481 
 Bq                    1.15124  -1.37545  -0.09876 
 Bq                    0.97149  -1.47504   0.5704 
 Bq                    1.17692  -1.36122  -0.19435 
 Bq                    0.94581  -1.48927   0.66599 
 Bq                    1.2026   -1.34699  -0.28994 
 Bq                    1.07421  -1.41813   0.18802 
 Bq                    1.04484  -1.33337   0.29736 
 Bq                    1.09619  -1.30492   0.10617 
 Bq                    1.01916  -1.3476    0.39295 
 Bq                    1.12187  -1.29069   0.01058 
 Bq                    0.99348  -1.36183   0.48855 
 Bq                    1.14755  -1.27646  -0.08502 
 Bq                    0.9678   -1.37606   0.58414 
 Bq                    1.17323  -1.26224  -0.18061 
 Bq                    0.94212  -1.39029   0.67973 
 Bq                    1.19891  -1.24801  -0.2762 
 Bq                    1.07052  -1.31915   0.20177 
 Bq                    1.04115  -1.23439   0.3111 
 Bq                    1.0925   -1.20594   0.11991 
 Bq                    1.01547  -1.24862   0.40669 
 Bq                    1.11818  -1.19171   0.02432 
 Bq                    0.98979  -1.26285   0.50229 
 Bq                    1.14386  -1.17748  -0.07128 
 Bq                    0.96411  -1.27707   0.59788 
 Bq                    1.16954  -1.16325  -0.16687 
 Bq                    0.93843  -1.2913    0.69347 
 Bq                    1.19522  -1.14903  -0.26246 
 Bq                    1.06682  -1.22016   0.21551 
 Bq                    1.03745  -1.13541   0.32484 
 Bq                    1.08881  -1.10695   0.13365 
 Bq                    1.01178  -1.14964   0.42043 
 Bq                    1.11449  -1.09273   0.03806 
 Bq                    0.9861   -1.16386   0.51603 
 Bq                    1.14017  -1.0785   -0.05753 
 Bq                    0.96042  -1.17809   0.61162 
 Bq                    1.16585  -1.06427  -0.15313 
 Bq                    0.93474  -1.19232   0.70722 
 Bq                    1.19153  -1.05004  -0.24872 
 Bq                    1.06313  -1.12118   0.22925 
 Bq                    1.03376  -1.03643   0.33858 
 Bq                    1.08512  -1.00797   0.14739 
 Bq                    1.00808  -1.05065   0.43417 
 Bq                    1.1108   -0.99374   0.0518 
 Bq                    0.98241  -1.06488   0.52977 
 Bq                    1.13648  -0.97952  -0.04379 
 Bq                    0.95673  -1.07911   0.62536 
 Bq                    1.16216  -0.96529  -0.13939 
 Bq                    0.93105  -1.09334   0.72096 
 Bq                    1.18784  -0.95106  -0.23498 
 Bq                    1.05944  -1.0222    0.24299 
 Bq                    1.03007  -0.93744   0.35232 
 Bq                    1.08143  -0.90899   0.16113 
 Bq                    1.00439  -0.95167   0.44791 
 Bq                    1.10711  -0.89476   0.06554 
 Bq                    0.97871  -0.9659    0.54351 
 Bq                    1.13279  -0.88053  -0.03005 
 Bq                    0.95304  -0.98013   0.6391 
 Bq                    1.15847  -0.86631  -0.12565 
 Bq                    0.92736  -0.99435   0.7347 
 Bq                    1.18415  -0.85208  -0.22124 
 Bq                    1.05575  -0.92322   0.25673 
 Bq                    1.02638  -0.83846   0.36606 
 Bq                    1.07774  -0.81001   0.17487 
 Bq                    1.0007   -0.85269   0.46166 
 Bq                    1.10342  -0.79578   0.07928 
 Bq                    0.97502  -0.86692   0.55725 
 Bq                    1.1291   -0.78155  -0.01631 
 Bq                    0.94934  -0.88114   0.65284 
 Bq                    1.15478  -0.76732  -0.11191 
 Bq                    0.92367  -0.89537   0.74844 
 Bq                    1.18045  -0.7531   -0.2075 
 Bq                    1.05206  -0.82423   0.27047 
 Bq                    1.02269  -0.73948   0.3798 
 Bq                    1.07405  -0.71102   0.18861 
 Bq                    0.99701  -0.75371   0.4754 
 Bq                    1.09973  -0.6968    0.09302 
 Bq                    0.97133  -0.76793   0.57099 
 Bq                    1.12541  -0.68257  -0.00257 
 Bq                    0.94565  -0.78216   0.66658 
 Bq                    1.15108  -0.66834  -0.09817 
 Bq                    0.91998  -0.79639   0.76218 
 Bq                    1.17676  -0.65411  -0.19376 
 Bq                    1.04837  -0.72525   0.28421 
 Bq                    1.019    -0.6405    0.39354 
 Bq                    1.07036  -0.61204   0.20236 
 Bq                    0.99332  -0.65472   0.48914 
 Bq                    1.09604  -0.59781   0.10676 
 Bq                    0.96764  -0.66895   0.58473 
 Bq                    1.12171  -0.58359   0.01117 
 Bq                    0.94196  -0.68318   0.68032 
 Bq                    1.14739  -0.56936  -0.08443 
 Bq                    0.91628  -0.69741   0.77592 
 Bq                    1.17307  -0.55513  -0.18002 
 Bq                    1.04468  -0.62627   0.29795 
 Bq                    1.01531  -0.54151   0.40728 
 Bq                    1.06667  -0.51306   0.2161 
 Bq                    0.98963  -0.55574   0.50288 
 Bq                    1.09234  -0.49883   0.1205 
 Bq                    0.96395  -0.56997   0.59847 
 Bq                    1.11802  -0.4846    0.02491 
 Bq                    0.93827  -0.5842    0.69406 
 Bq                    1.1437   -0.47037  -0.07069 
 Bq                    0.91259  -0.59842   0.78966 
 Bq                    1.16938  -0.45615  -0.16628 
 Bq                    1.04099  -0.52729   0.31169 
 Bq                    1.01162  -0.44253   0.42102 
 Bq                    1.06298  -0.41408   0.22984 
 Bq                    0.98594  -0.45676   0.51662 
 Bq                    1.08865  -0.39985   0.13424 
 Bq                    0.96026  -0.47099   0.61221 
 Bq                    1.11433  -0.38562   0.03865 
 Bq                    0.93458  -0.48521   0.70781 
 Bq                    1.14001  -0.37139  -0.05694 
 Bq                    0.9089   -0.49944   0.8034 
 Bq                    1.16569  -0.35716  -0.15254 
 Bq                    1.0373   -0.4283    0.32543 
 Bq                    1.00793  -0.34355   0.43476 
 Bq                    1.05928  -0.31509   0.24358 
 Bq                    0.98225  -0.35778   0.53036 
 Bq                    1.08496  -0.30086   0.14798 
 Bq                    0.95657  -0.372     0.62595 
 Bq                    1.11064  -0.28664   0.05239 
 Bq                    0.93089  -0.38623   0.72155 
 Bq                    1.13632  -0.27241  -0.0432 
 Bq                    0.90521  -0.40046   0.81714 
 Bq                    1.162    -0.25818  -0.1388 
 Bq                    1.03361  -0.32932   0.33917 
 Bq                    1.00424  -0.24457   0.44851 
 Bq                    1.05559  -0.21611   0.25732 
 Bq                    0.97856  -0.25879   0.5441 
 Bq                    1.08127  -0.20188   0.16172 
 Bq                    0.95288  -0.27302   0.63969 
 Bq                    1.10695  -0.18765   0.06613 
 Bq                    0.9272   -0.28725   0.73529 
 Bq                    1.13263  -0.17343  -0.02946 
 Bq                    0.90152  -0.30148   0.83088 
 Bq                    1.15831  -0.1592   -0.12506 
 Bq                    1.02991  -0.23034   0.35291 
 Bq                    1.00054  -0.14558   0.46225 
 Bq                    1.0519   -0.11713   0.27106 
 Bq                    0.97487  -0.15981   0.55784 
 Bq                    1.07758  -0.1029    0.17546 
 Bq                    0.94919  -0.17404   0.65343 
 Bq                    1.10326  -0.08867   0.07987 
 Bq                    0.92351  -0.18827   0.74903 
 Bq                    1.12894  -0.07444  -0.01572 
 Bq                    0.89783  -0.20249   0.84462 
 
 Symmetry turned off:
 Cannot cope with ghost atoms or with translation vectors.
 Stoichiometry    C22H14
 Framework group  C1[X(C22H14)]
 NUMDOF-- NAT=    36 NAtoms=   236
 Deg. of freedom     0
 Full point group                 C1      NOp   1
                          Input orientation:                          
 ---------------------------------------------------------------------
 Center     Atomic      Atomic             Coordinates (Angstroms)
 Number     Number       Type             X           Y           Z
 ---------------------------------------------------------------------
      1          6           0       -4.050056   -0.577186    0.813671
      2          1           0       -5.026380   -1.008273    1.002476
      3          6           0       -3.938155    0.661780    0.240088
      4          1           0       -4.825242    1.233889   -0.011130
      5          6           0       -2.676841    1.243325    0.005758
      6          6           0       -1.497412    0.505153    0.284825
      7          6           0       -1.650833   -0.733873    0.940403
      8          1           0       -0.771365   -1.273097    1.263375
      9          6           0       -2.889855   -1.262404    1.199431
     10          1           0       -2.968371   -2.212456    1.715268
     11          6           0       -2.577319    2.596370   -0.419293
     12          1           0       -3.487073    3.141224   -0.647406
     13          6           0       -1.374190    3.214790   -0.436403
     14          1           0       -1.299732    4.274202   -0.657814
     15          6           0       -0.171949    2.499409   -0.173459
     16          6           0       -0.204392    1.101844    0.019269
     17          6           0        1.051349    3.204256   -0.067622
     18          1           0        1.042734    4.281950   -0.189700
     19          6           0        2.194209    2.548745    0.257958
     20          1           0        3.116853    3.091285    0.433473
     21          6           0        2.221647    1.133656    0.293499
     22          6           0        1.048693    0.394553    0.030241
     23          6           0        3.448336    0.461463    0.557394
     24          1           0        4.309579    1.060605    0.833485
     25          6           0        3.542735   -0.885593    0.474946
     26          1           0        4.473147   -1.393970    0.703882
     27          6           0        2.449005   -1.647445   -0.019632
     28          6           0        1.215070   -1.005726   -0.301357
     29          6           0        0.253111   -1.743444   -1.021659
     30          1           0       -0.654136   -1.253505   -1.346285
     31          6           0        0.449419   -3.062860   -1.341378
     32          1           0       -0.308316   -3.594431   -1.905406
     33          6           0        1.625173   -3.720797   -0.955254
     34          1           0        1.767005   -4.768740   -1.192702
     35          6           0        2.610987   -3.014418   -0.318305
     36          1           0        3.552561   -3.490281   -0.064637
     37          0           0        1.195377   -1.856133   -0.263053
     38          0           0        0.964268   -1.984181    0.597291
     39          0           0        1.221056   -1.841905   -0.358647
     40          0           0        1.092662   -1.913043    0.119322
     41          0           0        1.063292   -1.828288    0.228656
     42          0           0        1.114650   -1.799833    0.037469
     43          0           0        1.037613   -1.842516    0.324250
     44          0           0        1.140329   -1.785605   -0.058125
     45          0           0        1.011934   -1.856743    0.419844
     46          0           0        1.166008   -1.771378   -0.153719
     47          0           0        0.986255   -1.870971    0.515438
     48          0           0        1.191686   -1.757150   -0.249313
     49          0           0        0.960577   -1.885199    0.611031
     50          0           0        1.217365   -1.742922   -0.344906
     51          0           0        1.088971   -1.814061    0.133063
     52          0           0        1.059601   -1.729305    0.242397
     53          0           0        1.110959   -1.700850    0.051209
     54          0           0        1.033922   -1.743533    0.337991
     55          0           0        1.136638   -1.686622   -0.044384
     56          0           0        1.008243   -1.757761    0.433584
     57          0           0        1.162316   -1.672395   -0.139978
     58          0           0        0.982564   -1.771988    0.529178
     59          0           0        1.187995   -1.658167   -0.235572
     60          0           0        0.956886   -1.786216    0.624772
     61          0           0        1.213674   -1.643940   -0.331166
     62          0           0        1.085280   -1.715078    0.146803
     63          0           0        1.055910   -1.630323    0.256137
     64          0           0        1.107268   -1.601867    0.064950
     65          0           0        1.030231   -1.644550    0.351731
     66          0           0        1.132947   -1.587640   -0.030644
     67          0           0        1.004552   -1.658778    0.447325
     68          0           0        1.158625   -1.573412   -0.126238
     69          0           0        0.978873   -1.673006    0.542919
     70          0           0        1.184304   -1.559184   -0.221831
     71          0           0        0.953194   -1.687233    0.638513
     72          0           0        1.209983   -1.544957   -0.317425
     73          0           0        1.081589   -1.616095    0.160544
     74          0           0        1.052219   -1.531340    0.269878
     75          0           0        1.103577   -1.502885    0.078690
     76          0           0        1.026540   -1.545568    0.365472
     77          0           0        1.129255   -1.488657   -0.016903
     78          0           0        1.000861   -1.559795    0.461066
     79          0           0        1.154934   -1.474429   -0.112497
     80          0           0        0.975182   -1.574023    0.556659
     81          0           0        1.180613   -1.460202   -0.208091
     82          0           0        0.949503   -1.588251    0.652253
     83          0           0        1.206292   -1.445974   -0.303685
     84          0           0        1.077898   -1.517112    0.174284
     85          0           0        1.048528   -1.432357    0.283619
     86          0           0        1.099886   -1.403902    0.092431
     87          0           0        1.022849   -1.446585    0.379212
     88          0           0        1.125564   -1.389674   -0.003163
     89          0           0        0.997170   -1.460813    0.474806
     90          0           0        1.151243   -1.375447   -0.098757
     91          0           0        0.971491   -1.475040    0.570400
     92          0           0        1.176922   -1.361219   -0.194350
     93          0           0        0.945812   -1.489268    0.665994
     94          0           0        1.202601   -1.346991   -0.289944
     95          0           0        1.074207   -1.418130    0.188025
     96          0           0        1.044837   -1.333375    0.297359
     97          0           0        1.096195   -1.304919    0.106172
     98          0           0        1.019158   -1.347602    0.392953
     99          0           0        1.121873   -1.290692    0.010578
    100          0           0        0.993479   -1.361830    0.488547
    101          0           0        1.147552   -1.276464   -0.085016
    102          0           0        0.967800   -1.376058    0.584140
    103          0           0        1.173231   -1.262236   -0.180610
    104          0           0        0.942121   -1.390285    0.679734
    105          0           0        1.198910   -1.248009   -0.276204
    106          0           0        1.070516   -1.319147    0.201765
    107          0           0        1.041146   -1.234392    0.311100
    108          0           0        1.092503   -1.205937    0.119912
    109          0           0        1.015467   -1.248620    0.406693
    110          0           0        1.118182   -1.191709    0.024318
    111          0           0        0.989788   -1.262847    0.502287
    112          0           0        1.143861   -1.177481   -0.071275
    113          0           0        0.964109   -1.277075    0.597881
    114          0           0        1.169540   -1.163254   -0.166869
    115          0           0        0.938430   -1.291303    0.693475
    116          0           0        1.195219   -1.149026   -0.262463
    117          0           0        1.066825   -1.220164    0.215506
    118          0           0        1.037455   -1.135409    0.324840
    119          0           0        1.088812   -1.106954    0.133653
    120          0           0        1.011776   -1.149637    0.420434
    121          0           0        1.114491   -1.092726    0.038059
    122          0           0        0.986097   -1.163865    0.516028
    123          0           0        1.140170   -1.078499   -0.057535
    124          0           0        0.960418   -1.178092    0.611621
    125          0           0        1.165849   -1.064271   -0.153129
    126          0           0        0.934739   -1.192320    0.707215
    127          0           0        1.191528   -1.050043   -0.248722
    128          0           0        1.063134   -1.121182    0.229246
    129          0           0        1.033764   -1.036427    0.338581
    130          0           0        1.085121   -1.007971    0.147393
    131          0           0        1.008085   -1.050654    0.434174
    132          0           0        1.110800   -0.993744    0.051799
    133          0           0        0.982406   -1.064882    0.529768
    134          0           0        1.136479   -0.979516   -0.043794
    135          0           0        0.956727   -1.079110    0.625362
    136          0           0        1.162158   -0.965288   -0.139388
    137          0           0        0.931048   -1.093337    0.720956
    138          0           0        1.187837   -0.951061   -0.234982
    139          0           0        1.059443   -1.022199    0.242987
    140          0           0        1.030073   -0.937444    0.352321
    141          0           0        1.081430   -0.908989    0.161134
    142          0           0        1.004394   -0.951672    0.447915
    143          0           0        1.107109   -0.894761    0.065540
    144          0           0        0.978715   -0.965899    0.543509
    145          0           0        1.132788   -0.880533   -0.030054
    146          0           0        0.953036   -0.980127    0.639103
    147          0           0        1.158467   -0.866306   -0.125648
    148          0           0        0.927357   -0.994355    0.734696
    149          0           0        1.184146   -0.852078   -0.221241
    150          0           0        1.055751   -0.923216    0.256727
    151          0           0        1.026382   -0.838461    0.366062
    152          0           0        1.077739   -0.810006    0.174874
    153          0           0        1.000703   -0.852689    0.461656
    154          0           0        1.103418   -0.795778    0.079280
    155          0           0        0.975024   -0.866917    0.557249
    156          0           0        1.129097   -0.781551   -0.016313
    157          0           0        0.949345   -0.881144    0.652843
    158          0           0        1.154776   -0.767323   -0.111907
    159          0           0        0.923666   -0.895372    0.748437
    160          0           0        1.180455   -0.753095   -0.207501
    161          0           0        1.052060   -0.824234    0.270468
    162          0           0        1.022690   -0.739479    0.379802
    163          0           0        1.074048   -0.711023    0.188615
    164          0           0        0.997012   -0.753706    0.475396
    165          0           0        1.099727   -0.696796    0.093021
    166          0           0        0.971333   -0.767934    0.570990
    167          0           0        1.125406   -0.682568   -0.002573
    168          0           0        0.945654   -0.782162    0.666584
    169          0           0        1.151085   -0.668340   -0.098167
    170          0           0        0.919975   -0.796389    0.762177
    171          0           0        1.176764   -0.654113   -0.193760
    172          0           0        1.048369   -0.725251    0.284209
    173          0           0        1.018999   -0.640496    0.393543
    174          0           0        1.070357   -0.612041    0.202355
    175          0           0        0.993321   -0.654723    0.489137
    176          0           0        1.096036   -0.597813    0.106762
    177          0           0        0.967642   -0.668951    0.584730
    178          0           0        1.121715   -0.583585    0.011168
    179          0           0        0.941963   -0.683179    0.680324
    180          0           0        1.147394   -0.569358   -0.084426
    181          0           0        0.916284   -0.697406    0.775918
    182          0           0        1.173073   -0.555130   -0.180020
    183          0           0        1.044678   -0.626268    0.297949
    184          0           0        1.015308   -0.541513    0.407283
    185          0           0        1.066666   -0.513058    0.216096
    186          0           0        0.989630   -0.555741    0.502877
    187          0           0        1.092345   -0.498830    0.120502
    188          0           0        0.963951   -0.569968    0.598471
    189          0           0        1.118024   -0.484603    0.024908
    190          0           0        0.938272   -0.584196    0.694065
    191          0           0        1.143703   -0.470375   -0.070685
    192          0           0        0.912593   -0.598424    0.789658
    193          0           0        1.169382   -0.456147   -0.166279
    194          0           0        1.040987   -0.527285    0.311690
    195          0           0        1.011617   -0.442530    0.421024
    196          0           0        1.062975   -0.414075    0.229836
    197          0           0        0.985938   -0.456758    0.516618
    198          0           0        1.088654   -0.399847    0.134243
    199          0           0        0.960260   -0.470986    0.612211
    200          0           0        1.114333   -0.385620    0.038649
    201          0           0        0.934581   -0.485213    0.707805
    202          0           0        1.140012   -0.371392   -0.056945
    203          0           0        0.908902   -0.499441    0.803399
    204          0           0        1.165691   -0.357164   -0.152539
    205          0           0        1.037296   -0.428303    0.325430
    206          0           0        1.007926   -0.343548    0.434764
    207          0           0        1.059284   -0.315092    0.243577
    208          0           0        0.982247   -0.357775    0.530358
    209          0           0        1.084963   -0.300865    0.147983
    210          0           0        0.956569   -0.372003    0.625952
    211          0           0        1.110642   -0.286637    0.052389
    212          0           0        0.930890   -0.386231    0.721546
    213          0           0        1.136321   -0.272409   -0.043204
    214          0           0        0.905211   -0.400458    0.817140
    215          0           0        1.161999   -0.258182   -0.138798
    216          0           0        1.033605   -0.329320    0.339171
    217          0           0        1.004235   -0.244565    0.448505
    218          0           0        1.055593   -0.216110    0.257317
    219          0           0        0.978556   -0.258793    0.544099
    220          0           0        1.081272   -0.201882    0.161724
    221          0           0        0.952878   -0.273020    0.639693
    222          0           0        1.106951   -0.187654    0.066130
    223          0           0        0.927199   -0.287248    0.735286
    224          0           0        1.132630   -0.173427   -0.029464
    225          0           0        0.901520   -0.301476    0.830880
    226          0           0        1.158308   -0.159199   -0.125058
    227          0           0        1.029914   -0.230337    0.352911
    228          0           0        1.000544   -0.145582    0.462246
    229          0           0        1.051902   -0.117127    0.271058
    230          0           0        0.974865   -0.159810    0.557839
    231          0           0        1.077581   -0.102899    0.175464
    232          0           0        0.949186   -0.174038    0.653433
    233          0           0        1.103260   -0.088672    0.079870
    234          0           0        0.923508   -0.188265    0.749027
    235          0           0        1.128939   -0.074444   -0.015723
    236          0           0        0.897829   -0.202493    0.844621
 ---------------------------------------------------------------------
 Rotational constants (GHZ):      0.4529074      0.2836956      0.1879557
 Standard basis: 6-311+G(d,p) (5D, 7F)
 Warning:  center  37 has no basis functions!
 Warning:  center  38 has no basis functions!
 Warning:  center  39 has no basis functions!
 Warning:  center  40 has no basis functions!
 Warning:  center  41 has no basis functions!
 Warning:  center  42 has no basis functions!
 Warning:  center  43 has no basis functions!
 Warning:  center  44 has no basis functions!
 Warning:  center  45 has no basis functions!
 Warning:  center  46 has no basis functions!
 Warning:  center  47 has no basis functions!
 Warning:  center  48 has no basis functions!
 Warning:  center  49 has no basis functions!
 Warning:  center  50 has no basis functions!
 Warning:  center  51 has no basis functions!
 Warning:  center  52 has no basis functions!
 Warning:  center  53 has no basis functions!
 Warning:  center  54 has no basis functions!
 Warning:  center  55 has no basis functions!
 Warning:  center  56 has no basis functions!
 Warning:  center  57 has no basis functions!
 Warning:  center  58 has no basis functions!
 Warning:  center  59 has no basis functions!
 Warning:  center  60 has no basis functions!
 Warning:  center  61 has no basis functions!
 Warning:  center  62 has no basis functions!
 Warning:  center  63 has no basis functions!
 Warning:  center  64 has no basis functions!
 Warning:  center  65 has no basis functions!
 Warning:  center  66 has no basis functions!
 Warning:  center  67 has no basis functions!
 Warning:  center  68 has no basis functions!
 Warning:  center  69 has no basis functions!
 Warning:  center  70 has no basis functions!
 Warning:  center  71 has no basis functions!
 Warning:  center  72 has no basis functions!
 Warning:  center  73 has no basis functions!
 Warning:  center  74 has no basis functions!
 Warning:  center  75 has no basis functions!
 Warning:  center  76 has no basis functions!
 Warning:  center  77 has no basis functions!
 Warning:  center  78 has no basis functions!
 Warning:  center  79 has no basis functions!
 Warning:  center  80 has no basis functions!
 Warning:  center  81 has no basis functions!
 Warning:  center  82 has no basis functions!
 Warning:  center  83 has no basis functions!
 Warning:  center  84 has no basis functions!
 Warning:  center  85 has no basis functions!
 Warning:  center  86 has no basis functions!
 Warning:  center  87 has no basis functions!
 Warning:  center  88 has no basis functions!
 Warning:  center  89 has no basis functions!
 Warning:  center  90 has no basis functions!
 Warning:  center  91 has no basis functions!
 Warning:  center  92 has no basis functions!
 Warning:  center  93 has no basis functions!
 Warning:  center  94 has no basis functions!
 Warning:  center  95 has no basis functions!
 Warning:  center  96 has no basis functions!
 Warning:  center  97 has no basis functions!
 Warning:  center  98 has no basis functions!
 Warning:  center  99 has no basis functions!
 Warning:  center 100 has no basis functions!
 Warning:  center 101 has no basis functions!
 Warning:  center 102 has no basis functions!
 Warning:  center 103 has no basis functions!
 Warning:  center 104 has no basis functions!
 Warning:  center 105 has no basis functions!
 Warning:  center 106 has no basis functions!
 Warning:  center 107 has no basis functions!
 Warning:  center 108 has no basis functions!
 Warning:  center 109 has no basis functions!
 Warning:  center 110 has no basis functions!
 Warning:  center 111 has no basis functions!
 Warning:  center 112 has no basis functions!
 Warning:  center 113 has no basis functions!
 Warning:  center 114 has no basis functions!
 Warning:  center 115 has no basis functions!
 Warning:  center 116 has no basis functions!
 Warning:  center 117 has no basis functions!
 Warning:  center 118 has no basis functions!
 Warning:  center 119 has no basis functions!
 Warning:  center 120 has no basis functions!
 Warning:  center 121 has no basis functions!
 Warning:  center 122 has no basis functions!
 Warning:  center 123 has no basis functions!
 Warning:  center 124 has no basis functions!
 Warning:  center 125 has no basis functions!
 Warning:  center 126 has no basis functions!
 Warning:  center 127 has no basis functions!
 Warning:  center 128 has no basis functions!
 Warning:  center 129 has no basis functions!
 Warning:  center 130 has no basis functions!
 Warning:  center 131 has no basis functions!
 Warning:  center 132 has no basis functions!
 Warning:  center 133 has no basis functions!
 Warning:  center 134 has no basis functions!
 Warning:  center 135 has no basis functions!
 Warning:  center 136 has no basis functions!
 Warning:  center 137 has no basis functions!
 Warning:  center 138 has no basis functions!
 Warning:  center 139 has no basis functions!
 Warning:  center 140 has no basis functions!
 Warning:  center 141 has no basis functions!
 Warning:  center 142 has no basis functions!
 Warning:  center 143 has no basis functions!
 Warning:  center 144 has no basis functions!
 Warning:  center 145 has no basis functions!
 Warning:  center 146 has no basis functions!
 Warning:  center 147 has no basis functions!
 Warning:  center 148 has no basis functions!
 Warning:  center 149 has no basis functions!
 Warning:  center 150 has no basis functions!
 Warning:  center 151 has no basis functions!
 Warning:  center 152 has no basis functions!
 Warning:  center 153 has no basis functions!
 Warning:  center 154 has no basis functions!
 Warning:  center 155 has no basis functions!
 Warning:  center 156 has no basis functions!
 Warning:  center 157 has no basis functions!
 Warning:  center 158 has no basis functions!
 Warning:  center 159 has no basis functions!
 Warning:  center 160 has no basis functions!
 Warning:  center 161 has no basis functions!
 Warning:  center 162 has no basis functions!
 Warning:  center 163 has no basis functions!
 Warning:  center 164 has no basis functions!
 Warning:  center 165 has no basis functions!
 Warning:  center 166 has no basis functions!
 Warning:  center 167 has no basis functions!
 Warning:  center 168 has no basis functions!
 Warning:  center 169 has no basis functions!
 Warning:  center 170 has no basis functions!
 Warning:  center 171 has no basis functions!
 Warning:  center 172 has no basis functions!
 Warning:  center 173 has no basis functions!
 Warning:  center 174 has no basis functions!
 Warning:  center 175 has no basis functions!
 Warning:  center 176 has no basis functions!
 Warning:  center 177 has no basis functions!
 Warning:  center 178 has no basis functions!
 Warning:  center 179 has no basis functions!
 Warning:  center 180 has no basis functions!
 Warning:  center 181 has no basis functions!
 Warning:  center 182 has no basis functions!
 Warning:  center 183 has no basis functions!
 Warning:  center 184 has no basis functions!
 Warning:  center 185 has no basis functions!
 Warning:  center 186 has no basis functions!
 Warning:  center 187 has no basis functions!
 Warning:  center 188 has no basis functions!
 Warning:  center 189 has no basis functions!
 Warning:  center 190 has no basis functions!
 Warning:  center 191 has no basis functions!
 Warning:  center 192 has no basis functions!
 Warning:  center 193 has no basis functions!
 Warning:  center 194 has no basis functions!
 Warning:  center 195 has no basis functions!
 Warning:  center 196 has no basis functions!
 Warning:  center 197 has no basis functions!
 Warning:  center 198 has no basis functions!
 Warning:  center 199 has no basis functions!
 Warning:  center 200 has no basis functions!
 Warning:  center 201 has no basis functions!
 Warning:  center 202 has no basis functions!
 Warning:  center 203 has no basis functions!
 Warning:  center 204 has no basis functions!
 Warning:  center 205 has no basis functions!
 Warning:  center 206 has no basis functions!
 Warning:  center 207 has no basis functions!
 Warning:  center 208 has no basis functions!
 Warning:  center 209 has no basis functions!
 Warning:  center 210 has no basis functions!
 Warning:  center 211 has no basis functions!
 Warning:  center 212 has no basis functions!
 Warning:  center 213 has no basis functions!
 Warning:  center 214 has no basis functions!
 Warning:  center 215 has no basis functions!
 Warning:  center 216 has no basis functions!
 Warning:  center 217 has no basis functions!
 Warning:  center 218 has no basis functions!
 Warning:  center 219 has no basis functions!
 Warning:  center 220 has no basis functions!
 Warning:  center 221 has no basis functions!
 Warning:  center 222 has no basis functions!
 Warning:  center 223 has no basis functions!
 Warning:  center 224 has no basis functions!
 Warning:  center 225 has no basis functions!
 Warning:  center 226 has no basis functions!
 Warning:  center 227 has no basis functions!
 Warning:  center 228 has no basis functions!
 Warning:  center 229 has no basis functions!
 Warning:  center 230 has no basis functions!
 Warning:  center 231 has no basis functions!
 Warning:  center 232 has no basis functions!
 Warning:  center 233 has no basis functions!
 Warning:  center 234 has no basis functions!
 Warning:  center 235 has no basis functions!
 Warning:  center 236 has no basis functions!
   568 basis functions,   904 primitive gaussians,   590 cartesian basis functions
    73 alpha electrons       73 beta electrons
       nuclear repulsion energy      1610.9176155625 Hartrees.
 NAtoms=  236 NActive=  236 NUniq=  236 SFac= 1.00D+00 NAtFMM=   60 NAOKFM=T Big=T
 Integral buffers will be    131072 words long.
 Raffenetti 2 integral format.
 Two-electron integral symmetry is turned off.
 One-electron integrals computed using PRISM.
 NBasis=   568 RedAO= T EigKep=  1.78D-06  NBF=   568
 NBsUse=   556 1.00D-06 EigRej=  9.09D-07 NBFU=   556
 ExpMin= 4.38D-02 ExpMax= 4.56D+03 ExpMxC= 6.82D+02 IAcc=2 IRadAn=         4 AccDes= 0.00D+00
 Harris functional with IExCor=  402 and IRadAn=       4 diagonalized for initial guess.
 HarFok:  IExCor=  402 AccDes= 0.00D+00 IRadAn=         4 IDoV= 1 UseB2=F ITyADJ=14
 ICtDFT=  3500011 ScaDFX=  1.000000  1.000000  1.000000  1.000000
 FoFCou: FMM=F IPFlag=           0 FMFlag=      100000 FMFlg1=        2001
         NFxFlg=           0 DoJE=T BraDBF=F KetDBF=T FulRan=T
         wScrn=  0.000000 ICntrl=     500 IOpCl=  0 I1Cent=   200000004 NGrid=           0
         NMat0=    1 NMatS0=      1 NMatT0=    0 NMatD0=    1 NMtDS0=    0 NMtDT0=    0
 Symmetry not used in FoFCou.
 Requested convergence on RMS density matrix=1.00D-08 within 128 cycles.
 Requested convergence on MAX density matrix=1.00D-06.
 Requested convergence on             energy=1.00D-06.
 No special actions if energy rises.
 SCF Done:  E(RB3LYP) =  -847.003289847     A.U. after   15 cycles
            NFock= 15  Conv=0.75D-08     -V/T= 2.0040
 DoSCS=F DFT=T ScalE2(SS,OS)=  1.000000  1.000000
 Range of M.O.s used for correlation:     1   556
 NBasis=   568 NAE=    73 NBE=    73 NFC=     0 NFV=     0
 NROrb=    556 NOA=    73 NOB=    73 NVA=   483 NVB=   483

 **** Warning!!: The largest alpha MO coefficient is  0.10971036D+03

          Differentiating once with respect to magnetic field using GIAOs.
          Electric field/nuclear overlap derivatives assumed to be zero.
 FoFCou: FMM=F IPFlag=           0 FMFlag=      100000 FMFlg1=        2001
         NFxFlg=           0 DoJE=F BraDBF=F KetDBF=T FulRan=T
         wScrn=  0.000000 ICntrl=    6100 IOpCl=  0 I1Cent=           7 NGrid=         236
         NMat0=    1 NMatS0=      1 NMatT0=    0 NMatD0=    1 NMtDS0=    0 NMtDT0=    0
 Symmetry not used in FoFCou.
 FoFJK:  IHMeth= 1 ICntrl=    6127 DoSepK=F KAlg= 0 I1Cent=   0 FoldK=F
 IRaf=         1 NMat=   1 IRICut=       1 DoRegI=T DoRafI=F ISym2E= 0.
          There are     3 degrees of freedom in the 1st order CPHF.  IDoFFX=0 NUNeed=     3.
      3 vectors produced by pass  0 Test12= 1.18D-12 3.33D-08 XBig12= 2.07D+03 9.18D+00.
 AX will form     3 AO Fock derivatives at one time.
      3 vectors produced by pass  1 Test12= 1.18D-12 3.33D-08 XBig12= 3.56D+00 8.03D-01.
      3 vectors produced by pass  2 Test12= 1.18D-12 3.33D-08 XBig12= 2.10D-02 6.92D-02.
      3 vectors produced by pass  3 Test12= 1.18D-12 3.33D-08 XBig12= 5.45D-05 1.89D-03.
      3 vectors produced by pass  4 Test12= 1.18D-12 3.33D-08 XBig12= 1.20D-07 7.79D-05.
      3 vectors produced by pass  5 Test12= 1.18D-12 3.33D-08 XBig12= 4.02D-10 4.73D-06.
      3 vectors produced by pass  6 Test12= 1.18D-12 3.33D-08 XBig12= 1.32D-12 2.61D-07.
 InvSVY:  IOpt=1 It=  1 EMax= 7.11D-15
 Solved reduced A of dimension    21 with     3 vectors.
 Calculating GIAO nuclear magnetic shielding tensors.
 SCF GIAO Magnetic shielding tensor (ppm):
      1  C    Isotropic =    53.8139   Anisotropy =   178.0260
   XX=   -41.4327   YX=   -32.3458   ZX=    10.0287
   XY=   -28.3572   YY=    59.0527   ZY=    55.1899
   XZ=    13.1759   YZ=    58.7550   ZZ=   143.8218
   Eigenvalues:   -53.8775    42.8214   172.4979
      2  H    Isotropic =    24.3095   Anisotropy =     4.8536
   XX=    25.5771   YX=    -1.0289   ZX=     0.5661
   XY=    -0.7431   YY=    26.1829   ZY=    -2.3306
   XZ=    -0.1707   YZ=    -2.4411   ZZ=    21.1687
   Eigenvalues:    20.2108    25.1725    27.5453
      3  C    Isotropic =    51.4055   Anisotropy =   157.8639
   XX=   -31.5399   YX=    38.5015   ZX=   -17.9316
   XY=    34.3519   YY=    49.9437   ZY=    49.6392
   XZ=    -9.8383   YZ=    44.6006   ZZ=   135.8127
   Eigenvalues:   -50.5747    48.1432   156.6481
      4  H    Isotropic =    23.8290   Anisotropy =     7.1838
   XX=    25.3635   YX=     1.8486   ZX=    -0.3559
   XY=     1.9656   YY=    26.4581   ZY=    -2.4103
   XZ=    -1.2941   YZ=    -2.6614   ZZ=    19.6654
   Eigenvalues:    18.8176    24.0511    28.6182
      5  C    Isotropic =    46.0697   Anisotropy =   207.6751
   XX=   -19.2123   YX=    -4.8852   ZX=    -1.6475
   XY=     2.8938   YY=    -2.9860   ZY=    66.5656
   XZ=     2.5356   YZ=    67.9144   ZZ=   160.4073
   Eigenvalues:   -27.2455   -19.0652   184.5197
      6  C    Isotropic =    47.5218   Anisotropy =   196.9389
   XX=   -28.1552   YX=    -2.7889   ZX=    12.0660
   XY=   -14.3886   YY=    21.2063   ZY=    74.2521
   XZ=   -18.6356   YZ=    61.1113   ZZ=   149.5144
   Eigenvalues:   -30.2925    -5.9564   178.8144
      7  C    Isotropic =    49.3915   Anisotropy =   179.8333
   XX=   -12.5211   YX=    28.7048   ZX=   -24.6745
   XY=    31.5123   YY=    29.7000   ZY=    77.7459
   XZ=   -40.0095   YZ=    65.3072   ZZ=   130.9956
   Eigenvalues:   -52.1299    31.0240   169.2804
      8  H    Isotropic =    23.1586   Anisotropy =    13.5525
   XX=    28.5711   YX=     1.5482   ZX=    -3.6986
   XY=     3.2466   YY=    22.7592   ZY=    -2.1157
   XZ=    -8.3753   YZ=    -1.0821   ZZ=    18.1456
   Eigenvalues:    15.3521    21.9301    32.1936
      9  C    Isotropic =    55.1460   Anisotropy =   174.7426
   XX=    46.7071   YX=    -2.6162   ZX=    -2.8420
   XY=     0.6223   YY=    -1.6258   ZY=    92.8272
   XZ=     0.5159   YZ=    95.6598   ZZ=   120.3568
   Eigenvalues:   -52.8932    46.6901   171.6411
     10  H    Isotropic =    24.6278   Anisotropy =     7.1815
   XX=    29.1040   YX=     0.1399   ZX=    -0.3694
   XY=     0.3642   YY=    23.4778   ZY=    -1.0805
   XZ=    -2.4493   YZ=    -2.9465   ZZ=    21.3016
   Eigenvalues:    19.9703    24.4977    29.4155
     11  C    Isotropic =    51.5607   Anisotropy =   151.2142
   XX=     2.1639   YX=    40.9287   ZX=   -26.0048
   XY=    49.9131   YY=    12.2331   ZY=    42.1342
   XZ=   -15.6145   YZ=    38.6614   ZZ=   140.2851
   Eigenvalues:   -48.1951    50.5071   152.3701
     12  H    Isotropic =    23.8537   Anisotropy =     7.3815
   XX=    25.9672   YX=     2.3738   ZX=    -0.2390
   XY=     2.4320   YY=    26.3975   ZY=    -1.8291
   XZ=     0.3529   YZ=    -1.7731   ZZ=    19.1964
   Eigenvalues:    18.7149    24.0714    28.7747
     13  C    Isotropic =    52.8653   Anisotropy =   147.4265
   XX=    51.2944   YX=    19.9221   ZX=   -13.4678
   XY=    11.5478   YY=   -34.0176   ZY=    42.5079
   XZ=    -9.2241   YZ=    40.0716   ZZ=   141.3192
   Eigenvalues:   -46.5152    53.9616   151.1497
     14  H    Isotropic =    24.0156   Anisotropy =     7.3485
   XX=    28.6644   YX=     0.6281   ZX=     1.0808
   XY=     0.5926   YY=    24.4325   ZY=    -1.0823
   XZ=     1.6846   YZ=    -0.3842   ZZ=    18.9500
   Eigenvalues:    18.6430    24.4892    28.9146
     15  C    Isotropic =    46.2221   Anisotropy =   203.9048
   XX=   -27.2215   YX=    -0.0442   ZX=   -28.9124
   XY=     4.6427   YY=   -10.5571   ZY=    28.3830
   XZ=   -10.2704   YZ=    26.7376   ZZ=   176.4448
   Eigenvalues:   -30.5512   -12.9411   182.1586
     16  C    Isotropic =    51.9375   Anisotropy =   188.2004
   XX=   -19.4441   YX=     5.5046   ZX=    15.7858
   XY=    -8.3874   YY=     2.4863   ZY=    22.9264
   XZ=   -50.6243   YZ=    23.3340   ZZ=   172.7704
   Eigenvalues:   -21.0294    -0.5625   177.4045
     17  C    Isotropic =    51.9482   Anisotropy =   149.1264
   XX=    50.7296   YX=   -23.9353   ZX=   -18.4207
   XY=   -16.7271   YY=   -41.8764   ZY=    17.8662
   XZ=   -14.3278   YZ=    11.4871   ZZ=   146.9915
   Eigenvalues:   -46.7796    51.2584   151.3658
     18  H    Isotropic =    24.0122   Anisotropy =     7.5163
   XX=    28.5811   YX=    -0.0866   ZX=     1.5071
   XY=    -0.2466   YY=    24.3342   ZY=    -0.7657
   XZ=     2.5088   YZ=    -1.5208   ZZ=    19.1214
   Eigenvalues:    18.5094    24.5041    29.0231
     19  C    Isotropic =    51.7356   Anisotropy =   148.5924
   XX=     2.4559   YX=   -45.6913   ZX=   -31.2531
   XY=   -53.4448   YY=     7.4698   ZY=    -1.8888
   XZ=   -23.5601   YZ=    -1.2765   ZZ=   145.2810
   Eigenvalues:   -46.9894    51.3989   150.7972
     20  H    Isotropic =    23.9071   Anisotropy =     7.6651
   XX=    25.5796   YX=    -2.0226   ZX=     1.4905
   XY=    -1.9998   YY=    27.3706   ZY=    -0.5164
   XZ=     2.7276   YZ=    -1.1179   ZZ=    18.7711
   Eigenvalues:    18.1643    24.5398    29.0172
     21  C    Isotropic =    45.9767   Anisotropy =   203.9316
   XX=   -16.2108   YX=    13.1802   ZX=   -44.5913
   XY=     6.5714   YY=   -20.6329   ZY=     0.0949
   XZ=   -28.8984   YZ=   -13.0883   ZZ=   174.7736
   Eigenvalues:   -30.5796   -13.4215   181.9311
     22  C    Isotropic =    52.0450   Anisotropy =   188.1157
   XX=    -0.0787   YX=     2.5023   ZX=   -16.3451
   XY=    18.9327   YY=   -14.4798   ZY=   -34.4335
   XZ=   -50.6032   YZ=    19.9104   ZZ=   170.6934
   Eigenvalues:   -20.7705    -0.5500   177.4554
     23  C    Isotropic =    53.2392   Anisotropy =   146.7412
   XX=   -22.0674   YX=   -32.0012   ZX=   -49.4857
   XY=   -23.2043   YY=    44.3661   ZY=   -15.6400
   XZ=   -43.8090   YZ=   -20.2525   ZZ=   137.4189
   Eigenvalues:   -45.6776    54.3286   151.0667
     24  H    Isotropic =    23.8249   Anisotropy =     7.5289
   XX=    25.1073   YX=    -1.7330   ZX=     1.5380
   XY=    -1.5944   YY=    28.0047   ZY=     0.0879
   XZ=     1.2557   YZ=    -0.8283   ZZ=    18.3628
   Eigenvalues:    18.0848    24.5458    28.8442
     25  C    Isotropic =    51.4969   Anisotropy =   150.1066
   XX=   -28.4915   YX=    33.9684   ZX=   -52.3137
   XY=    22.0311   YY=    46.6072   ZY=    -3.8075
   XZ=   -44.5594   YZ=   -10.6355   ZZ=   136.3748
   Eigenvalues:   -48.3857    51.3083   151.5679
     26  H    Isotropic =    23.7431   Anisotropy =     7.4052
   XX=    24.0663   YX=     1.1141   ZX=     1.9989
   XY=     0.9693   YY=    28.1000   ZY=     1.6568
   XZ=     2.0795   YZ=     0.8886   ZZ=    19.0630
   Eigenvalues:    18.2615    24.2880    28.6799
     27  C    Isotropic =    45.8108   Anisotropy =   207.2710
   XX=    -2.7702   YX=    13.7697   ZX=   -61.4651
   XY=     6.5593   YY=   -12.0335   ZY=   -41.6456
   XZ=   -62.6381   YZ=   -44.9232   ZZ=   152.2361
   Eigenvalues:   -28.0803   -18.4787   183.9915
     28  C    Isotropic =    47.8398   Anisotropy =   197.2870
   XX=    19.6900   YX=    14.4398   ZX=   -60.5682
   XY=    28.5650   YY=   -19.3566   ZY=   -56.7015
   XZ=   -63.1331   YZ=   -24.4782   ZZ=   143.1859
   Eigenvalues:   -30.5979    -5.2472   179.3644
     29  C    Isotropic =    49.3441   Anisotropy =   179.7793
   XX=    -3.4110   YX=    38.3775   ZX=   -80.8875
   XY=    36.1252   YY=    25.9805   ZY=   -23.7573
   XZ=   -78.1065   YZ=    -3.9802   ZZ=   125.4627
   Eigenvalues:   -51.6645    30.4997   169.1970
     30  H    Isotropic =    23.1387   Anisotropy =    13.3222
   XX=    22.4354   YX=    -0.7013   ZX=    -0.2375
   XY=    -2.1539   YY=    28.3546   ZY=     4.5555
   XZ=    -3.4181   YZ=     8.3231   ZZ=    18.6259
   Eigenvalues:    15.2751    22.1208    32.0201
     31  C    Isotropic =    55.4410   Anisotropy =   174.9390
   XX=    17.1871   YX=   -14.0890   ZX=   -84.0024
   XY=   -17.9030   YY=    37.4745   ZY=   -50.3662
   XZ=   -84.6557   YZ=   -54.8325   ZZ=   111.6615
   Eigenvalues:   -51.9248    46.1808   172.0670
     32  H    Isotropic =    24.5337   Anisotropy =     7.2554
   XX=    24.6185   YX=    -2.5264   ZX=     0.7632
   XY=    -2.7385   YY=    27.4630   ZY=     1.0335
   XZ=     1.1913   YZ=     3.7573   ZZ=    21.5194
   Eigenvalues:    19.8987    24.3316    29.3706
     33  C    Isotropic =    53.1814   Anisotropy =   179.0596
   XX=    60.9231   YX=    35.2256   ZX=   -42.9515
   XY=    32.0226   YY=   -38.1801   ZY=   -45.5652
   XZ=   -44.2248   YZ=   -50.7831   ZZ=   136.8014
   Eigenvalues:   -55.1197    42.1095   172.5545
     34  H    Isotropic =    24.2825   Anisotropy =     5.1861
   XX=    26.7643   YX=    -0.0934   ZX=     2.5955
   XY=    -0.2993   YY=    24.8157   ZY=     0.8589
   XZ=     2.3715   YZ=     1.4580   ZZ=    21.2676
   Eigenvalues:    20.0339    25.0737    27.7399
     35  C    Isotropic =    51.5295   Anisotropy =   155.1748
   XX=    -0.5131   YX=    52.5760   ZX=   -52.1551
   XY=    55.6135   YY=    25.1843   ZY=   -14.2643
   XZ=   -45.7255   YZ=   -17.1625   ZZ=   129.9171
   Eigenvalues:   -48.3147    47.9237   154.9793
     36  H    Isotropic =    23.8384   Anisotropy =     7.3073
   XX=    24.2302   YX=     1.4459   ZX=     2.1759
   XY=     1.2147   YY=    27.1572   ZY=     2.0665
   XZ=     1.6853   YZ=     2.7775   ZZ=    20.1277
   Eigenvalues:    18.9464    23.8588    28.7099
     37  Bq   Isotropic =    14.6841   Anisotropy =    12.7209
   XX=    18.4320   YX=     2.2063   ZX=    -3.7923
   XY=    -0.4649   YY=     6.5786   ZY=    -1.4920
   XZ=    -4.0512   YZ=    -4.6401   ZZ=    19.0416
   Eigenvalues:     5.8650    15.0225    23.1647
     38  Bq   Isotropic =     9.1537   Anisotropy =    26.9652
   XX=     8.3730   YX=     0.9703   ZX=    -9.2062
   XY=     2.3873   YY=     2.9998   ZY=    -7.6193
   XZ=   -15.5785   YZ=    -6.7114   ZZ=    16.0883
   Eigenvalues:    -2.7741     3.1047    27.1305
     39  Bq   Isotropic =    14.2149   Anisotropy =    11.5646
   XX=    18.7208   YX=     1.2075   ZX=    -3.1271
   XY=    -0.3492   YY=     5.4978   ZY=    -2.1088
   XZ=    -3.2270   YZ=    -1.8141   ZZ=    18.4261
   Eigenvalues:     5.2067    15.5134    21.9247
     40  Bq   Isotropic =    14.7495   Anisotropy =    22.9811
   XX=    15.0987   YX=     3.0233   ZX=    -7.5449
   XY=     1.4924   YY=     8.6445   ZY=    -4.3853
   XZ=   -12.0952   YZ=    -8.8846   ZZ=    20.5051
   Eigenvalues:     4.9050     9.2732    30.0702
     41  Bq   Isotropic =    15.5676   Anisotropy =    26.0793
   XX=    16.0214   YX=     2.6455   ZX=    -8.5077
   XY=     1.9772   YY=     8.4068   ZY=    -4.7447
   XZ=   -14.6527   YZ=    -8.4478   ZZ=    22.2747
   Eigenvalues:     4.7584     8.9907    32.9539
     42  Bq   Isotropic =    17.4654   Anisotropy =    22.1259
   XX=    19.4802   YX=     3.5585   ZX=    -6.9376
   XY=     0.8005   YY=     8.8779   ZY=    -1.9080
   XZ=   -10.6227   YZ=    -9.0580   ZZ=    24.0380
   Eigenvalues:     7.0535    13.1267    32.2160
     43  Bq   Isotropic =    14.1249   Anisotropy =    27.3110
   XX=    14.1415   YX=     2.0800   ZX=    -9.0045
   XY=     2.3265   YY=     7.2388   ZY=    -5.9192
   XZ=   -15.8580   YZ=    -7.8706   ZZ=    20.9944
   Eigenvalues:     2.6539     7.3886    32.3322
     44  Bq   Isotropic =    17.6192   Anisotropy =    19.9097
   XX=    20.7925   YX=     3.6943   ZX=    -5.9638
   XY=     0.1641   YY=     7.7429   ZY=    -0.8280
   XZ=    -8.1412   YZ=    -8.7230   ZZ=    24.3222
   Eigenvalues:     6.4655    15.4997    30.8923
     45  Bq   Isotropic =    12.5779   Anisotropy =    27.9299
   XX=    12.3257   YX=     1.5395   ZX=    -9.2897
   XY=     2.4931   YY=     5.8245   ZY=    -6.7600
   XZ=   -16.5044   YZ=    -7.2719   ZZ=    19.5834
   Eigenvalues:     0.6275     5.9083    31.1978
     46  Bq   Isotropic =    17.2170   Anisotropy =    18.0172
   XX=    21.7265   YX=     3.4621   ZX=    -4.9763
   XY=    -0.2716   YY=     5.7670   ZY=    -0.5015
   XZ=    -5.8239   YZ=    -7.6661   ZZ=    24.1574
   Eigenvalues:     4.8883    17.5342    29.2285
     47  Bq   Isotropic =    11.0522   Anisotropy =    27.9730
   XX=    10.6548   YX=     1.0624   ZX=    -9.3763
   XY=     2.5055   YY=     4.3824   ZY=    -7.2625
   XZ=   -16.6665   YZ=    -6.7152   ZZ=    18.1196
   Eigenvalues:    -1.1092     4.5650    29.7009
     48  Bq   Isotropic =    16.4766   Anisotropy =    16.7503
   XX=    22.3299   YX=     2.7879   ZX=    -4.0835
   XY=    -0.3231   YY=     3.4456   ZY=    -1.2165
   XZ=    -4.1277   YZ=    -5.7188   ZZ=    23.6541
   Eigenvalues:     2.8515    18.9347    27.6434
     49  Bq   Isotropic =     9.6282   Anisotropy =    27.5275
   XX=     9.1727   YX=     0.6653   ZX=    -9.2902
   XY=     2.4039   YY=     3.0520   ZY=    -7.4734
   XZ=   -16.4419   YZ=    -6.2333   ZZ=    16.6598
   Eigenvalues:    -2.5006     3.4053    27.9798
     50  Bq   Isotropic =    15.7831   Anisotropy =    16.2573
   XX=    22.7325   YX=     1.6885   ZX=    -3.4016
   XY=     0.0927   YY=     1.5341   ZY=    -2.9413
   XZ=    -3.4187   YZ=    -2.8829   ZZ=    23.0827
   Eigenvalues:     1.1386    19.5895    26.6213
     51  Bq   Isotropic =    16.7401   Anisotropy =    24.2890
   XX=    17.8478   YX=     3.1700   ZX=    -7.8071
   XY=     1.4487   YY=     9.0471   ZY=    -3.3324
   XZ=   -12.8754   YZ=    -8.8967   ZZ=    23.3255
   Eigenvalues:     6.4303    10.8572    32.9328
     52  Bq   Isotropic =    17.3697   Anisotropy =    27.2434
   XX=    18.4038   YX=     2.4707   ZX=    -8.8382
   XY=     1.8759   YY=     9.0189   ZY=    -3.7003
   XZ=   -15.7316   YZ=    -7.7943   ZZ=    24.6863
   Eigenvalues:     6.4334    10.1437    35.5319
     53  Bq   Isotropic =    19.7104   Anisotropy =    24.5046
   XX=    22.7282   YX=     3.7282   ZX=    -7.4783
   XY=     0.6098   YY=     8.4721   ZY=    -0.1826
   XZ=   -11.5036   YZ=    -8.8616   ZZ=    27.9310
   Eigenvalues:     7.4721    15.6123    36.0468
     54  Bq   Isotropic =    15.5509   Anisotropy =    28.1972
   XX=    16.0372   YX=     1.8003   ZX=    -9.2515
   XY=     2.2548   YY=     7.8370   ZY=    -5.1795
   XZ=   -16.9416   YZ=    -7.1439   ZZ=    22.7784
   Eigenvalues:     4.0170     8.2865    34.3490
     55  Bq   Isotropic =    19.7188   Anisotropy =    23.4341
   XX=    24.2465   YX=     4.0799   ZX=    -6.6289
   XY=    -0.0209   YY=     5.9873   ZY=     0.9921
   XZ=    -8.8751   YZ=    -8.9382   ZZ=    28.9225
   Eigenvalues:     5.2873    18.5275    35.3415
     56  Bq   Isotropic =    13.6355   Anisotropy =    28.6353
   XX=    13.7823   YX=     1.1964   ZX=    -9.4657
   XY=     2.4356   YY=     6.2738   ZY=    -6.2459
   XZ=   -17.5425   YZ=    -6.5389   ZZ=    20.8504
   Eigenvalues:     1.5744     6.6065    32.7257
     57  Bq   Isotropic =    18.8642   Anisotropy =    23.0189
   XX=    25.1738   YX=     4.0469   ZX=    -5.7615
   XY=    -0.3257   YY=     2.1297   ZY=     0.9300
   XZ=    -6.4694   YZ=    -8.3707   ZZ=    29.2892
   Eigenvalues:     1.5815    20.8009    34.2101
     58  Bq   Isotropic =    11.7893   Anisotropy =    28.5484
   XX=    11.7455   YX=     0.6892   ZX=    -9.4929
   XY=     2.4532   YY=     4.6443   ZY=    -6.9033
   XZ=   -17.6271   YZ=    -6.0182   ZZ=    18.9782
   Eigenvalues:    -0.5161     5.0626    30.8216
     59  Bq   Isotropic =    17.4967   Anisotropy =    23.2671
   XX=    25.6407   YX=     3.4994   ZX=    -4.9535
   XY=    -0.0541   YY=    -2.1915   ZY=    -0.8528
   XZ=    -4.8266   YZ=    -6.8809   ZZ=    29.0409
   Eigenvalues:    -2.7085    22.1905    33.0081
     60  Bq   Isotropic =    10.1072   Anisotropy =    28.0002
   XX=     9.9759   YX=     0.2864   ZX=    -9.3582
   XY=     2.3534   YY=     3.1394   ZY=    -7.2160
   XZ=   -17.3084   YZ=    -5.5958   ZZ=    17.2064
   Eigenvalues:    -2.1758     3.7234    28.7740
     61  Bq   Isotropic =    16.2928   Anisotropy =    23.8781
   XX=    25.9649   YX=     2.4042   ZX=    -4.2897
   XY=     0.8691   YY=    -5.5254   ZY=    -4.2655
   XZ=    -4.3437   YZ=    -4.3273   ZZ=    28.4390
   Eigenvalues:    -6.0982    22.7652    32.2116
     62  Bq   Isotropic =    18.8509   Anisotropy =    25.9114
   XX=    20.7092   YX=     3.1464   ZX=    -8.2351
   XY=     1.3020   YY=     9.3861   ZY=    -1.9285
   XZ=   -13.8850   YZ=    -8.4117   ZZ=    26.4575
   Eigenvalues:     7.8368    12.5907    36.1252
     63  Bq   Isotropic =    19.1361   Anisotropy =    28.3838
   XX=    20.6528   YX=     2.0644   ZX=    -9.2489
   XY=     1.6832   YY=     9.8067   ZY=    -2.5469
   XZ=   -16.9194   YZ=    -6.5936   ZZ=    26.9487
   Eigenvalues:     8.1800    11.1696    38.0586
     64  Bq   Isotropic =    21.7096   Anisotropy =    27.5000
   XX=    25.5080   YX=     3.6463   ZX=    -8.3416
   XY=     0.3258   YY=     7.8682   ZY=     1.8607
   XZ=   -12.7602   YZ=    -7.9534   ZZ=    31.7527
   Eigenvalues:     7.4536    17.6323    40.0430
     65  Bq   Isotropic =    16.9456   Anisotropy =    28.9581
   XX=    17.8395   YX=     1.3291   ZX=    -9.5214
   XY=     2.0954   YY=     8.5936   ZY=    -4.3666
   XZ=   -18.0595   YZ=    -5.9907   ZZ=    24.4036
   Eigenvalues:     5.4245     9.1612    36.2510
     66  Bq   Isotropic =    21.2135   Anisotropy =    28.2587
   XX=    26.7916   YX=     4.2716   ZX=    -7.8285
   XY=    -0.2773   YY=     3.3581   ZY=     3.2470
   XZ=   -10.1967   YZ=    -8.5046   ZZ=    33.4909
   Eigenvalues:     3.0605    20.5274    40.0527
     67  Bq   Isotropic =    14.6563   Anisotropy =    29.1780
   XX=    15.1629   YX=     0.7047   ZX=    -9.6313
   XY=     2.2956   YY=     6.8412   ZY=    -5.6662
   XZ=   -18.5674   YZ=    -5.4892   ZZ=    21.9648
   Eigenvalues:     2.5342     7.3264    34.1083
     68  Bq   Isotropic =    19.3022   Anisotropy =    30.2819
   XX=    27.0383   YX=     4.5586   ZX=    -7.3397
   XY=    -0.3732   YY=    -3.4984   ZY=     2.7664
   XZ=    -7.9655   YZ=    -8.6617   ZZ=    34.3666
   Eigenvalues:    -3.8030    22.2194    39.4901
     69  Bq   Isotropic =    12.4862   Anisotropy =    28.9560
   XX=    12.7713   YX=     0.2066   ZX=    -9.5807
   XY=     2.3260   YY=     4.9887   ZY=    -6.4754
   XZ=   -18.5479   YZ=    -5.0957   ZZ=    19.6986
   Eigenvalues:     0.0860     5.5824    31.7902
     70  Bq   Isotropic =    16.5530   Anisotropy =    33.1378
   XX=    26.5844   YX=     4.3056   ZX=    -6.8601
   XY=     0.3972   YY=   -11.1612   ZY=    -0.4357
   XZ=    -6.6546   YZ=    -8.0190   ZZ=    34.2358
   Eigenvalues:   -11.6311    22.6452    38.6449
     71  Bq   Isotropic =    10.5468   Anisotropy =    28.3158
   XX=    10.7242   YX=    -0.1687   ZX=    -9.3882
   XY=     2.2381   YY=     3.2840   ZY=    -6.8865
   XZ=   -18.1226   YZ=    -4.8048   ZZ=    17.6322
   Eigenvalues:    -1.8383     4.0548    29.4240
     72  Bq   Isotropic =    14.2309   Anisotropy =    35.7041
   XX=    26.2413   YX=     3.3807   ZX=    -6.3515
   XY=     2.1017   YY=   -16.9190   ZY=    -6.2503
   XZ=    -6.6186   YZ=    -6.1712   ZZ=    33.3705
   Eigenvalues:   -17.7618    22.4209    38.0337
     73  Bq   Isotropic =    20.8769   Anisotropy =    27.7320
   XX=    23.3352   YX=     2.8655   ZX=    -8.8376
   XY=     1.0607   YY=     9.8249   ZY=    -0.3337
   XZ=   -15.1138   YZ=    -7.2700   ZZ=    29.4706
   Eigenvalues:     9.1049    14.1609    39.3649
     74  Bq   Isotropic =    20.6746   Anisotropy =    29.2503
   XX=    22.4845   YX=     1.3890   ZX=    -9.6862
   XY=     1.4414   YY=    10.9119   ZY=    -1.5833
   XZ=   -18.0923   YZ=    -4.8490   ZZ=    28.6274
   Eigenvalues:     9.9332    11.9157    40.1748
     75  Bq   Isotropic =    23.0574   Anisotropy =    30.6973
   XX=    27.1134   YX=     3.2080   ZX=    -9.5404
   XY=     0.0328   YY=     7.4069   ZY=     3.7503
   XZ=   -14.3672   YZ=    -6.2168   ZZ=    34.6521
   Eigenvalues:     7.2713    18.3787    43.5223
     76  Bq   Isotropic =    18.1681   Anisotropy =    29.4155
   XX=    19.3571   YX=     0.6517   ZX=    -9.7641
   XY=     1.8765   YY=     9.5793   ZY=    -3.6886
   XZ=   -19.0930   YZ=    -4.4429   ZZ=    25.5680
   Eigenvalues:     6.6725    10.0535    37.7785
     77  Bq   Isotropic =    21.4380   Anisotropy =    34.0178
   XX=    27.2555   YX=     4.1425   ZX=    -9.6961
   XY=    -0.5066   YY=     0.1723   ZY=     5.4719
   XZ=   -12.2362   YZ=    -7.2528   ZZ=    36.8861
   Eigenvalues:     0.0501    20.1473    44.1165
     78  Bq   Isotropic =    15.5380   Anisotropy =    29.4309
   XX=    16.3363   YX=     0.0636   ZX=    -9.7447
   XY=     2.0928   YY=     7.5595   ZY=    -5.1604
   XZ=   -19.4772   YZ=    -4.1662   ZZ=    22.7181
   Eigenvalues:     3.3642     8.0912    35.1586
     79  Bq   Isotropic =    17.3887   Anisotropy =    39.7463
   XX=    25.3914   YX=     4.8899   ZX=   -10.0537
   XY=    -0.3103   YY=   -11.1161   ZY=     4.6387
   XZ=   -10.6830   YZ=    -8.3952   ZZ=    37.8910
   Eigenvalues:   -11.2918    19.5718    43.8863
     80  Bq   Isotropic =    13.0710   Anisotropy =    29.1038
   XX=    13.6428   YX=    -0.3785   ZX=    -9.6069
   XY=     2.1390   YY=     5.4323   ZY=    -6.0710
   XZ=   -19.3459   YZ=    -3.9921   ZZ=    20.1378
   Eigenvalues:     0.6092     6.1302    32.4735
     81  Bq   Isotropic =    11.8040   Anisotropy =    46.8293
   XX=    22.2236   YX=     5.1654   ZX=   -10.4100
   XY=     1.1527   YY=   -24.1124   ZY=    -0.2372
   XZ=   -10.2673   YZ=    -9.0987   ZZ=    37.3008
   Eigenvalues:   -24.5900    16.9786    43.0235
     82  Bq   Isotropic =    10.8985   Anisotropy =    28.4064
   XX=    11.3574   YX=    -0.6899   ZX=    -9.3555
   XY=     2.0704   YY=     3.4979   ZY=    -6.5457
   XZ=   -18.8194   YZ=    -3.9007   ZZ=    17.8401
   Eigenvalues:    -1.5404     4.3997    29.8361
     83  Bq   Isotropic =     7.1185   Anisotropy =    52.6992
   XX=    19.7513   YX=     4.6373   ZX=   -10.4039
   XY=     3.9527   YY=   -33.9392   ZY=    -9.1550
   XZ=   -11.1174   YZ=    -8.4345   ZZ=    35.5434
   Eigenvalues:   -35.1967    14.3009    42.2513
     84  Bq   Isotropic =    22.5483   Anisotropy =    29.4105
   XX=    25.2874   YX=     2.2578   ZX=    -9.5751
   XY=     0.7872   YY=    10.6081   ZY=     1.0534
   XZ=   -16.4604   YZ=    -5.4236   ZZ=    31.7495
   Eigenvalues:    10.3794    15.1102    42.1553
     85  Bq   Isotropic =    21.7802   Anisotropy =    29.4763
   XX=    23.6378   YX=     0.4593   ZX=   -10.0572
   XY=     1.2351   YY=    12.4122   ZY=    -1.2552
   XZ=   -19.0343   YZ=    -2.7382   ZZ=    29.2906
   Eigenvalues:    11.2670    12.6426    41.4311
     86  Bq   Isotropic =    23.3620   Anisotropy =    33.1931
   XX=    26.8908   YX=     2.3615   ZX=   -10.9682
   XY=    -0.0699   YY=     7.5566   ZY=     4.5377
   XZ=   -16.0976   YZ=    -3.8068   ZZ=    35.6387
   Eigenvalues:     7.4174    17.1779    45.4907
     87  Bq   Isotropic =    19.0712   Anisotropy =    29.3494
   XX=    20.4168   YX=    -0.2055   ZX=    -9.9104
   XY=     1.6522   YY=    10.8037   ZY=    -3.4244
   XZ=   -19.8720   YZ=    -2.6548   ZZ=    25.9932
   Eigenvalues:     7.4385    11.1377    38.6374
     88  Bq   Isotropic =    19.7646   Anisotropy =    39.6060
   XX=    24.4686   YX=     3.6034   ZX=   -12.2224
   XY=    -0.4380   YY=    -2.8618   ZY=     6.5000
   XZ=   -14.9055   YZ=    -5.3069   ZZ=    37.6871
   Eigenvalues:    -3.0088    16.1341    46.1686
     89  Bq   Isotropic =    16.1776   Anisotropy =    29.2594
   XX=    17.1864   YX=    -0.6974   ZX=    -9.7571
   XY=     1.8642   YY=     8.4160   ZY=    -4.9013
   XZ=   -20.1447   YZ=    -2.6960   ZZ=    22.9304
   Eigenvalues:     3.9028     8.9461    35.6839
     90  Bq   Isotropic =    11.9237   Anisotropy =    50.5117
   XX=    17.9716   YX=     4.9789   ZX=   -14.1754
   XY=     0.2112   YY=   -20.0562   ZY=     5.2810
   XZ=   -14.8768   YZ=    -7.7843   ZZ=    37.8556
   Eigenvalues:   -20.2338    10.4067    45.5981
     91  Bq   Isotropic =    13.4740   Anisotropy =    28.9064
   XX=    14.2822   YX=    -1.0382   ZX=    -9.5377
   XY=     1.9194   YY=     5.9609   ZY=    -5.7987
   XZ=   -19.9285   YZ=    -2.8070   ZZ=    20.1790
   Eigenvalues:     0.9621     6.7150    32.7449
     92  Bq   Isotropic =     0.9906   Anisotropy =    64.1461
   XX=     8.4643   YX=     6.1440   ZX=   -16.3443
   XY=     2.6492   YY=   -40.8549   ZY=    -1.4573
   XZ=   -16.4589   YZ=   -10.5415   ZZ=    35.3623
   Eigenvalues:   -41.5319     0.7490    43.7546
     93  Bq   Isotropic =    11.1168   Anisotropy =    28.2155
   XX=    11.8241   YX=    -1.2529   ZX=    -9.2367
   XY=     1.8718   YY=     3.7724   ZY=    -6.2640
   XZ=   -19.3322   YZ=    -2.9603   ZZ=    17.7539
   Eigenvalues:    -1.3359     4.7592    29.9271
     94  Bq   Isotropic =    -8.3933   Anisotropy =    75.3035
   XX=     0.5830   YX=     6.3032   ZX=   -17.6151
   XY=     6.8502   YY=   -56.9610   ZY=   -13.6968
   XZ=   -19.1005   YZ=   -11.3054   ZZ=    31.1981
   Eigenvalues:   -58.9851    -8.0038    41.8090
     95  Bq   Isotropic =    23.5852   Anisotropy =    30.3452
   XX=    26.1638   YX=     1.3128   ZX=   -10.3337
   XY=     0.6154   YY=    11.9615   ZY=     1.5525
   XZ=   -17.6775   YZ=    -3.0551   ZZ=    32.6305
   Eigenvalues:    11.8909    15.0494    43.8154
     96  Bq   Isotropic =    22.2953   Anisotropy =    28.6980
   XX=    23.9848   YX=    -0.6361   ZX=   -10.2418
   XY=     1.1700   YY=    14.2066   ZY=    -2.0337
   XZ=   -19.4584   YZ=    -0.6382   ZZ=    28.6945
   Eigenvalues:    11.1569    14.3017    41.4273
     97  Bq   Isotropic =    22.4627   Anisotropy =    33.7803
   XX=    24.6739   YX=     1.1661   ZX=   -12.3434
   XY=     0.3099   YY=     8.6479   ZY=     2.8906
   XZ=   -17.4336   YZ=    -1.2787   ZZ=    34.0663
   Eigenvalues:     8.4311    13.9741    44.9829
     98  Bq   Isotropic =    19.5369   Anisotropy =    28.5719
   XX=    20.9204   YX=    -1.1659   ZX=    -9.8873
   XY=     1.4885   YY=    12.1563   ZY=    -3.8404
   XZ=   -20.2007   YZ=    -0.9057   ZZ=    25.5341
   Eigenvalues:     7.5556    12.4703    38.5849
     99  Bq   Isotropic =    16.0505   Anisotropy =    43.3546
   XX=    18.0776   YX=     2.6601   ZX=   -15.1068
   XY=     0.4004   YY=    -4.8813   ZY=     4.3092
   XZ=   -17.6727   YZ=    -3.2659   ZZ=    34.9551
   Eigenvalues:    -5.0731     8.2710    44.9535
    100  Bq   Isotropic =    16.4945   Anisotropy =    28.5650
   XX=    17.6439   YX=    -1.5163   ZX=    -9.6242
   XY=     1.6547   YY=     9.3249   ZY=    -5.0425
   XZ=   -20.4397   YZ=    -1.2807   ZZ=    22.5146
   Eigenvalues:     4.0648     9.8808    35.5378
    101  Bq   Isotropic =     2.5674   Anisotropy =    61.2946
   XX=     3.5739   YX=     4.8638   ZX=   -19.6998
   XY=     1.9606   YY=   -28.9327   ZY=     1.8105
   XZ=   -20.3641   YZ=    -7.7037   ZZ=    33.0609
   Eigenvalues:   -29.3018    -6.4265    43.4305
    102  Bq   Isotropic =    13.6430   Anisotropy =    28.3107
   XX=    14.6424   YX=    -1.7242   ZX=    -9.3462
   XY=     1.7010   YY=     6.5174   ZY=    -5.7520
   XZ=   -20.2103   YZ=    -1.6857   ZZ=    19.7692
   Eigenvalues:     1.0895     7.3227    32.5168
    103  Bq   Isotropic =   -16.7110   Anisotropy =    85.2915
   XX=   -17.7618   YX=     7.6183   ZX=   -25.3934
   XY=     6.0872   YY=   -59.1920   ZY=    -7.7283
   XZ=   -25.9033   YZ=   -14.0657   ZZ=    26.8207
   Eigenvalues:   -60.9225   -29.3606    40.1500
    104  Bq   Isotropic =    11.1692   Anisotropy =    27.7133
   XX=    12.0928   YX=    -1.8206   ZX=    -9.0157
   XY=     1.6691   YY=     4.0737   ZY=    -6.1026
   XZ=   -19.6049   YZ=    -2.0877   ZZ=    17.3413
   Eigenvalues:    -1.2620     5.1250    29.6448
    105  Bq   Isotropic =   -33.3696   Anisotropy =   103.7081
   XX=   -36.1716   YX=     8.9849   ZX=   -29.3190
   XY=    11.9802   YY=   -81.8952   ZY=   -22.1427
   XZ=   -31.9550   YZ=   -15.9721   ZZ=    17.9581
   Eigenvalues:   -85.9703   -49.9076    35.7691
    106  Bq   Isotropic =    23.8073   Anisotropy =    29.8432
   XX=    25.8169   YX=     0.1183   ZX=   -10.9213
   XY=     0.7216   YY=    13.8972   ZY=     0.3485
   XZ=   -18.3631   YZ=    -0.6457   ZZ=    31.7079
   Eigenvalues:    13.6266    14.0926    43.7028
    107  Bq   Isotropic =    22.1823   Anisotropy =    26.8080
   XX=    23.6251   YX=    -1.7413   ZX=   -10.1320
   XY=     1.3151   YY=    15.9476   ZY=    -4.1580
   XZ=   -19.0941   YZ=     0.9585   ZZ=    26.9742
   Eigenvalues:    10.3229    16.1697    40.0543
    108  Bq   Isotropic =    20.6516   Anisotropy =    31.7920
   XX=    21.2270   YX=    -0.1755   ZX=   -13.2233
   XY=     1.3789   YY=    10.4618   ZY=    -2.2120
   XZ=   -17.6093   YZ=     0.5058   ZZ=    30.2659
   Eigenvalues:     9.6801    10.4283    41.8462
    109  Bq   Isotropic =    19.5208   Anisotropy =    27.0510
   XX=    20.8940   YX=    -2.1123   ZX=    -9.6422
   XY=     1.4330   YY=    13.3896   ZY=    -5.0513
   XZ=   -19.9180   YZ=     0.4637   ZZ=    24.2788
   Eigenvalues:     7.1922    13.8154    37.5548
    110  Bq   Isotropic =    11.1930   Anisotropy =    44.2259
   XX=     9.7416   YX=     1.4174   ZX=   -17.5823
   XY=     2.3754   YY=    -5.5399   ZY=    -2.9734
   XZ=   -19.3419   YZ=    -1.9680   ZZ=    29.3774
   Eigenvalues:    -5.7751    -1.3227    40.6770
    111  Bq   Isotropic =    16.4563   Anisotropy =    27.3458
   XX=    17.7121   YX=    -2.3076   ZX=    -9.3207
   XY=     1.5010   YY=    10.1278   ZY=    -5.6446
   XZ=   -20.2674   YZ=    -0.1539   ZZ=    21.5288
   Eigenvalues:     3.8992    10.7829    34.6868
    112  Bq   Isotropic =    -8.3958   Anisotropy =    72.0971
   XX=   -14.5245   YX=     4.4032   ZX=   -25.7258
   XY=     5.5466   YY=   -36.4940   ZY=    -8.7979
   XZ=   -25.7159   YZ=    -8.6997   ZZ=    25.8311
   Eigenvalues:   -37.8564   -26.9999    39.6689
    113  Bq   Isotropic =    13.5581   Anisotropy =    27.3265
   XX=    14.7211   YX=    -2.3749   ZX=    -9.0210
   XY=     1.5139   YY=     7.0058   ZY=    -5.9696
   XZ=   -20.1363   YZ=    -0.7890   ZZ=    18.9474
   Eigenvalues:     1.0004     7.8981    31.7758
    114  Bq   Isotropic =   -34.9663   Anisotropy =   115.0507
   XX=   -49.2605   YX=     9.6765   ZX=   -37.3900
   XY=    12.6674   YY=   -75.3853   ZY=   -23.9400
   XZ=   -37.8783   YZ=   -21.3485   ZZ=    19.7468
   Eigenvalues:   -80.8966   -65.7365    41.7341
    115  Bq   Isotropic =    11.0450   Anisotropy =    26.9132
   XX=    12.1603   YX=    -2.3491   ZX=    -8.6881
   XY=     1.4876   YY=     4.3456   ZY=    -6.0911
   XZ=   -19.6059   YZ=    -1.3950   ZZ=    16.6291
   Eigenvalues:    -1.3242     5.4721    28.9872
    116  Bq   Isotropic =   -52.0303   Anisotropy =   144.0244
   XX=   -74.8242   YX=    14.2307   ZX=   -45.9767
   XY=    21.5790   YY=   -93.8078   ZY=   -40.0980
   XZ=   -49.8031   YZ=   -26.4675   ZZ=    12.5413
   Eigenvalues:  -105.0017   -95.0750    43.9860
    117  Bq   Isotropic =    23.2547   Anisotropy =    27.6139
   XX=    24.5484   YX=    -1.1314   ZX=   -11.1150
   XY=     1.2205   YY=    16.0251   ZY=    -3.0633
   XZ=   -18.0610   YZ=     1.1193   ZZ=    29.1904
   Eigenvalues:    12.0087    16.0913    41.6639
    118  Bq   Isotropic =    21.5670   Anisotropy =    24.2187
   XX=    22.8829   YX=    -2.6784   ZX=    -9.6828
   XY=     1.6399   YY=    17.1328   ZY=    -7.3620
   XZ=   -17.8219   YZ=     1.6482   ZZ=    24.6854
   Eigenvalues:     9.2987    17.6896    37.7128
    119  Bq   Isotropic =    18.7076   Anisotropy =    28.5451
   XX=    18.2080   YX=    -1.3480   ZX=   -13.1692
   XY=     2.9661   YY=    12.1591   ZY=   -10.2590
   XZ=   -15.9650   YZ=     0.7856   ZZ=    25.7558
   Eigenvalues:     6.0163    12.3689    37.7377
    120  Bq   Isotropic =    19.0814   Anisotropy =    25.0121
   XX=    20.4928   YX=    -2.9194   ZX=    -9.1677
   XY=     1.4829   YY=    14.1896   ZY=    -6.8936
   XZ=   -18.9726   YZ=     1.1762   ZZ=    22.5618
   Eigenvalues:     6.6040    14.8841    35.7561
    121  Bq   Isotropic =     7.2047   Anisotropy =    43.1801
   XX=     3.4142   YX=     0.0938   ZX=   -18.4206
   XY=     5.0752   YY=    -5.1632   ZY=   -14.5059
   XZ=   -18.3105   YZ=    -1.8826   ZZ=    23.3631
   Eigenvalues:    -9.1445    -5.2328    35.9914
    122  Bq   Isotropic =    16.0966   Anisotropy =    25.7376
   XX=    17.4724   YX=    -2.9843   ZX=    -8.8520
   XY=     1.4144   YY=    10.6384   ZY=    -6.6164
   XZ=   -19.6086   YZ=     0.4937   ZZ=    20.1791
   Eigenvalues:     3.5355    11.4994    33.2551
    123  Bq   Isotropic =   -15.9925   Anisotropy =    80.0052
   XX=   -26.9938   YX=     2.8273   ZX=   -29.2252
   XY=     9.5915   YY=   -41.4273   ZY=   -23.6917
   XZ=   -27.2618   YZ=    -8.3775   ZZ=    20.4435
   Eigenvalues:   -45.4029   -39.9190    37.3443
    124  Bq   Isotropic =    13.2421   Anisotropy =    26.0437
   XX=    14.5643   YX=    -2.9300   ZX=    -8.5716
   XY=     1.3751   YY=     7.3180   ZY=    -6.4065
   XZ=   -19.7031   YZ=    -0.2490   ZZ=    17.8439
   Eigenvalues:     0.7579     8.3638    30.6045
    125  Bq   Isotropic =   -42.2163   Anisotropy =   146.1164
[...]
   132  Bq   0.000000
   133  Bq   0.000000
   134  Bq   0.000000
   135  Bq   0.000000
   136  Bq   0.000000
   137  Bq   0.000000
   138  Bq   0.000000
   139  Bq   0.000000
   140  Bq   0.000000
   141  Bq   0.000000
   142  Bq   0.000000
   143  Bq   0.000000
   144  Bq   0.000000
   145  Bq   0.000000
   146  Bq   0.000000
   147  Bq   0.000000
   148  Bq   0.000000
   149  Bq   0.000000
   150  Bq   0.000000
   151  Bq   0.000000
   152  Bq   0.000000
   153  Bq   0.000000
   154  Bq   0.000000
   155  Bq   0.000000
   156  Bq   0.000000
   157  Bq   0.000000
   158  Bq   0.000000
   159  Bq   0.000000
   160  Bq   0.000000
   161  Bq   0.000000
   162  Bq   0.000000
   163  Bq   0.000000
   164  Bq   0.000000
   165  Bq   0.000000
   166  Bq   0.000000
   167  Bq   0.000000
   168  Bq   0.000000
   169  Bq   0.000000
   170  Bq   0.000000
   171  Bq   0.000000
   172  Bq   0.000000
   173  Bq   0.000000
   174  Bq   0.000000
   175  Bq   0.000000
   176  Bq   0.000000
   177  Bq   0.000000
   178  Bq   0.000000
   179  Bq   0.000000
   180  Bq   0.000000
   181  Bq   0.000000
   182  Bq   0.000000
   183  Bq   0.000000
   184  Bq   0.000000
   185  Bq   0.000000
   186  Bq   0.000000
   187  Bq   0.000000
   188  Bq   0.000000
   189  Bq   0.000000
   190  Bq   0.000000
   191  Bq   0.000000
   192  Bq   0.000000
   193  Bq   0.000000
   194  Bq   0.000000
   195  Bq   0.000000
   196  Bq   0.000000
   197  Bq   0.000000
   198  Bq   0.000000
   199  Bq   0.000000
   200  Bq   0.000000
   201  Bq   0.000000
   202  Bq   0.000000
   203  Bq   0.000000
   204  Bq   0.000000
   205  Bq   0.000000
   206  Bq   0.000000
   207  Bq   0.000000
   208  Bq   0.000000
   209  Bq   0.000000
   210  Bq   0.000000
   211  Bq   0.000000
   212  Bq   0.000000
   213  Bq   0.000000
   214  Bq   0.000000
   215  Bq   0.000000
   216  Bq   0.000000
   217  Bq   0.000000
   218  Bq   0.000000
   219  Bq   0.000000
   220  Bq   0.000000
   221  Bq   0.000000
   222  Bq   0.000000
   223  Bq   0.000000
   224  Bq   0.000000
   225  Bq   0.000000
   226  Bq   0.000000
   227  Bq   0.000000
   228  Bq   0.000000
   229  Bq   0.000000
   230  Bq   0.000000
   231  Bq   0.000000
   232  Bq   0.000000
   233  Bq   0.000000
   234  Bq   0.000000
   235  Bq   0.000000
   236  Bq   0.000000
 Sum of Mulliken charges =   0.00000
 Mulliken charges with hydrogens summed into heavy atoms:
               1
     1  C   -0.255498
     3  C    0.169409
     5  C    0.448258
     6  C    0.064351
     7  C   -0.333926
     9  C   -0.139521
    11  C   -0.205988
    13  C   -0.119315
    15  C    0.653397
    16  C    0.034822
    17  C   -0.317410
    19  C   -0.316854
    21  C    0.651066
    22  C    0.037784
    23  C   -0.117289
    25  C   -0.205316
    27  C    0.448331
    28  C    0.061983
    29  C   -0.333381
    31  C   -0.139505
    33  C   -0.255977
    35  C    0.170579
    37  Bq   0.000000
    38  Bq   0.000000
    39  Bq   0.000000
    40  Bq   0.000000
    41  Bq   0.000000
    42  Bq   0.000000
    43  Bq   0.000000
    44  Bq   0.000000
    45  Bq   0.000000
    46  Bq   0.000000
    47  Bq   0.000000
    48  Bq   0.000000
    49  Bq   0.000000
    50  Bq   0.000000
    51  Bq   0.000000
    52  Bq   0.000000
    53  Bq   0.000000
    54  Bq   0.000000
    55  Bq   0.000000
    56  Bq   0.000000
    57  Bq   0.000000
    58  Bq   0.000000
    59  Bq   0.000000
    60  Bq   0.000000
    61  Bq   0.000000
    62  Bq   0.000000
    63  Bq   0.000000
    64  Bq   0.000000
    65  Bq   0.000000
    66  Bq   0.000000
    67  Bq   0.000000
    68  Bq   0.000000
    69  Bq   0.000000
    70  Bq   0.000000
    71  Bq   0.000000
    72  Bq   0.000000
    73  Bq   0.000000
    74  Bq   0.000000
    75  Bq   0.000000
    76  Bq   0.000000
    77  Bq   0.000000
    78  Bq   0.000000
    79  Bq   0.000000
    80  Bq   0.000000
    81  Bq   0.000000
    82  Bq   0.000000
    83  Bq   0.000000
    84  Bq   0.000000
    85  Bq   0.000000
    86  Bq   0.000000
    87  Bq   0.000000
    88  Bq   0.000000
    89  Bq   0.000000
    90  Bq   0.000000
    91  Bq   0.000000
    92  Bq   0.000000
    93  Bq   0.000000
    94  Bq   0.000000
    95  Bq   0.000000
    96  Bq   0.000000
    97  Bq   0.000000
    98  Bq   0.000000
    99  Bq   0.000000
   100  Bq   0.000000
   101  Bq   0.000000
   102  Bq   0.000000
   103  Bq   0.000000
   104  Bq   0.000000
   105  Bq   0.000000
   106  Bq   0.000000
   107  Bq   0.000000
   108  Bq   0.000000
   109  Bq   0.000000
   110  Bq   0.000000
   111  Bq   0.000000
   112  Bq   0.000000
   113  Bq   0.000000
   114  Bq   0.000000
   115  Bq   0.000000
   116  Bq   0.000000
   117  Bq   0.000000
   118  Bq   0.000000
   119  Bq   0.000000
   120  Bq   0.000000
   121  Bq   0.000000
   122  Bq   0.000000
   123  Bq   0.000000
   124  Bq   0.000000
   125  Bq   0.000000
   126  Bq   0.000000
   127  Bq   0.000000
   128  Bq   0.000000
   129  Bq   0.000000
   130  Bq   0.000000
   131  Bq   0.000000
   132  Bq   0.000000
   133  Bq   0.000000
   134  Bq   0.000000
   135  Bq   0.000000
   136  Bq   0.000000
   137  Bq   0.000000
   138  Bq   0.000000
   139  Bq   0.000000
   140  Bq   0.000000
   141  Bq   0.000000
   142  Bq   0.000000
   143  Bq   0.000000
   144  Bq   0.000000
   145  Bq   0.000000
   146  Bq   0.000000
   147  Bq   0.000000
   148  Bq   0.000000
   149  Bq   0.000000
   150  Bq   0.000000
   151  Bq   0.000000
   152  Bq   0.000000
   153  Bq   0.000000
   154  Bq   0.000000
   155  Bq   0.000000
   156  Bq   0.000000
   157  Bq   0.000000
   158  Bq   0.000000
   159  Bq   0.000000
   160  Bq   0.000000
   161  Bq   0.000000
   162  Bq   0.000000
   163  Bq   0.000000
   164  Bq   0.000000
   165  Bq   0.000000
   166  Bq   0.000000
   167  Bq   0.000000
   168  Bq   0.000000
   169  Bq   0.000000
   170  Bq   0.000000
   171  Bq   0.000000
   172  Bq   0.000000
   173  Bq   0.000000
   174  Bq   0.000000
   175  Bq   0.000000
   176  Bq   0.000000
   177  Bq   0.000000
   178  Bq   0.000000
   179  Bq   0.000000
   180  Bq   0.000000
   181  Bq   0.000000
   182  Bq   0.000000
   183  Bq   0.000000
   184  Bq   0.000000
   185  Bq   0.000000
   186  Bq   0.000000
   187  Bq   0.000000
   188  Bq   0.000000
   189  Bq   0.000000
   190  Bq   0.000000
   191  Bq   0.000000
   192  Bq   0.000000
   193  Bq   0.000000
   194  Bq   0.000000
   195  Bq   0.000000
   196  Bq   0.000000
   197  Bq   0.000000
   198  Bq   0.000000
   199  Bq   0.000000
   200  Bq   0.000000
   201  Bq   0.000000
   202  Bq   0.000000
   203  Bq   0.000000
   204  Bq   0.000000
   205  Bq   0.000000
   206  Bq   0.000000
   207  Bq   0.000000
   208  Bq   0.000000
   209  Bq   0.000000
   210  Bq   0.000000
   211  Bq   0.000000
   212  Bq   0.000000
   213  Bq   0.000000
   214  Bq   0.000000
   215  Bq   0.000000
   216  Bq   0.000000
   217  Bq   0.000000
   218  Bq   0.000000
   219  Bq   0.000000
   220  Bq   0.000000
   221  Bq   0.000000
   222  Bq   0.000000
   223  Bq   0.000000
   224  Bq   0.000000
   225  Bq   0.000000
   226  Bq   0.000000
   227  Bq   0.000000
   228  Bq   0.000000
   229  Bq   0.000000
   230  Bq   0.000000
   231  Bq   0.000000
   232  Bq   0.000000
   233  Bq   0.000000
   234  Bq   0.000000
   235  Bq   0.000000
   236  Bq   0.000000
 Electronic spatial extent (au):  <R**2>=           5736.9264
 Charge=              0.0000 electrons
 Dipole moment (field-independent basis, Debye):
    X=              0.0475    Y=              0.0856    Z=              0.0029  Tot=              0.0979
 Quadrupole moment (field-independent basis, Debye-Ang):
   XX=           -113.7056   YY=           -113.9456   ZZ=           -133.2669
   XY=             -0.3834   XZ=              3.2102   YZ=             -1.1839
 Traceless Quadrupole moment (field-independent basis, Debye-Ang):
   XX=              6.6005   YY=              6.3604   ZZ=            -12.9609
   XY=             -0.3834   XZ=              3.2102   YZ=             -1.1839
 Octapole moment (field-independent basis, Debye-Ang**2):
  XXX=            -16.4668  YYY=            -16.1860  ZZZ=             -1.7007  XYY=              2.5576
  XXY=             -6.5650  XXZ=             13.6547  XZZ=             -8.9478  YZZ=            -17.7168
  YYZ=            -13.2941  XYZ=              8.8036
 Hexadecapole moment (field-independent basis, Debye-Ang**3):
 XXXX=          -3951.1638 YYYY=          -3112.2161 ZZZZ=           -504.8311 XXXY=            340.6935
 XXXZ=            156.4968 YYYX=            335.5625 YYYZ=            -87.0893 ZZZX=            120.2262
 ZZZY=           -108.7373 XXYY=          -1176.4844 XXZZ=           -856.7291 YYZZ=           -665.7275
 XXYZ=            -68.9016 YYXZ=             48.1602 ZZXY=            153.0375
 N-N= 1.610917615562D+03 E-N=-5.186891130729D+03  KE= 8.436329774449D+02
 1\1\GINC-URBICANDE\SP\RB3LYP\6-311+G(d,p)\C22H14\YANNICK\22-Aug-2020\0
 \\# rb3lyp/6-311+g** NMR geom=connectivity\\Title\\0,1\C,0,-4.0500558,
 -0.5771862,0.8136712\H,0,-5.0263804,-1.0082727,1.002476\C,0,-3.9381552
 ,0.6617804,0.2400876\H,0,-4.8252424,1.233889,-0.0111295\C,0,-2.676841,
 1.2433246,0.0057578\C,0,-1.4974121,0.5051527,0.2848253\C,0,-1.6508332,
 -0.7338728,0.9404026\H,0,-0.7713646,-1.2730967,1.2633753\C,0,-2.889854
 8,-1.2624035,1.1994307\H,0,-2.9683706,-2.2124563,1.7152676\C,0,-2.5773
 185,2.5963696,-0.419293\H,0,-3.4870728,3.1412239,-0.6474055\C,0,-1.374
 1895,3.2147896,-0.436403\H,0,-1.2997315,4.2742019,-0.6578144\C,0,-0.17
 19488,2.499409,-0.1734588\C,0,-0.2043917,1.1018437,0.0192689\C,0,1.051
 3491,3.204256,-0.0676222\H,0,1.0427344,4.2819499,-0.1896997\C,0,2.1942
 091,2.5487446,0.2579577\H,0,3.1168527,3.0912848,0.4334727\C,0,2.221647
 3,1.1336562,0.293499\C,0,1.0486931,0.3945528,0.0302412\C,0,3.4483363,0
 .4614633,0.5573939\H,0,4.3095794,1.0606054,0.8334846\C,0,3.5427346,-0.
 8855926,0.4749463\H,0,4.4731467,-1.3939704,0.7038822\C,0,2.4490052,-1.
 6474447,-0.0196319\C,0,1.2150704,-1.0057258,-0.3013573\C,0,0.2531113,-
 1.743444,-1.0216591\H,0,-0.6541356,-1.2535051,-1.3462847\C,0,0.4494193
 ,-3.0628597,-1.3413779\H,0,-0.3083162,-3.5944309,-1.905406\C,0,1.62517
 26,-3.7207967,-0.9552541\H,0,1.7670048,-4.7687404,-1.1927019\C,0,2.610
 9872,-3.0144177,-0.318305\H,0,3.5525612,-3.4902813,-0.0646367\Bq,0,1.1
 95377427,-1.8561325636,-0.2630530403\Bq,0,0.9642676481,-1.9841814949,0
 .5972909265\Bq,0,1.2210562913,-1.8419049046,-0.3586468144\Bq,0,1.09266
 19697,-1.9130431997,0.1193220561\Bq,0,1.0632920549,-1.8282881647,0.228
 6563697\Bq,0,1.1146497835,-1.7998328466,0.0374688215\Bq,0,1.0376131905
 ,-1.8425158237,0.3242501438\Bq,0,1.1403286478,-1.7856051876,-0.0581249
 526\Bq,0,1.0119343262,-1.8567434828,0.4198439179\Bq,0,1.1660075122,-1.
 7713775286,-0.1537187267\Bq,0,0.9862554619,-1.8709711418,0.515437692\B
 q,0,1.1916863765,-1.7571498696,-0.2493125008\Bq,0,0.9605765976,-1.8851
 988008,0.6110314661\Bq,0,1.2173652408,-1.7429222105,-0.3449062749\Bq,0
 ,1.0889709192,-1.8140605057,0.1330625956\Bq,0,1.0596010043,-1.72930547
 07,0.2423969093\Bq,0,1.110958733,-1.7008501526,0.0512093611\Bq,0,1.033
 92214,-1.7435331297,0.3379906834\Bq,0,1.1366375973,-1.6866224936,-0.04
 4384413\Bq,0,1.0082432757,-1.7577607887,0.4335844575\Bq,0,1.1623164616
 ,-1.6723948346,-0.1399781871\Bq,0,0.9825644114,-1.7719884478,0.5291782
 316\Bq,0,1.1879953259,-1.6581671755,-0.2355719612\Bq,0,0.956885547,-1.
 7862161068,0.6247720057\Bq,0,1.2136741903,-1.6439395165,-0.3311657353\
 Bq,0,1.0852798687,-1.7150778116,0.1468031352\Bq,0,1.0559099538,-1.6303
 227766,0.2561374488\Bq,0,1.1072676824,-1.6018674586,0.0649499006\Bq,0,
 1.0302310895,-1.6445504357,0.3517312229\Bq,0,1.1329465468,-1.587639799
 5,-0.0306438734\Bq,0,1.0045522252,-1.6587780947,0.447324997\Bq,0,1.158
 6254111,-1.5734121405,-0.1262376475\Bq,0,0.9788733608,-1.6730057537,0.
 5429187711\Bq,0,1.1843042754,-1.5591844815,-0.2218314216\Bq,0,0.953194
 4965,-1.6872334127,0.6385125452\Bq,0,1.2099831397,-1.5449568225,-0.317
 4251957\Bq,0,1.0815888181,-1.6160951176,0.1605436747\Bq,0,1.0522189033
 ,-1.5313400826,0.2698779884\Bq,0,1.1035766319,-1.5028847645,0.07869044
 02\Bq,0,1.0265400389,-1.5455677416,0.3654717625\Bq,0,1.1292554962,-1.4
 886571055,-0.0169033339\Bq,0,1.0008611746,-1.5597954007,0.4610655366\B
 q,0,1.1549343606,-1.4744294465,-0.112497108\Bq,0,0.9751823103,-1.57402
 30597,0.5566593107\Bq,0,1.1806132249,-1.4602017875,-0.2080908821\Bq,0,
 0.949503446,-1.5882507187,0.6522530848\Bq,0,1.2062920892,-1.4459741284
 ,-0.3036846562\Bq,0,1.0778977676,-1.5171124236,0.1742842143\Bq,0,1.048
 5278527,-1.4323573886,0.283618528\Bq,0,1.0998855814,-1.4039020705,0.09
 24309798\Bq,0,1.0228489884,-1.4465850476,0.379212302\Bq,0,1.1255644457
 ,-1.3896744115,-0.0031627943\Bq,0,0.9971701241,-1.4608127066,0.4748060
 761\Bq,0,1.15124331,-1.3754467524,-0.0987565684\Bq,0,0.9714912598,-1.4
 750403656,0.5703998502\Bq,0,1.1769221743,-1.3612190934,-0.1943503425\B
 q,0,0.9458123954,-1.4892680247,0.6659936243\Bq,0,1.2026010387,-1.34699
 14344,-0.2899441166\Bq,0,1.0742067171,-1.4181297295,0.1880247539\Bq,0,
 1.0448368022,-1.3333746945,0.2973590675\Bq,0,1.0961945308,-1.304919376
 5,0.1061715193\Bq,0,1.0191579379,-1.3476023536,0.3929528416\Bq,0,1.121
 8733952,-1.2906917174,0.0105777452\Bq,0,0.9934790735,-1.3618300126,0.4
 885466157\Bq,0,1.1475522595,-1.2764640584,-0.0850160289\Bq,0,0.9678002
 092,-1.3760576716,0.5841403898\Bq,0,1.1732311238,-1.2622363994,-0.1806
 09803\Bq,0,0.9421213449,-1.3902853306,0.6797341639\Bq,0,1.1989099881,-
 1.2480087404,-0.2762035771\Bq,0,1.0705156665,-1.3191470355,0.201765293
 4\Bq,0,1.0411457517,-1.2343920005,0.3110996071\Bq,0,1.0925034803,-1.20
 59366824,0.1199120589\Bq,0,1.0154668873,-1.2486196595,0.4066933812\Bq,
 0,1.1181823446,-1.1917090234,0.0243182848\Bq,0,0.989788023,-1.26284731
 85,0.5022871553\Bq,0,1.1438612089,-1.1774813644,-0.0712754893\Bq,0,0.9
 641091587,-1.2770749776,0.5978809294\Bq,0,1.1695400733,-1.1632537054,-
 0.1668692634\Bq,0,0.9384302944,-1.2913026366,0.6934747034\Bq,0,1.19521
 89376,-1.1490260463,-0.2624630375\Bq,0,1.066824616,-1.2201643415,0.215
 505833\Bq,0,1.0374547011,-1.1354093065,0.3248401466\Bq,0,1.0888124298,
 -1.1069539884,0.1336525984\Bq,0,1.0117758368,-1.1496369655,0.420433920
 7\Bq,0,1.1144912941,-1.0927263294,0.0380588243\Bq,0,0.9860969725,-1.16
 38646245,0.5160276948\Bq,0,1.1401701584,-1.0784986703,-0.0575349497\Bq
 ,0,0.9604181082,-1.1780922835,0.6116214689\Bq,0,1.1658490227,-1.064271
 0113,-0.1531287238\Bq,0,0.9347392438,-1.1923199426,0.707215243\Bq,0,1.
 1915278871,-1.0500433523,-0.2487224979\Bq,0,1.0631335654,-1.1211816474
 ,0.2292463725\Bq,0,1.0337636506,-1.0364266124,0.3385806862\Bq,0,1.0851
 213792,-1.0079712944,0.147393138\Bq,0,1.0080847863,-1.0506542714,0.434
 1744603\Bq,0,1.1108002436,-0.9937436353,0.0517993639\Bq,0,0.9824059219
 ,-1.0648819305,0.5297682344\Bq,0,1.1364791079,-0.9795159763,-0.0437944
 102\Bq,0,0.9567270576,-1.0791095895,0.6253620085\Bq,0,1.1621579722,-0.
 9652883173,-0.1393881843\Bq,0,0.9310481933,-1.0933372485,0.7209557826\
 Bq,0,1.1878368365,-0.9510606583,-0.2349819584\Bq,0,1.0594425149,-1.022
 1989534,0.2429869121\Bq,0,1.0300726001,-0.9374439184,0.3523212257\Bq,0
 ,1.0814303287,-0.9089886003,0.1611336776\Bq,0,1.0043937357,-0.95167157
 74,0.4479149998\Bq,0,1.107109193,-0.8947609413,0.0655399035\Bq,0,0.978
 7148714,-0.9658992364,0.5435087739\Bq,0,1.1327880573,-0.8805332823,-0.
 0300538706\Bq,0,0.9530360071,-0.9801268955,0.639102548\Bq,0,1.15846692
 17,-0.8663056232,-0.1256476447\Bq,0,0.9273571428,-0.9943545545,0.73469
 63221\Bq,0,1.184145786,-0.8520779642,-0.2212414188\Bq,0,1.0557514644,-
 0.9232162594,0.2567274517\Bq,0,1.0263815495,-0.8384612243,0.3660617653
 \Bq,0,1.0777392782,-0.8100059063,0.1748742171\Bq,0,1.0007026852,-0.852
 6888834,0.4616555394\Bq,0,1.1034181425,-0.7957782473,0.079280443\Bq,0,
 0.9750238209,-0.8669165424,0.5572493135\Bq,0,1.1290970068,-0.781550588
 2,-0.0163133311\Bq,0,0.9493449565,-0.8811442014,0.6528430876\Bq,0,1.15
 47758711,-0.7673229292,-0.1119071052\Bq,0,0.9236660922,-0.8953718605,0
 .7484368617\Bq,0,1.1804547355,-0.7530952702,-0.2075008793\Bq,0,1.05206
 04138,-0.8242335653,0.2704679912\Bq,0,1.022690499,-0.7394785303,0.3798
 023049\Bq,0,1.0740482276,-0.7110232123,0.1886147567\Bq,0,0.9970116347,
 -0.7537061893,0.475396079\Bq,0,1.0997270919,-0.6967955532,0.0930209826
 \Bq,0,0.9713327703,-0.7679338484,0.5709898531\Bq,0,1.1254059563,-0.682
 5678942,-0.0025727915\Bq,0,0.945653906,-0.7821615074,0.6665836271\Bq,0
 ,1.1510848206,-0.6683402352,-0.0981665656\Bq,0,0.9199750417,-0.7963891
 664,0.7621774012\Bq,0,1.1767636849,-0.6541125761,-0.1937603397\Bq,0,1.
 0483693633,-0.7252508713,0.2842085308\Bq,0,1.0189994484,-0.6404958363,
 0.3935428444\Bq,0,1.0703571771,-0.6120405182,0.2023552962\Bq,0,0.99332
 05841,-0.6547234953,0.4891366185\Bq,0,1.0960360414,-0.5978128592,0.106
 7615221\Bq,0,0.9676417198,-0.6689511543,0.5847303926\Bq,0,1.1217149057
 ,-0.5835852002,0.011167748\Bq,0,0.9419628555,-0.6831788134,0.680324166
 7\Bq,0,1.1473937701,-0.5693575411,-0.084426026\Bq,0,0.9162839912,-0.69
 74064724,0.7759179408\Bq,0,1.1730726344,-0.5551298821,-0.1800198001\Bq
 ,0,1.0446783128,-0.6262681772,0.2979490703\Bq,0,1.0153083979,-0.541513
 1422,0.407283384\Bq,0,1.0666661266,-0.5130578242,0.2160958358\Bq,0,0.9
 896295336,-0.5557408013,0.5028771581\Bq,0,1.0923449909,-0.4988301652,0
 .1205020617\Bq,0,0.9639506693,-0.5699684603,0.5984709322\Bq,0,1.118023
 8552,-0.4846025061,0.0249082876\Bq,0,0.9382718049,-0.5841961193,0.6940
 647063\Bq,0,1.1437027195,-0.4703748471,-0.0706854865\Bq,0,0.9125929406
 ,-0.5984237784,0.7896584804\Bq,0,1.1693815838,-0.4561471881,-0.1662792
 606\Bq,0,1.0409872622,-0.5272854832,0.3116896099\Bq,0,1.0116173474,-0.
 4425304482,0.4210239235\Bq,0,1.062975076,-0.4140751301,0.2298363754\Bq
 ,0,0.9859384831,-0.4567581072,0.5166176976\Bq,0,1.0886539403,-0.399847
 4711,0.1342426013\Bq,0,0.9602596187,-0.4709857663,0.6122114717\Bq,0,1.
 1143328047,-0.3856198121,0.0386488272\Bq,0,0.9345807544,-0.4852134253,
 0.7078052458\Bq,0,1.140011669,-0.3713921531,-0.0569449469\Bq,0,0.90890
 18901,-0.4994410843,0.8033990199\Bq,0,1.1656905333,-0.357164494,-0.152
 538721\Bq,0,1.0372962117,-0.4283027892,0.3254301494\Bq,0,1.0079262968,
 -0.3435477542,0.4347644631\Bq,0,1.0592840255,-0.3150924361,0.243576914
 9\Bq,0,0.9822474325,-0.3577754132,0.5303582372\Bq,0,1.0849628898,-0.30
 08647771,0.1479831408\Bq,0,0.9565685682,-0.3720030722,0.6259520113\Bq,
 0,1.1106417541,-0.2866371181,0.0523893667\Bq,0,0.9308897039,-0.3862307
 313,0.7215457854\Bq,0,1.1363206185,-0.272409459,-0.0432044074\Bq,0,0.9
 052108395,-0.4004583903,0.8171395595\Bq,0,1.1619994828,-0.2581818,-0.1
 387981815\Bq,0,1.0336051612,-0.3293200951,0.339170689\Bq,0,1.004235246
 3,-0.2445650601,0.4485050027\Bq,0,1.0555929749,-0.2161097421,0.2573174
 545\Bq,0,0.978556382,-0.2587927192,0.5440987768\Bq,0,1.0812718393,-0.2
 01882083,0.1617236804\Bq,0,0.9528775177,-0.2730203782,0.6396925508\Bq,
 0,1.1069507036,-0.187654424,0.0661299063\Bq,0,0.9271986533,-0.28724803
 72,0.7352863249\Bq,0,1.1326295679,-0.173426765,-0.0294638678\Bq,0,0.90
 1519789,-0.3014756962,0.830880099\Bq,0,1.1583084322,-0.159199106,-0.12
 50576419\Bq,0,1.0299141106,-0.2303374011,0.3529112286\Bq,0,1.000544195
 8,-0.1455823661,0.4622455422\Bq,0,1.0519019244,-0.117127048,0.27105799
 4\Bq,0,0.9748653314,-0.1598100251,0.5578393163\Bq,0,1.0775807887,-0.10
 2899389,0.1754642199\Bq,0,0.9491864671,-0.1740376842,0.6534330904\Bq,0
 ,1.1032596531,-0.08867173,0.0798704458\Bq,0,0.9235076028,-0.1882653432
 ,0.7490268645\Bq,0,1.1289385174,-0.074444071,-0.0157233283\Bq,0,0.8978
 287385,-0.2024930022,0.8446206386\\Version=ES64L-G09RevD.01\HF=-847.00
 32898\RMSD=7.487e-09\Dipole=0.0186808,0.0336671,0.0011595\Quadrupole=4
 .9072795,4.7288219,-9.6361014,-0.2850201,2.3867064,-0.880172\PG=C01 [X
 (C22H14)]\\@


 I WANT IT ALL - RICH, THIN, AND CHOCOLATE.
 Job cpu time:       0 days  2 hours 37 minutes 37.9 seconds.
 File lengths (MBytes):  RWF=    184 Int=      0 D2E=      0 Chk=     19 Scr=      1
 Normal termination of Gaussian 09 at Sat Aug 22 14:52:45 2020.
