 Entering Gaussian System, Link 0=g09
 Input=input_cycle_05_batch_11200.com
 Output=input_cycle_05_batch_11200.log
 Initial command:
 /share/programs/GAUSSIAN/64/g09/l1.exe "/scratch/yannick.30735/Gau-3166826.inp" -scrdir="/scratch/yannick.30735/"
 Entering Link 1 = /share/programs/GAUSSIAN/64/g09/l1.exe PID=   3166827.
  
 Copyright (c) 1988,1990,1992,1993,1995,1998,2003,2009,2013,
            Gaussian, Inc.  All Rights Reserved.
  
 This is part of the Gaussian(R) 09 program.  It is based on
 the Gaussian(R) 03 system (copyright 2003, Gaussian, Inc.),
 the Gaussian(R) 98 system (copyright 1998, Gaussian, Inc.),
 the Gaussian(R) 94 system (copyright 1995, Gaussian, Inc.),
 the Gaussian 92(TM) system (copyright 1992, Gaussian, Inc.),
 the Gaussian 90(TM) system (copyright 1990, Gaussian, Inc.),
 the Gaussian 88(TM) system (copyright 1988, Gaussian, Inc.),
 the Gaussian 86(TM) system (copyright 1986, Carnegie Mellon
 University), and the Gaussian 82(TM) system (copyright 1983,
 Carnegie Mellon University). Gaussian is a federally registered
 trademark of Gaussian, Inc.
  
 This software contains proprietary and confidential information,
 including trade secrets, belonging to Gaussian, Inc.
  
 This software is provided under written license and may be
 used, copied, transmitted, or stored only in accord with that
 written license.
  
 The following legend is applicable only to US Government
 contracts under FAR:
  
                    RESTRICTED RIGHTS LEGEND
  
 Use, reproduction and disclosure by the US Government is
 subject to restrictions as set forth in subparagraphs (a)
 and (c) of the Commercial Computer Software - Restricted
 Rights clause in FAR 52.227-19.
  
 Gaussian, Inc.
 340 Quinnipiac St., Bldg. 40, Wallingford CT 06492
  
  
 ---------------------------------------------------------------
 Warning -- This program may not be used in any manner that
 competes with the business of Gaussian, Inc. or will provide
 assistance to any competitor of Gaussian, Inc.  The licensee
 of this program is prohibited from giving any competitor of
 Gaussian, Inc. access to this program.  By using this program,
 the user acknowledges that Gaussian, Inc. is engaged in the
 business of creating and licensing software in the field of
 computational chemistry and represents and warrants to the
 licensee that it is not a competitor of Gaussian, Inc. and that
 it will not use this program in any manner prohibited above.
 ---------------------------------------------------------------
  

 Cite this work as:
 Gaussian 09, Revision D.01,
 M. J. Frisch, G. W. Trucks, H. B. Schlegel, G. E. Scuseria, 
 M. A. Robb, J. R. Cheeseman, G. Scalmani, V. Barone, B. Mennucci, 
 G. A. Petersson, H. Nakatsuji, M. Caricato, X. Li, H. P. Hratchian, 
 A. F. Izmaylov, J. Bloino, G. Zheng, J. L. Sonnenberg, M. Hada, 
 M. Ehara, K. Toyota, R. Fukuda, J. Hasegawa, M. Ishida, T. Nakajima, 
 Y. Honda, O. Kitao, H. Nakai, T. Vreven, J. A. Montgomery, Jr., 
 J. E. Peralta, F. Ogliaro, M. Bearpark, J. J. Heyd, E. Brothers, 
 K. N. Kudin, V. N. Staroverov, T. Keith, R. Kobayashi, J. Normand, 
 K. Raghavachari, A. Rendell, J. C. Burant, S. S. Iyengar, J. Tomasi, 
 M. Cossi, N. Rega, J. M. Millam, M. Klene, J. E. Knox, J. B. Cross, 
 V. Bakken, C. Adamo, J. Jaramillo, R. Gomperts, R. E. Stratmann, 
 O. Yazyev, A. J. Austin, R. Cammi, C. Pomelli, J. W. Ochterski, 
 R. L. Martin, K. Morokuma, V. G. Zakrzewski, G. A. Voth, 
 P. Salvador, J. J. Dannenberg, S. Dapprich, A. D. Daniels, 
 O. Farkas, J. B. Foresman, J. V. Ortiz, J. Cioslowski, 
 and D. J. Fox, Gaussian, Inc., Wallingford CT, 2013.
 
 ******************************************
 Gaussian 09:  ES64L-G09RevD.01 24-Apr-2013
                23-Aug-2020 
 ******************************************
 %nproc=8
 Will use up to    8 processors via shared memory.
 %mem=1000MB
 ----------------------------------------
 # rb3lyp/6-311+g** NMR geom=connectivity
 ----------------------------------------
 1/38=1,57=2/1;
 2/12=2,17=6,18=5,40=1/2;
 3/5=4,6=6,7=111,11=2,16=1,25=1,30=1,74=-5,116=1/1,2,8,3;
 4//1;
 5/5=2,38=5/2;
 8/6=1,10=90,11=11/1;
 10/13=100,45=16/2;
 6/7=2,8=2,9=2,10=2,28=1/1;
 99/9=1/99;
 -----
 Title
 -----
 Symbolic Z-matrix:
 Charge =  0 Multiplicity = 1
 C                    -4.05006  -0.57719   0.81367 
 H                    -5.02638  -1.00827   1.00248 
 C                    -3.93816   0.66178   0.24009 
 H                    -4.82524   1.23389  -0.01113 
 C                    -2.67684   1.24332   0.00576 
 C                    -1.49741   0.50515   0.28483 
 C                    -1.65083  -0.73387   0.9404 
 H                    -0.77136  -1.2731    1.26338 
 C                    -2.88985  -1.2624    1.19943 
 H                    -2.96837  -2.21246   1.71527 
 C                    -2.57732   2.59637  -0.41929 
 H                    -3.48707   3.14122  -0.64741 
 C                    -1.37419   3.21479  -0.4364 
 H                    -1.29973   4.2742   -0.65781 
 C                    -0.17195   2.49941  -0.17346 
 C                    -0.20439   1.10184   0.01927 
 C                     1.05135   3.20426  -0.06762 
 H                     1.04273   4.28195  -0.1897 
 C                     2.19421   2.54874   0.25796 
 H                     3.11685   3.09128   0.43347 
 C                     2.22165   1.13366   0.2935 
 C                     1.04869   0.39455   0.03024 
 C                     3.44834   0.46146   0.55739 
 H                     4.30958   1.06061   0.83348 
 C                     3.54273  -0.88559   0.47495 
 H                     4.47315  -1.39397   0.70388 
 C                     2.44901  -1.64744  -0.01963 
 C                     1.21507  -1.00573  -0.30136 
 C                     0.25311  -1.74344  -1.02166 
 H                    -0.65414  -1.25351  -1.34628 
 C                     0.44942  -3.06286  -1.34138 
 H                    -0.30832  -3.59443  -1.90541 
 C                     1.62517  -3.7208   -0.95525 
 H                     1.767    -4.76874  -1.1927 
 C                     2.61099  -3.01442  -0.31831 
 H                     3.55256  -3.49028  -0.06464 
 Bq                   -3.38117   2.30796  -0.10504 
 Bq                   -3.38223   2.43841   0.16511 
 Bq                   -3.38081   2.26448  -0.19509 
 Bq                   -3.38258   2.48189   0.25517 
 Bq                   -3.38046   2.221    -0.28514 
 Bq                   -3.38294   2.52538   0.34522 
 Bq                   -3.38011   2.17752  -0.37519 
 Bq                   -3.38329   2.56886   0.43527 
 Bq                   -3.37975   2.13403  -0.46524 
 Bq                   -3.38152   2.35145  -0.01499 
 Bq                   -3.3817    2.48498   0.03158 
 Bq                   -3.381     2.39801  -0.14852 
 Bq                   -3.38206   2.52846   0.12163 
 Bq                   -3.38064   2.35453  -0.23857 
 Bq                   -3.38241   2.57195   0.21168 
 Bq                   -3.38029   2.31105  -0.32862 
 Bq                   -3.38277   2.61543   0.30173 
 Bq                   -3.37993   2.26757  -0.41867 
 Bq                   -3.38312   2.65891   0.39178 
 Bq                   -3.37958   2.22408  -0.50872 
 Bq                   -3.38135   2.4415   -0.05847 
 Bq                   -3.29025  -2.01759   2.20609 
 Bq                   -3.28954  -2.10455   2.02599 
 Bq                   -3.29061  -1.97411   2.29614 
 Bq                   -3.28919  -2.14804   1.93594 
 Bq                   -3.29096  -1.93062   2.3862 
 Bq                   -3.28884  -2.19152   1.84589 
 Bq                   -3.29131  -1.88714   2.47625 
 Bq                   -3.28848  -2.235     1.75584 
 Bq                   -3.29167  -1.84366   2.5663 
 Bq                   -3.28813  -2.27849   1.66579 
 Bq                   -3.2899   -2.06107   2.11604 
 Bq                   -3.29008  -1.92754   2.16261 
 Bq                   -3.28937  -2.0145    1.98251 
 Bq                   -3.29044  -1.88406   2.25266 
 Bq                   -3.28902  -2.05799   1.89246 
 Bq                   -3.29079  -1.84057   2.34271 
 Bq                   -3.28867  -2.10147   1.80241 
 Bq                   -3.29114  -1.79709   2.43276 
 Bq                   -3.28831  -2.14495   1.71236 
 Bq                   -3.2915   -1.75361   2.52281 
 Bq                   -3.28796  -2.18843   1.62231 
 Bq                   -3.28973  -1.97102   2.07256 
 Bq                   -3.28991  -1.83749   2.11913 
 Bq                   -3.2892   -1.92445   1.93903 
 Bq                   -3.29026  -1.794     2.20918 
 Bq                   -3.28885  -1.96793   1.84898 
 Bq                   -3.29062  -1.75052   2.29923 
 Bq                   -3.28849  -2.01142   1.75893 
 Bq                   -3.29097  -1.70704   2.38928 
 Bq                   -3.28814  -2.0549    1.66888 
 Bq                   -3.29133  -1.66356   2.47933 
 Bq                   -3.28779  -2.09838   1.57883 
 Bq                   -3.28956  -1.88097   2.02908 
 Bq                   -3.28974  -1.74744   2.07565 
 Bq                   -3.28903  -1.8344    1.89555 
 Bq                   -3.29009  -1.70395   2.1657 
 Bq                   -3.28868  -1.87788   1.80549 
 Bq                   -3.29045  -1.66047   2.25575 
 Bq                   -3.28832  -1.92137   1.71544 
 Bq                   -3.2908   -1.61699   2.3458 
 Bq                   -3.28797  -1.96485   1.62539 
 Bq                   -3.29116  -1.5735    2.43585 
 Bq                   -3.28762  -2.00833   1.53534 
 Bq                   -3.28939  -1.79092   1.9856 
 Bq                   -3.28957  -1.65738   2.03216 
 Bq                   -3.28886  -1.74435   1.85206 
 Bq                   -3.28992  -1.6139    2.12222 
 Bq                   -3.28851  -1.78783   1.76201 
 Bq                   -3.29028  -1.57042   2.21227 
 Bq                   -3.28815  -1.83131   1.67196 
 Bq                   -3.29063  -1.52694   2.30232 
 Bq                   -3.2878   -1.8748    1.58191 
 Bq                   -3.29098  -1.48345   2.39237 
 Bq                   -3.28744  -1.91828   1.49186 
 Bq                   -3.28921  -1.70087   1.94211 
 Bq                   -3.2894   -1.56733   1.98868 
 Bq                   -3.28869  -1.6543    1.80858 
 Bq                   -3.28975  -1.52385   2.07873 
 Bq                   -3.28834  -1.69778   1.71853 
 Bq                   -3.29011  -1.48037   2.16878 
 Bq                   -3.28798  -1.74126   1.62848 
 Bq                   -3.29046  -1.43688   2.25883 
 Bq                   -3.28763  -1.78475   1.53843 
 Bq                   -3.29081  -1.3934    2.34888 
 Bq                   -3.28727  -1.82823   1.44838 
 Bq                   -3.28904  -1.61082   1.89863 
 Bq                   -3.28923  -1.47728   1.9452 
 Bq                   -3.28852  -1.56425   1.7651 
 Bq                   -3.28958  -1.4338    2.03525 
 Bq                   -3.28816  -1.60773   1.67505 
 Bq                   -3.28993  -1.39032   2.1253 
 Bq                   -3.28781  -1.65121   1.585 
 Bq                   -3.29029  -1.34683   2.21535 
 Bq                   -3.28746  -1.69469   1.49495 
 Bq                   -3.29064  -1.30335   2.3054 
 Bq                   -3.2871   -1.73818   1.4049 
 Bq                   -3.28887  -1.52076   1.85515 
 Bq                   -3.28906  -1.38723   1.90172 
 Bq                   -3.28835  -1.4742    1.72162 
 Bq                   -3.28941  -1.34375   1.99177 
 Bq                   -3.28799  -1.51768   1.63157 
 Bq                   -3.28976  -1.30026   2.08182 
 Bq                   -3.28764  -1.56116   1.54151 
 Bq                   -3.29012  -1.25678   2.17187 
 Bq                   -3.28729  -1.60464   1.45146 
 Bq                   -3.29047  -1.2133    2.26192 
 Bq                   -3.28693  -1.64813   1.36141 
 Bq                   -3.2887   -1.43071   1.81167 
 Bq                   -3.28888  -1.29718   1.85824 
 Bq                   -3.28818  -1.38414   1.67813 
 Bq                   -3.28924  -1.2537    1.94829 
 Bq                   -3.28782  -1.42763   1.58808 
 Bq                   -3.28959  -1.21021   2.03834 
 Bq                   -3.28747  -1.47111   1.49803 
 Bq                   -3.28995  -1.16673   2.12839 
 Bq                   -3.28711  -1.51459   1.40798 
 Bq                   -3.2903   -1.12325   2.21844 
 Bq                   -3.28676  -1.55807   1.31793 
 Bq                   -3.28853  -1.34066   1.76818 
 Bq                   -3.28871  -1.20713   1.81475 
 Bq                   -3.28801  -1.29409   1.63465 
 Bq                   -3.28907  -1.16364   1.9048 
 Bq                   -3.28765  -1.33757   1.5446 
 Bq                   -3.28942  -1.12016   1.99485 
 Bq                   -3.2873   -1.38106   1.45455 
 Bq                   -3.28978  -1.07668   2.0849 
 Bq                   -3.28694  -1.42454   1.3645 
 Bq                   -3.29013  -1.0332    2.17496 
 Bq                   -3.28659  -1.46802   1.27445 
 Bq                   -3.28836  -1.25061   1.7247 
 Bq                   -3.28854  -1.11708   1.77127 
 Bq                   -3.28783  -1.20404   1.59117 
 Bq                   -3.2889   -1.07359   1.86132 
 Bq                   -3.28748  -1.24752   1.50112 
 Bq                   -3.28925  -1.03011   1.95137 
 Bq                   -3.28713  -1.29101   1.41107 
 Bq                   -3.2896   -0.98663   2.04142 
 Bq                   -3.28677  -1.33449   1.32102 
 Bq                   -3.28996  -0.94314   2.13147 
 Bq                   -3.28642  -1.37797   1.23097 
 Bq                   -3.28819  -1.16056   1.68122 
 Bq                   -3.28837  -1.02702   1.72779 
 Bq                   -3.28766  -1.11399   1.54769 
 Bq                   -3.28873  -0.98354   1.81784 
 Bq                   -3.28731  -1.15747   1.45764 
 Bq                   -3.28908  -0.94006   1.90789 
 Bq                   -3.28696  -1.20095   1.36759 
 Bq                   -3.28943  -0.89658   1.99794 
 Bq                   -3.2866   -1.24444   1.27753 
 Bq                   -3.28979  -0.85309   2.08799 
 Bq                   -3.28625  -1.28792   1.18748 
 Bq                   -3.28802  -1.07051   1.63774 
 Bq                   -3.2882   -0.93697   1.68431 
 Bq                   -3.28749  -1.02394   1.5042 
 Bq                   -3.28855  -0.89349   1.77436 
 Bq                   -3.28714  -1.06742   1.41415 
 Bq                   -3.28891  -0.85001   1.86441 
 Bq                   -3.28678  -1.1109    1.3241 
 Bq                   -3.28926  -0.80652   1.95446 
 Bq                   -3.28643  -1.15439   1.23405 
 Bq                   -3.28962  -0.76304   2.04451 
 Bq                   -3.28608  -1.19787   1.144 
 Bq                   -3.28785  -0.98046   1.59425 
 Bq                   -3.28803  -0.84692   1.64082 
 Bq                   -3.28732  -0.93389   1.46072 
 Bq                   -3.28838  -0.80344   1.73087 
 Bq                   -3.28697  -0.97737   1.37067 
 Bq                   -3.28874  -0.75996   1.82092 
 Bq                   -3.28661  -1.02085   1.28062 
 Bq                   -3.28909  -0.71647   1.91098 
 Bq                   -3.28626  -1.06433   1.19057 
 Bq                   -3.28945  -0.67299   2.00103 
 Bq                   -3.28591  -1.10782   1.10052 
 Bq                   -3.28768  -0.8904    1.55077 
 Bq                   -3.28786  -0.75687   1.59734 
 Bq                   -3.28715  -0.84384   1.41724 
 Bq                   -3.28821  -0.71339   1.68739 
 Bq                   -3.2868   -0.88732   1.32719 
 Bq                   -3.28857  -0.6699    1.77744 
 Bq                   -3.28644  -0.9308    1.23714 
 Bq                   -3.28892  -0.62642   1.86749 
 Bq                   -3.28609  -0.97428   1.14709 
 Bq                   -3.28928  -0.58294   1.95754 
 Bq                   -3.28574  -1.01777   1.05704 
 Bq                   -3.28751  -0.80035   1.50729 
 Bq                   -3.28769  -0.66682   1.55386 
 Bq                   -3.28698  -0.75378   1.37376 
 Bq                   -3.28804  -0.62334   1.64391 
 Bq                   -3.28663  -0.79727   1.28371 
 Bq                   -3.2884   -0.57985   1.73396 
 Bq                   -3.28627  -0.84075   1.19366 
 Bq                   -3.28875  -0.53637   1.82401 
 Bq                   -3.28592  -0.88423   1.1036 
 Bq                   -3.2891   -0.49289   1.91406 
 Bq                   -3.28556  -0.92771   1.01355 
 Bq                   -3.28733  -0.7103    1.46381 
 Bq                   -3.28752  -0.57677   1.51038 
 Bq                   -3.28681  -0.66373   1.33027 
 Bq                   -3.28787  -0.53328   1.60043 
 
 Symmetry turned off:
 Cannot cope with ghost atoms or with translation vectors.
 Stoichiometry    C22H14
 Framework group  C1[X(C22H14)]
 NUMDOF-- NAT=    36 NAtoms=   236
 Deg. of freedom     0
 Full point group                 C1      NOp   1
                          Input orientation:                          
 ---------------------------------------------------------------------
 Center     Atomic      Atomic             Coordinates (Angstroms)
 Number     Number       Type             X           Y           Z
 ---------------------------------------------------------------------
      1          6           0       -4.050056   -0.577186    0.813671
      2          1           0       -5.026380   -1.008273    1.002476
      3          6           0       -3.938155    0.661780    0.240088
      4          1           0       -4.825242    1.233889   -0.011130
      5          6           0       -2.676841    1.243325    0.005758
      6          6           0       -1.497412    0.505153    0.284825
      7          6           0       -1.650833   -0.733873    0.940403
      8          1           0       -0.771365   -1.273097    1.263375
      9          6           0       -2.889855   -1.262404    1.199431
     10          1           0       -2.968371   -2.212456    1.715268
     11          6           0       -2.577319    2.596370   -0.419293
     12          1           0       -3.487073    3.141224   -0.647406
     13          6           0       -1.374190    3.214790   -0.436403
     14          1           0       -1.299732    4.274202   -0.657814
     15          6           0       -0.171949    2.499409   -0.173459
     16          6           0       -0.204392    1.101844    0.019269
     17          6           0        1.051349    3.204256   -0.067622
     18          1           0        1.042734    4.281950   -0.189700
     19          6           0        2.194209    2.548745    0.257958
     20          1           0        3.116853    3.091285    0.433473
     21          6           0        2.221647    1.133656    0.293499
     22          6           0        1.048693    0.394553    0.030241
     23          6           0        3.448336    0.461463    0.557394
     24          1           0        4.309579    1.060605    0.833485
     25          6           0        3.542735   -0.885593    0.474946
     26          1           0        4.473147   -1.393970    0.703882
     27          6           0        2.449005   -1.647445   -0.019632
     28          6           0        1.215070   -1.005726   -0.301357
     29          6           0        0.253111   -1.743444   -1.021659
     30          1           0       -0.654136   -1.253505   -1.346285
     31          6           0        0.449419   -3.062860   -1.341378
     32          1           0       -0.308316   -3.594431   -1.905406
     33          6           0        1.625173   -3.720797   -0.955254
     34          1           0        1.767005   -4.768740   -1.192702
     35          6           0        2.610987   -3.014418   -0.318305
     36          1           0        3.552561   -3.490281   -0.064637
     37          0           0       -3.381168    2.307963   -0.105037
     38          0           0       -3.382230    2.438412    0.165115
     39          0           0       -3.380814    2.264481   -0.195088
     40          0           0       -3.382584    2.481894    0.255166
     41          0           0       -3.380460    2.220998   -0.285139
     42          0           0       -3.382938    2.525377    0.345216
     43          0           0       -3.380106    2.177515   -0.375189
     44          0           0       -3.383292    2.568860    0.435267
     45          0           0       -3.379752    2.134033   -0.465240
     46          0           0       -3.381522    2.351446   -0.014986
     47          0           0       -3.381705    2.484980    0.031582
     48          0           0       -3.380997    2.398015   -0.148519
     49          0           0       -3.382059    2.528463    0.121633
     50          0           0       -3.380643    2.354532   -0.238570
     51          0           0       -3.382413    2.571946    0.211683
     52          0           0       -3.380289    2.311049   -0.328621
     53          0           0       -3.382767    2.615428    0.301734
     54          0           0       -3.379935    2.267567   -0.418672
     55          0           0       -3.383121    2.658911    0.391785
     56          0           0       -3.379581    2.224084   -0.508722
     57          0           0       -3.381351    2.441498   -0.058469
     58          0           0       -3.290252   -2.017589    2.206094
     59          0           0       -3.289544   -2.104555    2.025993
     60          0           0       -3.290606   -1.974107    2.296145
     61          0           0       -3.289190   -2.148037    1.935942
     62          0           0       -3.290960   -1.930624    2.386195
     63          0           0       -3.288836   -2.191520    1.845891
     64          0           0       -3.291314   -1.887141    2.476246
     65          0           0       -3.288482   -2.235003    1.755841
     66          0           0       -3.291668   -1.843658    2.566297
     67          0           0       -3.288128   -2.278486    1.665790
     68          0           0       -3.289898   -2.061072    2.116043
     69          0           0       -3.290081   -1.927538    2.162612
     70          0           0       -3.289373   -2.014503    1.982510
     71          0           0       -3.290435   -1.884055    2.252662
     72          0           0       -3.289019   -2.057986    1.892460
     73          0           0       -3.290789   -1.840572    2.342713
     74          0           0       -3.288665   -2.101469    1.802409
     75          0           0       -3.291143   -1.797090    2.432764
     76          0           0       -3.288311   -2.144952    1.712358
     77          0           0       -3.291497   -1.753607    2.522814
     78          0           0       -3.287957   -2.188434    1.622307
     79          0           0       -3.289727   -1.971021    2.072561
     80          0           0       -3.289910   -1.837487    2.119129
     81          0           0       -3.289202   -1.924452    1.939028
     82          0           0       -3.290264   -1.794004    2.209180
     83          0           0       -3.288848   -1.967935    1.848977
     84          0           0       -3.290618   -1.750521    2.299231
     85          0           0       -3.288494   -2.011417    1.758927
     86          0           0       -3.290972   -1.707038    2.389281
     87          0           0       -3.288140   -2.054900    1.668876
     88          0           0       -3.291326   -1.663556    2.479332
     89          0           0       -3.287786   -2.098383    1.578825
     90          0           0       -3.289556   -1.880969    2.029079
     91          0           0       -3.289739   -1.747435    2.075647
     92          0           0       -3.289031   -1.834401    1.895546
     93          0           0       -3.290093   -1.703952    2.165698
     94          0           0       -3.288677   -1.877883    1.805495
     95          0           0       -3.290447   -1.660470    2.255748
     96          0           0       -3.288323   -1.921366    1.715444
     97          0           0       -3.290801   -1.616987    2.345799
     98          0           0       -3.287969   -1.964849    1.625393
     99          0           0       -3.291155   -1.573504    2.435850
    100          0           0       -3.287615   -2.008331    1.535343
    101          0           0       -3.289385   -1.790918    1.985596
    102          0           0       -3.289568   -1.657384    2.032165
    103          0           0       -3.288860   -1.744349    1.852063
    104          0           0       -3.289922   -1.613901    2.122215
    105          0           0       -3.288506   -1.787832    1.762012
    106          0           0       -3.290276   -1.570418    2.212266
    107          0           0       -3.288152   -1.831315    1.671962
    108          0           0       -3.290630   -1.526936    2.302317
    109          0           0       -3.287798   -1.874797    1.581911
    110          0           0       -3.290984   -1.483453    2.392367
    111          0           0       -3.287444   -1.918280    1.491860
    112          0           0       -3.289214   -1.700866    1.942114
    113          0           0       -3.289397   -1.567332    1.988682
    114          0           0       -3.288689   -1.654298    1.808581
    115          0           0       -3.289751   -1.523850    2.078733
    116          0           0       -3.288335   -1.697781    1.718530
    117          0           0       -3.290105   -1.480367    2.168784
    118          0           0       -3.287981   -1.741263    1.628479
    119          0           0       -3.290459   -1.436884    2.258834
    120          0           0       -3.287627   -1.784746    1.538429
    121          0           0       -3.290813   -1.393401    2.348885
    122          0           0       -3.287273   -1.828229    1.448378
    123          0           0       -3.289043   -1.610815    1.898631
    124          0           0       -3.289227   -1.477281    1.945200
    125          0           0       -3.288519   -1.564246    1.765098
    126          0           0       -3.289581   -1.433798    2.035250
    127          0           0       -3.288165   -1.607729    1.675048
    128          0           0       -3.289934   -1.390316    2.125301
    129          0           0       -3.287811   -1.651212    1.584997
    130          0           0       -3.290288   -1.346833    2.215352
    131          0           0       -3.287457   -1.694695    1.494946
    132          0           0       -3.290642   -1.303350    2.305403
    133          0           0       -3.287103   -1.738177    1.404896
    134          0           0       -3.288873   -1.520764    1.855149
    135          0           0       -3.289056   -1.387230    1.901717
    136          0           0       -3.288348   -1.474195    1.721616
    137          0           0       -3.289410   -1.343747    1.991768
    138          0           0       -3.287994   -1.517678    1.631565
    139          0           0       -3.289764   -1.300264    2.081819
    140          0           0       -3.287640   -1.561160    1.541515
    141          0           0       -3.290118   -1.256781    2.171869
    142          0           0       -3.287286   -1.604643    1.451464
    143          0           0       -3.290472   -1.213299    2.261920
    144          0           0       -3.286932   -1.648126    1.361413
    145          0           0       -3.288702   -1.430712    1.811667
    146          0           0       -3.288885   -1.297178    1.858235
    147          0           0       -3.288177   -1.384144    1.678134
    148          0           0       -3.289239   -1.253695    1.948286
    149          0           0       -3.287823   -1.427626    1.588083
    150          0           0       -3.289593   -1.210213    2.038336
    151          0           0       -3.287469   -1.471109    1.498032
    152          0           0       -3.289947   -1.166730    2.128387
    153          0           0       -3.287115   -1.514592    1.407982
    154          0           0       -3.290301   -1.123247    2.218438
    155          0           0       -3.286761   -1.558074    1.317931
    156          0           0       -3.288531   -1.340661    1.768184
    157          0           0       -3.288714   -1.207127    1.814753
    158          0           0       -3.288006   -1.294092    1.634651
    159          0           0       -3.289068   -1.163644    1.904803
    160          0           0       -3.287652   -1.337575    1.544601
    161          0           0       -3.289422   -1.120161    1.994854
    162          0           0       -3.287298   -1.381058    1.454550
    163          0           0       -3.289776   -1.076679    2.084905
    164          0           0       -3.286944   -1.424540    1.364499
    165          0           0       -3.290130   -1.033196    2.174955
    166          0           0       -3.286590   -1.468023    1.274448
    167          0           0       -3.288360   -1.250609    1.724702
    168          0           0       -3.288543   -1.117075    1.771270
    169          0           0       -3.287835   -1.204041    1.591169
    170          0           0       -3.288897   -1.073593    1.861321
    171          0           0       -3.287481   -1.247524    1.501118
    172          0           0       -3.289251   -1.030110    1.951372
    173          0           0       -3.287127   -1.291006    1.411067
    174          0           0       -3.289605   -0.986627    2.041422
    175          0           0       -3.286773   -1.334489    1.321017
    176          0           0       -3.289959   -0.943145    2.131473
    177          0           0       -3.286419   -1.377972    1.230966
    178          0           0       -3.288189   -1.160558    1.681220
    179          0           0       -3.288372   -1.027024    1.727788
    180          0           0       -3.287664   -1.113989    1.547686
    181          0           0       -3.288726   -0.983541    1.817839
    182          0           0       -3.287310   -1.157472    1.457636
    183          0           0       -3.289080   -0.940059    1.907889
    184          0           0       -3.286956   -1.200955    1.367585
    185          0           0       -3.289434   -0.896576    1.997940
    186          0           0       -3.286602   -1.244438    1.277534
    187          0           0       -3.289788   -0.853093    2.087991
    188          0           0       -3.286248   -1.287920    1.187484
    189          0           0       -3.288018   -1.070507    1.637737
    190          0           0       -3.288201   -0.936973    1.684305
    191          0           0       -3.287493   -1.023938    1.504204
    192          0           0       -3.288555   -0.893490    1.774356
    193          0           0       -3.287139   -1.067421    1.414153
    194          0           0       -3.288909   -0.850007    1.864407
    195          0           0       -3.286785   -1.110903    1.324103
    196          0           0       -3.289263   -0.806524    1.954458
    197          0           0       -3.286431   -1.154386    1.234052
    198          0           0       -3.289617   -0.763042    2.044508
    199          0           0       -3.286077   -1.197869    1.144001
    200          0           0       -3.287847   -0.980455    1.594255
    201          0           0       -3.288030   -0.846921    1.640823
    202          0           0       -3.287322   -0.933887    1.460722
    203          0           0       -3.288384   -0.803438    1.730874
    204          0           0       -3.286968   -0.977369    1.370671
    205          0           0       -3.288738   -0.759956    1.820924
    206          0           0       -3.286614   -1.020852    1.280620
    207          0           0       -3.289092   -0.716473    1.910975
    208          0           0       -3.286260   -1.064335    1.190570
    209          0           0       -3.289446   -0.672990    2.001026
    210          0           0       -3.285906   -1.107818    1.100519
    211          0           0       -3.287676   -0.890404    1.550772
    212          0           0       -3.287859   -0.756870    1.597341
    213          0           0       -3.287151   -0.843835    1.417239
    214          0           0       -3.288213   -0.713387    1.687391
    215          0           0       -3.286797   -0.887318    1.327189
    216          0           0       -3.288567   -0.669904    1.777442
    217          0           0       -3.286443   -0.930801    1.237138
    218          0           0       -3.288921   -0.626422    1.867493
    219          0           0       -3.286089   -0.974283    1.147087
    220          0           0       -3.289275   -0.582939    1.957544
    221          0           0       -3.285735   -1.017766    1.057037
    222          0           0       -3.287505   -0.800353    1.507290
    223          0           0       -3.287688   -0.666818    1.553858
    224          0           0       -3.286980   -0.753784    1.373757
    225          0           0       -3.288042   -0.623336    1.643909
    226          0           0       -3.286626   -0.797267    1.283706
    227          0           0       -3.288396   -0.579853    1.733960
    228          0           0       -3.286272   -0.840749    1.193656
    229          0           0       -3.288750   -0.536370    1.824010
    230          0           0       -3.285918   -0.884232    1.103605
    231          0           0       -3.289104   -0.492888    1.914061
    232          0           0       -3.285564   -0.927715    1.013554
    233          0           0       -3.287334   -0.710301    1.463808
    234          0           0       -3.287517   -0.576767    1.510376
    235          0           0       -3.286809   -0.663732    1.330275
    236          0           0       -3.287871   -0.533284    1.600427
 ---------------------------------------------------------------------
 Rotational constants (GHZ):      0.4529074      0.2836956      0.1879557
 Standard basis: 6-311+G(d,p) (5D, 7F)
 Warning:  center  37 has no basis functions!
 Warning:  center  38 has no basis functions!
 Warning:  center  39 has no basis functions!
 Warning:  center  40 has no basis functions!
 Warning:  center  41 has no basis functions!
 Warning:  center  42 has no basis functions!
 Warning:  center  43 has no basis functions!
 Warning:  center  44 has no basis functions!
 Warning:  center  45 has no basis functions!
 Warning:  center  46 has no basis functions!
 Warning:  center  47 has no basis functions!
 Warning:  center  48 has no basis functions!
 Warning:  center  49 has no basis functions!
 Warning:  center  50 has no basis functions!
 Warning:  center  51 has no basis functions!
 Warning:  center  52 has no basis functions!
 Warning:  center  53 has no basis functions!
 Warning:  center  54 has no basis functions!
 Warning:  center  55 has no basis functions!
 Warning:  center  56 has no basis functions!
 Warning:  center  57 has no basis functions!
 Warning:  center  58 has no basis functions!
 Warning:  center  59 has no basis functions!
 Warning:  center  60 has no basis functions!
 Warning:  center  61 has no basis functions!
 Warning:  center  62 has no basis functions!
 Warning:  center  63 has no basis functions!
 Warning:  center  64 has no basis functions!
 Warning:  center  65 has no basis functions!
 Warning:  center  66 has no basis functions!
 Warning:  center  67 has no basis functions!
 Warning:  center  68 has no basis functions!
 Warning:  center  69 has no basis functions!
 Warning:  center  70 has no basis functions!
 Warning:  center  71 has no basis functions!
 Warning:  center  72 has no basis functions!
 Warning:  center  73 has no basis functions!
 Warning:  center  74 has no basis functions!
 Warning:  center  75 has no basis functions!
 Warning:  center  76 has no basis functions!
 Warning:  center  77 has no basis functions!
 Warning:  center  78 has no basis functions!
 Warning:  center  79 has no basis functions!
 Warning:  center  80 has no basis functions!
 Warning:  center  81 has no basis functions!
 Warning:  center  82 has no basis functions!
 Warning:  center  83 has no basis functions!
 Warning:  center  84 has no basis functions!
 Warning:  center  85 has no basis functions!
 Warning:  center  86 has no basis functions!
 Warning:  center  87 has no basis functions!
 Warning:  center  88 has no basis functions!
 Warning:  center  89 has no basis functions!
 Warning:  center  90 has no basis functions!
 Warning:  center  91 has no basis functions!
 Warning:  center  92 has no basis functions!
 Warning:  center  93 has no basis functions!
 Warning:  center  94 has no basis functions!
 Warning:  center  95 has no basis functions!
 Warning:  center  96 has no basis functions!
 Warning:  center  97 has no basis functions!
 Warning:  center  98 has no basis functions!
 Warning:  center  99 has no basis functions!
 Warning:  center 100 has no basis functions!
 Warning:  center 101 has no basis functions!
 Warning:  center 102 has no basis functions!
 Warning:  center 103 has no basis functions!
 Warning:  center 104 has no basis functions!
 Warning:  center 105 has no basis functions!
 Warning:  center 106 has no basis functions!
 Warning:  center 107 has no basis functions!
 Warning:  center 108 has no basis functions!
 Warning:  center 109 has no basis functions!
 Warning:  center 110 has no basis functions!
 Warning:  center 111 has no basis functions!
 Warning:  center 112 has no basis functions!
 Warning:  center 113 has no basis functions!
 Warning:  center 114 has no basis functions!
 Warning:  center 115 has no basis functions!
 Warning:  center 116 has no basis functions!
 Warning:  center 117 has no basis functions!
 Warning:  center 118 has no basis functions!
 Warning:  center 119 has no basis functions!
 Warning:  center 120 has no basis functions!
 Warning:  center 121 has no basis functions!
 Warning:  center 122 has no basis functions!
 Warning:  center 123 has no basis functions!
 Warning:  center 124 has no basis functions!
 Warning:  center 125 has no basis functions!
 Warning:  center 126 has no basis functions!
 Warning:  center 127 has no basis functions!
 Warning:  center 128 has no basis functions!
 Warning:  center 129 has no basis functions!
 Warning:  center 130 has no basis functions!
 Warning:  center 131 has no basis functions!
 Warning:  center 132 has no basis functions!
 Warning:  center 133 has no basis functions!
 Warning:  center 134 has no basis functions!
 Warning:  center 135 has no basis functions!
 Warning:  center 136 has no basis functions!
 Warning:  center 137 has no basis functions!
 Warning:  center 138 has no basis functions!
 Warning:  center 139 has no basis functions!
 Warning:  center 140 has no basis functions!
 Warning:  center 141 has no basis functions!
 Warning:  center 142 has no basis functions!
 Warning:  center 143 has no basis functions!
 Warning:  center 144 has no basis functions!
 Warning:  center 145 has no basis functions!
 Warning:  center 146 has no basis functions!
 Warning:  center 147 has no basis functions!
 Warning:  center 148 has no basis functions!
 Warning:  center 149 has no basis functions!
 Warning:  center 150 has no basis functions!
 Warning:  center 151 has no basis functions!
 Warning:  center 152 has no basis functions!
 Warning:  center 153 has no basis functions!
 Warning:  center 154 has no basis functions!
 Warning:  center 155 has no basis functions!
 Warning:  center 156 has no basis functions!
 Warning:  center 157 has no basis functions!
 Warning:  center 158 has no basis functions!
 Warning:  center 159 has no basis functions!
 Warning:  center 160 has no basis functions!
 Warning:  center 161 has no basis functions!
 Warning:  center 162 has no basis functions!
 Warning:  center 163 has no basis functions!
 Warning:  center 164 has no basis functions!
 Warning:  center 165 has no basis functions!
 Warning:  center 166 has no basis functions!
 Warning:  center 167 has no basis functions!
 Warning:  center 168 has no basis functions!
 Warning:  center 169 has no basis functions!
 Warning:  center 170 has no basis functions!
 Warning:  center 171 has no basis functions!
 Warning:  center 172 has no basis functions!
 Warning:  center 173 has no basis functions!
 Warning:  center 174 has no basis functions!
 Warning:  center 175 has no basis functions!
 Warning:  center 176 has no basis functions!
 Warning:  center 177 has no basis functions!
 Warning:  center 178 has no basis functions!
 Warning:  center 179 has no basis functions!
 Warning:  center 180 has no basis functions!
 Warning:  center 181 has no basis functions!
 Warning:  center 182 has no basis functions!
 Warning:  center 183 has no basis functions!
 Warning:  center 184 has no basis functions!
 Warning:  center 185 has no basis functions!
 Warning:  center 186 has no basis functions!
 Warning:  center 187 has no basis functions!
 Warning:  center 188 has no basis functions!
 Warning:  center 189 has no basis functions!
 Warning:  center 190 has no basis functions!
 Warning:  center 191 has no basis functions!
 Warning:  center 192 has no basis functions!
 Warning:  center 193 has no basis functions!
 Warning:  center 194 has no basis functions!
 Warning:  center 195 has no basis functions!
 Warning:  center 196 has no basis functions!
 Warning:  center 197 has no basis functions!
 Warning:  center 198 has no basis functions!
 Warning:  center 199 has no basis functions!
 Warning:  center 200 has no basis functions!
 Warning:  center 201 has no basis functions!
 Warning:  center 202 has no basis functions!
 Warning:  center 203 has no basis functions!
 Warning:  center 204 has no basis functions!
 Warning:  center 205 has no basis functions!
 Warning:  center 206 has no basis functions!
 Warning:  center 207 has no basis functions!
 Warning:  center 208 has no basis functions!
 Warning:  center 209 has no basis functions!
 Warning:  center 210 has no basis functions!
 Warning:  center 211 has no basis functions!
 Warning:  center 212 has no basis functions!
 Warning:  center 213 has no basis functions!
 Warning:  center 214 has no basis functions!
 Warning:  center 215 has no basis functions!
 Warning:  center 216 has no basis functions!
 Warning:  center 217 has no basis functions!
 Warning:  center 218 has no basis functions!
 Warning:  center 219 has no basis functions!
 Warning:  center 220 has no basis functions!
 Warning:  center 221 has no basis functions!
 Warning:  center 222 has no basis functions!
 Warning:  center 223 has no basis functions!
 Warning:  center 224 has no basis functions!
 Warning:  center 225 has no basis functions!
 Warning:  center 226 has no basis functions!
 Warning:  center 227 has no basis functions!
 Warning:  center 228 has no basis functions!
 Warning:  center 229 has no basis functions!
 Warning:  center 230 has no basis functions!
 Warning:  center 231 has no basis functions!
 Warning:  center 232 has no basis functions!
 Warning:  center 233 has no basis functions!
 Warning:  center 234 has no basis functions!
 Warning:  center 235 has no basis functions!
 Warning:  center 236 has no basis functions!
   568 basis functions,   904 primitive gaussians,   590 cartesian basis functions
    73 alpha electrons       73 beta electrons
       nuclear repulsion energy      1610.9176155625 Hartrees.
 NAtoms=  236 NActive=  236 NUniq=  236 SFac= 1.00D+00 NAtFMM=   60 NAOKFM=T Big=T
 Integral buffers will be    131072 words long.
 Raffenetti 2 integral format.
 Two-electron integral symmetry is turned off.
 One-electron integrals computed using PRISM.
 NBasis=   568 RedAO= T EigKep=  1.78D-06  NBF=   568
 NBsUse=   556 1.00D-06 EigRej=  9.09D-07 NBFU=   556
 ExpMin= 4.38D-02 ExpMax= 4.56D+03 ExpMxC= 6.82D+02 IAcc=2 IRadAn=         4 AccDes= 0.00D+00
 Harris functional with IExCor=  402 and IRadAn=       4 diagonalized for initial guess.
 HarFok:  IExCor=  402 AccDes= 0.00D+00 IRadAn=         4 IDoV= 1 UseB2=F ITyADJ=14
 ICtDFT=  3500011 ScaDFX=  1.000000  1.000000  1.000000  1.000000
 FoFCou: FMM=F IPFlag=           0 FMFlag=      100000 FMFlg1=        2001
         NFxFlg=           0 DoJE=T BraDBF=F KetDBF=T FulRan=T
         wScrn=  0.000000 ICntrl=     500 IOpCl=  0 I1Cent=   200000004 NGrid=           0
         NMat0=    1 NMatS0=      1 NMatT0=    0 NMatD0=    1 NMtDS0=    0 NMtDT0=    0
 Symmetry not used in FoFCou.
 Requested convergence on RMS density matrix=1.00D-08 within 128 cycles.
 Requested convergence on MAX density matrix=1.00D-06.
 Requested convergence on             energy=1.00D-06.
 No special actions if energy rises.
 SCF Done:  E(RB3LYP) =  -847.003289847     A.U. after   15 cycles
            NFock= 15  Conv=0.76D-08     -V/T= 2.0040
 DoSCS=F DFT=T ScalE2(SS,OS)=  1.000000  1.000000
 Range of M.O.s used for correlation:     1   556
 NBasis=   568 NAE=    73 NBE=    73 NFC=     0 NFV=     0
 NROrb=    556 NOA=    73 NOB=    73 NVA=   483 NVB=   483

 **** Warning!!: The largest alpha MO coefficient is  0.10971036D+03

          Differentiating once with respect to magnetic field using GIAOs.
          Electric field/nuclear overlap derivatives assumed to be zero.
 FoFCou: FMM=F IPFlag=           0 FMFlag=      100000 FMFlg1=        2001
         NFxFlg=           0 DoJE=F BraDBF=F KetDBF=T FulRan=T
         wScrn=  0.000000 ICntrl=    6100 IOpCl=  0 I1Cent=           7 NGrid=         236
         NMat0=    1 NMatS0=      1 NMatT0=    0 NMatD0=    1 NMtDS0=    0 NMtDT0=    0
 Symmetry not used in FoFCou.
 FoFJK:  IHMeth= 1 ICntrl=    6127 DoSepK=F KAlg= 0 I1Cent=   0 FoldK=F
 IRaf=         1 NMat=   1 IRICut=       1 DoRegI=T DoRafI=F ISym2E= 0.
          There are     3 degrees of freedom in the 1st order CPHF.  IDoFFX=0 NUNeed=     3.
      3 vectors produced by pass  0 Test12= 1.18D-12 3.33D-08 XBig12= 2.07D+03 9.18D+00.
 AX will form     3 AO Fock derivatives at one time.
      3 vectors produced by pass  1 Test12= 1.18D-12 3.33D-08 XBig12= 3.56D+00 8.03D-01.
      3 vectors produced by pass  2 Test12= 1.18D-12 3.33D-08 XBig12= 2.10D-02 6.92D-02.
      3 vectors produced by pass  3 Test12= 1.18D-12 3.33D-08 XBig12= 5.45D-05 1.89D-03.
      3 vectors produced by pass  4 Test12= 1.18D-12 3.33D-08 XBig12= 1.20D-07 7.79D-05.
      3 vectors produced by pass  5 Test12= 1.18D-12 3.33D-08 XBig12= 4.02D-10 4.73D-06.
      3 vectors produced by pass  6 Test12= 1.18D-12 3.33D-08 XBig12= 1.32D-12 2.61D-07.
 InvSVY:  IOpt=1 It=  1 EMax= 2.13D-14
 Solved reduced A of dimension    21 with     3 vectors.
 Calculating GIAO nuclear magnetic shielding tensors.
 SCF GIAO Magnetic shielding tensor (ppm):
      1  C    Isotropic =    53.8139   Anisotropy =   178.0260
   XX=   -41.4327   YX=   -32.3458   ZX=    10.0287
   XY=   -28.3572   YY=    59.0527   ZY=    55.1899
   XZ=    13.1759   YZ=    58.7550   ZZ=   143.8218
   Eigenvalues:   -53.8775    42.8214   172.4979
      2  H    Isotropic =    24.3095   Anisotropy =     4.8536
   XX=    25.5771   YX=    -1.0289   ZX=     0.5661
   XY=    -0.7431   YY=    26.1829   ZY=    -2.3306
   XZ=    -0.1707   YZ=    -2.4411   ZZ=    21.1687
   Eigenvalues:    20.2108    25.1725    27.5453
      3  C    Isotropic =    51.4055   Anisotropy =   157.8639
   XX=   -31.5399   YX=    38.5015   ZX=   -17.9316
   XY=    34.3519   YY=    49.9437   ZY=    49.6392
   XZ=    -9.8383   YZ=    44.6006   ZZ=   135.8127
   Eigenvalues:   -50.5747    48.1432   156.6481
      4  H    Isotropic =    23.8290   Anisotropy =     7.1838
   XX=    25.3635   YX=     1.8486   ZX=    -0.3559
   XY=     1.9656   YY=    26.4581   ZY=    -2.4103
   XZ=    -1.2941   YZ=    -2.6614   ZZ=    19.6654
   Eigenvalues:    18.8176    24.0511    28.6182
      5  C    Isotropic =    46.0697   Anisotropy =   207.6751
   XX=   -19.2123   YX=    -4.8852   ZX=    -1.6475
   XY=     2.8938   YY=    -2.9860   ZY=    66.5656
   XZ=     2.5356   YZ=    67.9144   ZZ=   160.4073
   Eigenvalues:   -27.2455   -19.0652   184.5197
      6  C    Isotropic =    47.5218   Anisotropy =   196.9389
   XX=   -28.1552   YX=    -2.7889   ZX=    12.0660
   XY=   -14.3886   YY=    21.2063   ZY=    74.2521
   XZ=   -18.6356   YZ=    61.1113   ZZ=   149.5144
   Eigenvalues:   -30.2925    -5.9564   178.8144
      7  C    Isotropic =    49.3915   Anisotropy =   179.8333
   XX=   -12.5211   YX=    28.7048   ZX=   -24.6745
   XY=    31.5123   YY=    29.7000   ZY=    77.7459
   XZ=   -40.0095   YZ=    65.3072   ZZ=   130.9956
   Eigenvalues:   -52.1299    31.0240   169.2804
      8  H    Isotropic =    23.1586   Anisotropy =    13.5525
   XX=    28.5711   YX=     1.5482   ZX=    -3.6986
   XY=     3.2466   YY=    22.7592   ZY=    -2.1157
   XZ=    -8.3753   YZ=    -1.0821   ZZ=    18.1456
   Eigenvalues:    15.3521    21.9301    32.1936
      9  C    Isotropic =    55.1460   Anisotropy =   174.7426
   XX=    46.7071   YX=    -2.6162   ZX=    -2.8420
   XY=     0.6223   YY=    -1.6258   ZY=    92.8272
   XZ=     0.5159   YZ=    95.6598   ZZ=   120.3568
   Eigenvalues:   -52.8932    46.6901   171.6411
     10  H    Isotropic =    24.6278   Anisotropy =     7.1815
   XX=    29.1040   YX=     0.1399   ZX=    -0.3694
   XY=     0.3642   YY=    23.4778   ZY=    -1.0805
   XZ=    -2.4493   YZ=    -2.9465   ZZ=    21.3016
   Eigenvalues:    19.9703    24.4977    29.4155
     11  C    Isotropic =    51.5607   Anisotropy =   151.2142
   XX=     2.1639   YX=    40.9287   ZX=   -26.0048
   XY=    49.9131   YY=    12.2331   ZY=    42.1342
   XZ=   -15.6145   YZ=    38.6614   ZZ=   140.2851
   Eigenvalues:   -48.1951    50.5071   152.3701
     12  H    Isotropic =    23.8537   Anisotropy =     7.3815
   XX=    25.9672   YX=     2.3738   ZX=    -0.2390
   XY=     2.4320   YY=    26.3975   ZY=    -1.8291
   XZ=     0.3529   YZ=    -1.7731   ZZ=    19.1964
   Eigenvalues:    18.7149    24.0714    28.7747
     13  C    Isotropic =    52.8653   Anisotropy =   147.4265
   XX=    51.2944   YX=    19.9221   ZX=   -13.4678
   XY=    11.5478   YY=   -34.0176   ZY=    42.5079
   XZ=    -9.2241   YZ=    40.0716   ZZ=   141.3192
   Eigenvalues:   -46.5152    53.9616   151.1497
     14  H    Isotropic =    24.0156   Anisotropy =     7.3485
   XX=    28.6644   YX=     0.6281   ZX=     1.0808
   XY=     0.5926   YY=    24.4325   ZY=    -1.0823
   XZ=     1.6846   YZ=    -0.3842   ZZ=    18.9500
   Eigenvalues:    18.6430    24.4892    28.9146
     15  C    Isotropic =    46.2221   Anisotropy =   203.9048
   XX=   -27.2215   YX=    -0.0442   ZX=   -28.9124
   XY=     4.6427   YY=   -10.5571   ZY=    28.3830
   XZ=   -10.2704   YZ=    26.7376   ZZ=   176.4448
   Eigenvalues:   -30.5512   -12.9411   182.1586
     16  C    Isotropic =    51.9375   Anisotropy =   188.2004
   XX=   -19.4441   YX=     5.5046   ZX=    15.7858
   XY=    -8.3874   YY=     2.4863   ZY=    22.9264
   XZ=   -50.6243   YZ=    23.3340   ZZ=   172.7704
   Eigenvalues:   -21.0294    -0.5625   177.4045
     17  C    Isotropic =    51.9482   Anisotropy =   149.1264
   XX=    50.7296   YX=   -23.9353   ZX=   -18.4207
   XY=   -16.7271   YY=   -41.8764   ZY=    17.8662
   XZ=   -14.3278   YZ=    11.4871   ZZ=   146.9915
   Eigenvalues:   -46.7796    51.2584   151.3658
     18  H    Isotropic =    24.0122   Anisotropy =     7.5163
   XX=    28.5811   YX=    -0.0866   ZX=     1.5071
   XY=    -0.2466   YY=    24.3342   ZY=    -0.7657
   XZ=     2.5088   YZ=    -1.5208   ZZ=    19.1214
   Eigenvalues:    18.5094    24.5041    29.0231
     19  C    Isotropic =    51.7356   Anisotropy =   148.5924
   XX=     2.4559   YX=   -45.6913   ZX=   -31.2531
   XY=   -53.4448   YY=     7.4698   ZY=    -1.8888
   XZ=   -23.5601   YZ=    -1.2765   ZZ=   145.2810
   Eigenvalues:   -46.9894    51.3989   150.7972
     20  H    Isotropic =    23.9071   Anisotropy =     7.6651
   XX=    25.5796   YX=    -2.0226   ZX=     1.4905
   XY=    -1.9998   YY=    27.3706   ZY=    -0.5164
   XZ=     2.7276   YZ=    -1.1179   ZZ=    18.7711
   Eigenvalues:    18.1643    24.5398    29.0172
     21  C    Isotropic =    45.9767   Anisotropy =   203.9316
   XX=   -16.2108   YX=    13.1802   ZX=   -44.5913
   XY=     6.5714   YY=   -20.6329   ZY=     0.0949
   XZ=   -28.8984   YZ=   -13.0883   ZZ=   174.7736
   Eigenvalues:   -30.5796   -13.4215   181.9311
     22  C    Isotropic =    52.0450   Anisotropy =   188.1157
   XX=    -0.0787   YX=     2.5023   ZX=   -16.3451
   XY=    18.9327   YY=   -14.4798   ZY=   -34.4335
   XZ=   -50.6032   YZ=    19.9104   ZZ=   170.6934
   Eigenvalues:   -20.7705    -0.5500   177.4554
     23  C    Isotropic =    53.2392   Anisotropy =   146.7412
   XX=   -22.0674   YX=   -32.0012   ZX=   -49.4857
   XY=   -23.2043   YY=    44.3661   ZY=   -15.6400
   XZ=   -43.8090   YZ=   -20.2525   ZZ=   137.4189
   Eigenvalues:   -45.6776    54.3286   151.0667
     24  H    Isotropic =    23.8249   Anisotropy =     7.5289
   XX=    25.1073   YX=    -1.7330   ZX=     1.5380
   XY=    -1.5944   YY=    28.0047   ZY=     0.0879
   XZ=     1.2557   YZ=    -0.8283   ZZ=    18.3628
   Eigenvalues:    18.0848    24.5458    28.8442
     25  C    Isotropic =    51.4969   Anisotropy =   150.1066
   XX=   -28.4915   YX=    33.9684   ZX=   -52.3137
   XY=    22.0311   YY=    46.6072   ZY=    -3.8075
   XZ=   -44.5594   YZ=   -10.6355   ZZ=   136.3748
   Eigenvalues:   -48.3857    51.3083   151.5679
     26  H    Isotropic =    23.7431   Anisotropy =     7.4052
   XX=    24.0663   YX=     1.1141   ZX=     1.9989
   XY=     0.9693   YY=    28.1000   ZY=     1.6568
   XZ=     2.0795   YZ=     0.8886   ZZ=    19.0630
   Eigenvalues:    18.2615    24.2880    28.6799
     27  C    Isotropic =    45.8108   Anisotropy =   207.2710
   XX=    -2.7702   YX=    13.7697   ZX=   -61.4651
   XY=     6.5593   YY=   -12.0335   ZY=   -41.6456
   XZ=   -62.6381   YZ=   -44.9232   ZZ=   152.2361
   Eigenvalues:   -28.0803   -18.4787   183.9915
     28  C    Isotropic =    47.8398   Anisotropy =   197.2870
   XX=    19.6900   YX=    14.4398   ZX=   -60.5682
   XY=    28.5650   YY=   -19.3566   ZY=   -56.7015
   XZ=   -63.1331   YZ=   -24.4782   ZZ=   143.1859
   Eigenvalues:   -30.5979    -5.2472   179.3644
     29  C    Isotropic =    49.3441   Anisotropy =   179.7793
   XX=    -3.4110   YX=    38.3775   ZX=   -80.8875
   XY=    36.1252   YY=    25.9805   ZY=   -23.7573
   XZ=   -78.1065   YZ=    -3.9802   ZZ=   125.4627
   Eigenvalues:   -51.6645    30.4997   169.1970
     30  H    Isotropic =    23.1387   Anisotropy =    13.3222
   XX=    22.4354   YX=    -0.7013   ZX=    -0.2375
   XY=    -2.1539   YY=    28.3546   ZY=     4.5555
   XZ=    -3.4181   YZ=     8.3231   ZZ=    18.6259
   Eigenvalues:    15.2751    22.1208    32.0201
     31  C    Isotropic =    55.4410   Anisotropy =   174.9390
   XX=    17.1871   YX=   -14.0890   ZX=   -84.0024
   XY=   -17.9030   YY=    37.4745   ZY=   -50.3662
   XZ=   -84.6557   YZ=   -54.8325   ZZ=   111.6615
   Eigenvalues:   -51.9248    46.1808   172.0670
     32  H    Isotropic =    24.5337   Anisotropy =     7.2554
   XX=    24.6185   YX=    -2.5264   ZX=     0.7632
   XY=    -2.7385   YY=    27.4630   ZY=     1.0335
   XZ=     1.1913   YZ=     3.7573   ZZ=    21.5194
   Eigenvalues:    19.8987    24.3316    29.3706
     33  C    Isotropic =    53.1814   Anisotropy =   179.0596
   XX=    60.9231   YX=    35.2256   ZX=   -42.9515
   XY=    32.0226   YY=   -38.1801   ZY=   -45.5652
   XZ=   -44.2248   YZ=   -50.7831   ZZ=   136.8014
   Eigenvalues:   -55.1197    42.1095   172.5545
     34  H    Isotropic =    24.2825   Anisotropy =     5.1861
   XX=    26.7643   YX=    -0.0934   ZX=     2.5955
   XY=    -0.2993   YY=    24.8157   ZY=     0.8589
   XZ=     2.3715   YZ=     1.4580   ZZ=    21.2676
   Eigenvalues:    20.0339    25.0737    27.7399
     35  C    Isotropic =    51.5295   Anisotropy =   155.1748
   XX=    -0.5131   YX=    52.5760   ZX=   -52.1551
   XY=    55.6135   YY=    25.1843   ZY=   -14.2643
   XZ=   -45.7255   YZ=   -17.1625   ZZ=   129.9171
   Eigenvalues:   -48.3147    47.9237   154.9793
     36  H    Isotropic =    23.8384   Anisotropy =     7.3073
   XX=    24.2302   YX=     1.4459   ZX=     2.1759
   XY=     1.2147   YY=    27.1572   ZY=     2.0665
   XZ=     1.6853   YZ=     2.7775   ZZ=    20.1277
   Eigenvalues:    18.9464    23.8588    28.7099
     37  Bq   Isotropic =     4.2939   Anisotropy =    20.4559
   XX=     7.8163   YX=    -0.7684   ZX=     1.7310
   XY=    -0.2840   YY=    15.0704   ZY=    -9.9496
   XZ=    -5.8558   YZ=    -7.9240   ZZ=   -10.0051
   Eigenvalues:   -13.0802     8.0307    17.9311
     38  Bq   Isotropic =     4.3098   Anisotropy =    13.8764
   XX=     8.0146   YX=     0.0245   ZX=     0.0939
   XY=    -1.8722   YY=    11.8669   ZY=    -7.8816
   XZ=   -12.7398   YZ=    -3.2775   ZZ=    -6.9521
   Eigenvalues:   -10.6410    10.0097    13.5607
     39  Bq   Isotropic =     4.1096   Anisotropy =    21.6238
   XX=     7.5985   YX=    -1.1808   ZX=     1.7221
   XY=     0.3459   YY=    15.5558   ZY=   -10.0973
   XZ=    -3.2986   YZ=    -8.5669   ZZ=   -10.8255
   Eigenvalues:   -13.8288     7.6321    18.5255
     40  Bq   Isotropic =     4.0968   Anisotropy =    11.5699
   XX=     7.5887   YX=     0.0176   ZX=    -0.7152
   XY=    -2.2846   YY=    10.5773   ZY=    -6.8080
   XZ=   -14.3068   YZ=    -1.2316   ZZ=    -5.8757
   Eigenvalues:   -10.0583    10.5386    11.8100
     41  Bq   Isotropic =     3.8949   Anisotropy =    21.9675
   XX=     7.5318   YX=    -1.5053   ZX=     1.4837
   XY=     1.0345   YY=    15.6089   ZY=    -9.9552
   XZ=    -0.8097   YZ=    -8.7639   ZZ=   -11.4562
   Eigenvalues:   -14.3804     7.5251    18.5399
     42  Bq   Isotropic =     3.8084   Anisotropy =    11.2615
   XX=     6.9212   YX=    -0.0901   ZX=    -1.4613
   XY=    -2.6177   YY=     9.3326   ZY=    -5.6597
   XZ=   -15.3775   YZ=     0.7835   ZZ=    -4.8285
   Eigenvalues:    -9.6300     9.7392    11.3161
     43  Bq   Isotropic =     3.6767   Anisotropy =    21.4744
   XX=     7.6491   YX=    -1.6404   ZX=     1.1686
   XY=     1.7788   YY=    15.2042   ZY=    -9.5465
   XZ=     1.5740   YZ=    -8.6521   ZZ=   -11.8230
   Eigenvalues:   -14.6804     7.7176    17.9930
     44  Bq   Isotropic =     3.4812   Anisotropy =    12.2506
   XX=     6.0935   YX=    -0.2552   ZX=    -2.0729
   XY=    -2.8635   YY=     8.1885   ZY=    -4.5074
   XZ=   -15.9645   YZ=     2.6379   ZZ=    -3.8385
   Eigenvalues:    -9.3142     8.1095    11.6482
     45  Bq   Isotropic =     3.4603   Anisotropy =    20.2613
   XX=     7.8657   YX=    -1.5363   ZX=     0.9400
   XY=     2.5532   YY=    14.3640   ZY=    -8.9118
   XZ=     3.8563   YZ=    -8.3956   ZZ=   -11.8489
   Eigenvalues:   -14.7124     8.1255    16.9678
     46  Bq   Isotropic =     4.4079   Anisotropy =    18.6108
   XX=     8.0556   YX=    -0.3817   ZX=     1.4332
   XY=    -0.8625   YY=    14.2235   ZY=    -9.5110
   XZ=    -8.3811   YZ=    -6.7802   ZZ=    -9.0555
   Eigenvalues:   -12.2269     8.6355    16.8151
     47  Bq   Isotropic =     5.4369   Anisotropy =    16.6165
   XX=     7.2518   YX=    -0.0934   ZX=     1.4519
   XY=    -1.0751   YY=    14.0378   ZY=    -8.8551
   XZ=   -10.3665   YZ=    -5.4488   ZZ=    -4.9790
   Eigenvalues:    -8.5992     8.3953    16.5145
     48  Bq   Isotropic =     5.4259   Anisotropy =    21.7145
   XX=     6.1093   YX=    -0.9216   ZX=     2.1605
   XY=     0.0527   YY=    16.8555   ZY=    -9.8788
   XZ=    -5.6285   YZ=    -8.1174   ZZ=    -6.6871
   Eigenvalues:    -9.9302     6.3057    19.9022
     49  Bq   Isotropic =     5.2060   Anisotropy =    13.7022
   XX=     7.4671   YX=     0.0352   ZX=     0.6716
   XY=    -1.6222   YY=    12.3937   ZY=    -7.9321
   XZ=   -12.2975   YZ=    -3.4819   ZZ=    -4.2427
   Eigenvalues:    -8.1610     9.4383    14.3408
     50  Bq   Isotropic =     5.2244   Anisotropy =    23.2252
   XX=     5.5908   YX=    -1.5001   ZX=     1.9638
   XY=     0.6091   YY=    17.6828   ZY=    -9.9007
   XZ=    -3.0893   YZ=    -8.5932   ZZ=    -7.6004
   Eigenvalues:   -10.6493     5.6147    20.7078
     51  Bq   Isotropic =     4.8439   Anisotropy =    11.0063
   XX=     7.3213   YX=    -0.0057   ZX=    -0.2015
   XY=    -2.1177   YY=    10.7889   ZY=    -6.8367
   XZ=   -13.7944   YZ=    -1.3573   ZZ=    -3.5787
   Eigenvalues:    -7.9197    10.2699    12.1814
     52  Bq   Isotropic =     4.9535   Anisotropy =    23.7240
   XX=     5.3772   YX=    -2.0115   ZX=     1.5126
   XY=     1.1769   YY=    17.9281   ZY=    -9.6056
   XZ=    -0.5775   YZ=    -8.5503   ZZ=    -8.4449
   Eigenvalues:   -11.2738     5.3647    20.7695
     53  Bq   Isotropic =     4.3977   Anisotropy =    10.2954
   XX=     6.8487   YX=    -0.1594   ZX=    -1.0316
   XY=    -2.5314   YY=     9.3162   ZY=    -5.6590
   XZ=   -14.8175   YZ=     0.7316   ZZ=    -2.9718
   Eigenvalues:    -7.8432     9.7750    11.2613
     54  Bq   Isotropic =     4.6519   Anisotropy =    23.1704
   XX=     5.5203   YX=    -2.3132   ZX=     1.0113
   XY=     1.7751   YY=    17.5304   ZY=    -9.0391
   XZ=     1.8590   YZ=    -8.1676   ZZ=    -9.0950
   Eigenvalues:   -11.7311     5.5880    20.0988
     55  Bq   Isotropic =     3.9187   Anisotropy =    11.6040
   XX=     6.1421   YX=    -0.3678   ZX=    -1.7298
   XY=    -2.8452   YY=     8.0240   ZY=    -4.4803
   XZ=   -15.3830   YZ=     2.6419   ZZ=    -2.4099
   Eigenvalues:    -7.8662     7.9677    11.6547
     56  Bq   Isotropic =     4.3341   Anisotropy =    21.6961
   XX=     5.9064   YX=    -2.3212   ZX=     0.6628
   XY=     2.4051   YY=    16.5199   ZY=    -8.2648
   XZ=     4.2005   YZ=    -7.6570   ZZ=    -9.4239
   Eigenvalues:   -11.9813     6.1855    18.7982
     57  Bq   Isotropic =     5.5086   Anisotropy =    19.4036
   XX=     6.7409   YX=    -0.4210   ZX=     1.9861
   XY=    -0.5093   YY=    15.5823   ZY=    -9.5232
   XZ=    -8.0987   YZ=    -7.0491   ZZ=    -5.7973
   Eigenvalues:    -9.2133     7.2949    18.4443
     58  Bq   Isotropic =     5.6032   Anisotropy =    14.0134
   XX=     6.9469   YX=     0.8158   ZX=    -4.3547
   XY=    -1.3415   YY=     1.6126   ZY=    -1.2557
   XZ=    -7.6154   YZ=   -10.0075   ZZ=     8.2502
   Eigenvalues:    -2.8778     4.7420    14.9455
     59  Bq   Isotropic =     8.7930   Anisotropy =    13.8112
   XX=    12.5255   YX=     1.5309   ZX=    -4.7171
   XY=    -1.1222   YY=     5.3371   ZY=    -2.0793
   XZ=    -7.3367   YZ=    -9.4814   ZZ=     8.5164
   Eigenvalues:    -0.1890     8.5676    18.0005
     60  Bq   Isotropic =     4.3571   Anisotropy =    14.0140
   XX=     4.8418   YX=     0.6520   ZX=    -3.9942
   XY=    -1.2607   YY=     0.2602   ZY=    -1.0105
   XZ=    -7.3658   YZ=    -9.9707   ZZ=     7.9695
   Eigenvalues:    -3.7888     3.1604    13.6998
     61  Bq   Isotropic =    10.4736   Anisotropy =    13.6833
   XX=    15.5886   YX=     2.1614   ZX=    -4.4915
   XY=    -0.6869   YY=     7.5981   ZY=    -2.6558
   XZ=    -6.5325   YZ=    -8.7082   ZZ=     8.2341
   Eigenvalues:     1.3823    10.4427    19.5958
     62  Bq   Isotropic =     3.3794   Anisotropy =    13.9287
   XX=     3.2251   YX=     0.5591   ZX=    -3.6110
   XY=    -1.1248   YY=    -0.7837   ZY=    -0.8399
   XZ=    -7.0004   YZ=    -9.8117   ZZ=     7.6969
   Eigenvalues:    -4.4137     1.8867    12.6652
     63  Bq   Isotropic =    11.8656   Anisotropy =    13.5462
   XX=    18.2031   YX=     2.9511   ZX=    -3.8104
   XY=     0.0357   YY=     9.8861   ZY=    -3.2491
   XZ=    -5.1257   YZ=    -7.3983   ZZ=     7.5076
   Eigenvalues:     2.7779    11.9224    20.8964
     64  Bq   Isotropic =     2.6384   Anisotropy =    13.7645
   XX=     2.0289   YX=     0.5062   ZX=    -3.2445
   XY=    -0.9693   YY=    -1.5749   ZY=    -0.7124
   XZ=    -6.5888   YZ=    -9.5613   ZZ=     7.4613
   Eigenvalues:    -4.8049     0.9055    11.8148
     65  Bq   Isotropic =    12.6270   Anisotropy =    13.3263
   XX=    19.6653   YX=     3.7471   ZX=    -2.6475
   XY=     0.9962   YY=    11.8637   ZY=    -3.6908
   XZ=    -3.1945   YZ=    -5.4820   ZZ=     6.3520
   Eigenvalues:     3.6304    12.7394    21.5112
     66  Bq   Isotropic =     2.0902   Anisotropy =    13.5317
   XX=     1.1682   YX=     0.4733   ZX=    -2.9130
   XY=    -0.8165   YY=    -2.1657   ZY=    -0.6044
   XZ=    -6.1727   YZ=    -9.2405   ZZ=     7.2681
   Eigenvalues:    -5.0181     0.1774    11.1114
     67  Bq   Isotropic =    12.5210   Anisotropy =    12.9629
   XX=    19.4728   YX=     4.3188   ZX=    -1.2273
   XY=     2.0059   YY=    13.1631   ZY=    -3.8200
   XZ=    -1.1135   YZ=    -3.1376   ZZ=     4.9272
   Eigenvalues:     3.6545    12.7457    21.1630
     68  Bq   Isotropic =     7.1093   Anisotropy =    13.9347
   XX=     9.5463   YX=     1.0929   ZX=    -4.6276
   XY=    -1.3167   YY=     3.3100   ZY=    -1.6064
   XZ=    -7.6486   YZ=    -9.8719   ZZ=     8.4715
   Eigenvalues:    -1.6606     6.5894    16.3991
     69  Bq   Isotropic =     6.7536   Anisotropy =    13.3987
   XX=     8.4981   YX=     0.1944   ZX=    -4.2582
   XY=    -2.3765   YY=     2.4891   ZY=     0.0338
   XZ=    -7.9902   YZ=    -9.7843   ZZ=     9.2735
   Eigenvalues:    -1.7638     6.3384    15.6861
     70  Bq   Isotropic =    10.5100   Anisotropy =    13.0283
   XX=    15.0772   YX=     0.4942   ZX=    -4.4101
   XY=    -2.6109   YY=     6.5245   ZY=    -0.4699
   XZ=    -7.4132   YZ=    -8.7941   ZZ=     9.9283
   Eigenvalues:     1.7531    10.5814    19.1956
     71  Bq   Isotropic =     5.2869   Anisotropy =    13.6467
   XX=     6.0082   YX=     0.1898   ZX=    -3.9635
   XY=    -2.0981   YY=     0.9524   ZY=     0.0886
   XZ=    -7.7948   YZ=    -9.9360   ZZ=     8.9001
   Eigenvalues:    -2.9798     4.4559    14.3848
     72  Bq   Isotropic =    12.4955   Anisotropy =    13.0952
   XX=    18.6810   YX=     0.9003   ZX=    -4.0400
   XY=    -2.3839   YY=     8.8461   ZY=    -0.9976
   XZ=    -6.3378   YZ=    -7.8027   ZZ=     9.9595
   Eigenvalues:     3.8085    12.4525    21.2257
     73  Bq   Isotropic =     4.1343   Anisotropy =    13.8187
   XX=     4.0915   YX=     0.2201   ZX=    -3.6254
   XY=    -1.7963   YY=    -0.2662   ZY=     0.0831
   XZ=    -7.4439   YZ=    -9.9186   ZZ=     8.5774
   Eigenvalues:    -3.8393     2.8954    13.3467
     74  Bq   Isotropic =    14.1448   Anisotropy =    13.2589
   XX=    21.7517   YX=     1.5049   ZX=    -3.2038
   XY=    -1.7935   YY=    11.0818   ZY=    -1.6777
   XZ=    -4.5898   YZ=    -6.3374   ZZ=     9.6009
   Eigenvalues:     5.6492    13.8012    22.9841
     75  Bq   Isotropic =     3.2580   Anisotropy =    13.8801
   XX=     2.6695   YX=     0.2586   ZX=    -3.2875
   XY=    -1.5070   YY=    -1.2116   ZY=     0.0607
   XZ=    -7.0217   YZ=    -9.7622   ZZ=     8.3160
   Eigenvalues:    -4.4059     1.6685    12.5114
     76  Bq   Isotropic =    15.0509   Anisotropy =    13.2648
   XX=    23.4694   YX=     2.2124   ZX=    -1.9073
   XY=    -0.8273   YY=    12.8853   ZY=    -2.3595
   XZ=    -2.3017   YZ=    -4.3588   ZZ=     8.7979
   Eigenvalues:     6.7730    14.4855    23.8941
     77  Bq   Isotropic =     2.6062   Anisotropy =    13.8241
   XX=     1.6427   YX=     0.2913   ZX=    -2.9727
   XY=    -1.2490   YY=    -1.9314   ZY=     0.0482
   XZ=    -6.5809   YZ=    -9.4935   ZZ=     8.1074
   Eigenvalues:    -4.7476     0.7439    11.8223
     78  Bq   Isotropic =    14.9317   Anisotropy =    12.9063
   XX=    23.2508   YX=     2.8285   ZX=    -0.4122
   XY=     0.3526   YY=    13.9360   ZY=    -2.8397
   XZ=     0.0717   YZ=    -2.0399   ZZ=     7.6082
   Eigenvalues:     6.7691    14.4900    23.5359
     79  Bq   Isotropic =     8.5258   Anisotropy =    13.1538
   XX=    11.5663   YX=     0.2771   ZX=    -4.4399
   XY=    -2.5743   YY=     4.3611   ZY=    -0.1351
   XZ=    -7.9117   YZ=    -9.4237   ZZ=     9.6501
   Eigenvalues:    -0.1664     8.4489    17.2950
     80  Bq   Isotropic =     7.8329   Anisotropy =    12.5497
   XX=     9.9124   YX=    -0.5202   ZX=    -3.8780
   XY=    -3.5439   YY=     3.5618   ZY=     1.3605
   XZ=    -8.1902   YZ=    -9.5488   ZZ=    10.0244
   Eigenvalues:    -0.6500     7.9492    16.1994
     81  Bq   Isotropic =    11.9301   Anisotropy =    12.5335
   XX=    17.1356   YX=    -0.7775   ZX=    -3.6588
   XY=    -4.3277   YY=     7.7894   ZY=     1.2056
   XZ=    -7.1817   YZ=    -8.0066   ZZ=    10.8652
   Eigenvalues:     3.5352    11.9693    20.2857
     82  Bq   Isotropic =     6.2103   Anisotropy =    13.0398
   XX=     7.1315   YX=    -0.3266   ZX=    -3.7225
   XY=    -3.0310   YY=     1.8398   ZY=     1.2117
   XZ=    -8.1040   YZ=    -9.9177   ZZ=     9.6596
   Eigenvalues:    -2.1336     5.8611    14.9035
     83  Bq   Isotropic =    14.0671   Anisotropy =    13.1852
   XX=    21.0129   YX=    -0.7023   ZX=    -3.0929
   XY=    -4.3595   YY=    10.0358   ZY=     0.7348
   XZ=    -5.7881   YZ=    -6.7641   ZZ=    11.1527
   Eigenvalues:     5.9632    13.3809    22.8573
     84  Bq   Isotropic =     4.9209   Anisotropy =    13.5298
   XX=     4.9679   YX=    -0.1496   ZX=    -3.4896
   XY=    -2.5364   YY=     0.4237   ZY=     1.0226
   XZ=    -7.8102   YZ=   -10.0561   ZZ=     9.3711
   Eigenvalues:    -3.2116     4.0336    13.9408
     85  Bq   Isotropic =    15.8251   Anisotropy =    13.8942
   XX=    24.2648   YX=    -0.4068   ZX=    -2.1153
   XY=    -3.9574   YY=    12.0464   ZY=    -0.0287
   XZ=    -3.7075   YZ=    -5.1500   ZZ=    11.1640
   Eigenvalues:     8.1590    14.2284    25.0879
     86  Bq   Isotropic =     3.9287   Anisotropy =    13.8855
   XX=     3.3458   YX=    -0.0068   ZX=    -3.2266
   XY=    -2.0949   YY=    -0.7074   ZY=     0.8483
   XZ=    -7.4084   YZ=    -9.9959   ZZ=     9.1476
   Eigenvalues:    -3.9503     2.5507    13.1857
     87  Bq   Isotropic =    16.7866   Anisotropy =    14.2323
   XX=    26.0687   YX=     0.0914   ZX=    -0.7848
   XY=    -3.0523   YY=    13.5106   ZY=    -0.9595
   XZ=    -1.1388   YZ=    -3.1734   ZZ=    10.7805
   Eigenvalues:     9.5228    14.5622    26.2748
     88  Bq   Isotropic =     3.1808   Anisotropy =    14.0618
   XX=     2.1623   YX=     0.0982   ZX=    -2.9619
   XY=    -1.7197   YY=    -1.5877   ZY=     0.7170
   XZ=    -6.9633   YZ=    -9.7739   ZZ=     8.9676
   Eigenvalues:    -4.4239     1.4109    12.5553
     89  Bq   Isotropic =    16.6715   Anisotropy =    13.9369
   XX=    25.8619   YX=     0.6742   ZX=     0.6323
   XY=    -1.7637   YY=    14.2097   ZY=    -1.8300
   XZ=     1.4256   YZ=    -0.9871   ZZ=     9.9427
   Eigenvalues:     9.4774    14.5742    25.9627
     90  Bq   Isotropic =     9.7748   Anisotropy =    12.3041
   XX=    13.3026   YX=    -0.6912   ZX=    -3.8866
   XY=    -4.0099   YY=     5.5732   ZY=     1.3890
   XZ=    -7.9345   YZ=    -8.9215   ZZ=    10.4485
   Eigenvalues:     1.2624    10.0844    17.9775
     91  Bq   Isotropic =     8.7967   Anisotropy =    11.5731
   XX=    11.0901   YX=    -1.2613   ZX=    -3.1980
   XY=    -4.7978   YY=     4.7916   ZY=     2.6371
   XZ=    -8.2093   YZ=    -9.4032   ZZ=    10.5083
   Eigenvalues:     0.3976     9.4804    16.5121
     92  Bq   Isotropic =    12.9339   Anisotropy =    12.7331
   XX=    18.5039   YX=    -2.1808   ZX=    -2.4666
   XY=    -6.2260   YY=     9.0338   ZY=     2.8626
   XZ=    -6.6595   YZ=    -7.2495   ZZ=    11.2641
   Eigenvalues:     4.9789    12.4002    21.4227
     93  Bq   Isotropic =     7.1071   Anisotropy =    12.2346
   XX=     8.1508   YX=    -0.8469   ZX=    -3.2576
   XY=    -4.0193   YY=     2.8970   ZY=     2.2832
   XZ=    -8.2852   YZ=    -9.9950   ZZ=    10.2735
   Eigenvalues:    -1.2865     7.3442    15.2635
     94  Bq   Isotropic =    15.0316   Anisotropy =    14.1953
   XX=    22.3592   YX=    -2.5189   ZX=    -1.6830
   XY=    -6.5697   YY=    11.0313   ZY=     2.4701
   XZ=    -4.9208   YZ=    -5.7187   ZZ=    11.7042
   Eigenvalues:     7.5782    13.0215    24.4951
     95  Bq   Isotropic =     5.7345   Anisotropy =    13.1017
   XX=     5.8210   YX=    -0.5137   ZX=    -3.1940
   XY=    -3.3126   YY=     1.2685   ZY=     1.9184
   XZ=    -8.0915   YZ=   -10.2802   ZZ=    10.1141
   Eigenvalues:    -2.5480     5.2825    14.4690
     96  Bq   Isotropic =    16.7258   Anisotropy =    15.4636
   XX=    25.5200   YX=    -2.6297   ZX=    -0.6068
   XY=    -6.4094   YY=    12.6239   ZY=     1.6408
   XZ=    -2.5246   YZ=    -3.9351   ZZ=    12.0336
   Eigenvalues:     9.9664    13.1761    27.0349
     97  Bq   Isotropic =     4.6541   Anisotropy =    13.8223
   XX=     4.0422   YX=    -0.2650   ZX=    -3.0553
   XY=    -2.7083   YY=    -0.0750   ZY=     1.6059
   XZ=    -7.7416   YZ=   -10.2983   ZZ=     9.9952
   Eigenvalues:    -3.4449     3.5384    13.8690
     98  Bq   Isotropic =    17.6433   Anisotropy =    16.1033
   XX=    27.2505   YX=    -2.4440   ZX=     0.6490
   XY=    -5.6260   YY=    13.5947   ZY=     0.4648
   XZ=     0.2653   YZ=    -1.9722   ZZ=    12.0845
   Eigenvalues:    11.6321    12.9189    28.3788
     99  Bq   Isotropic =     3.8212   Anisotropy =    14.2821
   XX=     2.7215   YX=    -0.0898   ZX=    -2.8766
   XY=    -2.2108   YY=    -1.1437   ZY=     1.3713
   XZ=    -7.3140   YZ=   -10.1013   ZZ=     9.8857
   Eigenvalues:    -4.0484     2.1693    13.3425
    100  Bq   Isotropic =    17.5451   Anisotropy =    15.8938
   XX=    27.0754   YX=    -1.9859   ZX=     1.8447
   XY=    -4.2909   YY=    13.8736   ZY=    -0.8249
   XZ=     2.9487   YZ=     0.0327   ZZ=    11.6861
   Eigenvalues:    11.3182    13.1760    28.1409
    101  Bq   Isotropic =    10.7775   Anisotropy =    11.6865
   XX=    14.6065   YX=    -1.7278   ZX=    -2.9554
   XY=    -5.5756   YY=     6.8836   ZY=     2.8752
   XZ=    -7.7186   YZ=    -8.4862   ZZ=    10.8424
   Eigenvalues:     2.5141    11.2499    18.5685
    102  Bq   Isotropic =     9.6510   Anisotropy =    10.6071
   XX=    11.9787   YX=    -1.9520   ZX=    -2.2264
   XY=    -6.0901   YY=     6.1601   ZY=     3.7947
   XZ=    -8.0609   YZ=    -9.4382   ZZ=    10.8143
   Eigenvalues:     1.3652    10.8655    16.7225
    103  Bq   Isotropic =    13.5067   Anisotropy =    13.7375
   XX=    19.0988   YX=    -3.6170   ZX=    -0.8452
   XY=    -8.2994   YY=    10.2473   ZY=     4.4759
   XZ=    -5.8660   YZ=    -6.6264   ZZ=    11.1741
   Eigenvalues:     5.9817    11.8734    22.6651
    104  Bq   Isotropic =     7.9894   Anisotropy =    11.2811
   XX=     9.0325   YX=    -1.3123   ZX=    -2.5772
   XY=    -5.0166   YY=     4.1015   ZY=     3.2378
   XZ=    -8.3472   YZ=   -10.2351   ZZ=    10.8343
   Eigenvalues:    -0.4419     8.9000    15.5101
    105  Bq   Isotropic =    15.3673   Anisotropy =    16.0226
   XX=    22.6476   YX=    -4.4570   ZX=     0.1714
   XY=    -9.0580   YY=    11.8208   ZY=     4.2235
   XZ=    -3.7463   YZ=    -4.7460   ZZ=    11.6334
   Eigenvalues:     8.2618    11.7910    26.0490
    106  Bq   Isotropic =     6.5900   Anisotropy =    12.6011
   XX=     6.6317   YX=    -0.8310   ZX=    -2.7463
   XY=    -4.0861   YY=     2.2451   ZY=     2.7175
   XZ=    -8.2921   YZ=   -10.6335   ZZ=    10.8932
   Eigenvalues:    -1.8461     6.6253    14.9908
    107  Bq   Isotropic =    16.8267   Anisotropy =    17.8178
   XX=    25.4773   YX=    -5.0847   ZX=     1.3014
   XY=    -9.2465   YY=    12.7983   ZY=     3.3737
   XZ=    -1.0200   YZ=    -2.7276   ZZ=    12.2044
   Eigenvalues:     9.5241    12.2507    28.7052
    108  Bq   Isotropic =     5.4496   Anisotropy =    13.7592
   XX=     4.7495   YX=    -0.4887   ZX=    -2.7800
   XY=    -3.3176   YY=     0.6650   ZY=     2.2949
   XZ=    -8.0226   YZ=   -10.6908   ZZ=    10.9341
   Eigenvalues:    -2.8845     4.6108    14.6224
    109  Bq   Isotropic =    17.6008   Anisotropy =    18.7415
   XX=    26.9942   YX=    -5.3282   ZX=     2.3812
   XY=    -8.6733   YY=    13.1163   ZY=     1.9530
   XZ=     1.9821   YZ=    -0.7347   ZZ=    12.6920
   Eigenvalues:     9.5422    13.1651    30.0952
    110  Bq   Isotropic =     4.5411   Anisotropy =    14.5419
   XX=     3.3166   YX=    -0.2557   ZX=    -2.7213
   XY=    -2.7010   YY=    -0.6163   ZY=     1.9859
   XZ=    -7.6319   YZ=   -10.4813   ZZ=    10.9230
   Eigenvalues:    -3.6152     3.0028    14.2357
    111  Bq   Isotropic =    17.5213   Anisotropy =    18.6201
   XX=    26.8414   YX=    -5.0961   ZX=     3.2148
   XY=    -7.3418   YY=    12.9052   ZY=     0.1887
   XZ=     4.7486   YZ=     1.0857   ZZ=    12.8173
   Eigenvalues:     9.1896    13.4396    29.9347
    112  Bq   Isotropic =    11.5304   Anisotropy =    11.5993
   XX=    15.4061   YX=    -2.7404   ZX=    -1.6543
   XY=    -7.2341   YY=     8.2789   ZY=     4.2669
   XZ=    -7.2815   YZ=    -8.2232   ZZ=    10.9060
   Eigenvalues:     3.5540    11.7739    19.2632
    113  Bq   Isotropic =    10.4605   Anisotropy =     9.7991
   XX=    12.5761   YX=    -2.5036   ZX=    -0.9919
   XY=    -7.3511   YY=     7.6804   ZY=     4.7641
   XZ=    -7.7707   YZ=    -9.7180   ZZ=    11.1250
   Eigenvalues:     2.3028    12.0855    16.9932
    114  Bq   Isotropic =    13.7274   Anisotropy =    15.3316
   XX=    18.8941   YX=    -4.9709   ZX=     1.2078
   XY=   -10.5151   YY=    11.5280   ZY=     6.0084
   XZ=    -4.8062   YZ=    -6.2254   ZZ=    10.7602
   Eigenvalues:     6.3767    10.8571    23.9485
    115  Bq   Isotropic =     8.9085   Anisotropy =    10.2313
   XX=     9.7768   YX=    -1.6585   ZX=    -1.7117
   XY=    -5.9610   YY=     5.4407   ZY=     4.0152
   XZ=    -8.3116   YZ=   -10.6753   ZZ=    11.5080
   Eigenvalues:     0.4389    10.5572    15.7294
    116  Bq   Isotropic =    15.1458   Anisotropy =    18.4414
   XX=    21.8244   YX=    -6.4193   ZX=     2.4972
   XY=   -11.8515   YY=    12.5369   ZY=     5.9972
   XZ=    -2.2370   YZ=    -3.9148   ZZ=    11.0760
   Eigenvalues:     6.7225    11.2747    27.4401
    117  Bq   Isotropic =     7.5260   Anisotropy =    12.1363
   XX=     7.4009   YX=    -1.0583   ZX=    -2.1728
   XY=    -4.8081   YY=     3.3293   ZY=     3.3751
   XZ=    -8.4269   YZ=   -11.1284   ZZ=    11.8478
   Eigenvalues:    -1.0775     8.0386    15.6169
    118  Bq   Isotropic =    16.1815   Anisotropy =    20.8122
   XX=    24.0464   YX=    -7.7160   ZX=     3.6536
   XY=   -12.5688   YY=    12.7097   ZY=     5.2014
   XZ=     0.8777   YZ=    -1.5595   ZZ=    11.7884
   Eigenvalues:     5.5646    12.9236    30.0563
    119  Bq   Isotropic =     6.3430   Anisotropy =    13.7976
   XX=     5.4684   YX=    -0.6512   ZX=    -2.4205
   XY=    -3.8872   YY=     1.4868   ZY=     2.8868
   XZ=    -8.2593   YZ=   -11.1669   ZZ=    12.0737
   Eigenvalues:    -2.2486     5.7362    15.5414
    120  Bq   Isotropic =    16.6923   Anisotropy =    22.0624
   XX=    25.1697   YX=    -8.5511   ZX=     4.4507
   XY=   -12.3462   YY=    12.1973   ZY=     3.5357
   XZ=     4.1198   YZ=     0.5454   ZZ=    12.7099
   Eigenvalues:     4.4991    14.1773    31.4006
    121  Bq   Isotropic =     5.3604   Anisotropy =    14.9167
   XX=     3.9481   YX=    -0.3838   ZX=    -2.5095
   XY=    -3.1657   YY=    -0.0272   ZY=     2.5451
   XZ=    -7.9197   YZ=   -10.8960   ZZ=    12.1604
   Eigenvalues:    -3.1100     3.8864    15.3049
    122  Bq   Isotropic =    16.6197   Anisotropy =    22.0289
   XX=    24.9998   YX=    -8.6708   ZX=     4.7468
   XY=   -11.0711   YY=    11.4085   ZY=     1.2139
   XZ=     6.9381   YZ=     2.2030   ZZ=    13.4509
   Eigenvalues:     4.1345    14.4191    31.3056
    123  Bq   Isotropic =    12.1087   Anisotropy =    12.0923
   XX=    15.6917   YX=    -3.6199   ZX=    -0.0014
   XY=    -8.9218   YY=     9.8122   ZY=     5.5009
   XZ=    -6.6450   YZ=    -8.2172   ZZ=    10.8223
   Eigenvalues:     4.4236    11.7323    20.1702
    124  Bq   Isotropic =    11.3452   Anisotropy =     9.2075
   XX=    12.9287   YX=    -2.8101   ZX=     0.4462
   XY=    -8.4576   YY=     9.3772   ZY=     5.4511
   XZ=    -7.3782   YZ=   -10.2592   ZZ=    11.7297
   Eigenvalues:     3.3225    13.2296    17.4835
    125  Bq   Isotropic =    13.7539   Anisotropy =    17.1099
[...]
   140  Bq   0.000000
   141  Bq   0.000000
   142  Bq   0.000000
   143  Bq   0.000000
   144  Bq   0.000000
   145  Bq   0.000000
   146  Bq   0.000000
   147  Bq   0.000000
   148  Bq   0.000000
   149  Bq   0.000000
   150  Bq   0.000000
   151  Bq   0.000000
   152  Bq   0.000000
   153  Bq   0.000000
   154  Bq   0.000000
   155  Bq   0.000000
   156  Bq   0.000000
   157  Bq   0.000000
   158  Bq   0.000000
   159  Bq   0.000000
   160  Bq   0.000000
   161  Bq   0.000000
   162  Bq   0.000000
   163  Bq   0.000000
   164  Bq   0.000000
   165  Bq   0.000000
   166  Bq   0.000000
   167  Bq   0.000000
   168  Bq   0.000000
   169  Bq   0.000000
   170  Bq   0.000000
   171  Bq   0.000000
   172  Bq   0.000000
   173  Bq   0.000000
   174  Bq   0.000000
   175  Bq   0.000000
   176  Bq   0.000000
   177  Bq   0.000000
   178  Bq   0.000000
   179  Bq   0.000000
   180  Bq   0.000000
   181  Bq   0.000000
   182  Bq   0.000000
   183  Bq   0.000000
   184  Bq   0.000000
   185  Bq   0.000000
   186  Bq   0.000000
   187  Bq   0.000000
   188  Bq   0.000000
   189  Bq   0.000000
   190  Bq   0.000000
   191  Bq   0.000000
   192  Bq   0.000000
   193  Bq   0.000000
   194  Bq   0.000000
   195  Bq   0.000000
   196  Bq   0.000000
   197  Bq   0.000000
   198  Bq   0.000000
   199  Bq   0.000000
   200  Bq   0.000000
   201  Bq   0.000000
   202  Bq   0.000000
   203  Bq   0.000000
   204  Bq   0.000000
   205  Bq   0.000000
   206  Bq   0.000000
   207  Bq   0.000000
   208  Bq   0.000000
   209  Bq   0.000000
   210  Bq   0.000000
   211  Bq   0.000000
   212  Bq   0.000000
   213  Bq   0.000000
   214  Bq   0.000000
   215  Bq   0.000000
   216  Bq   0.000000
   217  Bq   0.000000
   218  Bq   0.000000
   219  Bq   0.000000
   220  Bq   0.000000
   221  Bq   0.000000
   222  Bq   0.000000
   223  Bq   0.000000
   224  Bq   0.000000
   225  Bq   0.000000
   226  Bq   0.000000
   227  Bq   0.000000
   228  Bq   0.000000
   229  Bq   0.000000
   230  Bq   0.000000
   231  Bq   0.000000
   232  Bq   0.000000
   233  Bq   0.000000
   234  Bq   0.000000
   235  Bq   0.000000
   236  Bq   0.000000
 Sum of Mulliken charges =   0.00000
 Mulliken charges with hydrogens summed into heavy atoms:
               1
     1  C   -0.255498
     3  C    0.169409
     5  C    0.448258
     6  C    0.064351
     7  C   -0.333926
     9  C   -0.261805
    11  C   -0.322216
    13  C   -0.119315
    15  C    0.653397
    16  C    0.034822
    17  C   -0.317410
    19  C   -0.316854
    21  C    0.651066
    22  C    0.037784
    23  C   -0.117289
    25  C   -0.205316
    27  C    0.448331
    28  C    0.061983
    29  C   -0.333381
    31  C   -0.139505
    33  C   -0.255977
    35  C    0.170579
    37  Bq   0.000000
    38  Bq   0.000000
    39  Bq   0.000000
    40  Bq   0.000000
    41  Bq   0.000000
    42  Bq   0.000000
    43  Bq   0.000000
    44  Bq   0.000000
    45  Bq   0.000000
    46  Bq   0.000000
    47  Bq   0.000000
    48  Bq   0.000000
    49  Bq   0.000000
    50  Bq   0.116228
    51  Bq   0.000000
    52  Bq   0.000000
    53  Bq   0.000000
    54  Bq   0.000000
    55  Bq   0.000000
    56  Bq   0.000000
    57  Bq   0.000000
    58  Bq   0.000000
    59  Bq   0.000000
    60  Bq   0.000000
    61  Bq   0.000000
    62  Bq   0.000000
    63  Bq   0.000000
    64  Bq   0.000000
    65  Bq   0.122284
    66  Bq   0.000000
    67  Bq   0.000000
    68  Bq   0.000000
    69  Bq   0.000000
    70  Bq   0.000000
    71  Bq   0.000000
    72  Bq   0.000000
    73  Bq   0.000000
    74  Bq   0.000000
    75  Bq   0.000000
    76  Bq   0.000000
    77  Bq   0.000000
    78  Bq   0.000000
    79  Bq   0.000000
    80  Bq   0.000000
    81  Bq   0.000000
    82  Bq   0.000000
    83  Bq   0.000000
    84  Bq   0.000000
    85  Bq   0.000000
    86  Bq   0.000000
    87  Bq   0.000000
    88  Bq   0.000000
    89  Bq   0.000000
    90  Bq   0.000000
    91  Bq   0.000000
    92  Bq   0.000000
    93  Bq   0.000000
    94  Bq   0.000000
    95  Bq   0.000000
    96  Bq   0.000000
    97  Bq   0.000000
    98  Bq   0.000000
    99  Bq   0.000000
   100  Bq   0.000000
   101  Bq   0.000000
   102  Bq   0.000000
   103  Bq   0.000000
   104  Bq   0.000000
   105  Bq   0.000000
   106  Bq   0.000000
   107  Bq   0.000000
   108  Bq   0.000000
   109  Bq   0.000000
   110  Bq   0.000000
   111  Bq   0.000000
   112  Bq   0.000000
   113  Bq   0.000000
   114  Bq   0.000000
   115  Bq   0.000000
   116  Bq   0.000000
   117  Bq   0.000000
   118  Bq   0.000000
   119  Bq   0.000000
   120  Bq   0.000000
   121  Bq   0.000000
   122  Bq   0.000000
   123  Bq   0.000000
   124  Bq   0.000000
   125  Bq   0.000000
   126  Bq   0.000000
   127  Bq   0.000000
   128  Bq   0.000000
   129  Bq   0.000000
   130  Bq   0.000000
   131  Bq   0.000000
   132  Bq   0.000000
   133  Bq   0.000000
   134  Bq   0.000000
   135  Bq   0.000000
   136  Bq   0.000000
   137  Bq   0.000000
   138  Bq   0.000000
   139  Bq   0.000000
   140  Bq   0.000000
   141  Bq   0.000000
   142  Bq   0.000000
   143  Bq   0.000000
   144  Bq   0.000000
   145  Bq   0.000000
   146  Bq   0.000000
   147  Bq   0.000000
   148  Bq   0.000000
   149  Bq   0.000000
   150  Bq   0.000000
   151  Bq   0.000000
   152  Bq   0.000000
   153  Bq   0.000000
   154  Bq   0.000000
   155  Bq   0.000000
   156  Bq   0.000000
   157  Bq   0.000000
   158  Bq   0.000000
   159  Bq   0.000000
   160  Bq   0.000000
   161  Bq   0.000000
   162  Bq   0.000000
   163  Bq   0.000000
   164  Bq   0.000000
   165  Bq   0.000000
   166  Bq   0.000000
   167  Bq   0.000000
   168  Bq   0.000000
   169  Bq   0.000000
   170  Bq   0.000000
   171  Bq   0.000000
   172  Bq   0.000000
   173  Bq   0.000000
   174  Bq   0.000000
   175  Bq   0.000000
   176  Bq   0.000000
   177  Bq   0.000000
   178  Bq   0.000000
   179  Bq   0.000000
   180  Bq   0.000000
   181  Bq   0.000000
   182  Bq   0.000000
   183  Bq   0.000000
   184  Bq   0.000000
   185  Bq   0.000000
   186  Bq   0.000000
   187  Bq   0.000000
   188  Bq   0.000000
   189  Bq   0.000000
   190  Bq   0.000000
   191  Bq   0.000000
   192  Bq   0.000000
   193  Bq   0.000000
   194  Bq   0.000000
   195  Bq   0.000000
   196  Bq   0.000000
   197  Bq   0.000000
   198  Bq   0.000000
   199  Bq   0.000000
   200  Bq   0.000000
   201  Bq   0.000000
   202  Bq   0.000000
   203  Bq   0.000000
   204  Bq   0.000000
   205  Bq   0.000000
   206  Bq   0.000000
   207  Bq   0.000000
   208  Bq   0.000000
   209  Bq   0.000000
   210  Bq   0.000000
   211  Bq   0.000000
   212  Bq   0.000000
   213  Bq   0.000000
   214  Bq   0.000000
   215  Bq   0.000000
   216  Bq   0.000000
   217  Bq   0.000000
   218  Bq   0.000000
   219  Bq   0.000000
   220  Bq   0.000000
   221  Bq   0.000000
   222  Bq   0.000000
   223  Bq   0.000000
   224  Bq   0.000000
   225  Bq   0.000000
   226  Bq   0.000000
   227  Bq   0.000000
   228  Bq   0.000000
   229  Bq   0.000000
   230  Bq   0.000000
   231  Bq   0.000000
   232  Bq   0.000000
   233  Bq   0.000000
   234  Bq   0.000000
   235  Bq   0.000000
   236  Bq   0.000000
 Electronic spatial extent (au):  <R**2>=           5736.9264
 Charge=              0.0000 electrons
 Dipole moment (field-independent basis, Debye):
    X=              0.0475    Y=              0.0856    Z=              0.0029  Tot=              0.0979
 Quadrupole moment (field-independent basis, Debye-Ang):
   XX=           -113.7056   YY=           -113.9456   ZZ=           -133.2669
   XY=             -0.3834   XZ=              3.2102   YZ=             -1.1839
 Traceless Quadrupole moment (field-independent basis, Debye-Ang):
   XX=              6.6005   YY=              6.3604   ZZ=            -12.9609
   XY=             -0.3834   XZ=              3.2102   YZ=             -1.1839
 Octapole moment (field-independent basis, Debye-Ang**2):
  XXX=            -16.4668  YYY=            -16.1860  ZZZ=             -1.7007  XYY=              2.5576
  XXY=             -6.5650  XXZ=             13.6547  XZZ=             -8.9478  YZZ=            -17.7168
  YYZ=            -13.2941  XYZ=              8.8036
 Hexadecapole moment (field-independent basis, Debye-Ang**3):
 XXXX=          -3951.1638 YYYY=          -3112.2161 ZZZZ=           -504.8311 XXXY=            340.6935
 XXXZ=            156.4968 YYYX=            335.5625 YYYZ=            -87.0893 ZZZX=            120.2262
 ZZZY=           -108.7373 XXYY=          -1176.4844 XXZZ=           -856.7291 YYZZ=           -665.7275
 XXYZ=            -68.9016 YYXZ=             48.1602 ZZXY=            153.0375
 N-N= 1.610917615562D+03 E-N=-5.186891130729D+03  KE= 8.436329774449D+02
 1\1\GINC-MUHKA\SP\RB3LYP\6-311+G(d,p)\C22H14\YANNICK\23-Aug-2020\0\\# 
 rb3lyp/6-311+g** NMR geom=connectivity\\Title\\0,1\C,0,-4.0500558,-0.5
 771862,0.8136712\H,0,-5.0263804,-1.0082727,1.002476\C,0,-3.9381552,0.6
 617804,0.2400876\H,0,-4.8252424,1.233889,-0.0111295\C,0,-2.676841,1.24
 33246,0.0057578\C,0,-1.4974121,0.5051527,0.2848253\C,0,-1.6508332,-0.7
 338728,0.9404026\H,0,-0.7713646,-1.2730967,1.2633753\C,0,-2.8898548,-1
 .2624035,1.1994307\H,0,-2.9683706,-2.2124563,1.7152676\C,0,-2.5773185,
 2.5963696,-0.419293\H,0,-3.4870728,3.1412239,-0.6474055\C,0,-1.3741895
 ,3.2147896,-0.436403\H,0,-1.2997315,4.2742019,-0.6578144\C,0,-0.171948
 8,2.499409,-0.1734588\C,0,-0.2043917,1.1018437,0.0192689\C,0,1.0513491
 ,3.204256,-0.0676222\H,0,1.0427344,4.2819499,-0.1896997\C,0,2.1942091,
 2.5487446,0.2579577\H,0,3.1168527,3.0912848,0.4334727\C,0,2.2216473,1.
 1336562,0.293499\C,0,1.0486931,0.3945528,0.0302412\C,0,3.4483363,0.461
 4633,0.5573939\H,0,4.3095794,1.0606054,0.8334846\C,0,3.5427346,-0.8855
 926,0.4749463\H,0,4.4731467,-1.3939704,0.7038822\C,0,2.4490052,-1.6474
 447,-0.0196319\C,0,1.2150704,-1.0057258,-0.3013573\C,0,0.2531113,-1.74
 3444,-1.0216591\H,0,-0.6541356,-1.2535051,-1.3462847\C,0,0.4494193,-3.
 0628597,-1.3413779\H,0,-0.3083162,-3.5944309,-1.905406\C,0,1.6251726,-
 3.7207967,-0.9552541\H,0,1.7670048,-4.7687404,-1.1927019\C,0,2.6109872
 ,-3.0144177,-0.318305\H,0,3.5525612,-3.4902813,-0.0646367\Bq,0,-3.3811
 676551,2.3079634921,-0.1050371142\Bq,0,-3.3822296418,2.4384116431,0.16
 51149764\Bq,0,-3.3808136595,2.2644807751,-0.1950878111\Bq,0,-3.3825836
 374,2.4818943601,0.2551656733\Bq,0,-3.3804596639,2.2209980581,-0.28513
 8508\Bq,0,-3.382937633,2.5253770771,0.3452163702\Bq,0,-3.3801056684,2.
 1775153411,-0.3751892049\Bq,0,-3.3832916285,2.5688597941,0.4352670671\
 Bq,0,-3.3797516728,2.1340326241,-0.4652399018\Bq,0,-3.3815216507,2.351
 4462091,-0.0149864174\Bq,0,-3.381704714,2.4849803188,0.0315818985\Bq,0
 ,-3.3809967228,2.3980148848,-0.1485194953\Bq,0,-3.3820587095,2.5284630
 358,0.1216325954\Bq,0,-3.3806427272,2.3545321678,-0.2385701922\Bq,0,-3
 .3824127051,2.5719457528,0.2116832923\Bq,0,-3.3802887317,2.3110494508,
 -0.328620889\Bq,0,-3.3827667007,2.6154284698,0.3017339891\Bq,0,-3.3799
 347361,2.2675667338,-0.4186715859\Bq,0,-3.3831206963,2.6589111868,0.39
 1784686\Bq,0,-3.3795807405,2.2240840168,-0.5087222828\Bq,0,-3.38135071
 84,2.4414976018,-0.0584687984\Bq,0,-3.2902521004,-2.0175893147,2.20609
 40541\Bq,0,-3.2895441092,-2.1045547487,2.0259926603\Bq,0,-3.2906060959
 ,-1.9741065977,2.2961447509\Bq,0,-3.2891901136,-2.1480374658,1.9359419
 634\Bq,0,-3.2909600915,-1.9306238807,2.3861954478\Bq,0,-3.2888361181,-
 2.1915201828,1.8458912665\Bq,0,-3.2913140871,-1.8871411637,2.476246144
 7\Bq,0,-3.2884821225,-2.2350028998,1.7558405696\Bq,0,-3.2916680827,-1.
 8436584467,2.5662968416\Bq,0,-3.2881281269,-2.2784856168,1.6657898728\
 Bq,0,-3.2898981048,-2.0610720317,2.1160433572\Bq,0,-3.2900811681,-1.92
 75379221,2.162611673\Bq,0,-3.2893731769,-2.0145033561,1.9825102793\Bq,
 0,-3.2904351637,-1.8840552051,2.2526623699\Bq,0,-3.2890191814,-2.05798
 60731,1.8924595824\Bq,0,-3.2907891592,-1.8405724881,2.3427130668\Bq,0,
 -3.2886651858,-2.1014687901,1.8024088855\Bq,0,-3.2911431548,-1.7970897
 711,2.4327637637\Bq,0,-3.2883111902,-2.1449515071,1.7123581886\Bq,0,-3
 .2914971504,-1.753607054,2.5228144606\Bq,0,-3.2879571946,-2.1884342241
 ,1.6223074917\Bq,0,-3.2897271725,-1.9710206391,2.0725609761\Bq,0,-3.28
 99102358,-1.8374865294,2.119129292\Bq,0,-3.2892022447,-1.9244519634,1.
 9390278982\Bq,0,-3.2902642314,-1.7940038124,2.2091799889\Bq,0,-3.28884
 82491,-1.9679346804,1.8489772014\Bq,0,-3.290618227,-1.7505210954,2.299
 2306858\Bq,0,-3.2884942535,-2.0114173974,1.7589265045\Bq,0,-3.29097222
 25,-1.7070383784,2.3892813826\Bq,0,-3.2881402579,-2.0549001144,1.66887
 58076\Bq,0,-3.2913262181,-1.6635556614,2.4793320795\Bq,0,-3.2877862624
 ,-2.0983828314,1.5788251107\Bq,0,-3.2895562402,-1.8809692464,2.0290785
 951\Bq,0,-3.2897393035,-1.7474351367,2.075646911\Bq,0,-3.2890313124,-1
 .8344005707,1.8955455172\Bq,0,-3.2900932991,-1.7039524197,2.1656976078
 \Bq,0,-3.2886773168,-1.8778832877,1.8054948203\Bq,0,-3.2904472947,-1.6
 604697027,2.2557483047\Bq,0,-3.2883233212,-1.9213660047,1.7154441234\B
 q,0,-3.2908012903,-1.6169869857,2.3457990016\Bq,0,-3.2879693257,-1.964
 8487217,1.6253934266\Bq,0,-3.2911552858,-1.5735042687,2.4358496985\Bq,
 0,-3.2876153301,-2.0083314388,1.5353427297\Bq,0,-3.289385308,-1.790917
 8537,1.9855962141\Bq,0,-3.2895683713,-1.6573837441,2.0321645299\Bq,0,-
 3.2888603801,-1.7443491781,1.8520631362\Bq,0,-3.2899223668,-1.61390102
 7,2.1222152268\Bq,0,-3.2885063845,-1.7878318951,1.7620124393\Bq,0,-3.2
 902763624,-1.57041831,2.2122659237\Bq,0,-3.288152389,-1.8313146121,1.6
 719617424\Bq,0,-3.290630358,-1.526935593,2.3023166206\Bq,0,-3.28779839
 34,-1.8747973291,1.5819110455\Bq,0,-3.2909843536,-1.483452876,2.392367
 3175\Bq,0,-3.2874443978,-1.9182800461,1.4918603486\Bq,0,-3.2892143757,
 -1.7008664611,1.9421138331\Bq,0,-3.289397439,-1.5673323514,1.988682148
 9\Bq,0,-3.2886894478,-1.6542977854,1.8085807551\Bq,0,-3.2897514346,-1.
 5238496344,2.0787328458\Bq,0,-3.2883354523,-1.6977805024,1.7185300583\
 Bq,0,-3.2901054301,-1.4803669174,2.1687835427\Bq,0,-3.2879814567,-1.74
 12632194,1.6284793614\Bq,0,-3.2904594257,-1.4368842004,2.2588342395\Bq
 ,0,-3.2876274611,-1.7847459364,1.5384286645\Bq,0,-3.2908134213,-1.3934
 014834,2.3488849364\Bq,0,-3.2872734655,-1.8282286534,1.4483779676\Bq,0
 ,-3.2890434434,-1.6108150684,1.898631452\Bq,0,-3.2892265067,-1.4772809
 587,1.9451997679\Bq,0,-3.2885185156,-1.5642463927,1.7650983741\Bq,0,-3
 .2895805023,-1.4337982417,2.0352504648\Bq,0,-3.28816452,-1.6077291097,
 1.6750476772\Bq,0,-3.2899344979,-1.3903155247,2.1253011616\Bq,0,-3.287
 8105244,-1.6512118267,1.5849969803\Bq,0,-3.2902884934,-1.3468328077,2.
 2153518585\Bq,0,-3.2874565288,-1.6946945437,1.4949462835\Bq,0,-3.29064
 2489,-1.3033500907,2.3054025554\Bq,0,-3.2871025333,-1.7381772607,1.404
 8955866\Bq,0,-3.2888725111,-1.5207636757,1.855149071\Bq,0,-3.289055574
 4,-1.387229566,1.9017173868\Bq,0,-3.2883475833,-1.4741950001,1.7216159
 931\Bq,0,-3.28940957,-1.343746849,1.9917680837\Bq,0,-3.2879935877,-1.5
 176777171,1.6315652962\Bq,0,-3.2897635656,-1.300264132,2.0818187806\Bq
 ,0,-3.2876395921,-1.5611604341,1.5415145993\Bq,0,-3.2901175612,-1.2567
 81415,2.1718694775\Bq,0,-3.2872855966,-1.6046431511,1.4514639024\Bq,0,
 -3.2904715567,-1.213298698,2.2619201744\Bq,0,-3.286931601,-1.648125868
 1,1.3614132055\Bq,0,-3.2887015789,-1.430712283,1.81166669\Bq,0,-3.2888
 846422,-1.2971781734,1.8582350058\Bq,0,-3.288176651,-1.3841436074,1.67
 8133612\Bq,0,-3.2892386377,-1.2536954564,1.9482857027\Bq,0,-3.28782265
 54,-1.4276263244,1.5880829152\Bq,0,-3.2895926333,-1.2102127394,2.03833
 63996\Bq,0,-3.2874686599,-1.4711090414,1.4980322183\Bq,0,-3.2899466289
 ,-1.1667300224,2.1283870965\Bq,0,-3.2871146643,-1.5145917584,1.4079815
 214\Bq,0,-3.2903006245,-1.1232473054,2.2184377933\Bq,0,-3.2867606687,-
 1.5580744754,1.3179308245\Bq,0,-3.2885306466,-1.3406608904,1.768184308
 9\Bq,0,-3.2887137099,-1.2071267807,1.8147526248\Bq,0,-3.2880057187,-1.
 2940922147,1.634651231\Bq,0,-3.2890677055,-1.1636440637,1.9048033217\B
 q,0,-3.2876517232,-1.3375749317,1.5446005341\Bq,0,-3.289421701,-1.1201
 613467,1.9948540185\Bq,0,-3.2872977276,-1.3810576487,1.4545498372\Bq,0
 ,-3.2897756966,-1.0766786297,2.0849047154\Bq,0,-3.286943732,-1.4245403
 657,1.3644991404\Bq,0,-3.2901296922,-1.0331959127,2.1749554123\Bq,0,-3
 .2865897364,-1.4680230827,1.2744484435\Bq,0,-3.2883597143,-1.250609497
 7,1.7247019279\Bq,0,-3.2885427776,-1.117075388,1.7712702437\Bq,0,-3.28
 78347865,-1.204040822,1.59116885\Bq,0,-3.2888967732,-1.073592671,1.861
 3209406\Bq,0,-3.2874807909,-1.247523539,1.5011181531\Bq,0,-3.289250768
 8,-1.030109954,1.9513716375\Bq,0,-3.2871267953,-1.291006256,1.41106745
 62\Bq,0,-3.2896047643,-0.986627237,2.0414223344\Bq,0,-3.2867727997,-1.
 3344889731,1.3210167593\Bq,0,-3.2899587599,-0.94314452,2.1314730313\Bq
 ,0,-3.2864188042,-1.3779716901,1.2309660624\Bq,0,-3.288188782,-1.16055
 8105,1.6812195469\Bq,0,-3.2883718453,-1.0270239954,1.7277878627\Bq,0,-
 3.2876638542,-1.1139894294,1.5476864689\Bq,0,-3.2887258409,-0.98354127
 84,1.8178385596\Bq,0,-3.2873098586,-1.1574721464,1.4576357721\Bq,0,-3.
 2890798365,-0.9400585614,1.9078892565\Bq,0,-3.286955863,-1.2009548634,
 1.3675850752\Bq,0,-3.2894338321,-0.8965758443,1.9979399534\Bq,0,-3.286
 6018675,-1.2444375804,1.2775343783\Bq,0,-3.2897878276,-0.8530931273,2.
 0879906502\Bq,0,-3.2862478719,-1.2879202974,1.1874836814\Bq,0,-3.28801
 78498,-1.0705067124,1.6377371658\Bq,0,-3.2882009131,-0.9369726027,1.68
 43054817\Bq,0,-3.2874929219,-1.0239380367,1.5042040879\Bq,0,-3.2885549
 086,-0.8934898857,1.7743561786\Bq,0,-3.2871389263,-1.0674207537,1.4141
 53391\Bq,0,-3.2889089042,-0.8500071687,1.8644068754\Bq,0,-3.2867849308
 ,-1.1109034707,1.3241026941\Bq,0,-3.2892628998,-0.8065244517,1.9544575
 723\Bq,0,-3.2864309352,-1.1543861877,1.2340519973\Bq,0,-3.2896168954,-
 0.7630417347,2.0445082692\Bq,0,-3.2860769396,-1.1978689047,1.144001300
 4\Bq,0,-3.2878469175,-0.9804553197,1.5942547848\Bq,0,-3.2880299808,-0.
 84692121,1.6408231006\Bq,0,-3.2873219896,-0.933886644,1.4607217069\Bq,
 0,-3.2883839764,-0.803438493,1.7308737975\Bq,0,-3.2869679941,-0.977369
 361,1.37067101\Bq,0,-3.2887379719,-0.759955776,1.8209244944\Bq,0,-3.28
 66139985,-1.020852078,1.2806203131\Bq,0,-3.2890919675,-0.716473059,1.9
 109751913\Bq,0,-3.2862600029,-1.064334795,1.1905696162\Bq,0,-3.2894459
 631,-0.672990342,2.0010258882\Bq,0,-3.2859060073,-1.107817512,1.100518
 9193\Bq,0,-3.2876759852,-0.890403927,1.5507724038\Bq,0,-3.2878590485,-
 0.7568698173,1.5973407196\Bq,0,-3.2871510574,-0.8438352514,1.417239325
 8\Bq,0,-3.2882130441,-0.7133871003,1.6873914165\Bq,0,-3.2867970618,-0.
 8873179684,1.327188629\Bq,0,-3.2885670397,-0.6699043833,1.7774421134\B
 q,0,-3.2864430662,-0.9308006854,1.2371379321\Bq,0,-3.2889210352,-0.626
 4216663,1.8674928103\Bq,0,-3.2860890706,-0.9742834024,1.1470872352\Bq,
 0,-3.2892750308,-0.5829389493,1.9575435071\Bq,0,-3.2857350751,-1.01776
 61194,1.0570365383\Bq,0,-3.2875050529,-0.8003525344,1.5072900227\Bq,0,
 -3.2876881162,-0.6668184247,1.5538583386\Bq,0,-3.2869801251,-0.7537838
 587,1.3737569448\Bq,0,-3.2880421118,-0.6233357077,1.6439090355\Bq,0,-3
 .2866261295,-0.7972665757,1.2837062479\Bq,0,-3.2883961074,-0.579852990
 7,1.7339597323\Bq,0,-3.2862721339,-0.8407492927,1.193655551\Bq,0,-3.28
 8750103,-0.5363702737,1.8240104292\Bq,0,-3.2859181384,-0.8842320097,1.
 1036048542\Bq,0,-3.2891040985,-0.4928875567,1.9140611261\Bq,0,-3.28556
 41428,-0.9277147267,1.0135541573\Bq,0,-3.2873341207,-0.7103011417,1.46
 38076417\Bq,0,-3.287517184,-0.576767032,1.5103759575\Bq,0,-3.286809192
 8,-0.663732466,1.3302745638\Bq,0,-3.2878711795,-0.533284315,1.60042665
 44\\Version=ES64L-G09RevD.01\HF=-847.0032898\RMSD=7.559e-09\Dipole=0.0
 186808,0.0336671,0.0011595\Quadrupole=4.9072795,4.7288219,-9.6361014,-
 0.2850201,2.3867064,-0.880172\PG=C01 [X(C22H14)]\\@


 ONE BIG VICE IN A MAN IS APT TO KEEP OUT MANY SMALLER ONES.

                           -- BRET HARTE
 Job cpu time:       0 days  2 hours 59 minutes 39.4 seconds.
 File lengths (MBytes):  RWF=    184 Int=      0 D2E=      0 Chk=     19 Scr=      1
 Normal termination of Gaussian 09 at Sun Aug 23 02:59:21 2020.
