 Entering Gaussian System, Link 0=g09
 Input=input_cycle_01_batch_23400.com
 Output=input_cycle_01_batch_23400.log
 Initial command:
 /share/programs/GAUSSIAN/64/g09/l1.exe "/scratch/yannick.30004/Gau-21790.inp" -scrdir="/scratch/yannick.30004/"
 Entering Link 1 = /share/programs/GAUSSIAN/64/g09/l1.exe PID=     21791.
  
 Copyright (c) 1988,1990,1992,1993,1995,1998,2003,2009,2013,
            Gaussian, Inc.  All Rights Reserved.
  
 This is part of the Gaussian(R) 09 program.  It is based on
 the Gaussian(R) 03 system (copyright 2003, Gaussian, Inc.),
 the Gaussian(R) 98 system (copyright 1998, Gaussian, Inc.),
 the Gaussian(R) 94 system (copyright 1995, Gaussian, Inc.),
 the Gaussian 92(TM) system (copyright 1992, Gaussian, Inc.),
 the Gaussian 90(TM) system (copyright 1990, Gaussian, Inc.),
 the Gaussian 88(TM) system (copyright 1988, Gaussian, Inc.),
 the Gaussian 86(TM) system (copyright 1986, Carnegie Mellon
 University), and the Gaussian 82(TM) system (copyright 1983,
 Carnegie Mellon University). Gaussian is a federally registered
 trademark of Gaussian, Inc.
  
 This software contains proprietary and confidential information,
 including trade secrets, belonging to Gaussian, Inc.
  
 This software is provided under written license and may be
 used, copied, transmitted, or stored only in accord with that
 written license.
  
 The following legend is applicable only to US Government
 contracts under FAR:
  
                    RESTRICTED RIGHTS LEGEND
  
 Use, reproduction and disclosure by the US Government is
 subject to restrictions as set forth in subparagraphs (a)
 and (c) of the Commercial Computer Software - Restricted
 Rights clause in FAR 52.227-19.
  
 Gaussian, Inc.
 340 Quinnipiac St., Bldg. 40, Wallingford CT 06492
  
  
 ---------------------------------------------------------------
 Warning -- This program may not be used in any manner that
 competes with the business of Gaussian, Inc. or will provide
 assistance to any competitor of Gaussian, Inc.  The licensee
 of this program is prohibited from giving any competitor of
 Gaussian, Inc. access to this program.  By using this program,
 the user acknowledges that Gaussian, Inc. is engaged in the
 business of creating and licensing software in the field of
 computational chemistry and represents and warrants to the
 licensee that it is not a competitor of Gaussian, Inc. and that
 it will not use this program in any manner prohibited above.
 ---------------------------------------------------------------
  

 Cite this work as:
 Gaussian 09, Revision D.01,
 M. J. Frisch, G. W. Trucks, H. B. Schlegel, G. E. Scuseria, 
 M. A. Robb, J. R. Cheeseman, G. Scalmani, V. Barone, B. Mennucci, 
 G. A. Petersson, H. Nakatsuji, M. Caricato, X. Li, H. P. Hratchian, 
 A. F. Izmaylov, J. Bloino, G. Zheng, J. L. Sonnenberg, M. Hada, 
 M. Ehara, K. Toyota, R. Fukuda, J. Hasegawa, M. Ishida, T. Nakajima, 
 Y. Honda, O. Kitao, H. Nakai, T. Vreven, J. A. Montgomery, Jr., 
 J. E. Peralta, F. Ogliaro, M. Bearpark, J. J. Heyd, E. Brothers, 
 K. N. Kudin, V. N. Staroverov, T. Keith, R. Kobayashi, J. Normand, 
 K. Raghavachari, A. Rendell, J. C. Burant, S. S. Iyengar, J. Tomasi, 
 M. Cossi, N. Rega, J. M. Millam, M. Klene, J. E. Knox, J. B. Cross, 
 V. Bakken, C. Adamo, J. Jaramillo, R. Gomperts, R. E. Stratmann, 
 O. Yazyev, A. J. Austin, R. Cammi, C. Pomelli, J. W. Ochterski, 
 R. L. Martin, K. Morokuma, V. G. Zakrzewski, G. A. Voth, 
 P. Salvador, J. J. Dannenberg, S. Dapprich, A. D. Daniels, 
 O. Farkas, J. B. Foresman, J. V. Ortiz, J. Cioslowski, 
 and D. J. Fox, Gaussian, Inc., Wallingford CT, 2013.
 
 ******************************************
 Gaussian 09:  ES64L-G09RevD.01 24-Apr-2013
                21-Aug-2020 
 ******************************************
 %nproc=8
 Will use up to    8 processors via shared memory.
 %mem=1000MB
 ----------------------------------------
 # rb3lyp/6-311+g** NMR geom=connectivity
 ----------------------------------------
 1/38=1,57=2/1;
 2/12=2,17=6,18=5,40=1/2;
 3/5=4,6=6,7=111,11=2,16=1,25=1,30=1,74=-5,116=1/1,2,8,3;
 4//1;
 5/5=2,38=5/2;
 8/6=1,10=90,11=11/1;
 10/13=100,45=16/2;
 6/7=2,8=2,9=2,10=2,28=1/1;
 99/9=1/99;
 -----
 Title
 -----
 Symbolic Z-matrix:
 Charge =  0 Multiplicity = 1
 C                    -4.05006  -0.57719   0.81367 
 H                    -5.02638  -1.00827   1.00248 
 C                    -3.93816   0.66178   0.24009 
 H                    -4.82524   1.23389  -0.01113 
 C                    -2.67684   1.24332   0.00576 
 C                    -1.49741   0.50515   0.28483 
 C                    -1.65083  -0.73387   0.9404 
 H                    -0.77136  -1.2731    1.26338 
 C                    -2.88985  -1.2624    1.19943 
 H                    -2.96837  -2.21246   1.71527 
 C                    -2.57732   2.59637  -0.41929 
 H                    -3.48707   3.14122  -0.64741 
 C                    -1.37419   3.21479  -0.4364 
 H                    -1.29973   4.2742   -0.65781 
 C                    -0.17195   2.49941  -0.17346 
 C                    -0.20439   1.10184   0.01927 
 C                     1.05135   3.20426  -0.06762 
 H                     1.04273   4.28195  -0.1897 
 C                     2.19421   2.54874   0.25796 
 H                     3.11685   3.09128   0.43347 
 C                     2.22165   1.13366   0.2935 
 C                     1.04869   0.39455   0.03024 
 C                     3.44834   0.46146   0.55739 
 H                     4.30958   1.06061   0.83348 
 C                     3.54273  -0.88559   0.47495 
 H                     4.47315  -1.39397   0.70388 
 C                     2.44901  -1.64744  -0.01963 
 C                     1.21507  -1.00573  -0.30136 
 C                     0.25311  -1.74344  -1.02166 
 H                    -0.65414  -1.25351  -1.34628 
 C                     0.44942  -3.06286  -1.34138 
 H                    -0.30832  -3.59443  -1.90541 
 C                     1.62517  -3.7208   -0.95525 
 H                     1.767    -4.76874  -1.1927 
 C                     2.61099  -3.01442  -0.31831 
 H                     3.55256  -3.49028  -0.06464 
 Bq                    2.49047  -1.49177   0.88298 
 Bq                    2.64992  -1.38531   0.53192 
 Bq                    2.45061  -1.51838   0.97074 
 Bq                    2.68978  -1.35869   0.44415 
 Bq                    2.41075  -1.545     1.0585 
 Bq                    2.72964  -1.33207   0.35639 
 Bq                    2.37089  -1.57162   1.14627 
 Bq                    2.76951  -1.30546   0.26862 
 Bq                    2.5702   -1.43854   0.70745 
 Bq                    2.51933  -1.36876   0.81944 
 Bq                    2.59905  -1.31553   0.64391 
 Bq                    2.47947  -1.39538   0.90721 
 Bq                    2.63891  -1.28891   0.55615 
 Bq                    2.4396   -1.42199   0.99497 
 Bq                    2.67878  -1.2623    0.46839 
 Bq                    2.39974  -1.44861   1.08274 
 Bq                    2.71864  -1.23568   0.38062 
 Bq                    2.35988  -1.47522   1.1705 
 Bq                    2.7585   -1.20907   0.29286 
 Bq                    2.55919  -1.34214   0.73168 
 Bq                    2.50832  -1.27237   0.84368 
 Bq                    2.58805  -1.21914   0.66815 
 Bq                    2.46846  -1.29898   0.93144 
 Bq                    2.62791  -1.19252   0.58038 
 Bq                    2.4286   -1.3256    1.01921 
 Bq                    2.66777  -1.1659    0.49262 
 Bq                    2.38874  -1.35221   1.10697 
 Bq                    2.70763  -1.13929   0.40485 
 Bq                    2.34887  -1.37883   1.19474 
 Bq                    2.74749  -1.11267   0.31709 
 Bq                    2.54818  -1.24575   0.75591 
 Bq                    2.49732  -1.17597   0.86791 
 Bq                    2.57704  -1.12274   0.69238 
 Bq                    2.45745  -1.20259   0.95568 
 Bq                    2.6169   -1.09613   0.60462 
 Bq                    2.41759  -1.2292    1.04344 
 Bq                    2.65676  -1.06951   0.51685 
 Bq                    2.37773  -1.25582   1.1312 
 Bq                    2.69662  -1.0429    0.42909 
 Bq                    2.33787  -1.28244   1.21897 
 Bq                    2.73649  -1.01628   0.34132 
 Bq                    2.53718  -1.14936   0.78015 
 Bq                    2.48631  -1.07958   0.89214 
 Bq                    2.56603  -1.02635   0.71661 
 Bq                    2.44645  -1.1062    0.97991 
 Bq                    2.60589  -0.99973   0.62885 
 Bq                    2.40659  -1.13281   1.06767 
 Bq                    2.64576  -0.97312   0.54108 
 Bq                    2.36672  -1.15943   1.15544 
 Bq                    2.68562  -0.9465    0.45332 
 Bq                    2.32686  -1.18604   1.2432 
 Bq                    2.72548  -0.91989   0.36556 
 Bq                    2.52617  -1.05296   0.80438 
 Bq                    2.4753   -0.98319   0.91638 
 Bq                    2.55503  -0.92996   0.74085 
 Bq                    2.43544  -1.0098    1.00414 
 Bq                    2.59489  -0.90334   0.65308 
 Bq                    2.39558  -1.03642   1.09191 
 Bq                    2.63475  -0.87673   0.56532 
 Bq                    2.35572  -1.06303   1.17967 
 Bq                    2.67461  -0.85011   0.47755 
 Bq                    2.31586  -1.08965   1.26744 
 Bq                    2.71447  -0.82349   0.38979 
 Bq                    2.51516  -0.95657   0.82861 
 Bq                    2.4643   -0.88679   0.94061 
 Bq                    2.54402  -0.83356   0.76508 
 Bq                    2.42443  -0.91341   1.02837 
 Bq                    2.58388  -0.80695   0.67732 
 Bq                    2.38457  -0.94003   1.11614 
 Bq                    2.62374  -0.78033   0.58955 
 Bq                    2.34471  -0.96664   1.2039 
 Bq                    2.6636   -0.75372   0.50179 
 Bq                    2.30485  -0.99326   1.29167 
 Bq                    2.70347  -0.7271    0.41402 
 Bq                    2.50416  -0.86018   0.85285 
 Bq                    2.45329  -0.7904    0.96484 
 Bq                    2.53301  -0.73717   0.78931 
 Bq                    2.41343  -0.81702   1.05261 
 Bq                    2.57287  -0.71055   0.70155 
 Bq                    2.37357  -0.84363   1.14037 
 Bq                    2.61274  -0.68394   0.61378 
 Bq                    2.3337   -0.87025   1.22814 
 Bq                    2.6526   -0.65732   0.52602 
 Bq                    2.29384  -0.89686   1.3159 
 Bq                    2.69246  -0.63071   0.43826 
 Bq                    2.49315  -0.76379   0.87708 
 Bq                    2.44228  -0.69401   0.98908 
 Bq                    2.52201  -0.64078   0.81355 
 Bq                    2.40242  -0.72062   1.07684 
 Bq                    2.56187  -0.61416   0.72578 
 Bq                    2.36256  -0.74724   1.16461 
 Bq                    2.60173  -0.58755   0.63802 
 Bq                    2.3227   -0.77386   1.25237 
 Bq                    2.64159  -0.56093   0.55025 
 Bq                    2.28284  -0.80047   1.34014 
 Bq                    2.68145  -0.53431   0.46249 
 Bq                    2.48214  -0.66739   0.90131 
 Bq                    2.43128  -0.59762   1.01331 
 Bq                    2.511    -0.54438   0.83778 
 Bq                    2.39141  -0.62423   1.10107 
 Bq                    2.55086  -0.51777   0.75002 
 Bq                    2.35155  -0.65085   1.18884 
 Bq                    2.59072  -0.49115   0.66225 
 Bq                    2.31169  -0.67746   1.2766 
 Bq                    2.63059  -0.46454   0.57449 
 Bq                    2.27183  -0.70408   1.36437 
 Bq                    2.67045  -0.43792   0.48672 
 Bq                    2.47114  -0.571     0.92555 
 Bq                    2.42027  -0.50122   1.03754 
 Bq                    2.49999  -0.44799   0.86201 
 Bq                    2.38041  -0.52784   1.12531 
 Bq                    2.53986  -0.42138   0.77425 
 Bq                    2.34055  -0.55445   1.21307 
 Bq                    2.57972  -0.39476   0.68648 
 Bq                    2.30068  -0.58107   1.30084 
 Bq                    2.61958  -0.36814   0.59872 
 Bq                    2.26082  -0.60769   1.3886 
 Bq                    2.65944  -0.34153   0.51095 
 Bq                    2.46013  -0.47461   0.94978 
 Bq                    2.40926  -0.40483   1.06178 
 Bq                    2.48899  -0.3516    0.88625 
 Bq                    2.3694   -0.43145   1.14954 
 Bq                    2.52885  -0.32498   0.79848 
 Bq                    2.32954  -0.45806   1.23731 
 Bq                    2.56871  -0.29837   0.71072 
 Bq                    2.28968  -0.48468   1.32507 
 Bq                    2.60857  -0.27175   0.62295 
 Bq                    2.24982  -0.51129   1.41284 
 Bq                    2.64843  -0.24514   0.53519 
 Bq                    2.44913  -0.37821   0.97401 
 Bq                    2.39826  -0.30844   1.08601 
 Bq                    2.47798  -0.25521   0.91048 
 Bq                    2.3584   -0.33505   1.17377 
 Bq                    2.51784  -0.22859   0.82272 
 Bq                    2.31853  -0.36167   1.26154 
 Bq                    2.5577   -0.20197   0.73495 
 Bq                    2.27867  -0.38828   1.3493 
 Bq                    2.59757  -0.17536   0.64719 
 Bq                    2.23881  -0.4149    1.43707 
 Bq                    2.63743  -0.14874   0.55942 
 Bq                    2.43812  -0.28182   0.99825 
 Bq                    2.38725  -0.21204   1.11024 
 Bq                    2.46697  -0.15881   0.93471 
 Bq                    2.34739  -0.23866   1.19801 
 Bq                    2.50684  -0.1322    0.84695 
 Bq                    2.30753  -0.26528   1.28577 
 Bq                    2.5467   -0.10558   0.75918 
 Bq                    2.26767  -0.29189   1.37354 
 Bq                    2.58656  -0.07897   0.67142 
 Bq                    2.2278   -0.31851   1.4613 
 Bq                    2.62642  -0.05235   0.58365 
 Bq                    2.42711  -0.18543   1.02248 
 Bq                    2.37624  -0.11565   1.13448 
 Bq                    2.45597  -0.06242   0.95895 
 Bq                    2.33638  -0.14227   1.22224 
 Bq                    2.49583  -0.0358    0.87118 
 Bq                    2.29652  -0.16888   1.31001 
 Bq                    2.53569  -0.00919   0.78342 
 Bq                    2.25666  -0.1955    1.39777 
 Bq                    2.57555   0.01743   0.69565 
 Bq                    2.2168   -0.22211   1.48554 
 Bq                    2.61541   0.04404   0.60789 
 Bq                    2.41611  -0.08904   1.04671 
 Bq                    3.01762  -4.9353   -0.03583 
 Bq                    3.09734  -4.88207  -0.21136 
 Bq                    2.97775  -4.96192   0.05193 
 Bq                    3.1372   -4.85545  -0.29913 
 Bq                    2.93789  -4.98853   0.1397 
 Bq                    3.17706  -4.82884  -0.38689 
 Bq                    2.89803  -5.01515   0.22746 
 Bq                    3.21693  -4.80222  -0.47466 
 Bq                    2.85817  -5.04176   0.31523 
 Bq                    3.25679  -4.77561  -0.56242 
 Bq                    3.05748  -4.90868  -0.1236 
 Bq                    3.00661  -4.83891  -0.0116 
 Bq                    3.08633  -4.78568  -0.18713 
 Bq                    2.96675  -4.86552   0.07617 
 Bq                    3.1262   -4.75906  -0.27489 
 Bq                    2.92689  -4.89214   0.16393 
 Bq                    3.16606  -4.73244  -0.36266 
 Bq                    2.88702  -4.91875   0.25169 
 Bq                    3.20592  -4.70583  -0.45042 
 Bq                    2.84716  -4.94537   0.33946 
 Bq                    3.24578  -4.67921  -0.53819 
 Bq                    3.04647  -4.81229  -0.09936 
 Bq                    2.9956   -4.74251   0.01263 
 Bq                    3.07533  -4.68928  -0.1629 
 Bq                    2.95574  -4.76913   0.1004 
 Bq                    3.11519  -4.66267  -0.25066 
 Bq                    2.91588  -4.79575   0.18816 
 Bq                    3.15505  -4.63605  -0.33843 
 Bq                    2.87602  -4.82236   0.27593 
 Bq                    3.19491  -4.60944  -0.42619 
 Bq                    2.83616  -4.84898   0.36369 
 Bq                    3.23477  -4.58282  -0.51395 
 Bq                    3.03547  -4.7159   -0.07513 
 Bq                    2.9846   -4.64612   0.03687 
 Bq                    3.06432  -4.59289  -0.13866 
 Bq                    2.94474  -4.67274   0.12463 
 Bq                    3.10418  -4.56627  -0.22643 
 
 Symmetry turned off:
 Cannot cope with ghost atoms or with translation vectors.
 Stoichiometry    C22H14
 Framework group  C1[X(C22H14)]
 NUMDOF-- NAT=    36 NAtoms=   236
 Deg. of freedom     0
 Full point group                 C1      NOp   1
                          Input orientation:                          
 ---------------------------------------------------------------------
 Center     Atomic      Atomic             Coordinates (Angstroms)
 Number     Number       Type             X           Y           Z
 ---------------------------------------------------------------------
      1          6           0       -4.050056   -0.577186    0.813671
      2          1           0       -5.026380   -1.008273    1.002476
      3          6           0       -3.938155    0.661780    0.240088
      4          1           0       -4.825242    1.233889   -0.011130
      5          6           0       -2.676841    1.243325    0.005758
      6          6           0       -1.497412    0.505153    0.284825
      7          6           0       -1.650833   -0.733873    0.940403
      8          1           0       -0.771365   -1.273097    1.263375
      9          6           0       -2.889855   -1.262404    1.199431
     10          1           0       -2.968371   -2.212456    1.715268
     11          6           0       -2.577319    2.596370   -0.419293
     12          1           0       -3.487073    3.141224   -0.647406
     13          6           0       -1.374190    3.214790   -0.436403
     14          1           0       -1.299732    4.274202   -0.657814
     15          6           0       -0.171949    2.499409   -0.173459
     16          6           0       -0.204392    1.101844    0.019269
     17          6           0        1.051349    3.204256   -0.067622
     18          1           0        1.042734    4.281950   -0.189700
     19          6           0        2.194209    2.548745    0.257958
     20          1           0        3.116853    3.091285    0.433473
     21          6           0        2.221647    1.133656    0.293499
     22          6           0        1.048693    0.394553    0.030241
     23          6           0        3.448336    0.461463    0.557394
     24          1           0        4.309579    1.060605    0.833485
     25          6           0        3.542735   -0.885593    0.474946
     26          1           0        4.473147   -1.393970    0.703882
     27          6           0        2.449005   -1.647445   -0.019632
     28          6           0        1.215070   -1.005726   -0.301357
     29          6           0        0.253111   -1.743444   -1.021659
     30          1           0       -0.654136   -1.253505   -1.346285
     31          6           0        0.449419   -3.062860   -1.341378
     32          1           0       -0.308316   -3.594431   -1.905406
     33          6           0        1.625173   -3.720797   -0.955254
     34          1           0        1.767005   -4.768740   -1.192702
     35          6           0        2.610987   -3.014418   -0.318305
     36          1           0        3.552561   -3.490281   -0.064637
     37          0           0        2.490473   -1.491768    0.882975
     38          0           0        2.649920   -1.385306    0.531917
     39          0           0        2.450611   -1.518384    0.970740
     40          0           0        2.689782   -1.358690    0.444152
     41          0           0        2.410749   -1.544999    1.058505
     42          0           0        2.729643   -1.332074    0.356387
     43          0           0        2.370887   -1.571615    1.146270
     44          0           0        2.769505   -1.305459    0.268622
     45          0           0        2.570196   -1.438537    0.707446
     46          0           0        2.519328   -1.368760    0.819444
     47          0           0        2.599052   -1.315528    0.643915
     48          0           0        2.479466   -1.395375    0.907209
     49          0           0        2.638913   -1.288913    0.556150
     50          0           0        2.439605   -1.421991    0.994973
     51          0           0        2.678775   -1.262297    0.468385
     52          0           0        2.399743   -1.448607    1.082738
     53          0           0        2.718637   -1.235681    0.380620
     54          0           0        2.359881   -1.475222    1.170503
     55          0           0        2.758499   -1.209066    0.292856
     56          0           0        2.559190   -1.342144    0.731679
     57          0           0        2.508322   -1.272367    0.843677
     58          0           0        2.588045   -1.219135    0.668148
     59          0           0        2.468460   -1.298982    0.931442
     60          0           0        2.627907   -1.192520    0.580383
     61          0           0        2.428598   -1.325598    1.019207
     62          0           0        2.667769   -1.165904    0.492618
     63          0           0        2.388736   -1.352214    1.106971
     64          0           0        2.707630   -1.139288    0.404854
     65          0           0        2.348875   -1.378829    1.194736
     66          0           0        2.747492   -1.112673    0.317089
     67          0           0        2.548183   -1.245751    0.755913
     68          0           0        2.497315   -1.175974    0.867911
     69          0           0        2.577039   -1.122742    0.692381
     70          0           0        2.457453   -1.202589    0.955675
     71          0           0        2.616900   -1.096127    0.604616
     72          0           0        2.417592   -1.229205    1.043440
     73          0           0        2.656762   -1.069511    0.516852
     74          0           0        2.377730   -1.255821    1.131205
     75          0           0        2.696624   -1.042895    0.429087
     76          0           0        2.337868   -1.282436    1.218969
     77          0           0        2.736486   -1.016280    0.341322
     78          0           0        2.537177   -1.149358    0.780146
     79          0           0        2.486309   -1.079581    0.892144
     80          0           0        2.566032   -1.026349    0.716614
     81          0           0        2.446447   -1.106196    0.979908
     82          0           0        2.605894   -0.999734    0.628850
     83          0           0        2.406585   -1.132812    1.067673
     84          0           0        2.645756   -0.973118    0.541085
     85          0           0        2.366723   -1.159428    1.155438
     86          0           0        2.685617   -0.946502    0.453320
     87          0           0        2.326862   -1.186043    1.243203
     88          0           0        2.725479   -0.919887    0.365555
     89          0           0        2.526170   -1.052965    0.804379
     90          0           0        2.475302   -0.983188    0.916377
     91          0           0        2.555026   -0.929956    0.740848
     92          0           0        2.435440   -1.009803    1.004142
     93          0           0        2.594887   -0.903341    0.653083
     94          0           0        2.395579   -1.036419    1.091906
     95          0           0        2.634749   -0.876725    0.565318
     96          0           0        2.355717   -1.063035    1.179671
     97          0           0        2.674611   -0.850109    0.477553
     98          0           0        2.315855   -1.089650    1.267436
     99          0           0        2.714473   -0.823494    0.389789
    100          0           0        2.515164   -0.956572    0.828612
    101          0           0        2.464296   -0.886795    0.940610
    102          0           0        2.544019   -0.833563    0.765081
    103          0           0        2.424434   -0.913410    1.028375
    104          0           0        2.583881   -0.806948    0.677316
    105          0           0        2.384572   -0.940026    1.116140
    106          0           0        2.623743   -0.780332    0.589551
    107          0           0        2.344710   -0.966642    1.203904
    108          0           0        2.663604   -0.753716    0.501787
    109          0           0        2.304849   -0.993257    1.291669
    110          0           0        2.703466   -0.727101    0.414022
    111          0           0        2.504157   -0.860179    0.852846
    112          0           0        2.453289   -0.790402    0.964844
    113          0           0        2.533013   -0.737170    0.789314
    114          0           0        2.413427   -0.817017    1.052608
    115          0           0        2.572874   -0.710555    0.701549
    116          0           0        2.373566   -0.843633    1.140373
    117          0           0        2.612736   -0.683939    0.613785
    118          0           0        2.333704   -0.870249    1.228138
    119          0           0        2.652598   -0.657323    0.526020
    120          0           0        2.293842   -0.896864    1.315902
    121          0           0        2.692460   -0.630708    0.438255
    122          0           0        2.493151   -0.763786    0.877079
    123          0           0        2.442283   -0.694009    0.989077
    124          0           0        2.522006   -0.640777    0.813547
    125          0           0        2.402421   -0.720624    1.076841
    126          0           0        2.561868   -0.614162    0.725783
    127          0           0        2.362559   -0.747240    1.164606
    128          0           0        2.601730   -0.587546    0.638018
    129          0           0        2.322697   -0.773856    1.252371
    130          0           0        2.641592   -0.560930    0.550253
    131          0           0        2.282836   -0.800471    1.340136
    132          0           0        2.681453   -0.534315    0.462488
    133          0           0        2.482144   -0.667393    0.901312
    134          0           0        2.431276   -0.597616    1.013310
    135          0           0        2.511000   -0.544384    0.837781
    136          0           0        2.391414   -0.624231    1.101075
    137          0           0        2.550862   -0.517769    0.750016
    138          0           0        2.351553   -0.650847    1.188839
    139          0           0        2.590723   -0.491153    0.662251
    140          0           0        2.311691   -0.677463    1.276604
    141          0           0        2.630585   -0.464537    0.574486
    142          0           0        2.271829   -0.704078    1.364369
    143          0           0        2.670447   -0.437922    0.486722
    144          0           0        2.471138   -0.571000    0.925545
    145          0           0        2.420270   -0.501223    1.037543
    146          0           0        2.499993   -0.447991    0.862014
    147          0           0        2.380408   -0.527838    1.125308
    148          0           0        2.539855   -0.421376    0.774249
    149          0           0        2.340546   -0.554454    1.213073
    150          0           0        2.579717   -0.394760    0.686484
    151          0           0        2.300684   -0.581070    1.300837
    152          0           0        2.619579   -0.368144    0.598720
    153          0           0        2.260823   -0.607685    1.388602
    154          0           0        2.659440   -0.341529    0.510955
    155          0           0        2.460132   -0.474607    0.949779
    156          0           0        2.409263   -0.404830    1.061777
    157          0           0        2.488987   -0.351598    0.886247
    158          0           0        2.369402   -0.431445    1.149541
    159          0           0        2.528849   -0.324983    0.798482
    160          0           0        2.329540   -0.458061    1.237306
    161          0           0        2.568710   -0.298367    0.710718
    162          0           0        2.289678   -0.484677    1.325071
    163          0           0        2.608572   -0.271751    0.622953
    164          0           0        2.249816   -0.511292    1.412835
    165          0           0        2.648434   -0.245136    0.535188
    166          0           0        2.449125   -0.378214    0.974012
    167          0           0        2.398257   -0.308437    1.086010
    168          0           0        2.477980   -0.255205    0.910480
    169          0           0        2.358395   -0.335052    1.173774
    170          0           0        2.517842   -0.228590    0.822716
    171          0           0        2.318533   -0.361668    1.261539
    172          0           0        2.557704   -0.201974    0.734951
    173          0           0        2.278672   -0.388284    1.349304
    174          0           0        2.597566   -0.175358    0.647186
    175          0           0        2.238810   -0.414899    1.437069
    176          0           0        2.637427   -0.148743    0.559421
    177          0           0        2.438119   -0.281821    0.998245
    178          0           0        2.387250   -0.212044    1.110243
    179          0           0        2.466974   -0.158812    0.934714
    180          0           0        2.347389   -0.238659    1.198008
    181          0           0        2.506836   -0.132197    0.846949
    182          0           0        2.307527   -0.265275    1.285772
    183          0           0        2.546697   -0.105581    0.759184
    184          0           0        2.267665   -0.291891    1.373537
    185          0           0        2.586559   -0.078965    0.671419
    186          0           0        2.227803   -0.318506    1.461302
    187          0           0        2.626421   -0.052350    0.583655
    188          0           0        2.427112   -0.185428    1.022478
    189          0           0        2.376244   -0.115651    1.134476
    190          0           0        2.455967   -0.062419    0.958947
    191          0           0        2.336382   -0.142266    1.222241
    192          0           0        2.495829   -0.035804    0.871182
    193          0           0        2.296520   -0.168882    1.310006
    194          0           0        2.535691   -0.009188    0.783417
    195          0           0        2.256659   -0.195498    1.397770
    196          0           0        2.575553    0.017427    0.695653
    197          0           0        2.216797   -0.222113    1.485535
    198          0           0        2.615414    0.044043    0.607888
    199          0           0        2.416106   -0.089035    1.046712
    200          0           0        3.017616   -4.935300   -0.035833
    201          0           0        3.097340   -4.882069   -0.211362
    202          0           0        2.977755   -4.961916    0.051932
    203          0           0        3.137202   -4.855453   -0.299127
    204          0           0        2.937893   -4.988531    0.139697
    205          0           0        3.177063   -4.828837   -0.386892
    206          0           0        2.898031   -5.015147    0.227461
    207          0           0        3.216925   -4.802222   -0.474656
    208          0           0        2.858169   -5.041763    0.315226
    209          0           0        3.256787   -4.775606   -0.562421
    210          0           0        3.057478   -4.908684   -0.123598
    211          0           0        3.006610   -4.838907   -0.011600
    212          0           0        3.086333   -4.785676   -0.187129
    213          0           0        2.966748   -4.865523    0.076165
    214          0           0        3.126195   -4.759060   -0.274894
    215          0           0        2.926886   -4.892138    0.163930
    216          0           0        3.166057   -4.732444   -0.362659
    217          0           0        2.887025   -4.918754    0.251695
    218          0           0        3.205919   -4.705829   -0.450423
    219          0           0        2.847163   -4.945370    0.339459
    220          0           0        3.245781   -4.679213   -0.538188
    221          0           0        3.046472   -4.812291   -0.099364
    222          0           0        2.995603   -4.742514    0.012634
    223          0           0        3.075327   -4.689283   -0.162896
    224          0           0        2.955742   -4.769130    0.100398
    225          0           0        3.115189   -4.662667   -0.250661
    226          0           0        2.915880   -4.795745    0.188163
    227          0           0        3.155051   -4.636051   -0.338425
    228          0           0        2.876018   -4.822361    0.275928
    229          0           0        3.194912   -4.609436   -0.426190
    230          0           0        2.836156   -4.848977    0.363693
    231          0           0        3.234774   -4.582820   -0.513955
    232          0           0        3.035465   -4.715898   -0.075131
    233          0           0        2.984597   -4.646121    0.036867
    234          0           0        3.064321   -4.592890   -0.138663
    235          0           0        2.944735   -4.672737    0.124632
    236          0           0        3.104182   -4.566274   -0.226427
 ---------------------------------------------------------------------
 Rotational constants (GHZ):      0.4529074      0.2836956      0.1879557
 Standard basis: 6-311+G(d,p) (5D, 7F)
 Warning:  center  37 has no basis functions!
 Warning:  center  38 has no basis functions!
 Warning:  center  39 has no basis functions!
 Warning:  center  40 has no basis functions!
 Warning:  center  41 has no basis functions!
 Warning:  center  42 has no basis functions!
 Warning:  center  43 has no basis functions!
 Warning:  center  44 has no basis functions!
 Warning:  center  45 has no basis functions!
 Warning:  center  46 has no basis functions!
 Warning:  center  47 has no basis functions!
 Warning:  center  48 has no basis functions!
 Warning:  center  49 has no basis functions!
 Warning:  center  50 has no basis functions!
 Warning:  center  51 has no basis functions!
 Warning:  center  52 has no basis functions!
 Warning:  center  53 has no basis functions!
 Warning:  center  54 has no basis functions!
 Warning:  center  55 has no basis functions!
 Warning:  center  56 has no basis functions!
 Warning:  center  57 has no basis functions!
 Warning:  center  58 has no basis functions!
 Warning:  center  59 has no basis functions!
 Warning:  center  60 has no basis functions!
 Warning:  center  61 has no basis functions!
 Warning:  center  62 has no basis functions!
 Warning:  center  63 has no basis functions!
 Warning:  center  64 has no basis functions!
 Warning:  center  65 has no basis functions!
 Warning:  center  66 has no basis functions!
 Warning:  center  67 has no basis functions!
 Warning:  center  68 has no basis functions!
 Warning:  center  69 has no basis functions!
 Warning:  center  70 has no basis functions!
 Warning:  center  71 has no basis functions!
 Warning:  center  72 has no basis functions!
 Warning:  center  73 has no basis functions!
 Warning:  center  74 has no basis functions!
 Warning:  center  75 has no basis functions!
 Warning:  center  76 has no basis functions!
 Warning:  center  77 has no basis functions!
 Warning:  center  78 has no basis functions!
 Warning:  center  79 has no basis functions!
 Warning:  center  80 has no basis functions!
 Warning:  center  81 has no basis functions!
 Warning:  center  82 has no basis functions!
 Warning:  center  83 has no basis functions!
 Warning:  center  84 has no basis functions!
 Warning:  center  85 has no basis functions!
 Warning:  center  86 has no basis functions!
 Warning:  center  87 has no basis functions!
 Warning:  center  88 has no basis functions!
 Warning:  center  89 has no basis functions!
 Warning:  center  90 has no basis functions!
 Warning:  center  91 has no basis functions!
 Warning:  center  92 has no basis functions!
 Warning:  center  93 has no basis functions!
 Warning:  center  94 has no basis functions!
 Warning:  center  95 has no basis functions!
 Warning:  center  96 has no basis functions!
 Warning:  center  97 has no basis functions!
 Warning:  center  98 has no basis functions!
 Warning:  center  99 has no basis functions!
 Warning:  center 100 has no basis functions!
 Warning:  center 101 has no basis functions!
 Warning:  center 102 has no basis functions!
 Warning:  center 103 has no basis functions!
 Warning:  center 104 has no basis functions!
 Warning:  center 105 has no basis functions!
 Warning:  center 106 has no basis functions!
 Warning:  center 107 has no basis functions!
 Warning:  center 108 has no basis functions!
 Warning:  center 109 has no basis functions!
 Warning:  center 110 has no basis functions!
 Warning:  center 111 has no basis functions!
 Warning:  center 112 has no basis functions!
 Warning:  center 113 has no basis functions!
 Warning:  center 114 has no basis functions!
 Warning:  center 115 has no basis functions!
 Warning:  center 116 has no basis functions!
 Warning:  center 117 has no basis functions!
 Warning:  center 118 has no basis functions!
 Warning:  center 119 has no basis functions!
 Warning:  center 120 has no basis functions!
 Warning:  center 121 has no basis functions!
 Warning:  center 122 has no basis functions!
 Warning:  center 123 has no basis functions!
 Warning:  center 124 has no basis functions!
 Warning:  center 125 has no basis functions!
 Warning:  center 126 has no basis functions!
 Warning:  center 127 has no basis functions!
 Warning:  center 128 has no basis functions!
 Warning:  center 129 has no basis functions!
 Warning:  center 130 has no basis functions!
 Warning:  center 131 has no basis functions!
 Warning:  center 132 has no basis functions!
 Warning:  center 133 has no basis functions!
 Warning:  center 134 has no basis functions!
 Warning:  center 135 has no basis functions!
 Warning:  center 136 has no basis functions!
 Warning:  center 137 has no basis functions!
 Warning:  center 138 has no basis functions!
 Warning:  center 139 has no basis functions!
 Warning:  center 140 has no basis functions!
 Warning:  center 141 has no basis functions!
 Warning:  center 142 has no basis functions!
 Warning:  center 143 has no basis functions!
 Warning:  center 144 has no basis functions!
 Warning:  center 145 has no basis functions!
 Warning:  center 146 has no basis functions!
 Warning:  center 147 has no basis functions!
 Warning:  center 148 has no basis functions!
 Warning:  center 149 has no basis functions!
 Warning:  center 150 has no basis functions!
 Warning:  center 151 has no basis functions!
 Warning:  center 152 has no basis functions!
 Warning:  center 153 has no basis functions!
 Warning:  center 154 has no basis functions!
 Warning:  center 155 has no basis functions!
 Warning:  center 156 has no basis functions!
 Warning:  center 157 has no basis functions!
 Warning:  center 158 has no basis functions!
 Warning:  center 159 has no basis functions!
 Warning:  center 160 has no basis functions!
 Warning:  center 161 has no basis functions!
 Warning:  center 162 has no basis functions!
 Warning:  center 163 has no basis functions!
 Warning:  center 164 has no basis functions!
 Warning:  center 165 has no basis functions!
 Warning:  center 166 has no basis functions!
 Warning:  center 167 has no basis functions!
 Warning:  center 168 has no basis functions!
 Warning:  center 169 has no basis functions!
 Warning:  center 170 has no basis functions!
 Warning:  center 171 has no basis functions!
 Warning:  center 172 has no basis functions!
 Warning:  center 173 has no basis functions!
 Warning:  center 174 has no basis functions!
 Warning:  center 175 has no basis functions!
 Warning:  center 176 has no basis functions!
 Warning:  center 177 has no basis functions!
 Warning:  center 178 has no basis functions!
 Warning:  center 179 has no basis functions!
 Warning:  center 180 has no basis functions!
 Warning:  center 181 has no basis functions!
 Warning:  center 182 has no basis functions!
 Warning:  center 183 has no basis functions!
 Warning:  center 184 has no basis functions!
 Warning:  center 185 has no basis functions!
 Warning:  center 186 has no basis functions!
 Warning:  center 187 has no basis functions!
 Warning:  center 188 has no basis functions!
 Warning:  center 189 has no basis functions!
 Warning:  center 190 has no basis functions!
 Warning:  center 191 has no basis functions!
 Warning:  center 192 has no basis functions!
 Warning:  center 193 has no basis functions!
 Warning:  center 194 has no basis functions!
 Warning:  center 195 has no basis functions!
 Warning:  center 196 has no basis functions!
 Warning:  center 197 has no basis functions!
 Warning:  center 198 has no basis functions!
 Warning:  center 199 has no basis functions!
 Warning:  center 200 has no basis functions!
 Warning:  center 201 has no basis functions!
 Warning:  center 202 has no basis functions!
 Warning:  center 203 has no basis functions!
 Warning:  center 204 has no basis functions!
 Warning:  center 205 has no basis functions!
 Warning:  center 206 has no basis functions!
 Warning:  center 207 has no basis functions!
 Warning:  center 208 has no basis functions!
 Warning:  center 209 has no basis functions!
 Warning:  center 210 has no basis functions!
 Warning:  center 211 has no basis functions!
 Warning:  center 212 has no basis functions!
 Warning:  center 213 has no basis functions!
 Warning:  center 214 has no basis functions!
 Warning:  center 215 has no basis functions!
 Warning:  center 216 has no basis functions!
 Warning:  center 217 has no basis functions!
 Warning:  center 218 has no basis functions!
 Warning:  center 219 has no basis functions!
 Warning:  center 220 has no basis functions!
 Warning:  center 221 has no basis functions!
 Warning:  center 222 has no basis functions!
 Warning:  center 223 has no basis functions!
 Warning:  center 224 has no basis functions!
 Warning:  center 225 has no basis functions!
 Warning:  center 226 has no basis functions!
 Warning:  center 227 has no basis functions!
 Warning:  center 228 has no basis functions!
 Warning:  center 229 has no basis functions!
 Warning:  center 230 has no basis functions!
 Warning:  center 231 has no basis functions!
 Warning:  center 232 has no basis functions!
 Warning:  center 233 has no basis functions!
 Warning:  center 234 has no basis functions!
 Warning:  center 235 has no basis functions!
 Warning:  center 236 has no basis functions!
   568 basis functions,   904 primitive gaussians,   590 cartesian basis functions
    73 alpha electrons       73 beta electrons
       nuclear repulsion energy      1610.9176155625 Hartrees.
 NAtoms=  236 NActive=  236 NUniq=  236 SFac= 1.00D+00 NAtFMM=   60 NAOKFM=T Big=T
 Integral buffers will be    131072 words long.
 Raffenetti 2 integral format.
 Two-electron integral symmetry is turned off.
 One-electron integrals computed using PRISM.
 NBasis=   568 RedAO= T EigKep=  1.78D-06  NBF=   568
 NBsUse=   556 1.00D-06 EigRej=  9.09D-07 NBFU=   556
 ExpMin= 4.38D-02 ExpMax= 4.56D+03 ExpMxC= 6.82D+02 IAcc=2 IRadAn=         4 AccDes= 0.00D+00
 Harris functional with IExCor=  402 and IRadAn=       4 diagonalized for initial guess.
 HarFok:  IExCor=  402 AccDes= 0.00D+00 IRadAn=         4 IDoV= 1 UseB2=F ITyADJ=14
 ICtDFT=  3500011 ScaDFX=  1.000000  1.000000  1.000000  1.000000
 FoFCou: FMM=F IPFlag=           0 FMFlag=      100000 FMFlg1=        2001
         NFxFlg=           0 DoJE=T BraDBF=F KetDBF=T FulRan=T
         wScrn=  0.000000 ICntrl=     500 IOpCl=  0 I1Cent=   200000004 NGrid=           0
         NMat0=    1 NMatS0=      1 NMatT0=    0 NMatD0=    1 NMtDS0=    0 NMtDT0=    0
 Symmetry not used in FoFCou.
 Requested convergence on RMS density matrix=1.00D-08 within 128 cycles.
 Requested convergence on MAX density matrix=1.00D-06.
 Requested convergence on             energy=1.00D-06.
 No special actions if energy rises.
 SCF Done:  E(RB3LYP) =  -847.003289847     A.U. after   15 cycles
            NFock= 15  Conv=0.76D-08     -V/T= 2.0040
 DoSCS=F DFT=T ScalE2(SS,OS)=  1.000000  1.000000
 Range of M.O.s used for correlation:     1   556
 NBasis=   568 NAE=    73 NBE=    73 NFC=     0 NFV=     0
 NROrb=    556 NOA=    73 NOB=    73 NVA=   483 NVB=   483

 **** Warning!!: The largest alpha MO coefficient is  0.10971037D+03

          Differentiating once with respect to magnetic field using GIAOs.
          Electric field/nuclear overlap derivatives assumed to be zero.
 FoFCou: FMM=F IPFlag=           0 FMFlag=      100000 FMFlg1=        2001
         NFxFlg=           0 DoJE=F BraDBF=F KetDBF=T FulRan=T
         wScrn=  0.000000 ICntrl=    6100 IOpCl=  0 I1Cent=           7 NGrid=         236
         NMat0=    1 NMatS0=      1 NMatT0=    0 NMatD0=    1 NMtDS0=    0 NMtDT0=    0
 Symmetry not used in FoFCou.
 FoFJK:  IHMeth= 1 ICntrl=    6127 DoSepK=F KAlg= 0 I1Cent=   0 FoldK=F
 IRaf=         1 NMat=   1 IRICut=       1 DoRegI=T DoRafI=F ISym2E= 0.
          There are     3 degrees of freedom in the 1st order CPHF.  IDoFFX=0 NUNeed=     3.
      3 vectors produced by pass  0 Test12= 1.18D-12 3.33D-08 XBig12= 2.07D+03 9.18D+00.
 AX will form     3 AO Fock derivatives at one time.
      3 vectors produced by pass  1 Test12= 1.18D-12 3.33D-08 XBig12= 3.56D+00 8.03D-01.
      3 vectors produced by pass  2 Test12= 1.18D-12 3.33D-08 XBig12= 2.10D-02 6.92D-02.
      3 vectors produced by pass  3 Test12= 1.18D-12 3.33D-08 XBig12= 5.45D-05 1.89D-03.
      3 vectors produced by pass  4 Test12= 1.18D-12 3.33D-08 XBig12= 1.20D-07 7.79D-05.
      3 vectors produced by pass  5 Test12= 1.18D-12 3.33D-08 XBig12= 4.02D-10 4.73D-06.
      3 vectors produced by pass  6 Test12= 1.18D-12 3.33D-08 XBig12= 1.32D-12 2.61D-07.
 InvSVY:  IOpt=1 It=  1 EMax= 7.11D-15
 Solved reduced A of dimension    21 with     3 vectors.
 Calculating GIAO nuclear magnetic shielding tensors.
 SCF GIAO Magnetic shielding tensor (ppm):
      1  C    Isotropic =    53.8139   Anisotropy =   178.0260
   XX=   -41.4327   YX=   -32.3458   ZX=    10.0287
   XY=   -28.3572   YY=    59.0527   ZY=    55.1899
   XZ=    13.1759   YZ=    58.7550   ZZ=   143.8218
   Eigenvalues:   -53.8775    42.8214   172.4979
      2  H    Isotropic =    24.3095   Anisotropy =     4.8536
   XX=    25.5771   YX=    -1.0289   ZX=     0.5661
   XY=    -0.7431   YY=    26.1829   ZY=    -2.3306
   XZ=    -0.1707   YZ=    -2.4411   ZZ=    21.1687
   Eigenvalues:    20.2108    25.1725    27.5453
      3  C    Isotropic =    51.4055   Anisotropy =   157.8639
   XX=   -31.5399   YX=    38.5015   ZX=   -17.9316
   XY=    34.3519   YY=    49.9437   ZY=    49.6392
   XZ=    -9.8383   YZ=    44.6006   ZZ=   135.8127
   Eigenvalues:   -50.5747    48.1432   156.6481
      4  H    Isotropic =    23.8290   Anisotropy =     7.1838
   XX=    25.3635   YX=     1.8486   ZX=    -0.3559
   XY=     1.9656   YY=    26.4581   ZY=    -2.4103
   XZ=    -1.2941   YZ=    -2.6614   ZZ=    19.6654
   Eigenvalues:    18.8176    24.0511    28.6182
      5  C    Isotropic =    46.0697   Anisotropy =   207.6751
   XX=   -19.2123   YX=    -4.8852   ZX=    -1.6475
   XY=     2.8938   YY=    -2.9860   ZY=    66.5656
   XZ=     2.5356   YZ=    67.9144   ZZ=   160.4073
   Eigenvalues:   -27.2455   -19.0652   184.5197
      6  C    Isotropic =    47.5218   Anisotropy =   196.9389
   XX=   -28.1552   YX=    -2.7889   ZX=    12.0660
   XY=   -14.3886   YY=    21.2063   ZY=    74.2521
   XZ=   -18.6356   YZ=    61.1113   ZZ=   149.5144
   Eigenvalues:   -30.2925    -5.9564   178.8144
      7  C    Isotropic =    49.3915   Anisotropy =   179.8333
   XX=   -12.5211   YX=    28.7048   ZX=   -24.6745
   XY=    31.5123   YY=    29.7000   ZY=    77.7459
   XZ=   -40.0095   YZ=    65.3072   ZZ=   130.9956
   Eigenvalues:   -52.1299    31.0240   169.2804
      8  H    Isotropic =    23.1586   Anisotropy =    13.5525
   XX=    28.5711   YX=     1.5482   ZX=    -3.6986
   XY=     3.2466   YY=    22.7592   ZY=    -2.1157
   XZ=    -8.3753   YZ=    -1.0821   ZZ=    18.1456
   Eigenvalues:    15.3521    21.9301    32.1936
      9  C    Isotropic =    55.1460   Anisotropy =   174.7426
   XX=    46.7071   YX=    -2.6162   ZX=    -2.8420
   XY=     0.6223   YY=    -1.6258   ZY=    92.8272
   XZ=     0.5159   YZ=    95.6598   ZZ=   120.3568
   Eigenvalues:   -52.8932    46.6901   171.6411
     10  H    Isotropic =    24.6278   Anisotropy =     7.1815
   XX=    29.1040   YX=     0.1399   ZX=    -0.3694
   XY=     0.3642   YY=    23.4778   ZY=    -1.0805
   XZ=    -2.4493   YZ=    -2.9465   ZZ=    21.3016
   Eigenvalues:    19.9703    24.4977    29.4155
     11  C    Isotropic =    51.5607   Anisotropy =   151.2142
   XX=     2.1639   YX=    40.9287   ZX=   -26.0048
   XY=    49.9131   YY=    12.2331   ZY=    42.1342
   XZ=   -15.6145   YZ=    38.6614   ZZ=   140.2851
   Eigenvalues:   -48.1951    50.5071   152.3701
     12  H    Isotropic =    23.8537   Anisotropy =     7.3815
   XX=    25.9672   YX=     2.3738   ZX=    -0.2390
   XY=     2.4320   YY=    26.3975   ZY=    -1.8291
   XZ=     0.3529   YZ=    -1.7731   ZZ=    19.1964
   Eigenvalues:    18.7149    24.0714    28.7747
     13  C    Isotropic =    52.8653   Anisotropy =   147.4265
   XX=    51.2944   YX=    19.9221   ZX=   -13.4678
   XY=    11.5478   YY=   -34.0176   ZY=    42.5079
   XZ=    -9.2241   YZ=    40.0716   ZZ=   141.3192
   Eigenvalues:   -46.5152    53.9616   151.1497
     14  H    Isotropic =    24.0156   Anisotropy =     7.3485
   XX=    28.6644   YX=     0.6281   ZX=     1.0808
   XY=     0.5926   YY=    24.4325   ZY=    -1.0823
   XZ=     1.6846   YZ=    -0.3842   ZZ=    18.9500
   Eigenvalues:    18.6430    24.4892    28.9146
     15  C    Isotropic =    46.2221   Anisotropy =   203.9048
   XX=   -27.2215   YX=    -0.0442   ZX=   -28.9124
   XY=     4.6427   YY=   -10.5571   ZY=    28.3830
   XZ=   -10.2704   YZ=    26.7376   ZZ=   176.4448
   Eigenvalues:   -30.5512   -12.9411   182.1586
     16  C    Isotropic =    51.9375   Anisotropy =   188.2004
   XX=   -19.4441   YX=     5.5046   ZX=    15.7858
   XY=    -8.3874   YY=     2.4863   ZY=    22.9264
   XZ=   -50.6243   YZ=    23.3340   ZZ=   172.7704
   Eigenvalues:   -21.0294    -0.5625   177.4045
     17  C    Isotropic =    51.9482   Anisotropy =   149.1264
   XX=    50.7296   YX=   -23.9353   ZX=   -18.4207
   XY=   -16.7271   YY=   -41.8764   ZY=    17.8662
   XZ=   -14.3278   YZ=    11.4871   ZZ=   146.9915
   Eigenvalues:   -46.7796    51.2584   151.3658
     18  H    Isotropic =    24.0122   Anisotropy =     7.5163
   XX=    28.5811   YX=    -0.0866   ZX=     1.5071
   XY=    -0.2466   YY=    24.3342   ZY=    -0.7657
   XZ=     2.5088   YZ=    -1.5208   ZZ=    19.1214
   Eigenvalues:    18.5094    24.5041    29.0231
     19  C    Isotropic =    51.7356   Anisotropy =   148.5924
   XX=     2.4559   YX=   -45.6913   ZX=   -31.2531
   XY=   -53.4448   YY=     7.4698   ZY=    -1.8888
   XZ=   -23.5601   YZ=    -1.2765   ZZ=   145.2810
   Eigenvalues:   -46.9894    51.3989   150.7972
     20  H    Isotropic =    23.9071   Anisotropy =     7.6651
   XX=    25.5796   YX=    -2.0226   ZX=     1.4905
   XY=    -1.9998   YY=    27.3706   ZY=    -0.5164
   XZ=     2.7276   YZ=    -1.1179   ZZ=    18.7711
   Eigenvalues:    18.1643    24.5398    29.0172
     21  C    Isotropic =    45.9767   Anisotropy =   203.9316
   XX=   -16.2108   YX=    13.1802   ZX=   -44.5913
   XY=     6.5714   YY=   -20.6329   ZY=     0.0949
   XZ=   -28.8984   YZ=   -13.0883   ZZ=   174.7736
   Eigenvalues:   -30.5796   -13.4215   181.9311
     22  C    Isotropic =    52.0450   Anisotropy =   188.1157
   XX=    -0.0787   YX=     2.5023   ZX=   -16.3451
   XY=    18.9327   YY=   -14.4798   ZY=   -34.4335
   XZ=   -50.6032   YZ=    19.9104   ZZ=   170.6934
   Eigenvalues:   -20.7705    -0.5500   177.4554
     23  C    Isotropic =    53.2392   Anisotropy =   146.7412
   XX=   -22.0674   YX=   -32.0012   ZX=   -49.4857
   XY=   -23.2043   YY=    44.3661   ZY=   -15.6400
   XZ=   -43.8090   YZ=   -20.2525   ZZ=   137.4189
   Eigenvalues:   -45.6776    54.3286   151.0667
     24  H    Isotropic =    23.8249   Anisotropy =     7.5289
   XX=    25.1073   YX=    -1.7330   ZX=     1.5380
   XY=    -1.5944   YY=    28.0047   ZY=     0.0879
   XZ=     1.2557   YZ=    -0.8283   ZZ=    18.3628
   Eigenvalues:    18.0848    24.5458    28.8442
     25  C    Isotropic =    51.4969   Anisotropy =   150.1066
   XX=   -28.4915   YX=    33.9684   ZX=   -52.3137
   XY=    22.0311   YY=    46.6072   ZY=    -3.8075
   XZ=   -44.5594   YZ=   -10.6355   ZZ=   136.3748
   Eigenvalues:   -48.3857    51.3083   151.5679
     26  H    Isotropic =    23.7431   Anisotropy =     7.4052
   XX=    24.0663   YX=     1.1141   ZX=     1.9989
   XY=     0.9693   YY=    28.1000   ZY=     1.6568
   XZ=     2.0795   YZ=     0.8886   ZZ=    19.0630
   Eigenvalues:    18.2615    24.2880    28.6799
     27  C    Isotropic =    45.8108   Anisotropy =   207.2710
   XX=    -2.7702   YX=    13.7697   ZX=   -61.4651
   XY=     6.5593   YY=   -12.0335   ZY=   -41.6456
   XZ=   -62.6381   YZ=   -44.9232   ZZ=   152.2361
   Eigenvalues:   -28.0803   -18.4787   183.9915
     28  C    Isotropic =    47.8398   Anisotropy =   197.2870
   XX=    19.6900   YX=    14.4398   ZX=   -60.5682
   XY=    28.5650   YY=   -19.3566   ZY=   -56.7015
   XZ=   -63.1331   YZ=   -24.4782   ZZ=   143.1859
   Eigenvalues:   -30.5979    -5.2472   179.3644
     29  C    Isotropic =    49.3441   Anisotropy =   179.7793
   XX=    -3.4110   YX=    38.3775   ZX=   -80.8875
   XY=    36.1252   YY=    25.9805   ZY=   -23.7573
   XZ=   -78.1065   YZ=    -3.9802   ZZ=   125.4627
   Eigenvalues:   -51.6645    30.4997   169.1970
     30  H    Isotropic =    23.1387   Anisotropy =    13.3222
   XX=    22.4354   YX=    -0.7013   ZX=    -0.2375
   XY=    -2.1539   YY=    28.3546   ZY=     4.5555
   XZ=    -3.4181   YZ=     8.3231   ZZ=    18.6259
   Eigenvalues:    15.2751    22.1208    32.0201
     31  C    Isotropic =    55.4410   Anisotropy =   174.9390
   XX=    17.1871   YX=   -14.0890   ZX=   -84.0024
   XY=   -17.9030   YY=    37.4745   ZY=   -50.3662
   XZ=   -84.6557   YZ=   -54.8325   ZZ=   111.6615
   Eigenvalues:   -51.9248    46.1808   172.0670
     32  H    Isotropic =    24.5337   Anisotropy =     7.2554
   XX=    24.6185   YX=    -2.5264   ZX=     0.7632
   XY=    -2.7385   YY=    27.4630   ZY=     1.0335
   XZ=     1.1913   YZ=     3.7573   ZZ=    21.5194
   Eigenvalues:    19.8987    24.3316    29.3706
     33  C    Isotropic =    53.1814   Anisotropy =   179.0596
   XX=    60.9231   YX=    35.2256   ZX=   -42.9515
   XY=    32.0226   YY=   -38.1801   ZY=   -45.5652
   XZ=   -44.2248   YZ=   -50.7831   ZZ=   136.8014
   Eigenvalues:   -55.1197    42.1095   172.5545
     34  H    Isotropic =    24.2825   Anisotropy =     5.1861
   XX=    26.7643   YX=    -0.0934   ZX=     2.5955
   XY=    -0.2993   YY=    24.8157   ZY=     0.8589
   XZ=     2.3715   YZ=     1.4580   ZZ=    21.2676
   Eigenvalues:    20.0339    25.0737    27.7399
     35  C    Isotropic =    51.5295   Anisotropy =   155.1748
   XX=    -0.5131   YX=    52.5760   ZX=   -52.1551
   XY=    55.6135   YY=    25.1843   ZY=   -14.2643
   XZ=   -45.7255   YZ=   -17.1625   ZZ=   129.9171
   Eigenvalues:   -48.3147    47.9237   154.9793
     36  H    Isotropic =    23.8384   Anisotropy =     7.3073
   XX=    24.2302   YX=     1.4459   ZX=     2.1759
   XY=     1.2147   YY=    27.1572   ZY=     2.0665
   XZ=     1.6853   YZ=     2.7775   ZZ=    20.1277
   Eigenvalues:    18.9464    23.8588    28.7099
     37  Bq   Isotropic =    17.2857   Anisotropy =    21.4770
   XX=    10.9721   YX=     1.2266   ZX=    -7.1858
   XY=     0.1978   YY=    12.4537   ZY=    -6.5712
   XZ=     2.8617   YZ=    -8.2917   ZZ=    28.4312
   Eigenvalues:     9.5181    10.7353    31.6037
     38  Bq   Isotropic =    26.6453   Anisotropy =    27.9106
   XX=    22.8000   YX=    -6.9589   ZX=   -15.1514
   XY=    -3.3049   YY=    21.7058   ZY=   -15.6800
   XZ=   -11.1882   YZ=    -4.0408   ZZ=    35.4300
   Eigenvalues:     7.5683    27.1151    45.2524
     39  Bq   Isotropic =    14.6567   Anisotropy =    22.3578
   XX=     7.7617   YX=     1.8755   ZX=    -6.4453
   XY=     0.2087   YY=     9.4884   ZY=    -5.5088
   XZ=     3.9959   YZ=    -9.2777   ZZ=    26.7199
   Eigenvalues:     6.4910     7.9171    29.5619
     40  Bq   Isotropic =    27.2675   Anisotropy =    34.0219
   XX=    22.5200   YX=   -10.2844   ZX=   -17.6780
   XY=    -5.7838   YY=    21.1000   ZY=   -17.7059
   XZ=   -15.7944   YZ=    -4.9333   ZZ=    38.1825
   Eigenvalues:     2.6300    29.2238    49.9488
     41  Bq   Isotropic =    12.3328   Anisotropy =    22.9949
   XX=     5.0951   YX=     2.1854   ZX=    -5.9847
   XY=     0.1238   YY=     6.9197   ZY=    -4.8289
   XZ=     4.4937   YZ=    -9.9147   ZZ=    24.9835
   Eigenvalues:     3.7513     5.5843    27.6627
     42  Bq   Isotropic =    27.2855   Anisotropy =    40.0344
   XX=    20.4614   YX=   -13.3432   ZX=   -19.1173
   XY=    -8.7613   YY=    19.5644   ZY=   -18.0209
   XZ=   -18.9419   YZ=    -7.3677   ZZ=    41.8306
   Eigenvalues:    -2.4924    30.3738    53.9751
     43  Bq   Isotropic =    10.3588   Anisotropy =    23.2436
   XX=     2.9968   YX=     2.2637   ZX=    -5.6888
   XY=     0.0021   YY=     4.8109   ZY=    -4.4115
   XZ=     4.5662   YZ=   -10.2277   ZZ=    23.2685
   Eigenvalues:     1.6596     3.5621    25.8545
     44  Bq   Isotropic =    27.3733   Anisotropy =    44.2307
   XX=    17.6629   YX=   -15.3490   ZX=   -18.7447
   XY=   -11.5899   YY=    18.3932   ZY=   -15.9838
   XZ=   -19.6430   YZ=   -10.9633   ZZ=    46.0637
   Eigenvalues:    -5.8468    31.1063    56.8604
     45  Bq   Isotropic =    22.8166   Anisotropy =    21.1000
   XX=    18.1708   YX=    -1.5908   ZX=   -10.0843
   XY=    -0.5322   YY=    18.5879   ZY=   -10.2963
   XZ=    -2.2218   YZ=    -5.6052   ZZ=    31.6911
   Eigenvalues:    12.1904    19.3762    36.8833
     46  Bq   Isotropic =    19.6113   Anisotropy =    22.0823
   XX=    14.2807   YX=    -0.7346   ZX=    -7.4574
   XY=     0.0799   YY=    13.1892   ZY=    -7.7630
   XZ=    -0.8796   YZ=    -5.7056   ZZ=    31.3639
   Eigenvalues:    10.2051    14.2959    34.3328
     47  Bq   Isotropic =    24.7180   Anisotropy =    23.5345
   XX=    21.0554   YX=    -4.9566   ZX=    -9.7039
   XY=    -1.4346   YY=    18.0388   ZY=   -11.9098
   XZ=    -7.2996   YZ=    -2.7686   ZZ=    35.0598
   Eigenvalues:    11.0233    22.7230    40.4076
     48  Bq   Isotropic =    16.9171   Anisotropy =    22.6541
   XX=    10.8207   YX=     0.5370   ZX=    -6.7854
   XY=     0.2985   YY=    10.4147   ZY=    -6.3015
   XZ=     1.1369   YZ=    -7.1446   ZZ=    29.5158
   Eigenvalues:     8.1953    10.5361    32.0198
     49  Bq   Isotropic =    26.5832   Anisotropy =    26.5101
   XX=    23.3078   YX=    -7.7622   ZX=   -11.1961
   XY=    -2.9736   YY=    19.3246   ZY=   -14.0675
   XZ=   -11.1918   YZ=    -2.1147   ZZ=    37.1172
   Eigenvalues:     9.2310    26.2620    44.2566
     50  Bq   Isotropic =    14.4124   Anisotropy =    23.2956
   XX=     7.7577   YX=     1.3341   ZX=    -6.3330
   XY=     0.3233   YY=     7.8340   ZY=    -5.2756
   XZ=     2.4140   YZ=    -8.2748   ZZ=    27.6454
   Eigenvalues:     5.7142     7.5801    29.9428
     51  Bq   Isotropic =    27.7554   Anisotropy =    30.5349
   XX=    24.1244   YX=   -10.6089   ZX=   -12.6223
   XY=    -5.0552   YY=    19.6085   ZY=   -15.4973
   XZ=   -14.6338   YZ=    -2.7173   ZZ=    39.5334
   Eigenvalues:     6.2478    28.9065    48.1120
     52  Bq   Isotropic =    12.2016   Anisotropy =    23.6968
   XX=     5.2159   YX=     1.7655   ZX=    -6.0218
   XY=     0.2435   YY=     5.6043   ZY=    -4.6004
   XZ=     3.1125   YZ=    -9.0449   ZZ=    25.7846
   Eigenvalues:     3.3509     5.2544    27.9994
     53  Bq   Isotropic =    28.3578   Anisotropy =    34.4828
   XX=    23.4359   YX=   -12.9157   ZX=   -13.5875
   XY=    -7.4396   YY=    19.2764   ZY=   -15.4732
   XZ=   -16.6994   YZ=    -4.9096   ZZ=    42.3610
   Eigenvalues:     3.0138    30.7132    51.3463
     54  Bq   Isotropic =    10.3193   Anisotropy =    23.7538
   XX=     3.2092   YX=     1.9360   ZX=    -5.7902
   XY=     0.1195   YY=     3.7768   ZY=    -4.1791
   XZ=     3.3967   YZ=    -9.4782   ZZ=    23.9718
   Eigenvalues:     1.4465     3.3562    26.1551
     55  Bq   Isotropic =    28.7537   Anisotropy =    37.3138
   XX=    21.7619   YX=   -14.0608   ZX=   -13.7748
   XY=    -9.6297   YY=    19.1482   ZY=   -13.6025
   XZ=   -16.7700   YZ=    -8.4938   ZZ=    45.3512
   Eigenvalues:     0.8295    31.8021    53.6296
     56  Bq   Isotropic =    22.3020   Anisotropy =    22.1516
   XX=    17.8503   YX=    -2.5642   ZX=    -8.4232
   XY=    -0.4523   YY=    15.8655   ZY=    -9.6783
   XZ=    -3.7244   YZ=    -4.1329   ZZ=    33.1901
   Eigenvalues:    11.2867    18.5494    37.0697
     57  Bq   Isotropic =    18.6313   Anisotropy =    22.7605
   XX=    13.3798   YX=    -1.2005   ZX=    -6.5609
   XY=     0.2073   YY=    10.9040   ZY=    -6.7157
   XZ=    -2.1592   YZ=    -4.2544   ZZ=    31.6101
   Eigenvalues:     8.9155    13.1734    33.8050
     58  Bq   Isotropic =    23.3264   Anisotropy =    22.9805
   XX=    19.4920   YX=    -5.1159   ZX=    -7.3180
   XY=    -1.0142   YY=    15.5233   ZY=    -9.8039
   XZ=    -7.6292   YZ=    -0.9206   ZZ=    34.9638
   Eigenvalues:    10.8208    20.5115    38.6467
     59  Bq   Isotropic =    16.1859   Anisotropy =    23.3303
   XX=    10.2674   YX=     0.0736   ZX=    -6.3285
   XY=     0.3886   YY=     8.4703   ZY=    -5.5549
   XZ=    -0.2485   YZ=    -5.8532   ZZ=    29.8199
   Eigenvalues:     6.9283     9.8900    31.7394
     60  Bq   Isotropic =    25.1314   Anisotropy =    24.4040
   XX=    21.6318   YX=    -7.5028   ZX=    -7.8671
   XY=    -2.1876   YY=    17.1865   ZY=   -11.2660
   XZ=   -10.6495   YZ=     0.0170   ZZ=    36.5759
   Eigenvalues:    10.2528    23.7407    41.4007
     61  Bq   Isotropic =    13.9067   Anisotropy =    23.8411
   XX=     7.4915   YX=     0.9136   ZX=    -6.1481
   XY=     0.4013   YY=     6.2463   ZY=    -4.7180
   XZ=     1.0727   YZ=    -7.1332   ZZ=    27.9823
   Eigenvalues:     4.7358     7.1835    29.8008
     62  Bq   Isotropic =    26.3577   Anisotropy =    26.4629
   XX=    22.5984   YX=    -9.7261   ZX=    -8.4833
   XY=    -3.7005   YY=    18.2526   ZY=   -12.0935
   XZ=   -13.1207   YZ=    -0.2305   ZZ=    38.2220
   Eigenvalues:     8.7853    26.2881    43.9996
     63  Bq   Isotropic =    11.8829   Anisotropy =    24.0925
   XX=     5.1664   YX=     1.4005   ZX=    -5.9892
   XY=     0.3186   YY=     4.3417   ZY=    -4.1598
   XZ=     1.8963   YZ=    -8.0443   ZZ=    26.1407
   Eigenvalues:     2.7060     4.9982    27.9446
     64  Bq   Isotropic =    27.0402   Anisotropy =    28.5067
   XX=    22.2738   YX=   -11.2750   ZX=    -9.0934
   XY=    -5.3543   YY=    18.9306   ZY=   -11.8132
   XZ=   -14.3872   YZ=    -2.0531   ZZ=    39.9162
   Eigenvalues:     6.9883    28.0876    46.0447
     65  Bq   Isotropic =    10.1463   Anisotropy =    24.0224
   XX=     3.3122   YX=     1.6255   ZX=    -5.8317
   XY=     0.1941   YY=     2.7891   ZY=    -3.8129
   XZ=     2.3388   YZ=    -8.6083   ZZ=    24.3377
   Eigenvalues:     1.0413     3.2364    26.1613
     66  Bq   Isotropic =    27.3952   Anisotropy =    30.0231
   XX=    20.9736   YX=   -11.6781   ZX=    -9.6342
   XY=    -6.8071   YY=    19.6675   ZY=   -10.2125
   XZ=   -14.0839   YZ=    -5.3993   ZZ=    41.5444
   Eigenvalues:     5.6781    29.0968    47.4106
     67  Bq   Isotropic =    21.0842   Anisotropy =    22.4993
   XX=    16.5836   YX=    -2.9478   ZX=    -6.8817
   XY=    -0.2314   YY=    13.3453   ZY=    -8.1805
   XZ=    -4.6701   YZ=    -2.5030   ZZ=    33.3235
   Eigenvalues:    10.3202    16.8485    36.0837
     68  Bq   Isotropic =    17.3064   Anisotropy =    22.8799
   XX=    12.0995   YX=    -1.3284   ZX=    -5.7632
   XY=     0.3647   YY=     8.8988   ZY=    -5.3947
   XZ=    -3.0221   YZ=    -2.9243   ZZ=    30.9210
   Eigenvalues:     7.7022    11.6573    32.5597
     69  Bq   Isotropic =    21.2860   Anisotropy =    21.9491
   XX=    17.0973   YX=    -4.6428   ZX=    -5.4013
   XY=    -0.4373   YY=    13.3441   ZY=    -7.3967
   XZ=    -7.5316   YZ=     0.6565   ZZ=    33.4165
   Eigenvalues:    10.3751    17.5641    35.9187
     70  Bq   Isotropic =    15.1986   Anisotropy =    23.5308
   XX=     9.4537   YX=    -0.1726   ZX=    -5.8855
   XY=     0.4703   YY=     6.7471   ZY=    -4.5961
   XZ=    -1.2901   YZ=    -4.6256   ZZ=    29.3949
   Eigenvalues:     5.7518     8.9581    30.8858
     71  Bq   Isotropic =    22.7846   Anisotropy =    22.0645
   XX=    18.7283   YX=    -6.4970   ZX=    -5.2784
   XY=    -1.1850   YY=    15.2936   ZY=    -8.2373
   XZ=    -9.8067   YZ=     1.8025   ZZ=    34.3319
   Eigenvalues:    10.6685    20.1910    37.4943
     72  Bq   Isotropic =    13.2103   Anisotropy =    24.0043
   XX=     7.0463   YX=     0.6208   ZX=    -5.9362
   XY=     0.4505   YY=     4.8298   ZY=    -4.0119
   XZ=    -0.0032   YZ=    -6.0123   ZZ=    27.7548
   Eigenvalues:     3.7795     6.6382    29.2131
     73  Bq   Isotropic =    23.7650   Anisotropy =    22.4876
   XX=    19.3318   YX=    -8.0596   ZX=    -5.3228
   XY=    -2.1052   YY=    16.9231   ZY=    -8.5768
   XZ=   -11.5222   YZ=     1.8674   ZZ=    35.0402
   Eigenvalues:    10.2477    22.2906    38.7567
     74  Bq   Isotropic =    11.4227   Anisotropy =    24.1865
   XX=     4.9942   YX=     1.1032   ZX=    -5.9144
   XY=     0.3576   YY=     3.2125   ZY=    -3.6245
   XZ=     0.8768   YZ=    -7.0348   ZZ=    26.0613
   Eigenvalues:     2.0201     4.7009    27.5470
     75  Bq   Isotropic =    24.2361   Anisotropy =    22.9291
   XX=    18.8274   YX=    -8.9095   ZX=    -5.6526
   XY=    -3.0533   YY=    18.3018   ZY=    -8.1273
   XZ=   -12.2288   YZ=     0.4537   ZZ=    35.5790
   Eigenvalues:     9.3991    23.7869    39.5221
     76  Bq   Isotropic =     9.8687   Anisotropy =    24.0535
   XX=     3.3315   YX=     1.3451   ZX=    -5.8291
   XY=     0.2334   YY=     1.9071   ZY=    -3.3921
   XZ=     1.4231   YZ=    -7.7111   ZZ=    24.3677
   Eigenvalues:     0.5816     3.1202    25.9044
     77  Bq   Isotropic =    24.3646   Anisotropy =    23.2546
   XX=    17.4949   YX=    -8.7019   ZX=    -6.3504
   XY=    -3.8196   YY=    19.6187   ZY=    -6.7853
   XZ=   -11.7193   YZ=    -2.4757   ZZ=    35.9802
   Eigenvalues:     8.5926    24.6334    39.8677
     78  Bq   Isotropic =    19.3966   Anisotropy =    22.2670
   XX=    14.7583   YX=    -2.8478   ZX=    -5.5874
   XY=     0.0770   YY=    11.1562   ZY=    -6.3705
   XZ=    -5.1592   YZ=    -1.0648   ZZ=    32.2753
   Eigenvalues:     9.3324    14.6161    34.2413
     79  Bq   Isotropic =    15.8150   Anisotropy =    22.5208
   XX=    10.7162   YX=    -1.1969   ZX=    -5.1186
   XY=     0.5297   YY=     7.2012   ZY=    -4.1259
   XZ=    -3.5493   YZ=    -1.9091   ZZ=    29.5277
   Eigenvalues:     6.5604    10.0557    30.8289
     80  Bq   Isotropic =    18.9678   Anisotropy =    20.5954
   XX=    14.5372   YX=    -3.7474   ZX=    -3.9668
   XY=     0.1817   YY=    11.4488   ZY=    -5.2218
   XZ=    -7.1796   YZ=     1.6944   ZZ=    30.9175
   Eigenvalues:     9.7700    14.4354    32.6981
     81  Bq   Isotropic =    14.0781   Anisotropy =    23.3122
   XX=     8.5529   YX=    -0.2403   ZX=    -5.5044
   XY=     0.5408   YY=     5.2882   ZY=    -3.6611
   XZ=    -2.0278   YZ=    -3.6223   ZZ=    28.3931
   Eigenvalues:     4.6733     7.9414    29.6195
     82  Bq   Isotropic =    20.0694   Anisotropy =    19.7097
   XX=    15.5853   YX=    -5.0281   ZX=    -3.3796
   XY=    -0.1556   YY=    13.5449   ZY=    -5.5919
   XZ=    -8.8500   YZ=     2.9344   ZZ=    31.0781
   Eigenvalues:    10.6157    16.3834    33.2093
     83  Bq   Isotropic =    12.4067   Anisotropy =    23.8253
   XX=     6.5282   YX=     0.4416   ZX=    -5.7336
   XY=     0.4767   YY=     3.6296   ZY=    -3.3231
   XZ=    -0.8255   YZ=    -5.0434   ZZ=    27.0625
   Eigenvalues:     2.9016     6.0284    28.2903
     84  Bq   Isotropic =    20.6981   Anisotropy =    18.8984
   XX=    15.7141   YX=    -5.9442   ZX=    -3.0132
   XY=    -0.5436   YY=    15.4877   ZY=    -5.5882
   XZ=    -9.9912   YZ=     3.2270   ZZ=    30.8924
   Eigenvalues:    10.7788    18.0184    33.2970
     85  Bq   Isotropic =    10.8765   Anisotropy =    24.0093
   XX=     4.7627   YX=     0.8721   ZX=    -5.8224
   XY=     0.3693   YY=     2.2561   ZY=    -3.1094
   XZ=     0.0578   YZ=    -6.1222   ZZ=    25.6108
   Eigenvalues:     1.3753     4.3716    26.8828
     86  Bq   Isotropic =    20.8680   Anisotropy =    18.0991
   XX=    14.9056   YX=    -6.1690   ZX=    -3.0867
   XY=    -0.8929   YY=    17.2499   ZY=    -5.0412
   XZ=   -10.2995   YZ=     2.2104   ZZ=    30.4486
   Eigenvalues:    10.3307    19.3394    32.9341
     87  Bq   Isotropic =     9.5225   Anisotropy =    23.8714
   XX=     3.3033   YX=     1.0997   ZX=    -5.7987
   XY=     0.2461   YY=     1.1611   ZY=    -2.9963
   XZ=     0.6605   YZ=    -6.8707   ZZ=    24.1031
   Eigenvalues:     0.1383     2.9924    25.4368
     88  Bq   Isotropic =    20.7405   Anisotropy =    17.4064
   XX=    13.4589   YX=    -5.4686   ZX=    -3.7605
   XY=    -1.0989   YY=    18.8622   ZY=    -3.9061
   XZ=    -9.6597   YZ=    -0.1903   ZZ=    29.9005
   Eigenvalues:     9.5312    20.3456    32.3448
     89  Bq   Isotropic =    17.4969   Anisotropy =    21.5661
   XX=    12.8079   YX=    -2.4014   ZX=    -4.5869
   XY=     0.4148   YY=     9.2926   ZY=    -4.6789
   XZ=    -5.3218   YZ=    -0.0484   ZZ=    30.3902
   Eigenvalues:     8.3453    12.2710    31.8743
     90  Bq   Isotropic =    14.3204   Anisotropy =    21.7921
   XX=     9.4666   YX=    -0.9077   ZX=    -4.6520
   XY=     0.6714   YY=     5.7826   ZY=    -3.1179
   XZ=    -3.8345   YZ=    -1.3084   ZZ=    27.7121
   Eigenvalues:     5.4707     8.6420    28.8485
     91  Bq   Isotropic =    16.6875   Anisotropy =    19.0205
   XX=    12.3262   YX=    -2.6533   ZX=    -2.9811
   XY=     0.7340   YY=     9.7591   ZY=    -3.5552
   XZ=    -6.7175   YZ=     2.0958   ZZ=    27.9773
   Eigenvalues:     9.0754    11.6192    29.3679
     92  Bq   Isotropic =    12.9403   Anisotropy =    22.7629
   XX=     7.7204   YX=    -0.1887   ZX=    -5.2147
   XY=     0.5895   YY=     4.0843   ZY=    -2.9133
   XZ=    -2.5226   YZ=    -2.9375   ZZ=    27.0163
   Eigenvalues:     3.6934     7.0120    28.1156
     93  Bq   Isotropic =    17.4171   Anisotropy =    17.4001
   XX=    12.9331   YX=    -3.3850   ZX=    -2.0809
   XY=     0.7389   YY=    11.8586   ZY=    -3.6094
   XZ=    -7.9160   YZ=     3.3195   ZZ=    27.4597
   Eigenvalues:    10.2893    12.9448    29.0172
     94  Bq   Isotropic =    11.5771   Anisotropy =    23.3728
   XX=     6.0367   YX=     0.3451   ZX=    -5.5669
   XY=     0.4809   YY=     2.6470   ZY=    -2.7739
   XZ=    -1.4286   YZ=    -4.3116   ZZ=    26.0476
   Eigenvalues:     2.1192     5.4531    27.1590
     95  Bq   Isotropic =    17.7260   Anisotropy =    15.7195
   XX=    12.7356   YX=    -3.7217   ZX=    -1.4088
   XY=     0.7692   YY=    13.8944   ZY=    -3.3921
   XZ=    -8.6255   YZ=     3.7493   ZZ=    26.5481
   Eigenvalues:    10.5568    14.4156    28.2057
     96  Bq   Isotropic =    10.2997   Anisotropy =    23.6141
   XX=     4.5332   YX=     0.6943   ZX=    -5.7342
   XY=     0.3594   YY=     1.4775   ZY=    -2.7033
   XZ=    -0.5766   YZ=    -5.3808   ZZ=    24.8884
   Eigenvalues:     0.7993     4.0574    26.0424
     97  Bq   Isotropic =    17.6449   Anisotropy =    14.0455
   XX=    11.7659   YX=    -3.4280   ZX=    -1.2259
   XY=     0.8652   YY=    15.7834   ZY=    -2.8039
   XZ=    -8.6373   YZ=     3.0850   ZZ=    25.3853
   Eigenvalues:     9.9309    15.9951    27.0086
     98  Bq   Isotropic =     9.1442   Anisotropy =    23.5180
   XX=     3.2639   YX=     0.8859   ZX=    -5.7559
   XY=     0.2397   YY=     0.5566   ZY=    -2.6887
   XZ=     0.0461   YZ=    -6.1500   ZZ=    23.6121
   Eigenvalues:    -0.2619     2.8716    24.8229
     99  Bq   Isotropic =    17.3382   Anisotropy =    12.5668
   XX=    10.3316   YX=    -2.3690   ZX=    -1.7293
   XY=     1.0531   YY=    17.4708   ZY=    -1.8294
   XZ=    -7.8880   YZ=     1.2468   ZZ=    24.2121
   Eigenvalues:     8.7698    17.5288    25.7161
    100  Bq   Isotropic =    15.6129   Anisotropy =    20.5150
   XX=    11.0849   YX=    -1.7661   ZX=    -3.8860
   XY=     0.7183   YY=     7.6999   ZY=    -3.3553
   XZ=    -5.2835   YZ=     0.4456   ZZ=    28.0538
   Eigenvalues:     7.3361    10.2130    29.2895
    101  Bq   Isotropic =    12.9490   Anisotropy =    20.8368
   XX=     8.5014   YX=    -0.5703   ZX=    -4.3676
   XY=     0.7556   YY=     4.6008   ZY=    -2.4635
   XZ=    -3.9633   YZ=    -1.1387   ZZ=    25.7448
   Eigenvalues:     4.4280     7.5788    26.8402
    102  Bq   Isotropic =    14.6670   Anisotropy =    17.3495
   XX=    10.7456   YX=    -1.5837   ZX=    -2.3963
   XY=     1.1254   YY=     8.2322   ZY=    -2.4744
   XZ=    -6.2513   YZ=     1.8878   ZZ=    25.0233
   Eigenvalues:     8.1642     9.6035    26.2333
    103  Bq   Isotropic =    11.8783   Anisotropy =    22.0009
   XX=     7.0617   YX=    -0.0865   ZX=    -5.0302
   XY=     0.6012   YY=     3.1038   ZY=    -2.4348
   XZ=    -2.8382   YZ=    -2.6006   ZZ=    25.4695
   Eigenvalues:     2.8149     6.2745    26.5456
    104  Bq   Isotropic =    15.1140   Anisotropy =    15.1855
   XX=    11.1411   YX=    -1.8554   ZX=    -1.2971
   XY=     1.3693   YY=    10.2240   ZY=    -2.3379
   XZ=    -7.0974   YZ=     3.0068   ZZ=    23.9769
   Eigenvalues:     9.8400    10.2644    25.2377
    105  Bq   Isotropic =    10.7882   Anisotropy =    22.7392
   XX=     5.6430   YX=     0.2919   ZX=    -5.4524
   XY=     0.4591   YY=     1.8593   ZY=    -2.4310
   XZ=    -1.8553   YZ=    -3.8532   ZZ=    24.8623
   Eigenvalues:     1.4343     4.9827    25.9476
    106  Bq   Isotropic =    15.2063   Anisotropy =    12.9014
   XX=    10.8648   YX=    -1.7406   ZX=    -0.3980
   XY=     1.6737   YY=    12.1977   ZY=    -2.0050
   XZ=    -7.4905   YZ=     3.4921   ZZ=    22.5563
   Eigenvalues:     9.6450    12.1666    23.8072
    107  Bq   Isotropic =     9.7391   Anisotropy =    23.0719
   XX=     4.3517   YX=     0.5493   ZX=    -5.6651
   XY=     0.3305   YY=     0.8604   ZY=    -2.4574
   XZ=    -1.0524   YZ=    -4.8490   ZZ=    24.0052
   Eigenvalues:     0.2958     3.8011    25.1204
    108  Bq   Isotropic =    14.9892   Anisotropy =    10.6581
   XX=     9.9713   YX=    -1.0866   ZX=     0.0349
   XY=     2.0395   YY=    14.0459   ZY=    -1.4180
   XZ=    -7.2798   YZ=     3.1128   ZZ=    20.9502
   Eigenvalues:     8.7900    14.0829    22.0945
    109  Bq   Isotropic =     8.7660   Anisotropy =    23.0481
   XX=     3.2416   YX=     0.6951   ZX=    -5.7132
   XY=     0.2188   YY=     0.0812   ZY=    -2.5075
   XZ=    -0.4339   YZ=    -5.5860   ZZ=    22.9752
   Eigenvalues:    -0.6144     2.7810    24.1314
    110  Bq   Isotropic =    14.6239   Anisotropy =     8.6776
   XX=     8.7422   YX=     0.1603   ZX=    -0.2082
   XY=     2.4416   YY=    15.6772   ZY=    -0.5778
   XZ=    -6.4294   YZ=     1.8014   ZZ=    19.4521
   Eigenvalues:     7.5494    15.9132    20.4090
    111  Bq   Isotropic =    13.9132   Anisotropy =    19.2658
   XX=     9.7981   YX=    -1.1042   ZX=    -3.4682
   XY=     0.9266   YY=     6.3288   ZY=    -2.4927
   XZ=    -5.1464   YZ=     0.4202   ZZ=    25.6128
   Eigenvalues:     6.2343     8.7483    26.7571
    112  Bq   Isotropic =    11.7804   Anisotropy =    19.8217
   XX=     7.8734   YX=    -0.2833   ZX=    -4.2510
   XY=     0.7542   YY=     3.6219   ZY=    -2.1662
   XZ=    -4.0012   YZ=    -1.3559   ZZ=    23.8459
   Eigenvalues:     3.4656     6.8807    24.9949
    113  Bq   Isotropic =    13.0262   Anisotropy =    15.7711
   XX=     9.8484   YX=    -0.7262   ZX=    -2.1523
   XY=     1.2929   YY=     6.8711   ZY=    -1.9321
   XZ=    -5.8469   YZ=     1.1714   ZZ=    22.3591
   Eigenvalues:     6.8444     8.6939    23.5403
    114  Bq   Isotropic =    10.9541   Anisotropy =    21.1614
   XX=     6.6210   YX=     0.0013   ZX=    -4.9496
   XY=     0.5613   YY=     2.3120   ZY=    -2.2388
   XZ=    -3.0289   YZ=    -2.5899   ZZ=    23.9294
   Eigenvalues:     2.0391     5.7615    25.0617
    115  Bq   Isotropic =    13.2994   Anisotropy =    13.2117
   XX=    10.2479   YX=    -0.6767   ZX=    -0.9442
   XY=     1.6582   YY=     8.6948   ZY=    -1.6928
   XZ=    -6.4462   YZ=     2.1239   ZZ=    20.9555
   Eigenvalues:     8.3262     9.4648    22.1072
    116  Bq   Isotropic =    10.0870   Anisotropy =    22.0293
   XX=     5.3809   YX=     0.2422   ZX=    -5.3956
   XY=     0.4061   YY=     1.2354   ZY=    -2.3104
   XZ=    -2.1462   YZ=    -3.6631   ZZ=    23.6447
   Eigenvalues:     0.8370     4.6509    24.7732
    117  Bq   Isotropic =    13.2922   Anisotropy =    10.4982
   XX=    10.1132   YX=    -0.2850   ZX=     0.1126
   XY=     2.0864   YY=    10.5263   ZY=    -1.3095
   XZ=    -6.6223   YZ=     2.5966   ZZ=    19.2371
   Eigenvalues:     8.5158    11.0698    20.2910
    118  Bq   Isotropic =     9.2293   Anisotropy =    22.4630
   XX=     4.2422   YX=     0.4147   ZX=    -5.6228
   XY=     0.2822   YY=     0.3786   ZY=    -2.3865
   XZ=    -1.3975   YZ=    -4.5320   ZZ=    23.0671
   Eigenvalues:    -0.1448     3.6281    24.2046
    119  Bq   Isotropic =    13.0577   Anisotropy =     7.8663
   XX=     9.4936   YX=     0.5337   ZX=     0.7662
   XY=     2.5519   YY=    12.2554   ZY=    -0.7523
   XZ=    -6.2578   YZ=     2.4248   ZZ=    17.4240
   Eigenvalues:     7.9459    12.9253    18.3018
    120  Bq   Isotropic =     8.4126   Anisotropy =    22.5227
   XX=     3.2520   YX=     0.5161   ZX=    -5.6784
   XY=     0.1861   YY=    -0.2862   ZY=    -2.4651
   XZ=    -0.7970   YZ=    -5.1899   ZZ=    22.2719
   Eigenvalues:    -0.9266     2.7367    23.4277
    121  Bq   Isotropic =    12.7427   Anisotropy =     5.6133
   XX=     8.6141   YX=     1.7754   ZX=     0.8075
   XY=     3.0026   YY=    13.7816   ZY=    -0.0340
   XZ=    -5.3292   YZ=     1.5594   ZZ=    15.8325
   Eigenvalues:     7.0332    14.7101    16.4849
    122  Bq   Isotropic =    12.4972   Anisotropy =    18.0092
   XX=     9.0041   YX=    -0.5558   ZX=    -3.2994
   XY=     0.9943   YY=     5.1554   ZY=    -2.0749
   XZ=    -4.9812   YZ=    -0.0530   ZZ=    23.3322
   Eigenvalues:     5.0931     7.8952    24.5034
    123  Bq   Isotropic =    10.8495   Anisotropy =    18.9103
   XX=     7.5534   YX=    -0.1159   ZX=    -4.2714
   XY=     0.6528   YY=     2.8251   ZY=    -2.1742
   XZ=    -3.9904   YZ=    -1.8819   ZZ=    22.1700
   Eigenvalues:     2.6086     6.4836    23.4564
    124  Bq   Isotropic =    11.7957   Anisotropy =    14.5119
   XX=     9.5198   YX=    -0.1972   ZX=    -2.1734
   XY=     1.2153   YY=     5.7073   ZY=    -1.8185
   XZ=    -5.5334   YZ=     0.0792   ZZ=    20.1598
   Eigenvalues:     5.6283     8.2885    21.4703
[...]
   132  Bq   0.000000
   133  Bq   0.000000
   134  Bq   0.000000
   135  Bq   0.000000
   136  Bq   0.000000
   137  Bq   0.000000
   138  Bq   0.000000
   139  Bq   0.000000
   140  Bq   0.000000
   141  Bq   0.000000
   142  Bq   0.000000
   143  Bq   0.000000
   144  Bq   0.000000
   145  Bq   0.000000
   146  Bq   0.000000
   147  Bq   0.000000
   148  Bq   0.000000
   149  Bq   0.000000
   150  Bq   0.000000
   151  Bq   0.000000
   152  Bq   0.000000
   153  Bq   0.000000
   154  Bq   0.000000
   155  Bq   0.000000
   156  Bq   0.000000
   157  Bq   0.000000
   158  Bq   0.000000
   159  Bq   0.000000
   160  Bq   0.000000
   161  Bq   0.000000
   162  Bq   0.000000
   163  Bq   0.000000
   164  Bq   0.000000
   165  Bq   0.000000
   166  Bq   0.000000
   167  Bq   0.000000
   168  Bq   0.000000
   169  Bq   0.000000
   170  Bq   0.000000
   171  Bq   0.000000
   172  Bq   0.000000
   173  Bq   0.000000
   174  Bq   0.000000
   175  Bq   0.000000
   176  Bq   0.000000
   177  Bq   0.000000
   178  Bq   0.000000
   179  Bq   0.000000
   180  Bq   0.000000
   181  Bq   0.000000
   182  Bq   0.000000
   183  Bq   0.000000
   184  Bq   0.000000
   185  Bq   0.000000
   186  Bq   0.000000
   187  Bq   0.000000
   188  Bq   0.000000
   189  Bq   0.000000
   190  Bq   0.000000
   191  Bq   0.000000
   192  Bq   0.000000
   193  Bq   0.000000
   194  Bq   0.000000
   195  Bq   0.000000
   196  Bq   0.000000
   197  Bq   0.000000
   198  Bq   0.000000
   199  Bq   0.000000
   200  Bq   0.000000
   201  Bq   0.000000
   202  Bq   0.000000
   203  Bq   0.000000
   204  Bq   0.000000
   205  Bq   0.000000
   206  Bq   0.000000
   207  Bq   0.000000
   208  Bq   0.000000
   209  Bq   0.000000
   210  Bq   0.000000
   211  Bq   0.000000
   212  Bq   0.000000
   213  Bq   0.000000
   214  Bq   0.000000
   215  Bq   0.000000
   216  Bq   0.000000
   217  Bq   0.000000
   218  Bq   0.000000
   219  Bq   0.000000
   220  Bq   0.000000
   221  Bq   0.000000
   222  Bq   0.000000
   223  Bq   0.000000
   224  Bq   0.000000
   225  Bq   0.000000
   226  Bq   0.000000
   227  Bq   0.000000
   228  Bq   0.000000
   229  Bq   0.000000
   230  Bq   0.000000
   231  Bq   0.000000
   232  Bq   0.000000
   233  Bq   0.000000
   234  Bq   0.000000
   235  Bq   0.000000
   236  Bq   0.000000
 Sum of Mulliken charges =   0.00000
 Mulliken charges with hydrogens summed into heavy atoms:
               1
     1  C   -0.255498
     3  C    0.169409
     5  C    0.448258
     6  C    0.064351
     7  C   -0.333926
     9  C   -0.139521
    11  C   -0.205988
    13  C   -0.119315
    15  C    0.653397
    16  C    0.034822
    17  C   -0.317410
    19  C   -0.316854
    21  C    0.651066
    22  C    0.037784
    23  C   -0.117289
    25  C   -0.205316
    27  C    0.448331
    28  C    0.061983
    29  C   -0.333381
    31  C   -0.139505
    33  C   -0.255977
    35  C    0.170579
    37  Bq   0.000000
    38  Bq   0.000000
    39  Bq   0.000000
    40  Bq   0.000000
    41  Bq   0.000000
    42  Bq   0.000000
    43  Bq   0.000000
    44  Bq   0.000000
    45  Bq   0.000000
    46  Bq   0.000000
    47  Bq   0.000000
    48  Bq   0.000000
    49  Bq   0.000000
    50  Bq   0.000000
    51  Bq   0.000000
    52  Bq   0.000000
    53  Bq   0.000000
    54  Bq   0.000000
    55  Bq   0.000000
    56  Bq   0.000000
    57  Bq   0.000000
    58  Bq   0.000000
    59  Bq   0.000000
    60  Bq   0.000000
    61  Bq   0.000000
    62  Bq   0.000000
    63  Bq   0.000000
    64  Bq   0.000000
    65  Bq   0.000000
    66  Bq   0.000000
    67  Bq   0.000000
    68  Bq   0.000000
    69  Bq   0.000000
    70  Bq   0.000000
    71  Bq   0.000000
    72  Bq   0.000000
    73  Bq   0.000000
    74  Bq   0.000000
    75  Bq   0.000000
    76  Bq   0.000000
    77  Bq   0.000000
    78  Bq   0.000000
    79  Bq   0.000000
    80  Bq   0.000000
    81  Bq   0.000000
    82  Bq   0.000000
    83  Bq   0.000000
    84  Bq   0.000000
    85  Bq   0.000000
    86  Bq   0.000000
    87  Bq   0.000000
    88  Bq   0.000000
    89  Bq   0.000000
    90  Bq   0.000000
    91  Bq   0.000000
    92  Bq   0.000000
    93  Bq   0.000000
    94  Bq   0.000000
    95  Bq   0.000000
    96  Bq   0.000000
    97  Bq   0.000000
    98  Bq   0.000000
    99  Bq   0.000000
   100  Bq   0.000000
   101  Bq   0.000000
   102  Bq   0.000000
   103  Bq   0.000000
   104  Bq   0.000000
   105  Bq   0.000000
   106  Bq   0.000000
   107  Bq   0.000000
   108  Bq   0.000000
   109  Bq   0.000000
   110  Bq   0.000000
   111  Bq   0.000000
   112  Bq   0.000000
   113  Bq   0.000000
   114  Bq   0.000000
   115  Bq   0.000000
   116  Bq   0.000000
   117  Bq   0.000000
   118  Bq   0.000000
   119  Bq   0.000000
   120  Bq   0.000000
   121  Bq   0.000000
   122  Bq   0.000000
   123  Bq   0.000000
   124  Bq   0.000000
   125  Bq   0.000000
   126  Bq   0.000000
   127  Bq   0.000000
   128  Bq   0.000000
   129  Bq   0.000000
   130  Bq   0.000000
   131  Bq   0.000000
   132  Bq   0.000000
   133  Bq   0.000000
   134  Bq   0.000000
   135  Bq   0.000000
   136  Bq   0.000000
   137  Bq   0.000000
   138  Bq   0.000000
   139  Bq   0.000000
   140  Bq   0.000000
   141  Bq   0.000000
   142  Bq   0.000000
   143  Bq   0.000000
   144  Bq   0.000000
   145  Bq   0.000000
   146  Bq   0.000000
   147  Bq   0.000000
   148  Bq   0.000000
   149  Bq   0.000000
   150  Bq   0.000000
   151  Bq   0.000000
   152  Bq   0.000000
   153  Bq   0.000000
   154  Bq   0.000000
   155  Bq   0.000000
   156  Bq   0.000000
   157  Bq   0.000000
   158  Bq   0.000000
   159  Bq   0.000000
   160  Bq   0.000000
   161  Bq   0.000000
   162  Bq   0.000000
   163  Bq   0.000000
   164  Bq   0.000000
   165  Bq   0.000000
   166  Bq   0.000000
   167  Bq   0.000000
   168  Bq   0.000000
   169  Bq   0.000000
   170  Bq   0.000000
   171  Bq   0.000000
   172  Bq   0.000000
   173  Bq   0.000000
   174  Bq   0.000000
   175  Bq   0.000000
   176  Bq   0.000000
   177  Bq   0.000000
   178  Bq   0.000000
   179  Bq   0.000000
   180  Bq   0.000000
   181  Bq   0.000000
   182  Bq   0.000000
   183  Bq   0.000000
   184  Bq   0.000000
   185  Bq   0.000000
   186  Bq   0.000000
   187  Bq   0.000000
   188  Bq   0.000000
   189  Bq   0.000000
   190  Bq   0.000000
   191  Bq   0.000000
   192  Bq   0.000000
   193  Bq   0.000000
   194  Bq   0.000000
   195  Bq   0.000000
   196  Bq   0.000000
   197  Bq   0.000000
   198  Bq   0.000000
   199  Bq   0.000000
   200  Bq   0.000000
   201  Bq   0.000000
   202  Bq   0.000000
   203  Bq   0.000000
   204  Bq   0.000000
   205  Bq   0.000000
   206  Bq   0.000000
   207  Bq   0.000000
   208  Bq   0.000000
   209  Bq   0.000000
   210  Bq   0.000000
   211  Bq   0.000000
   212  Bq   0.000000
   213  Bq   0.000000
   214  Bq   0.000000
   215  Bq   0.000000
   216  Bq   0.000000
   217  Bq   0.000000
   218  Bq   0.000000
   219  Bq   0.000000
   220  Bq   0.000000
   221  Bq   0.000000
   222  Bq   0.000000
   223  Bq   0.000000
   224  Bq   0.000000
   225  Bq   0.000000
   226  Bq   0.000000
   227  Bq   0.000000
   228  Bq   0.000000
   229  Bq   0.000000
   230  Bq   0.000000
   231  Bq   0.000000
   232  Bq   0.000000
   233  Bq   0.000000
   234  Bq   0.000000
   235  Bq   0.000000
   236  Bq   0.000000
 Electronic spatial extent (au):  <R**2>=           5736.9264
 Charge=              0.0000 electrons
 Dipole moment (field-independent basis, Debye):
    X=              0.0475    Y=              0.0856    Z=              0.0029  Tot=              0.0979
 Quadrupole moment (field-independent basis, Debye-Ang):
   XX=           -113.7056   YY=           -113.9456   ZZ=           -133.2669
   XY=             -0.3834   XZ=              3.2102   YZ=             -1.1839
 Traceless Quadrupole moment (field-independent basis, Debye-Ang):
   XX=              6.6005   YY=              6.3604   ZZ=            -12.9609
   XY=             -0.3834   XZ=              3.2102   YZ=             -1.1839
 Octapole moment (field-independent basis, Debye-Ang**2):
  XXX=            -16.4668  YYY=            -16.1860  ZZZ=             -1.7007  XYY=              2.5576
  XXY=             -6.5650  XXZ=             13.6547  XZZ=             -8.9478  YZZ=            -17.7168
  YYZ=            -13.2941  XYZ=              8.8036
 Hexadecapole moment (field-independent basis, Debye-Ang**3):
 XXXX=          -3951.1638 YYYY=          -3112.2161 ZZZZ=           -504.8311 XXXY=            340.6935
 XXXZ=            156.4968 YYYX=            335.5625 YYYZ=            -87.0893 ZZZX=            120.2262
 ZZZY=           -108.7373 XXYY=          -1176.4844 XXZZ=           -856.7291 YYZZ=           -665.7275
 XXYZ=            -68.9016 YYXZ=             48.1602 ZZXY=            153.0375
 N-N= 1.610917615562D+03 E-N=-5.186891130729D+03  KE= 8.436329774449D+02
 1\1\GINC-URBICANDE\SP\RB3LYP\6-311+G(d,p)\C22H14\YANNICK\21-Aug-2020\0
 \\# rb3lyp/6-311+g** NMR geom=connectivity\\Title\\0,1\C,0,-4.0500558,
 -0.5771862,0.8136712\H,0,-5.0263804,-1.0082727,1.002476\C,0,-3.9381552
 ,0.6617804,0.2400876\H,0,-4.8252424,1.233889,-0.0111295\C,0,-2.676841,
 1.2433246,0.0057578\C,0,-1.4974121,0.5051527,0.2848253\C,0,-1.6508332,
 -0.7338728,0.9404026\H,0,-0.7713646,-1.2730967,1.2633753\C,0,-2.889854
 8,-1.2624035,1.1994307\H,0,-2.9683706,-2.2124563,1.7152676\C,0,-2.5773
 185,2.5963696,-0.419293\H,0,-3.4870728,3.1412239,-0.6474055\C,0,-1.374
 1895,3.2147896,-0.436403\H,0,-1.2997315,4.2742019,-0.6578144\C,0,-0.17
 19488,2.499409,-0.1734588\C,0,-0.2043917,1.1018437,0.0192689\C,0,1.051
 3491,3.204256,-0.0676222\H,0,1.0427344,4.2819499,-0.1896997\C,0,2.1942
 091,2.5487446,0.2579577\H,0,3.1168527,3.0912848,0.4334727\C,0,2.221647
 3,1.1336562,0.293499\C,0,1.0486931,0.3945528,0.0302412\C,0,3.4483363,0
 .4614633,0.5573939\H,0,4.3095794,1.0606054,0.8334846\C,0,3.5427346,-0.
 8855926,0.4749463\H,0,4.4731467,-1.3939704,0.7038822\C,0,2.4490052,-1.
 6474447,-0.0196319\C,0,1.2150704,-1.0057258,-0.3013573\C,0,0.2531113,-
 1.743444,-1.0216591\H,0,-0.6541356,-1.2535051,-1.3462847\C,0,0.4494193
 ,-3.0628597,-1.3413779\H,0,-0.3083162,-3.5944309,-1.905406\C,0,1.62517
 26,-3.7207967,-0.9552541\H,0,1.7670048,-4.7687404,-1.1927019\C,0,2.610
 9872,-3.0144177,-0.318305\H,0,3.5525612,-3.4902813,-0.0646367\Bq,0,2.4
 904727527,-1.4917681812,0.8829754801\Bq,0,2.6499198079,-1.3853055768,0
 .5319165812\Bq,0,2.450610989,-1.5183838324,0.9707402048\Bq,0,2.6897815
 717,-1.3586899257,0.4441518565\Bq,0,2.4107492252,-1.5449994835,1.05850
 49295\Bq,0,2.7296433355,-1.3320742746,0.3563871318\Bq,0,2.3708874614,-
 1.5716151346,1.1462696542\Bq,0,2.7695050993,-1.3054586235,0.2686224071
 \Bq,0,2.5701962803,-1.438536879,0.7074460307\Bq,0,2.5193280432,-1.3687
 595474,0.8194440058\Bq,0,2.5990515707,-1.3155282452,0.6439145564\Bq,0,
 2.4794662794,-1.3953751985,0.9072087305\Bq,0,2.6389133345,-1.288912594
 1,0.5561498317\Bq,0,2.4396045156,-1.4219908496,0.9949734553\Bq,0,2.678
 7750983,-1.262296943,0.468385107\Bq,0,2.3997427518,-1.4486065008,1.082
 73818\Bq,0,2.7186368621,-1.2356812919,0.3806203823\Bq,0,2.359880988,-1
 .4752221519,1.1705029047\Bq,0,2.7584986259,-1.2090656408,0.2928556575\
 Bq,0,2.5591898069,-1.3421438963,0.7316792811\Bq,0,2.5083215698,-1.2723
 665647,0.8436772563\Bq,0,2.5880450974,-1.2191352625,0.6681478069\Bq,0,
 2.468459806,-1.2989822158,0.931441981\Bq,0,2.6279068611,-1.1925196114,
 0.5803830821\Bq,0,2.4285980422,-1.3255978669,1.0192067057\Bq,0,2.66776
 86249,-1.1659039603,0.4926183574\Bq,0,2.3887362784,-1.352213518,1.1069
 714304\Bq,0,2.7076303887,-1.1392883092,0.4048536327\Bq,0,2.3488745146,
 -1.3788291691,1.1947361551\Bq,0,2.7474921525,-1.1126726581,0.317088908
 \Bq,0,2.5481833336,-1.2457509136,0.7559125316\Bq,0,2.4973150964,-1.175
 973582,0.8679105067\Bq,0,2.577038624,-1.1227422798,0.6923810573\Bq,0,2
 .4574533326,-1.2025892331,0.9556752315\Bq,0,2.6169003878,-1.0961266287
 ,0.6046163326\Bq,0,2.4175915688,-1.2292048842,1.0434399562\Bq,0,2.6567
 621516,-1.0695109776,0.5168516079\Bq,0,2.3777298051,-1.2558205353,1.13
 12046809\Bq,0,2.6966239154,-1.0428953265,0.4290868832\Bq,0,2.337868041
 3,-1.2824361864,1.2189694056\Bq,0,2.7364856791,-1.0162796754,0.3413221
 585\Bq,0,2.5371768602,-1.1493579309,0.780145782\Bq,0,2.486308623,-1.07
 95805993,0.8921437572\Bq,0,2.5660321506,-1.0263492971,0.7166143078\Bq,
 0,2.4464468593,-1.1061962504,0.9799084819\Bq,0,2.6058939144,-0.9997336
 46,0.6288495831\Bq,0,2.4065850955,-1.1328119015,1.0676732066\Bq,0,2.64
 57556782,-0.9731179949,0.5410848583\Bq,0,2.3667233317,-1.1594275526,1.
 1554379313\Bq,0,2.685617442,-0.9465023438,0.4533201336\Bq,0,2.32686156
 79,-1.1860432037,1.2432026561\Bq,0,2.7254792058,-0.9198866927,0.365555
 4089\Bq,0,2.5261703868,-1.0529649482,0.8043790325\Bq,0,2.4753021497,-0
 .9831876166,0.9163770077\Bq,0,2.5550256772,-0.9299563144,0.7408475582\
 Bq,0,2.4354403859,-1.0098032677,1.0041417324\Bq,0,2.594887441,-0.90334
 06633,0.6530828335\Bq,0,2.3955786221,-1.0364189188,1.0919064571\Bq,0,2
 .6347492048,-0.8767250122,0.5653181088\Bq,0,2.3557168583,-1.0630345699
 ,1.1796711818\Bq,0,2.6746109686,-0.850109361,0.4775533841\Bq,0,2.31585
 50945,-1.089650221,1.2674359065\Bq,0,2.7144727324,-0.8234937099,0.3897
 886594\Bq,0,2.5151639135,-0.9565719655,0.8286122829\Bq,0,2.4642956763,
 -0.8867946339,0.9406102581\Bq,0,2.5440192039,-0.8335633317,0.765080808
 7\Bq,0,2.4244339125,-0.913410285,1.0283749828\Bq,0,2.5838809677,-0.806
 9476805,0.677316084\Bq,0,2.3845721487,-0.9400259361,1.1161397075\Bq,0,
 2.6237427314,-0.7803320294,0.5895513593\Bq,0,2.3447103849,-0.966641587
 2,1.2039044323\Bq,0,2.6636044952,-0.7537163783,0.5017866346\Bq,0,2.304
 8486211,-0.9932572383,1.291669157\Bq,0,2.703466259,-0.7271007272,0.414
 0219098\Bq,0,2.5041574401,-0.8601789828,0.8528455334\Bq,0,2.4532892029
 ,-0.7904016512,0.9648435086\Bq,0,2.5330127305,-0.7371703489,0.78931405
 91\Bq,0,2.4134274391,-0.8170173023,1.0526082333\Bq,0,2.5728744943,-0.7
 105546978,0.7015493344\Bq,0,2.3735656754,-0.8436329534,1.140372958\Bq,
 0,2.6127362581,-0.6839390467,0.6137846097\Bq,0,2.3337039116,-0.8702486
 045,1.2281376827\Bq,0,2.6525980219,-0.6573233956,0.526019885\Bq,0,2.29
 38421478,-0.8968642556,1.3159024074\Bq,0,2.6924597857,-0.6307077445,0.
 4382551603\Bq,0,2.4931509667,-0.763786,0.8770787839\Bq,0,2.4422827296,
 -0.6940086684,0.989076759\Bq,0,2.5220062571,-0.6407773662,0.8135473096
 \Bq,0,2.4024209658,-0.7206243196,1.0768414837\Bq,0,2.5618680209,-0.614
 1617151,0.7257825849\Bq,0,2.362559202,-0.7472399707,1.1646062085\Bq,0,
 2.6017297847,-0.587546064,0.6380178602\Bq,0,2.3226974382,-0.7738556218
 ,1.2523709332\Bq,0,2.6415915485,-0.5609304129,0.5502531355\Bq,0,2.2828
 356744,-0.8004712729,1.3401356579\Bq,0,2.6814533123,-0.5343147618,0.46
 24884108\Bq,0,2.4821444933,-0.6673930173,0.9013120343\Bq,0,2.431276256
 2,-0.5976156857,1.0133100095\Bq,0,2.5109997838,-0.5443843835,0.8377805
 601\Bq,0,2.3914144924,-0.6242313368,1.1010747342\Bq,0,2.5508615475,-0.
 5177687324,0.7500158354\Bq,0,2.3515527286,-0.6508469879,1.1888394589\B
 q,0,2.5907233113,-0.4911530813,0.6622511106\Bq,0,2.3116909648,-0.67746
 26391,1.2766041836\Bq,0,2.6305850751,-0.4645374302,0.5744863859\Bq,0,2
 .271829201,-0.7040782902,1.3643689083\Bq,0,2.6704468389,-0.4379217791,
 0.4867216612\Bq,0,2.47113802,-0.5710000346,0.9255452848\Bq,0,2.4202697
 828,-0.501222703,1.0375432599\Bq,0,2.4999933104,-0.4479914008,0.862013
 8105\Bq,0,2.380408019,-0.5278383541,1.1253079847\Bq,0,2.5398550742,-0.
 4213757497,0.7742490858\Bq,0,2.3405462552,-0.5544540052,1.2130727094\B
 q,0,2.579716838,-0.3947600986,0.6864843611\Bq,0,2.3006844914,-0.581069
 6563,1.3008374341\Bq,0,2.6195786017,-0.3681444475,0.5987196364\Bq,0,2.
 2608227277,-0.6076853074,1.3886021588\Bq,0,2.6594403655,-0.3415287964,
 0.5109549117\Bq,0,2.4601315466,-0.4746070519,0.9497785352\Bq,0,2.40926
 33094,-0.4048297203,1.0617765104\Bq,0,2.488986837,-0.3515984181,0.8862
 47061\Bq,0,2.3694015457,-0.4314453714,1.1495412351\Bq,0,2.5288486008,-
 0.324982767,0.7984823363\Bq,0,2.3295397819,-0.4580610225,1.2373059598\
 Bq,0,2.5687103646,-0.2983671159,0.7107176116\Bq,0,2.2896780181,-0.4846
 766736,1.3250706845\Bq,0,2.6085721284,-0.2717514648,0.6229528868\Bq,0,
 2.2498162543,-0.5112923247,1.4128354093\Bq,0,2.6484338922,-0.245135813
 7,0.5351881621\Bq,0,2.4491250732,-0.3782140692,0.9740117857\Bq,0,2.398
 2568361,-0.3084367376,1.0860097609\Bq,0,2.4779803636,-0.2552054354,0.9
 104803114\Bq,0,2.3583950723,-0.3350523887,1.1737744856\Bq,0,2.51784212
 74,-0.2285897843,0.8227155867\Bq,0,2.3185333085,-0.3616680398,1.261539
 2103\Bq,0,2.5577038912,-0.2019741332,0.734950862\Bq,0,2.2786715447,-0.
 3882836909,1.349303935\Bq,0,2.597565655,-0.1753584821,0.6471861373\Bq,
 0,2.2388097809,-0.414899342,1.4370686597\Bq,0,2.6374274188,-0.14874283
 1,0.5594214126\Bq,0,2.4381185999,-0.2818210865,0.9982450362\Bq,0,2.387
 2503627,-0.2120437549,1.1102430113\Bq,0,2.4669738903,-0.1588124527,0.9
 347135619\Bq,0,2.3473885989,-0.238659406,1.198007736\Bq,0,2.5068356541
 ,-0.1321968016,0.8469488372\Bq,0,2.3075268351,-0.2652750571,1.28577246
 07\Bq,0,2.5466974178,-0.1055811505,0.7591841125\Bq,0,2.2676650713,-0.2
 918907082,1.3735371855\Bq,0,2.5865591816,-0.0789654993,0.6714193878\Bq
 ,0,2.2278033075,-0.3185063593,1.4613019102\Bq,0,2.6264209454,-0.052349
 8482,0.583654663\Bq,0,2.4271121265,-0.1854281038,1.0224782866\Bq,0,2.3
 762438893,-0.1156507722,1.1344762618\Bq,0,2.4559674169,-0.06241947,0.9
 589468124\Bq,0,2.3363821255,-0.1422664233,1.2222409865\Bq,0,2.49582918
 07,-0.0358038189,0.8711820876\Bq,0,2.2965203617,-0.1688820744,1.310005
 7112\Bq,0,2.5356909445,-0.0091881677,0.7834173629\Bq,0,2.256658598,-0.
 1954977255,1.3977704359\Bq,0,2.5755527083,0.0174274834,0.6956526382\Bq
 ,0,2.2167968342,-0.2221133766,1.4855351606\Bq,0,2.615414472,0.04404313
 45,0.6078879135\Bq,0,2.4161056531,-0.0890351211,1.0467115371\Bq,0,3.01
 76164312,-4.9352999078,-0.0358328735\Bq,0,3.0973399588,-4.8820686056,-
 0.2113623229\Bq,0,2.9777546675,-4.9619155589,0.0519318512\Bq,0,3.13720
 17226,-4.8554529545,-0.2991270476\Bq,0,2.9378929037,-4.98853121,0.1396
 965759\Bq,0,3.1770634864,-4.8288373034,-0.3868917723\Bq,0,2.8980311399
 ,-5.0151468611,0.2274613006\Bq,0,3.2169252502,-4.8022216522,-0.4746564
 971\Bq,0,2.8581693761,-5.0417625122,0.3152260254\Bq,0,3.256787014,-4.7
 756060011,-0.5624212218\Bq,0,3.057478195,-4.9086842567,-0.1235975982\B
 q,0,3.0066099579,-4.8389069251,-0.011599623\Bq,0,3.0863334854,-4.78567
 56229,-0.1871290725\Bq,0,2.9667481941,-4.8655225762,0.0761651017\Bq,0,
 3.1261952492,-4.7590599717,-0.2748937972\Bq,0,2.9268864303,-4.89213822
 73,0.1639298264\Bq,0,3.166057013,-4.7324443206,-0.3626585219\Bq,0,2.88
 70246665,-4.9187538784,0.2516945511\Bq,0,3.2059187768,-4.7058286695,-0
 .4504232466\Bq,0,2.8471629027,-4.9453695295,0.3394592758\Bq,0,3.245780
 5406,-4.6792130184,-0.5381879713\Bq,0,3.0464717217,-4.812291274,-0.099
 3643477\Bq,0,2.9956034845,-4.7425139424,0.0126336274\Bq,0,3.0753270121
 ,-4.6892826401,-0.162895822\Bq,0,2.9557417207,-4.7691295935,0.10039835
 21\Bq,0,3.1151887759,-4.662666989,-0.2506605467\Bq,0,2.9158799569,-4.7
 957452446,0.1881630768\Bq,0,3.1550505396,-4.6360513379,-0.3384252714\B
 q,0,2.8760181931,-4.8223608957,0.2759278016\Bq,0,3.1949123034,-4.60943
 56868,-0.4261899961\Bq,0,2.8361564293,-4.8489765468,0.3636925263\Bq,0,
 3.2347740672,-4.5828200357,-0.5139547209\Bq,0,3.0354652483,-4.71589829
 12,-0.0751310973\Bq,0,2.9845970111,-4.6461209596,0.0368668779\Bq,0,3.0
 643205387,-4.5928896574,-0.1386625715\Bq,0,2.9447352473,-4.6727366108,
 0.1246316026\Bq,0,3.1041823025,-4.5662740063,-0.2264272963\\Version=ES
 64L-G09RevD.01\HF=-847.0032898\RMSD=7.579e-09\Dipole=0.0186808,0.03366
 71,0.0011595\Quadrupole=4.9072795,4.7288219,-9.6361014,-0.2850201,2.38
 67064,-0.880172\PG=C01 [X(C22H14)]\\@


 A MATHEMATICIAN IS A MACHINE FOR TURNING COFFEE INTO THEOREMS.
     -- QUOTED BY PAUL ERDOS
 Job cpu time:       0 days  2 hours 37 minutes 36.8 seconds.
 File lengths (MBytes):  RWF=    184 Int=      0 D2E=      0 Chk=     19 Scr=      1
 Normal termination of Gaussian 09 at Fri Aug 21 17:48:04 2020.
