 Entering Gaussian System, Link 0=g09
 Input=input_cycle_01_batch_25600.com
 Output=input_cycle_01_batch_25600.log
 Initial command:
 /share/programs/GAUSSIAN/64/g09/l1.exe "/scratch/yannick.30017/Gau-2214311.inp" -scrdir="/scratch/yannick.30017/"
 Entering Link 1 = /share/programs/GAUSSIAN/64/g09/l1.exe PID=   2214312.
  
 Copyright (c) 1988,1990,1992,1993,1995,1998,2003,2009,2013,
            Gaussian, Inc.  All Rights Reserved.
  
 This is part of the Gaussian(R) 09 program.  It is based on
 the Gaussian(R) 03 system (copyright 2003, Gaussian, Inc.),
 the Gaussian(R) 98 system (copyright 1998, Gaussian, Inc.),
 the Gaussian(R) 94 system (copyright 1995, Gaussian, Inc.),
 the Gaussian 92(TM) system (copyright 1992, Gaussian, Inc.),
 the Gaussian 90(TM) system (copyright 1990, Gaussian, Inc.),
 the Gaussian 88(TM) system (copyright 1988, Gaussian, Inc.),
 the Gaussian 86(TM) system (copyright 1986, Carnegie Mellon
 University), and the Gaussian 82(TM) system (copyright 1983,
 Carnegie Mellon University). Gaussian is a federally registered
 trademark of Gaussian, Inc.
  
 This software contains proprietary and confidential information,
 including trade secrets, belonging to Gaussian, Inc.
  
 This software is provided under written license and may be
 used, copied, transmitted, or stored only in accord with that
 written license.
  
 The following legend is applicable only to US Government
 contracts under FAR:
  
                    RESTRICTED RIGHTS LEGEND
  
 Use, reproduction and disclosure by the US Government is
 subject to restrictions as set forth in subparagraphs (a)
 and (c) of the Commercial Computer Software - Restricted
 Rights clause in FAR 52.227-19.
  
 Gaussian, Inc.
 340 Quinnipiac St., Bldg. 40, Wallingford CT 06492
  
  
 ---------------------------------------------------------------
 Warning -- This program may not be used in any manner that
 competes with the business of Gaussian, Inc. or will provide
 assistance to any competitor of Gaussian, Inc.  The licensee
 of this program is prohibited from giving any competitor of
 Gaussian, Inc. access to this program.  By using this program,
 the user acknowledges that Gaussian, Inc. is engaged in the
 business of creating and licensing software in the field of
 computational chemistry and represents and warrants to the
 licensee that it is not a competitor of Gaussian, Inc. and that
 it will not use this program in any manner prohibited above.
 ---------------------------------------------------------------
  

 Cite this work as:
 Gaussian 09, Revision D.01,
 M. J. Frisch, G. W. Trucks, H. B. Schlegel, G. E. Scuseria, 
 M. A. Robb, J. R. Cheeseman, G. Scalmani, V. Barone, B. Mennucci, 
 G. A. Petersson, H. Nakatsuji, M. Caricato, X. Li, H. P. Hratchian, 
 A. F. Izmaylov, J. Bloino, G. Zheng, J. L. Sonnenberg, M. Hada, 
 M. Ehara, K. Toyota, R. Fukuda, J. Hasegawa, M. Ishida, T. Nakajima, 
 Y. Honda, O. Kitao, H. Nakai, T. Vreven, J. A. Montgomery, Jr., 
 J. E. Peralta, F. Ogliaro, M. Bearpark, J. J. Heyd, E. Brothers, 
 K. N. Kudin, V. N. Staroverov, T. Keith, R. Kobayashi, J. Normand, 
 K. Raghavachari, A. Rendell, J. C. Burant, S. S. Iyengar, J. Tomasi, 
 M. Cossi, N. Rega, J. M. Millam, M. Klene, J. E. Knox, J. B. Cross, 
 V. Bakken, C. Adamo, J. Jaramillo, R. Gomperts, R. E. Stratmann, 
 O. Yazyev, A. J. Austin, R. Cammi, C. Pomelli, J. W. Ochterski, 
 R. L. Martin, K. Morokuma, V. G. Zakrzewski, G. A. Voth, 
 P. Salvador, J. J. Dannenberg, S. Dapprich, A. D. Daniels, 
 O. Farkas, J. B. Foresman, J. V. Ortiz, J. Cioslowski, 
 and D. J. Fox, Gaussian, Inc., Wallingford CT, 2013.
 
 ******************************************
 Gaussian 09:  ES64L-G09RevD.01 24-Apr-2013
                21-Aug-2020 
 ******************************************
 %nproc=8
 Will use up to    8 processors via shared memory.
 %mem=1000MB
 ----------------------------------------
 # rb3lyp/6-311+g** NMR geom=connectivity
 ----------------------------------------
 1/38=1,57=2/1;
 2/12=2,17=6,18=5,40=1/2;
 3/5=4,6=6,7=111,11=2,16=1,25=1,30=1,74=-5,116=1/1,2,8,3;
 4//1;
 5/5=2,38=5/2;
 8/6=1,10=90,11=11/1;
 10/13=100,45=16/2;
 6/7=2,8=2,9=2,10=2,28=1/1;
 99/9=1/99;
 -----
 Title
 -----
 Symbolic Z-matrix:
 Charge =  0 Multiplicity = 1
 C                    -4.05006  -0.57719   0.81367 
 H                    -5.02638  -1.00827   1.00248 
 C                    -3.93816   0.66178   0.24009 
 H                    -4.82524   1.23389  -0.01113 
 C                    -2.67684   1.24332   0.00576 
 C                    -1.49741   0.50515   0.28483 
 C                    -1.65083  -0.73387   0.9404 
 H                    -0.77136  -1.2731    1.26338 
 C                    -2.88985  -1.2624    1.19943 
 H                    -2.96837  -2.21246   1.71527 
 C                    -2.57732   2.59637  -0.41929 
 H                    -3.48707   3.14122  -0.64741 
 C                    -1.37419   3.21479  -0.4364 
 H                    -1.29973   4.2742   -0.65781 
 C                    -0.17195   2.49941  -0.17346 
 C                    -0.20439   1.10184   0.01927 
 C                     1.05135   3.20426  -0.06762 
 H                     1.04273   4.28195  -0.1897 
 C                     2.19421   2.54874   0.25796 
 H                     3.11685   3.09128   0.43347 
 C                     2.22165   1.13366   0.2935 
 C                     1.04869   0.39455   0.03024 
 C                     3.44834   0.46146   0.55739 
 H                     4.30958   1.06061   0.83348 
 C                     3.54273  -0.88559   0.47495 
 H                     4.47315  -1.39397   0.70388 
 C                     2.44901  -1.64744  -0.01963 
 C                     1.21507  -1.00573  -0.30136 
 C                     0.25311  -1.74344  -1.02166 
 H                    -0.65414  -1.25351  -1.34628 
 C                     0.44942  -3.06286  -1.34138 
 H                    -0.30832  -3.59443  -1.90541 
 C                     1.62517  -3.7208   -0.95525 
 H                     1.767    -4.76874  -1.1927 
 C                     2.61099  -3.01442  -0.31831 
 H                     3.55256  -3.49028  -0.06464 
 Bq                    2.89869  -1.87734   0.95146 
 Bq                    3.05814  -1.77088   0.6004 
 Bq                    2.85883  -1.90396   1.03922 
 Bq                    3.098    -1.74426   0.51263 
 Bq                    2.81897  -1.93057   1.12699 
 Bq                    3.13786  -1.71765   0.42487 
 Bq                    2.77911  -1.95719   1.21475 
 Bq                    3.17773  -1.69103   0.3371 
 Bq                    2.97842  -1.82411   0.77593 
 Bq                    2.92755  -1.75433   0.88792 
 Bq                    3.00727  -1.7011    0.7124 
 Bq                    2.88769  -1.78095   0.97569 
 Bq                    3.04713  -1.67448   0.62463 
 Bq                    2.84783  -1.80756   1.06345 
 Bq                    3.087    -1.64787   0.53687 
 Bq                    2.80796  -1.83418   1.15122 
 Bq                    3.12686  -1.62125   0.4491 
 Bq                    2.7681   -1.86079   1.23898 
 Bq                    3.16672  -1.59464   0.36134 
 Bq                    2.96741  -1.72772   0.80016 
 Bq                    2.91654  -1.65794   0.91216 
 Bq                    2.99627  -1.60471   0.73663 
 Bq                    2.87668  -1.68455   0.99992 
 Bq                    3.03613  -1.57809   0.64886 
 Bq                    2.83682  -1.71117   1.08769 
 Bq                    3.07599  -1.55148   0.5611 
 Bq                    2.79696  -1.73779   1.17545 
 Bq                    3.11585  -1.52486   0.47333 
 Bq                    2.7571   -1.7644    1.26322 
 Bq                    3.15571  -1.49824   0.38557 
 Bq                    2.9564   -1.63132   0.82439 
 Bq                    2.90554  -1.56155   0.93639 
 Bq                    2.98526  -1.50831   0.76086 
 Bq                    2.86567  -1.58816   1.02416 
 Bq                    3.02512  -1.4817    0.6731 
 Bq                    2.82581  -1.61478   1.11192 
 Bq                    3.06498  -1.45508   0.58533 
 Bq                    2.78595  -1.64139   1.19969 
 Bq                    3.10485  -1.42847   0.49757 
 Bq                    2.74609  -1.66801   1.28745 
 Bq                    3.14471  -1.40185   0.4098 
 Bq                    2.9454   -1.53493   0.84863 
 Bq                    2.89453  -1.46515   0.96062 
 Bq                    2.97425  -1.41192   0.78509 
 Bq                    2.85467  -1.49177   1.04839 
 Bq                    3.01412  -1.38531   0.69733 
 Bq                    2.81481  -1.51838   1.13615 
 Bq                    3.05398  -1.35869   0.60957 
 Bq                    2.77494  -1.545     1.22392 
 Bq                    3.09384  -1.33207   0.5218 
 Bq                    2.73508  -1.57162   1.31168 
 Bq                    3.1337   -1.30546   0.43404 
 Bq                    2.93439  -1.43854   0.87286 
 Bq                    2.88352  -1.36876   0.98486 
 Bq                    2.96325  -1.31553   0.80933 
 Bq                    2.84366  -1.39538   1.07262 
 Bq                    3.00311  -1.28891   0.72156 
 Bq                    2.8038   -1.42199   1.16039 
 Bq                    3.04297  -1.2623    0.6338 
 Bq                    2.76394  -1.44861   1.24815 
 Bq                    3.08283  -1.23568   0.54603 
 Bq                    2.72408  -1.47522   1.33592 
 Bq                    3.12269  -1.20907   0.45827 
 Bq                    2.92339  -1.34214   0.89709 
 Bq                    2.87252  -1.27237   1.00909 
 Bq                    2.95224  -1.21914   0.83356 
 Bq                    2.83266  -1.29898   1.09686 
 Bq                    2.9921   -1.19252   0.7458 
 Bq                    2.79279  -1.3256    1.18462 
 Bq                    3.03196  -1.1659    0.65803 
 Bq                    2.75293  -1.35221   1.27238 
 Bq                    3.07183  -1.13929   0.57027 
 Bq                    2.71307  -1.37883   1.36015 
 Bq                    3.11169  -1.11267   0.4825 
 Bq                    2.91238  -1.24575   0.92133 
 Bq                    2.86151  -1.17597   1.03332 
 Bq                    2.94123  -1.12274   0.85779 
 Bq                    2.82165  -1.20259   1.12109 
 Bq                    2.9811   -1.09613   0.77003 
 Bq                    2.78179  -1.2292    1.20885 
 Bq                    3.02096  -1.06951   0.68227 
 Bq                    2.74193  -1.25582   1.29662 
 Bq                    3.06082  -1.0429    0.5945 
 Bq                    2.70206  -1.28244   1.38438 
 Bq                    3.10068  -1.01628   0.50674 
 Bq                    2.90137  -1.14936   0.94556 
 Bq                    2.8505   -1.07958   1.05756 
 Bq                    2.93023  -1.02635   0.88203 
 Bq                    2.81064  -1.1062    1.14532 
 Bq                    2.97009  -0.99973   0.79426 
 Bq                    2.77078  -1.13281   1.23309 
 Bq                    3.00995  -0.97312   0.7065 
 Bq                    2.73092  -1.15943   1.32085 
 Bq                    3.04981  -0.9465    0.61873 
 Bq                    2.69106  -1.18604   1.40862 
 Bq                    3.08967  -0.91989   0.53097 
 Bq                    2.89037  -1.05296   0.96979 
 Bq                    2.8395   -0.98319   1.08179 
 Bq                    2.91922  -0.92996   0.90626 
 Bq                    2.79964  -1.0098    1.16956 
 Bq                    2.95908  -0.90334   0.8185 
 Bq                    2.75977  -1.03642   1.25732 
 Bq                    2.99894  -0.87673   0.73073 
 Bq                    2.71991  -1.06303   1.34508 
 Bq                    3.03881  -0.85011   0.64297 
 Bq                    2.68005  -1.08965   1.43285 
 Bq                    3.07867  -0.82349   0.5552 
 Bq                    2.87936  -0.95657   0.99403 
 Bq                    2.82849  -0.88679   1.10602 
 Bq                    2.90821  -0.83356   0.93049 
 Bq                    2.78863  -0.91341   1.19379 
 Bq                    2.94808  -0.80695   0.84273 
 Bq                    2.74877  -0.94003   1.28155 
 Bq                    2.98794  -0.78033   0.75496 
 Bq                    2.70891  -0.96664   1.36932 
 Bq                    3.0278   -0.75372   0.6672 
 Bq                    2.66904  -0.99326   1.45708 
 Bq                    3.06766  -0.7271    0.57944 
 Bq                    2.86835  -0.86018   1.01826 
 Bq                    2.81748  -0.7904    1.13026 
 Bq                    2.89721  -0.73717   0.95473 
 Bq                    2.77762  -0.81702   1.21802 
 Bq                    2.93707  -0.71055   0.86696 
 Bq                    2.73776  -0.84363   1.30579 
 Bq                    2.97693  -0.68394   0.7792 
 Bq                    2.6979   -0.87025   1.39355 
 Bq                    3.01679  -0.65732   0.69143 
 Bq                    2.65804  -0.89686   1.48132 
 Bq                    3.05666  -0.63071   0.60367 
 Bq                    2.85735  -0.76379   1.04249 
 Bq                    2.80648  -0.69401   1.15449 
 Bq                    2.8862   -0.64078   0.97896 
 Bq                    2.76662  -0.72062   1.24226 
 Bq                    2.92606  -0.61416   0.8912 
 Bq                    2.72675  -0.74724   1.33002 
 Bq                    2.96593  -0.58755   0.80343 
 Bq                    2.68689  -0.77386   1.41778 
 Bq                    3.00579  -0.56093   0.71567 
 Bq                    2.64703  -0.80047   1.50555 
 Bq                    3.04565  -0.53431   0.6279 
 Bq                    2.84634  -0.66739   1.06673 
 Bq                    2.79547  -0.59762   1.17872 
 Bq                    2.8752   -0.54438   1.00319 
 Bq                    2.75561  -0.62423   1.26649 
 Bq                    2.91506  -0.51777   0.91543 
 Bq                    2.71575  -0.65085   1.35425 
 Bq                    2.95492  -0.49115   0.82766 
 Bq                    2.67589  -0.67746   1.44202 
 Bq                    2.99478  -0.46454   0.7399 
 Bq                    2.63602  -0.70408   1.52978 
 Bq                    3.03464  -0.43792   0.65214 
 Bq                    2.83533  -0.571     1.09096 
 Bq                    2.78447  -0.50122   1.20296 
 Bq                    2.86419  -0.44799   1.02743 
 Bq                    2.7446   -0.52784   1.29072 
 Bq                    2.90405  -0.42138   0.93966 
 Bq                    2.70474  -0.55445   1.37849 
 Bq                    2.94391  -0.39476   0.8519 
 Bq                    2.66488  -0.58107   1.46625 
 Bq                    2.98377  -0.36814   0.76413 
 Bq                    2.62502  -0.60769   1.55402 
 Bq                    3.02364  -0.34153   0.67637 
 Bq                    2.82433  -0.47461   1.11519 
 Bq                    2.77346  -0.40483   1.22719 
 Bq                    2.85318  -0.3516    1.05166 
 Bq                    2.7336   -0.43145   1.31495 
 Bq                    2.89304  -0.32498   0.9639 
 Bq                    2.69374  -0.45806   1.40272 
 Bq                    2.93291  -0.29837   0.87613 
 Bq                    2.65387  -0.48468   1.49048 
 Bq                    2.97277  -0.27175   0.78837 
 Bq                    2.61401  -0.51129   1.57825 
 Bq                    3.01263  -0.24514   0.7006 
 Bq                    2.81332  -0.37821   1.13943 
 Bq                    2.76245  -0.30844   1.25142 
 Bq                    2.84218  -0.25521   1.07589 
 Bq                    2.72259  -0.33505   1.33919 
 Bq                    2.88204  -0.22859   0.98813 
 Bq                    2.68273  -0.36167   1.42695 
 Bq                    2.9219   -0.20197   0.90036 
 Bq                    2.64287  -0.38828   1.51472 
 Bq                    2.96176  -0.17536   0.8126 
 Bq                    2.60301  -0.4149    1.60248 
 Bq                    3.00162  -0.14874   0.72483 
 Bq                    2.80231  -0.28182   1.16366 
 Bq                    2.75145  -0.21204   1.27566 
 Bq                    2.83117  -0.15881   1.10013 
 Bq                    2.71158  -0.23866   1.36342 
 Bq                    2.87103  -0.1322    1.01236 
 Bq                    2.67172  -0.26528   1.45119 
 Bq                    2.91089  -0.10558   0.9246 
 Bq                    2.63186  -0.29189   1.53895 
 Bq                    2.95075  -0.07897   0.83683 
 Bq                    2.592    -0.31851   1.62672 
 Bq                    2.99062  -0.05235   0.74907 
 Bq                    2.79131  -0.18543   1.18789 
 Bq                    2.74044  -0.11565   1.29989 
 Bq                    2.82016  -0.06242   1.12436 
 Bq                    2.70058  -0.14227   1.38765 
 Bq                    2.86002  -0.0358    1.0366 
 
 Symmetry turned off:
 Cannot cope with ghost atoms or with translation vectors.
 Stoichiometry    C22H14
 Framework group  C1[X(C22H14)]
 NUMDOF-- NAT=    36 NAtoms=   236
 Deg. of freedom     0
 Full point group                 C1      NOp   1
                          Input orientation:                          
 ---------------------------------------------------------------------
 Center     Atomic      Atomic             Coordinates (Angstroms)
 Number     Number       Type             X           Y           Z
 ---------------------------------------------------------------------
      1          6           0       -4.050056   -0.577186    0.813671
      2          1           0       -5.026380   -1.008273    1.002476
      3          6           0       -3.938155    0.661780    0.240088
      4          1           0       -4.825242    1.233889   -0.011130
      5          6           0       -2.676841    1.243325    0.005758
      6          6           0       -1.497412    0.505153    0.284825
      7          6           0       -1.650833   -0.733873    0.940403
      8          1           0       -0.771365   -1.273097    1.263375
      9          6           0       -2.889855   -1.262404    1.199431
     10          1           0       -2.968371   -2.212456    1.715268
     11          6           0       -2.577319    2.596370   -0.419293
     12          1           0       -3.487073    3.141224   -0.647406
     13          6           0       -1.374190    3.214790   -0.436403
     14          1           0       -1.299732    4.274202   -0.657814
     15          6           0       -0.171949    2.499409   -0.173459
     16          6           0       -0.204392    1.101844    0.019269
     17          6           0        1.051349    3.204256   -0.067622
     18          1           0        1.042734    4.281950   -0.189700
     19          6           0        2.194209    2.548745    0.257958
     20          1           0        3.116853    3.091285    0.433473
     21          6           0        2.221647    1.133656    0.293499
     22          6           0        1.048693    0.394553    0.030241
     23          6           0        3.448336    0.461463    0.557394
     24          1           0        4.309579    1.060605    0.833485
     25          6           0        3.542735   -0.885593    0.474946
     26          1           0        4.473147   -1.393970    0.703882
     27          6           0        2.449005   -1.647445   -0.019632
     28          6           0        1.215070   -1.005726   -0.301357
     29          6           0        0.253111   -1.743444   -1.021659
     30          1           0       -0.654136   -1.253505   -1.346285
     31          6           0        0.449419   -3.062860   -1.341378
     32          1           0       -0.308316   -3.594431   -1.905406
     33          6           0        1.625173   -3.720797   -0.955254
     34          1           0        1.767005   -4.768740   -1.192702
     35          6           0        2.610987   -3.014418   -0.318305
     36          1           0        3.552561   -3.490281   -0.064637
     37          0           0        2.898694   -1.877340    0.951456
     38          0           0        3.058141   -1.770878    0.600397
     39          0           0        2.858832   -1.903956    1.039221
     40          0           0        3.098003   -1.744262    0.512632
     41          0           0        2.818971   -1.930571    1.126985
     42          0           0        3.137865   -1.717646    0.424868
     43          0           0        2.779109   -1.957187    1.214750
     44          0           0        3.177726   -1.691031    0.337103
     45          0           0        2.978418   -1.824109    0.775927
     46          0           0        2.927549   -1.754331    0.887925
     47          0           0        3.007273   -1.701100    0.712395
     48          0           0        2.887688   -1.780947    0.975689
     49          0           0        3.047135   -1.674485    0.624630
     50          0           0        2.847826   -1.807563    1.063454
     51          0           0        3.086996   -1.647869    0.536866
     52          0           0        2.807964   -1.834178    1.151219
     53          0           0        3.126858   -1.621253    0.449101
     54          0           0        2.768102   -1.860794    1.238983
     55          0           0        3.166720   -1.594638    0.361336
     56          0           0        2.967411   -1.727716    0.800160
     57          0           0        2.916543   -1.657938    0.912158
     58          0           0        2.996266   -1.604707    0.736628
     59          0           0        2.876681   -1.684554    0.999923
     60          0           0        3.036128   -1.578092    0.648864
     61          0           0        2.836819   -1.711170    1.087687
     62          0           0        3.075990   -1.551476    0.561099
     63          0           0        2.796958   -1.737785    1.175452
     64          0           0        3.115852   -1.524860    0.473334
     65          0           0        2.757096   -1.764401    1.263217
     66          0           0        3.155714   -1.498245    0.385569
     67          0           0        2.956405   -1.631323    0.824393
     68          0           0        2.905536   -1.561546    0.936391
     69          0           0        2.985260   -1.508314    0.760862
     70          0           0        2.865675   -1.588161    1.024156
     71          0           0        3.025122   -1.481699    0.673097
     72          0           0        2.825813   -1.614777    1.111921
     73          0           0        3.064984   -1.455083    0.585332
     74          0           0        2.785951   -1.641392    1.199685
     75          0           0        3.104845   -1.428467    0.497567
     76          0           0        2.746089   -1.668008    1.287450
     77          0           0        3.144707   -1.401852    0.409803
     78          0           0        2.945398   -1.534930    0.848626
     79          0           0        2.894530   -1.465153    0.960624
     80          0           0        2.974254   -1.411921    0.785095
     81          0           0        2.854668   -1.491768    1.048389
     82          0           0        3.014115   -1.385306    0.697330
     83          0           0        2.814806   -1.518384    1.136154
     84          0           0        3.053977   -1.358690    0.609565
     85          0           0        2.774945   -1.544999    1.223918
     86          0           0        3.093839   -1.332074    0.521801
     87          0           0        2.735083   -1.571615    1.311683
     88          0           0        3.133701   -1.305459    0.434036
     89          0           0        2.934392   -1.438537    0.872860
     90          0           0        2.883524   -1.368760    0.984858
     91          0           0        2.963247   -1.315528    0.809328
     92          0           0        2.843662   -1.395375    1.072622
     93          0           0        3.003109   -1.288913    0.721563
     94          0           0        2.803800   -1.421991    1.160387
     95          0           0        3.042971   -1.262297    0.633799
     96          0           0        2.763938   -1.448607    1.248152
     97          0           0        3.082832   -1.235681    0.546034
     98          0           0        2.724076   -1.475222    1.335916
     99          0           0        3.122694   -1.209066    0.458269
    100          0           0        2.923385   -1.342144    0.897093
    101          0           0        2.872517   -1.272367    1.009091
    102          0           0        2.952241   -1.219135    0.833561
    103          0           0        2.832655   -1.298982    1.096856
    104          0           0        2.992102   -1.192520    0.745797
    105          0           0        2.792794   -1.325598    1.184620
    106          0           0        3.031964   -1.165904    0.658032
    107          0           0        2.752932   -1.352214    1.272385
    108          0           0        3.071826   -1.139288    0.570267
    109          0           0        2.713070   -1.378829    1.360150
    110          0           0        3.111688   -1.112673    0.482502
    111          0           0        2.912379   -1.245751    0.921326
    112          0           0        2.861511   -1.175974    1.033324
    113          0           0        2.941234   -1.122742    0.857795
    114          0           0        2.821649   -1.202589    1.121089
    115          0           0        2.981096   -1.096127    0.770030
    116          0           0        2.781787   -1.229205    1.208854
    117          0           0        3.020958   -1.069511    0.682265
    118          0           0        2.741925   -1.255821    1.296618
    119          0           0        3.060819   -1.042895    0.594500
    120          0           0        2.702064   -1.282436    1.384383
    121          0           0        3.100681   -1.016280    0.506736
    122          0           0        2.901372   -1.149358    0.945559
    123          0           0        2.850504   -1.079581    1.057557
    124          0           0        2.930228   -1.026349    0.882028
    125          0           0        2.810642   -1.106196    1.145322
    126          0           0        2.970089   -0.999734    0.794263
    127          0           0        2.770781   -1.132812    1.233087
    128          0           0        3.009951   -0.973118    0.706498
    129          0           0        2.730919   -1.159428    1.320851
    130          0           0        3.049813   -0.946502    0.618734
    131          0           0        2.691057   -1.186043    1.408616
    132          0           0        3.089675   -0.919887    0.530969
    133          0           0        2.890366   -1.052965    0.969793
    134          0           0        2.839498   -0.983188    1.081791
    135          0           0        2.919221   -0.929956    0.906261
    136          0           0        2.799636   -1.009803    1.169555
    137          0           0        2.959083   -0.903341    0.818496
    138          0           0        2.759774   -1.036419    1.257320
    139          0           0        2.998945   -0.876725    0.730732
    140          0           0        2.719912   -1.063035    1.345085
    141          0           0        3.038806   -0.850109    0.642967
    142          0           0        2.680051   -1.089650    1.432849
    143          0           0        3.078668   -0.823494    0.555202
    144          0           0        2.879359   -0.956572    0.994026
    145          0           0        2.828491   -0.886795    1.106024
    146          0           0        2.908215   -0.833563    0.930494
    147          0           0        2.788629   -0.913410    1.193789
    148          0           0        2.948076   -0.806948    0.842730
    149          0           0        2.748768   -0.940026    1.281553
    150          0           0        2.987938   -0.780332    0.754965
    151          0           0        2.708906   -0.966642    1.369318
    152          0           0        3.027800   -0.753716    0.667200
    153          0           0        2.669044   -0.993257    1.457083
    154          0           0        3.067662   -0.727101    0.579435
    155          0           0        2.868353   -0.860179    1.018259
    156          0           0        2.817485   -0.790402    1.130257
    157          0           0        2.897208   -0.737170    0.954728
    158          0           0        2.777623   -0.817017    1.218022
    159          0           0        2.937070   -0.710555    0.866963
    160          0           0        2.737761   -0.843633    1.305787
    161          0           0        2.976932   -0.683939    0.779198
    162          0           0        2.697899   -0.870249    1.393551
    163          0           0        3.016794   -0.657323    0.691433
    164          0           0        2.658038   -0.896864    1.481316
    165          0           0        3.056655   -0.630708    0.603669
    166          0           0        2.857346   -0.763786    1.042492
    167          0           0        2.806478   -0.694009    1.154490
    168          0           0        2.886202   -0.640777    0.978961
    169          0           0        2.766616   -0.720624    1.242255
    170          0           0        2.926064   -0.614162    0.891196
    171          0           0        2.726755   -0.747240    1.330020
    172          0           0        2.965925   -0.587546    0.803431
    173          0           0        2.686893   -0.773856    1.417784
    174          0           0        3.005787   -0.560930    0.715667
    175          0           0        2.647031   -0.800471    1.505549
    176          0           0        3.045649   -0.534315    0.627902
    177          0           0        2.846340   -0.667393    1.066726
    178          0           0        2.795472   -0.597616    1.178724
    179          0           0        2.875195   -0.544384    1.003194
    180          0           0        2.755610   -0.624231    1.266488
    181          0           0        2.915057   -0.517769    0.915429
    182          0           0        2.715748   -0.650847    1.354253
    183          0           0        2.954919   -0.491153    0.827665
    184          0           0        2.675886   -0.677463    1.442018
    185          0           0        2.994781   -0.464537    0.739900
    186          0           0        2.636025   -0.704078    1.529782
    187          0           0        3.034642   -0.437922    0.652135
    188          0           0        2.835334   -0.571000    1.090959
    189          0           0        2.784465   -0.501223    1.202957
    190          0           0        2.864189   -0.447991    1.027427
    191          0           0        2.744604   -0.527838    1.290722
    192          0           0        2.904051   -0.421376    0.939663
    193          0           0        2.704742   -0.554454    1.378486
    194          0           0        2.943912   -0.394760    0.851898
    195          0           0        2.664880   -0.581070    1.466251
    196          0           0        2.983774   -0.368144    0.764133
    197          0           0        2.625018   -0.607685    1.554016
    198          0           0        3.023636   -0.341529    0.676368
    199          0           0        2.824327   -0.474607    1.115192
    200          0           0        2.773459   -0.404830    1.227190
    201          0           0        2.853182   -0.351598    1.051661
    202          0           0        2.733597   -0.431445    1.314955
    203          0           0        2.893044   -0.324983    0.963896
    204          0           0        2.693735   -0.458061    1.402720
    205          0           0        2.932906   -0.298367    0.876131
    206          0           0        2.653874   -0.484677    1.490484
    207          0           0        2.972768   -0.271751    0.788366
    208          0           0        2.614012   -0.511292    1.578249
    209          0           0        3.012629   -0.245136    0.700602
    210          0           0        2.813321   -0.378214    1.139425
    211          0           0        2.762452   -0.308437    1.251423
    212          0           0        2.842176   -0.255205    1.075894
    213          0           0        2.722591   -0.335052    1.339188
    214          0           0        2.882038   -0.228590    0.988129
    215          0           0        2.682729   -0.361668    1.426953
    216          0           0        2.921899   -0.201974    0.900364
    217          0           0        2.642867   -0.388284    1.514717
    218          0           0        2.961761   -0.175358    0.812600
    219          0           0        2.603005   -0.414899    1.602482
    220          0           0        3.001623   -0.148743    0.724835
    221          0           0        2.802314   -0.281821    1.163659
    222          0           0        2.751446   -0.212044    1.275657
    223          0           0        2.831169   -0.158812    1.100127
    224          0           0        2.711584   -0.238659    1.363421
    225          0           0        2.871031   -0.132197    1.012362
    226          0           0        2.671722   -0.265275    1.451186
    227          0           0        2.910893   -0.105581    0.924598
    228          0           0        2.631861   -0.291891    1.538951
    229          0           0        2.950755   -0.078965    0.836833
    230          0           0        2.591999   -0.318506    1.626715
    231          0           0        2.990616   -0.052350    0.749068
    232          0           0        2.791308   -0.185428    1.187892
    233          0           0        2.740439   -0.115651    1.299890
    234          0           0        2.820163   -0.062419    1.124360
    235          0           0        2.700578   -0.142266    1.387655
    236          0           0        2.860025   -0.035804    1.036596
 ---------------------------------------------------------------------
 Rotational constants (GHZ):      0.4529074      0.2836956      0.1879557
 Standard basis: 6-311+G(d,p) (5D, 7F)
 Warning:  center  37 has no basis functions!
 Warning:  center  38 has no basis functions!
 Warning:  center  39 has no basis functions!
 Warning:  center  40 has no basis functions!
 Warning:  center  41 has no basis functions!
 Warning:  center  42 has no basis functions!
 Warning:  center  43 has no basis functions!
 Warning:  center  44 has no basis functions!
 Warning:  center  45 has no basis functions!
 Warning:  center  46 has no basis functions!
 Warning:  center  47 has no basis functions!
 Warning:  center  48 has no basis functions!
 Warning:  center  49 has no basis functions!
 Warning:  center  50 has no basis functions!
 Warning:  center  51 has no basis functions!
 Warning:  center  52 has no basis functions!
 Warning:  center  53 has no basis functions!
 Warning:  center  54 has no basis functions!
 Warning:  center  55 has no basis functions!
 Warning:  center  56 has no basis functions!
 Warning:  center  57 has no basis functions!
 Warning:  center  58 has no basis functions!
 Warning:  center  59 has no basis functions!
 Warning:  center  60 has no basis functions!
 Warning:  center  61 has no basis functions!
 Warning:  center  62 has no basis functions!
 Warning:  center  63 has no basis functions!
 Warning:  center  64 has no basis functions!
 Warning:  center  65 has no basis functions!
 Warning:  center  66 has no basis functions!
 Warning:  center  67 has no basis functions!
 Warning:  center  68 has no basis functions!
 Warning:  center  69 has no basis functions!
 Warning:  center  70 has no basis functions!
 Warning:  center  71 has no basis functions!
 Warning:  center  72 has no basis functions!
 Warning:  center  73 has no basis functions!
 Warning:  center  74 has no basis functions!
 Warning:  center  75 has no basis functions!
 Warning:  center  76 has no basis functions!
 Warning:  center  77 has no basis functions!
 Warning:  center  78 has no basis functions!
 Warning:  center  79 has no basis functions!
 Warning:  center  80 has no basis functions!
 Warning:  center  81 has no basis functions!
 Warning:  center  82 has no basis functions!
 Warning:  center  83 has no basis functions!
 Warning:  center  84 has no basis functions!
 Warning:  center  85 has no basis functions!
 Warning:  center  86 has no basis functions!
 Warning:  center  87 has no basis functions!
 Warning:  center  88 has no basis functions!
 Warning:  center  89 has no basis functions!
 Warning:  center  90 has no basis functions!
 Warning:  center  91 has no basis functions!
 Warning:  center  92 has no basis functions!
 Warning:  center  93 has no basis functions!
 Warning:  center  94 has no basis functions!
 Warning:  center  95 has no basis functions!
 Warning:  center  96 has no basis functions!
 Warning:  center  97 has no basis functions!
 Warning:  center  98 has no basis functions!
 Warning:  center  99 has no basis functions!
 Warning:  center 100 has no basis functions!
 Warning:  center 101 has no basis functions!
 Warning:  center 102 has no basis functions!
 Warning:  center 103 has no basis functions!
 Warning:  center 104 has no basis functions!
 Warning:  center 105 has no basis functions!
 Warning:  center 106 has no basis functions!
 Warning:  center 107 has no basis functions!
 Warning:  center 108 has no basis functions!
 Warning:  center 109 has no basis functions!
 Warning:  center 110 has no basis functions!
 Warning:  center 111 has no basis functions!
 Warning:  center 112 has no basis functions!
 Warning:  center 113 has no basis functions!
 Warning:  center 114 has no basis functions!
 Warning:  center 115 has no basis functions!
 Warning:  center 116 has no basis functions!
 Warning:  center 117 has no basis functions!
 Warning:  center 118 has no basis functions!
 Warning:  center 119 has no basis functions!
 Warning:  center 120 has no basis functions!
 Warning:  center 121 has no basis functions!
 Warning:  center 122 has no basis functions!
 Warning:  center 123 has no basis functions!
 Warning:  center 124 has no basis functions!
 Warning:  center 125 has no basis functions!
 Warning:  center 126 has no basis functions!
 Warning:  center 127 has no basis functions!
 Warning:  center 128 has no basis functions!
 Warning:  center 129 has no basis functions!
 Warning:  center 130 has no basis functions!
 Warning:  center 131 has no basis functions!
 Warning:  center 132 has no basis functions!
 Warning:  center 133 has no basis functions!
 Warning:  center 134 has no basis functions!
 Warning:  center 135 has no basis functions!
 Warning:  center 136 has no basis functions!
 Warning:  center 137 has no basis functions!
 Warning:  center 138 has no basis functions!
 Warning:  center 139 has no basis functions!
 Warning:  center 140 has no basis functions!
 Warning:  center 141 has no basis functions!
 Warning:  center 142 has no basis functions!
 Warning:  center 143 has no basis functions!
 Warning:  center 144 has no basis functions!
 Warning:  center 145 has no basis functions!
 Warning:  center 146 has no basis functions!
 Warning:  center 147 has no basis functions!
 Warning:  center 148 has no basis functions!
 Warning:  center 149 has no basis functions!
 Warning:  center 150 has no basis functions!
 Warning:  center 151 has no basis functions!
 Warning:  center 152 has no basis functions!
 Warning:  center 153 has no basis functions!
 Warning:  center 154 has no basis functions!
 Warning:  center 155 has no basis functions!
 Warning:  center 156 has no basis functions!
 Warning:  center 157 has no basis functions!
 Warning:  center 158 has no basis functions!
 Warning:  center 159 has no basis functions!
 Warning:  center 160 has no basis functions!
 Warning:  center 161 has no basis functions!
 Warning:  center 162 has no basis functions!
 Warning:  center 163 has no basis functions!
 Warning:  center 164 has no basis functions!
 Warning:  center 165 has no basis functions!
 Warning:  center 166 has no basis functions!
 Warning:  center 167 has no basis functions!
 Warning:  center 168 has no basis functions!
 Warning:  center 169 has no basis functions!
 Warning:  center 170 has no basis functions!
 Warning:  center 171 has no basis functions!
 Warning:  center 172 has no basis functions!
 Warning:  center 173 has no basis functions!
 Warning:  center 174 has no basis functions!
 Warning:  center 175 has no basis functions!
 Warning:  center 176 has no basis functions!
 Warning:  center 177 has no basis functions!
 Warning:  center 178 has no basis functions!
 Warning:  center 179 has no basis functions!
 Warning:  center 180 has no basis functions!
 Warning:  center 181 has no basis functions!
 Warning:  center 182 has no basis functions!
 Warning:  center 183 has no basis functions!
 Warning:  center 184 has no basis functions!
 Warning:  center 185 has no basis functions!
 Warning:  center 186 has no basis functions!
 Warning:  center 187 has no basis functions!
 Warning:  center 188 has no basis functions!
 Warning:  center 189 has no basis functions!
 Warning:  center 190 has no basis functions!
 Warning:  center 191 has no basis functions!
 Warning:  center 192 has no basis functions!
 Warning:  center 193 has no basis functions!
 Warning:  center 194 has no basis functions!
 Warning:  center 195 has no basis functions!
 Warning:  center 196 has no basis functions!
 Warning:  center 197 has no basis functions!
 Warning:  center 198 has no basis functions!
 Warning:  center 199 has no basis functions!
 Warning:  center 200 has no basis functions!
 Warning:  center 201 has no basis functions!
 Warning:  center 202 has no basis functions!
 Warning:  center 203 has no basis functions!
 Warning:  center 204 has no basis functions!
 Warning:  center 205 has no basis functions!
 Warning:  center 206 has no basis functions!
 Warning:  center 207 has no basis functions!
 Warning:  center 208 has no basis functions!
 Warning:  center 209 has no basis functions!
 Warning:  center 210 has no basis functions!
 Warning:  center 211 has no basis functions!
 Warning:  center 212 has no basis functions!
 Warning:  center 213 has no basis functions!
 Warning:  center 214 has no basis functions!
 Warning:  center 215 has no basis functions!
 Warning:  center 216 has no basis functions!
 Warning:  center 217 has no basis functions!
 Warning:  center 218 has no basis functions!
 Warning:  center 219 has no basis functions!
 Warning:  center 220 has no basis functions!
 Warning:  center 221 has no basis functions!
 Warning:  center 222 has no basis functions!
 Warning:  center 223 has no basis functions!
 Warning:  center 224 has no basis functions!
 Warning:  center 225 has no basis functions!
 Warning:  center 226 has no basis functions!
 Warning:  center 227 has no basis functions!
 Warning:  center 228 has no basis functions!
 Warning:  center 229 has no basis functions!
 Warning:  center 230 has no basis functions!
 Warning:  center 231 has no basis functions!
 Warning:  center 232 has no basis functions!
 Warning:  center 233 has no basis functions!
 Warning:  center 234 has no basis functions!
 Warning:  center 235 has no basis functions!
 Warning:  center 236 has no basis functions!
   568 basis functions,   904 primitive gaussians,   590 cartesian basis functions
    73 alpha electrons       73 beta electrons
       nuclear repulsion energy      1610.9176155625 Hartrees.
 NAtoms=  236 NActive=  236 NUniq=  236 SFac= 1.00D+00 NAtFMM=   60 NAOKFM=T Big=T
 Integral buffers will be    131072 words long.
 Raffenetti 2 integral format.
 Two-electron integral symmetry is turned off.
 One-electron integrals computed using PRISM.
 NBasis=   568 RedAO= T EigKep=  1.78D-06  NBF=   568
 NBsUse=   556 1.00D-06 EigRej=  9.09D-07 NBFU=   556
 ExpMin= 4.38D-02 ExpMax= 4.56D+03 ExpMxC= 6.82D+02 IAcc=2 IRadAn=         4 AccDes= 0.00D+00
 Harris functional with IExCor=  402 and IRadAn=       4 diagonalized for initial guess.
 HarFok:  IExCor=  402 AccDes= 0.00D+00 IRadAn=         4 IDoV= 1 UseB2=F ITyADJ=14
 ICtDFT=  3500011 ScaDFX=  1.000000  1.000000  1.000000  1.000000
 FoFCou: FMM=F IPFlag=           0 FMFlag=      100000 FMFlg1=        2001
         NFxFlg=           0 DoJE=T BraDBF=F KetDBF=T FulRan=T
         wScrn=  0.000000 ICntrl=     500 IOpCl=  0 I1Cent=   200000004 NGrid=           0
         NMat0=    1 NMatS0=      1 NMatT0=    0 NMatD0=    1 NMtDS0=    0 NMtDT0=    0
 Symmetry not used in FoFCou.
 Requested convergence on RMS density matrix=1.00D-08 within 128 cycles.
 Requested convergence on MAX density matrix=1.00D-06.
 Requested convergence on             energy=1.00D-06.
 No special actions if energy rises.
 SCF Done:  E(RB3LYP) =  -847.003289847     A.U. after   15 cycles
            NFock= 15  Conv=0.76D-08     -V/T= 2.0040
 DoSCS=F DFT=T ScalE2(SS,OS)=  1.000000  1.000000
 Range of M.O.s used for correlation:     1   556
 NBasis=   568 NAE=    73 NBE=    73 NFC=     0 NFV=     0
 NROrb=    556 NOA=    73 NOB=    73 NVA=   483 NVB=   483

 **** Warning!!: The largest alpha MO coefficient is  0.10971036D+03

          Differentiating once with respect to magnetic field using GIAOs.
          Electric field/nuclear overlap derivatives assumed to be zero.
 FoFCou: FMM=F IPFlag=           0 FMFlag=      100000 FMFlg1=        2001
         NFxFlg=           0 DoJE=F BraDBF=F KetDBF=T FulRan=T
         wScrn=  0.000000 ICntrl=    6100 IOpCl=  0 I1Cent=           7 NGrid=         236
         NMat0=    1 NMatS0=      1 NMatT0=    0 NMatD0=    1 NMtDS0=    0 NMtDT0=    0
 Symmetry not used in FoFCou.
 FoFJK:  IHMeth= 1 ICntrl=    6127 DoSepK=F KAlg= 0 I1Cent=   0 FoldK=F
 IRaf=         1 NMat=   1 IRICut=       1 DoRegI=T DoRafI=F ISym2E= 0.
          There are     3 degrees of freedom in the 1st order CPHF.  IDoFFX=0 NUNeed=     3.
      3 vectors produced by pass  0 Test12= 1.18D-12 3.33D-08 XBig12= 2.07D+03 9.18D+00.
 AX will form     3 AO Fock derivatives at one time.
      3 vectors produced by pass  1 Test12= 1.18D-12 3.33D-08 XBig12= 3.56D+00 8.03D-01.
      3 vectors produced by pass  2 Test12= 1.18D-12 3.33D-08 XBig12= 2.10D-02 6.92D-02.
      3 vectors produced by pass  3 Test12= 1.18D-12 3.33D-08 XBig12= 5.45D-05 1.89D-03.
      3 vectors produced by pass  4 Test12= 1.18D-12 3.33D-08 XBig12= 1.20D-07 7.79D-05.
      3 vectors produced by pass  5 Test12= 1.18D-12 3.33D-08 XBig12= 4.02D-10 4.73D-06.
      3 vectors produced by pass  6 Test12= 1.18D-12 3.33D-08 XBig12= 1.32D-12 2.61D-07.
 InvSVY:  IOpt=1 It=  1 EMax= 7.11D-15
 Solved reduced A of dimension    21 with     3 vectors.
 Calculating GIAO nuclear magnetic shielding tensors.
 SCF GIAO Magnetic shielding tensor (ppm):
      1  C    Isotropic =    53.8139   Anisotropy =   178.0260
   XX=   -41.4327   YX=   -32.3458   ZX=    10.0287
   XY=   -28.3572   YY=    59.0527   ZY=    55.1899
   XZ=    13.1759   YZ=    58.7550   ZZ=   143.8218
   Eigenvalues:   -53.8775    42.8214   172.4979
      2  H    Isotropic =    24.3095   Anisotropy =     4.8536
   XX=    25.5771   YX=    -1.0289   ZX=     0.5661
   XY=    -0.7431   YY=    26.1829   ZY=    -2.3306
   XZ=    -0.1707   YZ=    -2.4411   ZZ=    21.1687
   Eigenvalues:    20.2108    25.1725    27.5453
      3  C    Isotropic =    51.4055   Anisotropy =   157.8639
   XX=   -31.5399   YX=    38.5015   ZX=   -17.9316
   XY=    34.3519   YY=    49.9437   ZY=    49.6392
   XZ=    -9.8383   YZ=    44.6006   ZZ=   135.8127
   Eigenvalues:   -50.5747    48.1432   156.6481
      4  H    Isotropic =    23.8290   Anisotropy =     7.1838
   XX=    25.3635   YX=     1.8486   ZX=    -0.3559
   XY=     1.9656   YY=    26.4581   ZY=    -2.4103
   XZ=    -1.2941   YZ=    -2.6614   ZZ=    19.6654
   Eigenvalues:    18.8176    24.0511    28.6182
      5  C    Isotropic =    46.0697   Anisotropy =   207.6751
   XX=   -19.2123   YX=    -4.8852   ZX=    -1.6475
   XY=     2.8938   YY=    -2.9860   ZY=    66.5656
   XZ=     2.5356   YZ=    67.9144   ZZ=   160.4073
   Eigenvalues:   -27.2455   -19.0652   184.5197
      6  C    Isotropic =    47.5218   Anisotropy =   196.9389
   XX=   -28.1552   YX=    -2.7889   ZX=    12.0660
   XY=   -14.3886   YY=    21.2063   ZY=    74.2521
   XZ=   -18.6356   YZ=    61.1113   ZZ=   149.5144
   Eigenvalues:   -30.2925    -5.9564   178.8144
      7  C    Isotropic =    49.3915   Anisotropy =   179.8333
   XX=   -12.5211   YX=    28.7048   ZX=   -24.6745
   XY=    31.5123   YY=    29.7000   ZY=    77.7459
   XZ=   -40.0095   YZ=    65.3072   ZZ=   130.9956
   Eigenvalues:   -52.1299    31.0240   169.2804
      8  H    Isotropic =    23.1586   Anisotropy =    13.5525
   XX=    28.5711   YX=     1.5482   ZX=    -3.6986
   XY=     3.2466   YY=    22.7592   ZY=    -2.1157
   XZ=    -8.3753   YZ=    -1.0821   ZZ=    18.1456
   Eigenvalues:    15.3521    21.9301    32.1936
      9  C    Isotropic =    55.1460   Anisotropy =   174.7426
   XX=    46.7071   YX=    -2.6162   ZX=    -2.8420
   XY=     0.6223   YY=    -1.6258   ZY=    92.8272
   XZ=     0.5159   YZ=    95.6598   ZZ=   120.3568
   Eigenvalues:   -52.8932    46.6901   171.6411
     10  H    Isotropic =    24.6278   Anisotropy =     7.1815
   XX=    29.1040   YX=     0.1399   ZX=    -0.3694
   XY=     0.3642   YY=    23.4778   ZY=    -1.0805
   XZ=    -2.4493   YZ=    -2.9465   ZZ=    21.3016
   Eigenvalues:    19.9703    24.4977    29.4155
     11  C    Isotropic =    51.5607   Anisotropy =   151.2142
   XX=     2.1639   YX=    40.9287   ZX=   -26.0048
   XY=    49.9131   YY=    12.2331   ZY=    42.1342
   XZ=   -15.6145   YZ=    38.6614   ZZ=   140.2851
   Eigenvalues:   -48.1951    50.5071   152.3701
     12  H    Isotropic =    23.8537   Anisotropy =     7.3815
   XX=    25.9672   YX=     2.3738   ZX=    -0.2390
   XY=     2.4320   YY=    26.3975   ZY=    -1.8291
   XZ=     0.3529   YZ=    -1.7731   ZZ=    19.1964
   Eigenvalues:    18.7149    24.0714    28.7747
     13  C    Isotropic =    52.8653   Anisotropy =   147.4265
   XX=    51.2944   YX=    19.9221   ZX=   -13.4678
   XY=    11.5478   YY=   -34.0176   ZY=    42.5079
   XZ=    -9.2241   YZ=    40.0716   ZZ=   141.3192
   Eigenvalues:   -46.5152    53.9616   151.1497
     14  H    Isotropic =    24.0156   Anisotropy =     7.3485
   XX=    28.6644   YX=     0.6281   ZX=     1.0808
   XY=     0.5926   YY=    24.4325   ZY=    -1.0823
   XZ=     1.6846   YZ=    -0.3842   ZZ=    18.9500
   Eigenvalues:    18.6430    24.4892    28.9146
     15  C    Isotropic =    46.2221   Anisotropy =   203.9048
   XX=   -27.2215   YX=    -0.0442   ZX=   -28.9124
   XY=     4.6427   YY=   -10.5571   ZY=    28.3830
   XZ=   -10.2704   YZ=    26.7376   ZZ=   176.4448
   Eigenvalues:   -30.5512   -12.9411   182.1586
     16  C    Isotropic =    51.9375   Anisotropy =   188.2004
   XX=   -19.4441   YX=     5.5046   ZX=    15.7858
   XY=    -8.3874   YY=     2.4863   ZY=    22.9264
   XZ=   -50.6243   YZ=    23.3340   ZZ=   172.7704
   Eigenvalues:   -21.0294    -0.5625   177.4045
     17  C    Isotropic =    51.9482   Anisotropy =   149.1264
   XX=    50.7296   YX=   -23.9353   ZX=   -18.4207
   XY=   -16.7271   YY=   -41.8764   ZY=    17.8662
   XZ=   -14.3278   YZ=    11.4871   ZZ=   146.9915
   Eigenvalues:   -46.7796    51.2584   151.3658
     18  H    Isotropic =    24.0122   Anisotropy =     7.5163
   XX=    28.5811   YX=    -0.0866   ZX=     1.5071
   XY=    -0.2466   YY=    24.3342   ZY=    -0.7657
   XZ=     2.5088   YZ=    -1.5208   ZZ=    19.1214
   Eigenvalues:    18.5094    24.5041    29.0231
     19  C    Isotropic =    51.7356   Anisotropy =   148.5924
   XX=     2.4559   YX=   -45.6913   ZX=   -31.2531
   XY=   -53.4448   YY=     7.4698   ZY=    -1.8888
   XZ=   -23.5601   YZ=    -1.2765   ZZ=   145.2810
   Eigenvalues:   -46.9894    51.3989   150.7972
     20  H    Isotropic =    23.9071   Anisotropy =     7.6651
   XX=    25.5796   YX=    -2.0226   ZX=     1.4905
   XY=    -1.9998   YY=    27.3706   ZY=    -0.5164
   XZ=     2.7276   YZ=    -1.1179   ZZ=    18.7711
   Eigenvalues:    18.1643    24.5398    29.0172
     21  C    Isotropic =    45.9767   Anisotropy =   203.9316
   XX=   -16.2108   YX=    13.1802   ZX=   -44.5913
   XY=     6.5714   YY=   -20.6329   ZY=     0.0949
   XZ=   -28.8984   YZ=   -13.0883   ZZ=   174.7736
   Eigenvalues:   -30.5796   -13.4215   181.9311
     22  C    Isotropic =    52.0450   Anisotropy =   188.1157
   XX=    -0.0787   YX=     2.5023   ZX=   -16.3451
   XY=    18.9327   YY=   -14.4798   ZY=   -34.4335
   XZ=   -50.6032   YZ=    19.9104   ZZ=   170.6934
   Eigenvalues:   -20.7705    -0.5500   177.4554
     23  C    Isotropic =    53.2392   Anisotropy =   146.7412
   XX=   -22.0674   YX=   -32.0012   ZX=   -49.4857
   XY=   -23.2043   YY=    44.3661   ZY=   -15.6400
   XZ=   -43.8090   YZ=   -20.2525   ZZ=   137.4189
   Eigenvalues:   -45.6776    54.3286   151.0667
     24  H    Isotropic =    23.8249   Anisotropy =     7.5289
   XX=    25.1073   YX=    -1.7330   ZX=     1.5380
   XY=    -1.5944   YY=    28.0047   ZY=     0.0879
   XZ=     1.2557   YZ=    -0.8283   ZZ=    18.3628
   Eigenvalues:    18.0848    24.5458    28.8442
     25  C    Isotropic =    51.4969   Anisotropy =   150.1066
   XX=   -28.4915   YX=    33.9684   ZX=   -52.3137
   XY=    22.0311   YY=    46.6072   ZY=    -3.8075
   XZ=   -44.5594   YZ=   -10.6355   ZZ=   136.3748
   Eigenvalues:   -48.3857    51.3083   151.5679
     26  H    Isotropic =    23.7431   Anisotropy =     7.4052
   XX=    24.0663   YX=     1.1141   ZX=     1.9989
   XY=     0.9693   YY=    28.1000   ZY=     1.6568
   XZ=     2.0795   YZ=     0.8886   ZZ=    19.0630
   Eigenvalues:    18.2615    24.2880    28.6799
     27  C    Isotropic =    45.8108   Anisotropy =   207.2710
   XX=    -2.7702   YX=    13.7697   ZX=   -61.4651
   XY=     6.5593   YY=   -12.0335   ZY=   -41.6456
   XZ=   -62.6381   YZ=   -44.9232   ZZ=   152.2361
   Eigenvalues:   -28.0803   -18.4787   183.9915
     28  C    Isotropic =    47.8398   Anisotropy =   197.2870
   XX=    19.6900   YX=    14.4398   ZX=   -60.5682
   XY=    28.5650   YY=   -19.3566   ZY=   -56.7015
   XZ=   -63.1331   YZ=   -24.4782   ZZ=   143.1859
   Eigenvalues:   -30.5979    -5.2472   179.3644
     29  C    Isotropic =    49.3441   Anisotropy =   179.7793
   XX=    -3.4110   YX=    38.3775   ZX=   -80.8875
   XY=    36.1252   YY=    25.9805   ZY=   -23.7573
   XZ=   -78.1065   YZ=    -3.9802   ZZ=   125.4627
   Eigenvalues:   -51.6645    30.4997   169.1970
     30  H    Isotropic =    23.1387   Anisotropy =    13.3222
   XX=    22.4354   YX=    -0.7013   ZX=    -0.2375
   XY=    -2.1539   YY=    28.3546   ZY=     4.5555
   XZ=    -3.4181   YZ=     8.3231   ZZ=    18.6259
   Eigenvalues:    15.2751    22.1208    32.0201
     31  C    Isotropic =    55.4410   Anisotropy =   174.9390
   XX=    17.1871   YX=   -14.0890   ZX=   -84.0024
   XY=   -17.9030   YY=    37.4745   ZY=   -50.3662
   XZ=   -84.6557   YZ=   -54.8325   ZZ=   111.6615
   Eigenvalues:   -51.9248    46.1808   172.0670
     32  H    Isotropic =    24.5337   Anisotropy =     7.2554
   XX=    24.6185   YX=    -2.5264   ZX=     0.7632
   XY=    -2.7385   YY=    27.4630   ZY=     1.0335
   XZ=     1.1913   YZ=     3.7573   ZZ=    21.5194
   Eigenvalues:    19.8987    24.3316    29.3706
     33  C    Isotropic =    53.1814   Anisotropy =   179.0596
   XX=    60.9231   YX=    35.2256   ZX=   -42.9515
   XY=    32.0226   YY=   -38.1801   ZY=   -45.5652
   XZ=   -44.2248   YZ=   -50.7831   ZZ=   136.8014
   Eigenvalues:   -55.1197    42.1095   172.5545
     34  H    Isotropic =    24.2825   Anisotropy =     5.1861
   XX=    26.7643   YX=    -0.0934   ZX=     2.5955
   XY=    -0.2993   YY=    24.8157   ZY=     0.8589
   XZ=     2.3715   YZ=     1.4580   ZZ=    21.2676
   Eigenvalues:    20.0339    25.0737    27.7399
     35  C    Isotropic =    51.5295   Anisotropy =   155.1748
   XX=    -0.5131   YX=    52.5760   ZX=   -52.1551
   XY=    55.6135   YY=    25.1843   ZY=   -14.2643
   XZ=   -45.7255   YZ=   -17.1625   ZZ=   129.9171
   Eigenvalues:   -48.3147    47.9237   154.9793
     36  H    Isotropic =    23.8384   Anisotropy =     7.3073
   XX=    24.2302   YX=     1.4459   ZX=     2.1759
   XY=     1.2147   YY=    27.1572   ZY=     2.0665
   XZ=     1.6853   YZ=     2.7775   ZZ=    20.1277
   Eigenvalues:    18.9464    23.8588    28.7099
     37  Bq   Isotropic =     7.1668   Anisotropy =    13.9927
   XX=     1.9771   YX=     4.0467   ZX=     0.5989
   XY=    -1.2068   YY=    12.6661   ZY=    -1.2815
   XZ=    14.1940   YZ=    -9.4737   ZZ=     6.8571
   Eigenvalues:    -4.4984     9.5035    16.4953
     38  Bq   Isotropic =    12.0109   Anisotropy =    16.6847
   XX=     8.4652   YX=     2.5850   ZX=    -0.1494
   XY=    -2.1542   YY=    23.1256   ZY=     2.2209
   XZ=     9.6395   YZ=    -2.9559   ZZ=     4.4417
   Eigenvalues:     1.2913    11.6073    23.1340
     39  Bq   Isotropic =     6.1099   Anisotropy =    14.9293
   XX=     0.4232   YX=     3.9481   ZX=     0.3767
   XY=    -1.0650   YY=    10.1709   ZY=    -1.9158
   XZ=    13.9114   YZ=   -10.2016   ZZ=     7.7357
   Eigenvalues:    -5.2903     7.5574    16.0628
     40  Bq   Isotropic =    12.9941   Anisotropy =    17.7848
   XX=     9.4001   YX=     1.6766   ZX=    -0.3019
   XY=    -2.3250   YY=    24.8047   ZY=     2.9538
   XZ=     7.3896   YZ=    -1.0698   ZZ=     4.7774
   Eigenvalues:     2.8138    11.3178    24.8506
     41  Bq   Isotropic =     5.2052   Anisotropy =    15.8169
   XX=    -0.8618   YX=     3.7424   ZX=     0.0322
   XY=    -0.9748   YY=     7.9879   ZY=    -2.4090
   XZ=    13.2500   YZ=   -10.5659   ZZ=     8.4894
   Eigenvalues:    -5.7578     5.6236    15.7498
     42  Bq   Isotropic =    13.7654   Anisotropy =    18.3518
   XX=    10.0307   YX=     0.6220   ZX=    -0.0609
   XY=    -2.3748   YY=    25.7854   ZY=     3.4231
   XZ=     5.2141   YZ=     0.5177   ZZ=     5.4801
   Eigenvalues:     4.1035    11.1928    25.9999
     43  Bq   Isotropic =     4.4544   Anisotropy =    16.4521
   XX=    -1.8520   YX=     3.4696   ZX=    -0.3746
   XY=    -0.9250   YY=     6.1431   ZY=    -2.7755
   XZ=    12.3468   YZ=   -10.6408   ZZ=     9.0721
   Eigenvalues:    -5.9489     3.8897    15.4225
     44  Bq   Isotropic =    14.3215   Anisotropy =    18.3186
   XX=    10.5935   YX=    -0.4812   ZX=     0.6757
   XY=    -2.2680   YY=    26.1030   ZY=     3.5958
   XZ=     3.3712   YZ=     1.7539   ZZ=     6.2682
   Eigenvalues:     5.0436    11.3870    26.5340
     45  Bq   Isotropic =     9.6064   Anisotropy =    14.0316
   XX=     5.5001   YX=     3.7512   ZX=     0.4928
   XY=    -1.6473   YY=    18.1906   ZY=     0.3828
   XZ=    13.1127   YZ=    -6.7946   ZZ=     5.1285
   Eigenvalues:    -1.9507    11.8091    18.9608
     46  Bq   Isotropic =    10.3831   Anisotropy =    14.0187
   XX=     5.1071   YX=     3.3782   ZX=    -0.3592
   XY=    -1.6329   YY=    15.9214   ZY=    -1.6213
   XZ=    12.3485   YZ=    -9.4582   ZZ=    10.1209
   Eigenvalues:     0.1275    11.2930    19.7289
     47  Bq   Isotropic =    13.9807   Anisotropy =    13.5404
   XX=     9.4571   YX=     1.7176   ZX=    -1.0601
   XY=    -2.8786   YY=    21.9215   ZY=    -0.2760
   XZ=     9.4343   YZ=    -6.2452   ZZ=    10.5636
   Eigenvalues:     5.5963    13.3383    23.0077
     48  Bq   Isotropic =     8.7619   Anisotropy =    14.9827
   XX=     3.0353   YX=     3.7381   ZX=    -0.3053
   XY=    -1.2168   YY=    12.9571   ZY=    -2.1660
   XZ=    12.8286   YZ=   -10.4898   ZZ=    10.2933
   Eigenvalues:    -1.9228     9.4582    18.7504
     49  Bq   Isotropic =    15.7269   Anisotropy =    13.9101
   XX=    11.3378   YX=     0.4248   ZX=    -1.5780
   XY=    -3.6188   YY=    24.4015   ZY=     0.3970
   XZ=     7.1348   YZ=    -4.3759   ZZ=    11.4415
   Eigenvalues:     8.6063    13.5741    25.0003
     50  Bq   Isotropic =     7.3506   Anisotropy =    16.0200
   XX=     1.2333   YX=     3.8449   ZX=    -0.4283
   XY=    -0.9396   YY=    10.2727   ZY=    -2.5958
   XZ=    12.7590   YZ=   -11.0967   ZZ=    10.5456
   Eigenvalues:    -3.4236     7.4448    18.0305
     51  Bq   Isotropic =    17.2587   Anisotropy =    14.2795
   XX=    12.8173   YX=    -1.0630   ZX=    -1.9958
   XY=    -4.3055   YY=    26.1699   ZY=     0.9309
   XZ=     4.6235   YZ=    -2.6886   ZZ=    12.7888
   Eigenvalues:    11.3614    13.6363    26.7784
     52  Bq   Isotropic =     6.1683   Anisotropy =    16.8599
   XX=    -0.2314   YX=     3.7624   ZX=    -0.6740
   XY=    -0.7771   YY=     7.9546   ZY=    -2.9160
   XZ=    12.2796   YZ=   -11.3329   ZZ=    10.7818
   Eigenvalues:    -4.4137     5.5104    17.4083
     53  Bq   Isotropic =    18.4689   Anisotropy =    14.3964
   XX=    13.9040   YX=    -2.5749   ZX=    -2.1173
   XY=    -4.8016   YY=    27.1047   ZY=     1.2166
   XZ=     2.2950   YZ=    -1.4414   ZZ=    14.3982
   Eigenvalues:    12.9411    14.3992    28.0665
     54  Bq   Isotropic =     5.2054   Anisotropy =    17.3991
   XX=    -1.3497   YX=     3.5528   ZX=    -0.9847
   XY=    -0.6985   YY=     6.0224   ZY=    -3.1420
   XZ=    11.5312   YZ=   -11.2807   ZZ=    10.9437
   Eigenvalues:    -4.9783     3.7898    16.8048
     55  Bq   Isotropic =    19.3039   Anisotropy =    14.1246
   XX=    14.7676   YX=    -3.9101   ZX=    -1.8207
   XY=    -4.9788   YY=    27.2877   ZY=     1.2051
   XZ=     0.4685   YZ=    -0.7059   ZZ=    15.8563
   Eigenvalues:    13.2269    15.9645    28.7203
     56  Bq   Isotropic =    12.1560   Anisotropy =    13.4960
   XX=     7.3121   YX=     2.7123   ZX=    -0.6193
   XY=    -2.1947   YY=    18.9945   ZY=    -0.9762
   XZ=    11.2191   YZ=    -8.0095   ZZ=    10.1613
   Eigenvalues:     2.6842    12.6304    21.1533
     57  Bq   Isotropic =    12.4541   Anisotropy =    14.8640
   XX=     6.5041   YX=     2.6050   ZX=    -1.1439
   XY=    -1.7999   YY=    16.0940   ZY=    -2.5506
   XZ=    10.5241   YZ=   -10.1588   ZZ=    14.7642
   Eigenvalues:     3.5133    11.4856    22.3634
     58  Bq   Isotropic =    17.1496   Anisotropy =    12.6155
   XX=    11.7418   YX=    -0.0689   ZX=    -1.8350
   XY=    -3.7245   YY=    22.4847   ZY=    -1.6210
   XZ=     7.0423   YZ=    -7.0640   ZZ=    17.2224
   Eigenvalues:    10.6995    15.1894    25.5600
     59  Bq   Isotropic =    10.3896   Anisotropy =    16.1303
   XX=     4.1108   YX=     3.2940   ZX=    -1.0807
   XY=    -1.1906   YY=    12.9579   ZY=    -2.8959
   XZ=    11.2602   YZ=   -11.1254   ZZ=    14.1000
   Eigenvalues:     0.6168     9.4088    21.1431
     60  Bq   Isotropic =    19.4752   Anisotropy =    11.9961
   XX=    14.1344   YX=    -2.0067   ZX=    -2.4232
   XY=    -4.9362   YY=    25.0863   ZY=    -1.1404
   XZ=     4.4489   YZ=    -5.3025   ZZ=    19.2049
   Eigenvalues:    13.1257    17.8273    27.4726
     61  Bq   Isotropic =     8.6191   Anisotropy =    17.2031
   XX=     2.0669   YX=     3.6250   ZX=    -1.1673
   XY=    -0.7977   YY=    10.1460   ZY=    -3.1481
   XZ=    11.4230   YZ=   -11.6566   ZZ=    13.6442
   Eigenvalues:    -1.5533     7.3227    20.0878
     62  Bq   Isotropic =    21.5146   Anisotropy =    11.7795
   XX=    16.0817   YX=    -4.1384   ZX=    -3.0661
   XY=    -6.1179   YY=    26.8441   ZY=    -0.7935
   XZ=     1.6684   YZ=    -3.8430   ZZ=    21.6179
   Eigenvalues:    13.7314    21.4447    29.3675
     63  Bq   Isotropic =     7.1557   Anisotropy =    17.9612
   XX=     0.4260   YX=     3.6833   ZX=    -1.3538
   XY=    -0.5764   YY=     7.7459   ZY=    -3.3184
   XZ=    11.1505   YZ=   -11.8103   ZZ=    13.2952
   Eigenvalues:    -3.0452     5.3826    19.1298
     64  Bq   Isotropic =    23.0805   Anisotropy =    11.8026
   XX=    17.5024   YX=    -6.1698   ZX=    -3.6455
   XY=    -7.0390   YY=    27.6122   ZY=    -0.7208
   XZ=    -0.8532   YZ=    -3.0362   ZZ=    24.1269
   Eigenvalues:    13.4766    24.8160    30.9489
     65  Bq   Isotropic =     5.9779   Anisotropy =    18.3778
   XX=    -0.8188   YX=     3.5533   ZX=    -1.5911
   XY=    -0.4771   YY=     5.7701   ZY=    -3.4233
   XZ=    10.5835   YZ=   -11.6745   ZZ=    12.9825
   Eigenvalues:    -3.9739     3.6780    18.2298
     66  Bq   Isotropic =    24.0726   Anisotropy =    11.7119
   XX=    18.5090   YX=    -7.7656   ZX=    -4.0552
   XY=    -7.4683   YY=    27.5406   ZY=    -1.0061
   XZ=    -2.7304   YZ=    -3.0023   ZZ=    26.1682
   Eigenvalues:    12.9917    27.3456    31.8806
     67  Bq   Isotropic =    14.7489   Anisotropy =    13.6175
   XX=     9.1163   YX=     1.4906   ZX=    -1.3939
   XY=    -2.6504   YY=    19.3672   ZY=    -2.1153
   XZ=     9.1184   YZ=    -8.7662   ZZ=    15.7633
   Eigenvalues:     7.0340    13.3855    23.8272
     68  Bq   Isotropic =    14.3774   Anisotropy =    16.1549
   XX=     7.6812   YX=     1.8074   ZX=    -1.6644
   XY=    -1.8184   YY=    15.9535   ZY=    -3.1690
   XZ=     8.6213   YZ=   -10.3306   ZZ=    19.4975
   Eigenvalues:     6.2657    11.7192    25.1474
     69  Bq   Isotropic =    20.0102   Anisotropy =    13.1430
   XX=    13.4522   YX=    -1.8272   ZX=    -2.0615
   XY=    -4.2363   YY=    22.6299   ZY=    -2.4897
   XZ=     4.6615   YZ=    -7.2180   ZZ=    23.9484
   Eigenvalues:    12.5386    18.7197    28.7722
     70  Bq   Isotropic =    11.9184   Anisotropy =    17.4698
   XX=     5.0607   YX=     2.8010   ZX=    -1.6907
   XY=    -1.0794   YY=    12.7038   ZY=    -3.3803
   XZ=     9.5903   YZ=   -11.2976   ZZ=    17.9906
   Eigenvalues:     2.8197     9.3706    23.5649
     71  Bq   Isotropic =    22.7798   Anisotropy =    11.8995
   XX=    16.0519   YX=    -4.4117   ZX=    -2.5764
   XY=    -5.8084   YY=    25.3029   ZY=    -2.1112
   XZ=     1.8104   YZ=    -5.5021   ZZ=    26.9846
   Eigenvalues:    13.5023    24.1243    30.7128
     72  Bq   Isotropic =     9.8239   Anisotropy =    18.4620
   XX=     2.8355   YX=     3.3415   ZX=    -1.8095
   XY=    -0.6148   YY=     9.8202   ZY=    -3.5086
   XZ=     9.9790   YZ=   -11.8164   ZZ=    16.8159
   Eigenvalues:     0.1336     7.2061    22.1319
     73  Bq   Isotropic =    25.1293   Anisotropy =    11.1817
   XX=    18.0489   YX=    -7.2303   ZX=    -3.3716
   XY=    -7.3751   YY=    26.9785   ZY=    -1.8749
   XZ=    -1.2473   YZ=    -4.2374   ZZ=    30.3605
   Eigenvalues:    13.2299    29.5743    32.5838
     74  Bq   Isotropic =     8.1040   Anisotropy =    19.0828
   XX=     1.0559   YX=     3.5355   ZX=    -1.9810
   XY=    -0.3625   YY=     7.3870   ZY=    -3.5722
   XZ=     9.9191   YZ=   -11.9477   ZZ=    15.8691
   Eigenvalues:    -1.7706     5.2568    20.8259
     75  Bq   Isotropic =    26.7798   Anisotropy =    12.1050
   XX=    19.2838   YX=    -9.8649   ZX=    -4.4907
   XY=    -8.6210   YY=    27.4632   ZY=    -1.9776
   XZ=    -4.0419   YZ=    -3.9071   ZZ=    33.5923
   Eigenvalues:    12.0219    33.4677    34.8497
     76  Bq   Isotropic =     6.7281   Anisotropy =    19.3473
   XX=    -0.2929   YX=     3.4869   ZX=    -2.1716
   XY=    -0.2584   YY=     5.4079   ZY=    -3.5901
   XZ=     9.5458   YZ=   -11.7835   ZZ=    15.0694
   Eigenvalues:    -3.0106     3.5686    19.6263
     77  Bq   Isotropic =    27.6091   Anisotropy =    15.5331
   XX=    19.8893   YX=   -11.8126   ZX=    -5.9096
   XY=    -9.2137   YY=    26.9794   ZY=    -2.5645
   XZ=    -6.1201   YZ=    -4.7195   ZZ=    35.9588
   Eigenvalues:    10.4149    34.4480    37.9645
     78  Bq   Isotropic =    17.1271   Anisotropy =    14.6453
   XX=    10.5576   YX=     0.2741   ZX=    -1.7734
   XY=    -2.8736   YY=    19.3713   ZY=    -2.8660
   XZ=     6.9795   YZ=    -8.9268   ZZ=    21.4524
   Eigenvalues:     9.9674    14.5232    26.8906
     79  Bq   Isotropic =    15.9830   Anisotropy =    17.8643
   XX=     8.4552   YX=     1.1212   ZX=    -1.9186
   XY=    -1.6196   YY=    15.5902   ZY=    -3.4454
   XZ=     6.7736   YZ=    -9.9582   ZZ=    23.9035
   Eigenvalues:     7.9619    12.0945    27.8925
     80  Bq   Isotropic =    22.2391   Anisotropy =    15.5001
   XX=    14.1344   YX=    -3.2820   ZX=    -1.7352
   XY=    -4.2247   YY=    22.5276   ZY=    -2.8325
   XZ=     2.4872   YZ=    -6.6663   ZZ=    30.0555
   Eigenvalues:    12.5853    21.5596    32.5725
     81  Bq   Isotropic =    13.2270   Anisotropy =    18.9649
   XX=     5.7695   YX=     2.3478   ZX=    -2.1269
   XY=    -0.8466   YY=    12.2635   ZY=    -3.5957
   XZ=     7.9253   YZ=   -10.9954   ZZ=    21.6478
   Eigenvalues:     4.4496     9.3610    25.8703
     82  Bq   Isotropic =    25.1992   Anisotropy =    15.2016
   XX=    16.3879   YX=    -6.4316   ZX=    -2.0073
   XY=    -5.9545   YY=    25.2843   ZY=    -2.4475
   XZ=    -0.5565   YZ=    -4.9039   ZZ=    33.9253
   Eigenvalues:    12.8263    27.4376    35.3336
     83  Bq   Isotropic =    10.8793   Anisotropy =    19.7510
   XX=     3.4663   YX=     3.0497   ZX=    -2.3414
   XY=    -0.3737   YY=     9.3488   ZY=    -3.6606
   XZ=     8.5104   YZ=   -11.5673   ZZ=    19.8228
   Eigenvalues:     1.4878     7.1035    24.0466
     84  Bq   Isotropic =    27.5036   Anisotropy =    16.9574
   XX=    17.6640   YX=    -9.9080   ZX=    -2.8339
   XY=    -7.6912   YY=    26.8737   ZY=    -2.2067
   XZ=    -3.8852   YZ=    -3.7488   ZZ=    37.9731
   Eigenvalues:    11.5969    32.1053    38.8085
     85  Bq   Isotropic =     8.9533   Anisotropy =    20.1768
   XX=     1.6123   YX=     3.3518   ZX=    -2.5399
   XY=    -0.1292   YY=     6.9203   ZY=    -3.6664
   XZ=     8.6496   YZ=   -11.7375   ZZ=    18.3273
   Eigenvalues:    -0.6869     5.1423    22.4045
     86  Bq   Isotropic =    28.7658   Anisotropy =    21.2185
   XX=    17.7409   YX=   -13.1958   ZX=    -4.5207
   XY=    -9.0567   YY=    27.0028   ZY=    -2.3715
   XZ=    -7.0522   YZ=    -3.8462   ZZ=    41.5536
   Eigenvalues:     9.0060    34.3798    42.9115
     87  Bq   Isotropic =     7.4141   Anisotropy =    20.2645
   XX=     0.1982   YX=     3.3724   ZX=    -2.7104
   XY=    -0.0419   YY=     4.9694   ZY=    -3.6360
   XZ=     8.4670   YZ=   -11.6011   ZZ=    17.0746
   Eigenvalues:    -2.1517     3.4702    20.9237
     88  Bq   Isotropic =    28.8800   Anisotropy =    26.0321
   XX=    16.9102   YX=   -15.6065   ZX=    -7.2357
   XY=    -9.6360   YY=    25.9333   ZY=    -3.1614
   XZ=    -9.5504   YZ=    -5.5282   ZZ=    43.7963
   Eigenvalues:     5.7127    34.6925    46.2347
     89  Bq   Isotropic =    19.0551   Anisotropy =    16.6022
   XX=    11.3469   YX=    -0.7388   ZX=    -1.7595
   XY=    -2.7457   YY=    19.1299   ZY=    -3.1888
   XZ=     4.9665   YZ=    -8.4668   ZZ=    26.6886
   Eigenvalues:    10.9640    16.0781    30.1232
     90  Bq   Isotropic =    17.1493   Anisotropy =    19.7693
   XX=     8.7538   YX=     0.6705   ZX=    -1.9458
   XY=    -1.1680   YY=    15.0917   ZY=    -3.4513
   XZ=     5.0887   YZ=    -9.1289   ZZ=    27.6023
   Eigenvalues:     8.6071    12.5119    30.3288
     91  Bq   Isotropic =    23.6211   Anisotropy =    18.8921
   XX=    13.6216   YX=    -4.1345   ZX=    -0.9284
   XY=    -3.5572   YY=    22.3257   ZY=    -2.7958
   XZ=     0.6690   YZ=    -5.5417   ZZ=    34.9159
   Eigenvalues:    12.0478    22.5997    36.2158
     92  Bq   Isotropic =    14.2255   Anisotropy =    20.4867
   XX=     6.1868   YX=     2.0132   ZX=    -2.4084
   XY=    -0.4771   YY=    11.7075   ZY=    -3.5911
   XZ=     6.3568   YZ=   -10.2860   ZZ=    24.7821
   Eigenvalues:     5.4140     9.3791    27.8833
     93  Bq   Isotropic =    26.4514   Anisotropy =    20.1163
   XX=    14.8744   YX=    -7.6185   ZX=    -0.7704
   XY=    -5.1497   YY=    25.2359   ZY=    -2.3404
   XZ=    -2.4674   YZ=    -3.6525   ZZ=    39.2441
   Eigenvalues:    11.5578    27.9343    39.8623
     94  Bq   Isotropic =    11.7197   Anisotropy =    20.9852
   XX=     3.9234   YX=     2.7992   ZX=    -2.7675
   XY=    -0.0701   YY=     8.7888   ZY=    -3.6381
   XZ=     7.0932   YZ=   -10.9601   ZZ=    22.4470
   Eigenvalues:     2.4340     7.0154    25.7099
     95  Bq   Isotropic =    28.2719   Anisotropy =    23.6908
   XX=    14.4876   YX=   -11.5355   ZX=    -1.4393
   XY=    -6.7160   YY=    26.8162   ZY=    -2.0044
   XZ=    -6.0167   YZ=    -2.4987   ZZ=    43.5118
   Eigenvalues:     9.0899    31.6600    44.0657
     96  Bq   Isotropic =     9.6559   Anisotropy =    21.1825
   XX=     2.0692   YX=     3.1629   ZX=    -3.0259
   XY=     0.1227   YY=     6.3915   ZY=    -3.6255
   XZ=     7.4033   YZ=   -11.2174   ZZ=    20.5070
   Eigenvalues:     0.1495     5.0407    23.7776
     97  Bq   Isotropic =    28.5626   Anisotropy =    29.3687
   XX=    12.1635   YX=   -15.3266   ZX=    -3.6003
   XY=    -7.8483   YY=    26.6040   ZY=    -2.0819
   XZ=    -9.6201   YZ=    -2.8824   ZZ=    46.9202
   Eigenvalues:     4.5779    32.9682    48.1417
     98  Bq   Isotropic =     8.0012   Anisotropy =    21.0842
   XX=     0.6355   YX=     3.2283   ZX=    -3.1985
   XY=     0.1695   YY=     4.4907   ZY=    -3.5789
   XZ=     7.3955   YZ=   -11.1550   ZZ=    18.8775
   Eigenvalues:    -1.4385     3.3849    22.0574
     99  Bq   Isotropic =    27.2583   Anisotropy =    35.5941
   XX=     8.4903   YX=   -18.1504   ZX=    -7.7641
   XY=    -8.0913   YY=    24.8096   ZY=    -2.8334
   XZ=   -12.7580   YZ=    -5.2678   ZZ=    48.4749
   Eigenvalues:    -1.2116    31.9987    50.9877
    100  Bq   Isotropic =    20.3703   Anisotropy =    19.0710
   XX=    11.3767   YX=    -1.3541   ZX=    -1.4130
   XY=    -2.1949   YY=    18.7545   ZY=    -3.1878
   XZ=     3.2048   YZ=    -7.4966   ZZ=    30.9799
   Eigenvalues:    10.9660    17.0606    33.0843
    101  Bq   Isotropic =    17.8253   Anisotropy =    21.5306
   XX=     8.6473   YX=     0.5438   ZX=    -1.8259
   XY=    -0.4781   YY=    14.5022   ZY=    -3.3260
   XZ=     3.6286   YZ=    -8.0143   ZZ=    30.3265
   Eigenvalues:     8.5937    12.7033    32.1790
    102  Bq   Isotropic =    24.1085   Anisotropy =    22.0363
   XX=    12.1637   YX=    -4.1186   ZX=     0.1946
   XY=    -2.2106   YY=    22.0551   ZY=    -2.6560
   XZ=    -0.7243   YZ=    -4.1285   ZZ=    38.1066
   Eigenvalues:    11.1820    22.3441    38.7993
    103  Bq   Isotropic =    14.8701   Anisotropy =    21.8499
   XX=     6.3439   YX=     1.8511   ZX=    -2.5809
   XY=     0.0139   YY=    11.0811   ZY=    -3.4647
   XZ=     4.9463   YZ=    -9.3009   ZZ=    27.1853
   Eigenvalues:     5.7907     9.3829    29.4367
    104  Bq   Isotropic =    26.5214   Anisotropy =    24.2882
   XX=    11.9340   YX=    -7.5124   ZX=     0.9535
   XY=    -3.3118   YY=    25.1955   ZY=    -2.1625
   XZ=    -3.8247   YZ=    -2.0889   ZZ=    42.4348
   Eigenvalues:     9.8741    26.9767    42.7135
    105  Bq   Isotropic =    12.3090   Anisotropy =    22.0577
   XX=     4.2170   YX=     2.6243   ZX=    -3.1096
   XY=     0.2835   YY=     8.1824   ZY=    -3.5111
   XZ=     5.7847   YZ=   -10.0945   ZZ=    24.5276
   Eigenvalues:     2.9811     6.9317    27.0141
    106  Bq   Isotropic =    27.4940   Anisotropy =    28.8668
   XX=     9.1795   YX=   -11.3524   ZX=     0.6849
   XY=    -4.2672   YY=    26.8897   ZY=    -1.7363
   XZ=    -7.4769   YZ=    -0.8455   ZZ=    46.4127
   Eigenvalues:     5.9018    29.8417    46.7385
    107  Bq   Isotropic =    10.1827   Anisotropy =    22.0341
   XX=     2.4259   YX=     2.9915   ZX=    -3.4460
   XY=     0.3837   YY=     5.8372   ZY=    -3.4993
   XZ=     6.2306   YZ=   -10.4627   ZZ=    22.2851
   Eigenvalues:     0.7295     4.9465    24.8721
    108  Bq   Isotropic =    26.3497   Anisotropy =    35.5648
   XX=     3.4725   YX=   -15.0936   ZX=    -1.6834
   XY=    -4.6762   YY=    26.4460   ZY=    -1.6301
   XZ=   -11.4712   YZ=    -1.2959   ZZ=    49.1308
   Eigenvalues:    -1.0832    30.0727    50.0596
    109  Bq   Isotropic =     8.4666   Anisotropy =    21.7639
   XX=     1.0134   YX=     3.0697   ZX=    -3.6344
   XY=     0.3692   YY=     4.0018   ZY=    -3.4551
   XZ=     6.3731   YZ=   -10.5013   ZZ=    20.3845
   Eigenvalues:    -0.8853     3.3092    22.9758
    110  Bq   Isotropic =    23.0524   Anisotropy =    43.1213
   XX=    -4.2548   YX=   -17.8383   ZX=    -7.1382
   XY=    -4.1209   YY=    23.8912   ZY=    -2.0473
   XZ=   -15.3377   YZ=    -3.9991   ZZ=    49.5207
   Eigenvalues:   -10.2857    27.6429    51.7999
    111  Bq   Isotropic =    21.0179   Anisotropy =    21.4009
   XX=    10.7847   YX=    -1.4201   ZX=    -0.8566
   XY=    -1.2260   YY=    18.2827   ZY=    -3.0607
   XZ=     1.7564   YZ=    -6.2393   ZZ=    33.9865
   Eigenvalues:    10.5524    17.2162    35.2852
    112  Bq   Isotropic =    18.0360   Anisotropy =    22.8494
   XX=     8.3265   YX=     0.7625   ZX=    -1.6710
   XY=     0.3750   YY=    13.8105   ZY=    -3.2167
   XZ=     2.4050   YZ=    -6.8265   ZZ=    31.9711
   Eigenvalues:     8.2283    12.6107    33.2689
    113  Bq   Isotropic =    23.8369   Anisotropy =    24.1334
   XX=    10.3885   YX=    -3.1269   ZX=     1.3709
   XY=    -0.3325   YY=    21.6035   ZY=    -2.6823
   XZ=    -1.7226   YZ=    -2.7791   ZZ=    39.5186
   Eigenvalues:    10.1161    21.4687    39.9258
    114  Bq   Isotropic =    15.1668   Anisotropy =    22.8866
   XX=     6.3409   YX=     1.8746   ZX=    -2.7098
   XY=     0.5773   YY=    10.3948   ZY=    -3.3252
   XZ=     3.7199   YZ=    -8.2034   ZZ=    28.7647
   Eigenvalues:     5.7571     9.3188    30.4245
    115  Bq   Isotropic =    25.6891   Anisotropy =    26.7929
   XX=     8.6598   YX=    -5.8752   ZX=     2.8198
   XY=    -0.6271   YY=    24.9843   ZY=    -2.2752
   XZ=    -4.6564   YZ=    -0.6489   ZZ=    43.4231
   Eigenvalues:     7.9969    25.5193    43.5510
    116  Bq   Isotropic =    12.6433   Anisotropy =    22.8737
   XX=     4.3959   YX=     2.5358   ZX=    -3.4027
   XY=     0.6563   YY=     7.5488   ZY=    -3.3596
   XZ=     4.6180   YZ=    -9.0965   ZZ=    25.9852
   Eigenvalues:     3.2043     6.8332    27.8925
    117  Bq   Isotropic =    25.7139   Anisotropy =    31.7055
   XX=     3.5633   YX=    -8.8759   ZX=     3.1692
   XY=    -0.5642   YY=    26.8803   ZY=    -1.8792
   XZ=    -8.2323   YZ=     0.7165   ZZ=    46.6980
   Eigenvalues:     2.4916    27.7991    46.8508
    118  Bq   Isotropic =    10.5255   Anisotropy =    22.6774
   XX=     2.7036   YX=     2.8474   ZX=    -3.8163
   XY=     0.6354   YY=     5.2779   ZY=    -3.3471
   XZ=     5.1652   YZ=    -9.5698   ZZ=    23.5950
   Eigenvalues:     1.0841     4.8487    25.6438
    119  Bq   Isotropic =    23.1010   Anisotropy =    38.8642
   XX=    -5.4845   YX=   -11.6162   ZX=     0.9991
   XY=     0.2037   YY=    26.3736   ZY=    -1.6200
   XZ=   -12.4031   YZ=     0.4390   ZZ=    48.4138
   Eigenvalues:    -7.0653    27.3578    49.0105
    120  Bq   Isotropic =     8.8004   Anisotropy =    22.2718
   XX=     1.3385   YX=     2.9057   ZX=    -4.0234
   XY=     0.5463   YY=     3.5216   ZY=    -3.3080
   XZ=     5.4306   YZ=    -9.7135   ZZ=    21.5411
   Eigenvalues:    -0.4826     3.2356    23.6482
    121  Bq   Isotropic =    17.8258   Anisotropy =    47.3176
   XX=   -17.2761   YX=   -13.2807   ZX=    -5.1594
   XY=     1.9349   YY=    23.2191   ZY=    -1.5195
   XZ=   -16.7975   YZ=    -2.0437   ZZ=    47.5345
   Eigenvalues:   -19.8894    23.9960    49.3709
    122  Bq   Isotropic =    21.0599   Anisotropy =    23.0768
   XX=     9.9217   YX=    -0.8906   ZX=    -0.2688
   XY=     0.0522   YY=    17.6629   ZY=    -3.0064
   XZ=     0.6112   YZ=    -4.9696   ZZ=    35.5951
   Eigenvalues:     9.8990    16.8363    36.4444
    123  Bq   Isotropic =    17.8689   Anisotropy =    23.5772
   XX=     8.0296   YX=     1.2572   ZX=    -1.6042
   XY=     1.2611   YY=    12.9741   ZY=    -3.2203
   XZ=     1.3894   YZ=    -5.7610   ZZ=    32.6030
   Eigenvalues:     7.6859    12.3337    33.5871
    124  Bq   Isotropic =    23.0764   Anisotropy =    24.9100
   XX=     9.0604   YX=    -1.3351   ZX=     2.2863
   XY=     1.7438   YY=    20.7909   ZY=    -3.0006
   XZ=    -2.4352   YZ=    -1.7993   ZZ=    39.3778
   Eigenvalues:     9.0568    20.4893    39.6830
    125  Bq   Isotropic =    15.1640   Anisotropy =    23.5078
[...]
   133  Bq   0.000000
   134  Bq   0.000000
   135  Bq   0.000000
   136  Bq   0.000000
   137  Bq   0.000000
   138  Bq   0.000000
   139  Bq   0.000000
   140  Bq   0.000000
   141  Bq   0.000000
   142  Bq   0.000000
   143  Bq   0.000000
   144  Bq   0.000000
   145  Bq   0.000000
   146  Bq   0.000000
   147  Bq   0.000000
   148  Bq   0.000000
   149  Bq   0.000000
   150  Bq   0.000000
   151  Bq   0.000000
   152  Bq   0.000000
   153  Bq   0.000000
   154  Bq   0.000000
   155  Bq   0.000000
   156  Bq   0.000000
   157  Bq   0.000000
   158  Bq   0.000000
   159  Bq   0.000000
   160  Bq   0.000000
   161  Bq   0.000000
   162  Bq   0.000000
   163  Bq   0.000000
   164  Bq   0.000000
   165  Bq   0.000000
   166  Bq   0.000000
   167  Bq   0.000000
   168  Bq   0.000000
   169  Bq   0.000000
   170  Bq   0.000000
   171  Bq   0.000000
   172  Bq   0.000000
   173  Bq   0.000000
   174  Bq   0.000000
   175  Bq   0.000000
   176  Bq   0.000000
   177  Bq   0.000000
   178  Bq   0.000000
   179  Bq   0.000000
   180  Bq   0.000000
   181  Bq   0.000000
   182  Bq   0.000000
   183  Bq   0.000000
   184  Bq   0.000000
   185  Bq   0.000000
   186  Bq   0.000000
   187  Bq   0.000000
   188  Bq   0.000000
   189  Bq   0.000000
   190  Bq   0.000000
   191  Bq   0.000000
   192  Bq   0.000000
   193  Bq   0.000000
   194  Bq   0.000000
   195  Bq   0.000000
   196  Bq   0.000000
   197  Bq   0.000000
   198  Bq   0.000000
   199  Bq   0.000000
   200  Bq   0.000000
   201  Bq   0.000000
   202  Bq   0.000000
   203  Bq   0.000000
   204  Bq   0.000000
   205  Bq   0.000000
   206  Bq   0.000000
   207  Bq   0.000000
   208  Bq   0.000000
   209  Bq   0.000000
   210  Bq   0.000000
   211  Bq   0.000000
   212  Bq   0.000000
   213  Bq   0.000000
   214  Bq   0.000000
   215  Bq   0.000000
   216  Bq   0.000000
   217  Bq   0.000000
   218  Bq   0.000000
   219  Bq   0.000000
   220  Bq   0.000000
   221  Bq   0.000000
   222  Bq   0.000000
   223  Bq   0.000000
   224  Bq   0.000000
   225  Bq   0.000000
   226  Bq   0.000000
   227  Bq   0.000000
   228  Bq   0.000000
   229  Bq   0.000000
   230  Bq   0.000000
   231  Bq   0.000000
   232  Bq   0.000000
   233  Bq   0.000000
   234  Bq   0.000000
   235  Bq   0.000000
   236  Bq   0.000000
 Sum of Mulliken charges =   0.00000
 Mulliken charges with hydrogens summed into heavy atoms:
               1
     1  C   -0.255498
     3  C    0.169409
     5  C    0.448258
     6  C    0.064351
     7  C   -0.333926
     9  C   -0.139521
    11  C   -0.205988
    13  C   -0.119315
    15  C    0.653397
    16  C    0.034822
    17  C   -0.317410
    19  C   -0.316854
    21  C    0.651066
    22  C    0.037784
    23  C   -0.117289
    25  C   -0.205316
    27  C    0.448331
    28  C    0.061983
    29  C   -0.333381
    31  C   -0.139505
    33  C   -0.255977
    35  C    0.170579
    37  Bq   0.000000
    38  Bq   0.000000
    39  Bq   0.000000
    40  Bq   0.000000
    41  Bq   0.000000
    42  Bq   0.000000
    43  Bq   0.000000
    44  Bq   0.000000
    45  Bq   0.000000
    46  Bq   0.000000
    47  Bq   0.000000
    48  Bq   0.000000
    49  Bq   0.000000
    50  Bq   0.000000
    51  Bq   0.000000
    52  Bq   0.000000
    53  Bq   0.000000
    54  Bq   0.000000
    55  Bq   0.000000
    56  Bq   0.000000
    57  Bq   0.000000
    58  Bq   0.000000
    59  Bq   0.000000
    60  Bq   0.000000
    61  Bq   0.000000
    62  Bq   0.000000
    63  Bq   0.000000
    64  Bq   0.000000
    65  Bq   0.000000
    66  Bq   0.000000
    67  Bq   0.000000
    68  Bq   0.000000
    69  Bq   0.000000
    70  Bq   0.000000
    71  Bq   0.000000
    72  Bq   0.000000
    73  Bq   0.000000
    74  Bq   0.000000
    75  Bq   0.000000
    76  Bq   0.000000
    77  Bq   0.000000
    78  Bq   0.000000
    79  Bq   0.000000
    80  Bq   0.000000
    81  Bq   0.000000
    82  Bq   0.000000
    83  Bq   0.000000
    84  Bq   0.000000
    85  Bq   0.000000
    86  Bq   0.000000
    87  Bq   0.000000
    88  Bq   0.000000
    89  Bq   0.000000
    90  Bq   0.000000
    91  Bq   0.000000
    92  Bq   0.000000
    93  Bq   0.000000
    94  Bq   0.000000
    95  Bq   0.000000
    96  Bq   0.000000
    97  Bq   0.000000
    98  Bq   0.000000
    99  Bq   0.000000
   100  Bq   0.000000
   101  Bq   0.000000
   102  Bq   0.000000
   103  Bq   0.000000
   104  Bq   0.000000
   105  Bq   0.000000
   106  Bq   0.000000
   107  Bq   0.000000
   108  Bq   0.000000
   109  Bq   0.000000
   110  Bq   0.000000
   111  Bq   0.000000
   112  Bq   0.000000
   113  Bq   0.000000
   114  Bq   0.000000
   115  Bq   0.000000
   116  Bq   0.000000
   117  Bq   0.000000
   118  Bq   0.000000
   119  Bq   0.000000
   120  Bq   0.000000
   121  Bq   0.000000
   122  Bq   0.000000
   123  Bq   0.000000
   124  Bq   0.000000
   125  Bq   0.000000
   126  Bq   0.000000
   127  Bq   0.000000
   128  Bq   0.000000
   129  Bq   0.000000
   130  Bq   0.000000
   131  Bq   0.000000
   132  Bq   0.000000
   133  Bq   0.000000
   134  Bq   0.000000
   135  Bq   0.000000
   136  Bq   0.000000
   137  Bq   0.000000
   138  Bq   0.000000
   139  Bq   0.000000
   140  Bq   0.000000
   141  Bq   0.000000
   142  Bq   0.000000
   143  Bq   0.000000
   144  Bq   0.000000
   145  Bq   0.000000
   146  Bq   0.000000
   147  Bq   0.000000
   148  Bq   0.000000
   149  Bq   0.000000
   150  Bq   0.000000
   151  Bq   0.000000
   152  Bq   0.000000
   153  Bq   0.000000
   154  Bq   0.000000
   155  Bq   0.000000
   156  Bq   0.000000
   157  Bq   0.000000
   158  Bq   0.000000
   159  Bq   0.000000
   160  Bq   0.000000
   161  Bq   0.000000
   162  Bq   0.000000
   163  Bq   0.000000
   164  Bq   0.000000
   165  Bq   0.000000
   166  Bq   0.000000
   167  Bq   0.000000
   168  Bq   0.000000
   169  Bq   0.000000
   170  Bq   0.000000
   171  Bq   0.000000
   172  Bq   0.000000
   173  Bq   0.000000
   174  Bq   0.000000
   175  Bq   0.000000
   176  Bq   0.000000
   177  Bq   0.000000
   178  Bq   0.000000
   179  Bq   0.000000
   180  Bq   0.000000
   181  Bq   0.000000
   182  Bq   0.000000
   183  Bq   0.000000
   184  Bq   0.000000
   185  Bq   0.000000
   186  Bq   0.000000
   187  Bq   0.000000
   188  Bq   0.000000
   189  Bq   0.000000
   190  Bq   0.000000
   191  Bq   0.000000
   192  Bq   0.000000
   193  Bq   0.000000
   194  Bq   0.000000
   195  Bq   0.000000
   196  Bq   0.000000
   197  Bq   0.000000
   198  Bq   0.000000
   199  Bq   0.000000
   200  Bq   0.000000
   201  Bq   0.000000
   202  Bq   0.000000
   203  Bq   0.000000
   204  Bq   0.000000
   205  Bq   0.000000
   206  Bq   0.000000
   207  Bq   0.000000
   208  Bq   0.000000
   209  Bq   0.000000
   210  Bq   0.000000
   211  Bq   0.000000
   212  Bq   0.000000
   213  Bq   0.000000
   214  Bq   0.000000
   215  Bq   0.000000
   216  Bq   0.000000
   217  Bq   0.000000
   218  Bq   0.000000
   219  Bq   0.000000
   220  Bq   0.000000
   221  Bq   0.000000
   222  Bq   0.000000
   223  Bq   0.000000
   224  Bq   0.000000
   225  Bq   0.000000
   226  Bq   0.000000
   227  Bq   0.000000
   228  Bq   0.000000
   229  Bq   0.000000
   230  Bq   0.000000
   231  Bq   0.000000
   232  Bq   0.000000
   233  Bq   0.000000
   234  Bq   0.000000
   235  Bq   0.000000
   236  Bq   0.000000
 Electronic spatial extent (au):  <R**2>=           5736.9264
 Charge=              0.0000 electrons
 Dipole moment (field-independent basis, Debye):
    X=              0.0475    Y=              0.0856    Z=              0.0029  Tot=              0.0979
 Quadrupole moment (field-independent basis, Debye-Ang):
   XX=           -113.7056   YY=           -113.9456   ZZ=           -133.2669
   XY=             -0.3834   XZ=              3.2102   YZ=             -1.1839
 Traceless Quadrupole moment (field-independent basis, Debye-Ang):
   XX=              6.6005   YY=              6.3604   ZZ=            -12.9609
   XY=             -0.3834   XZ=              3.2102   YZ=             -1.1839
 Octapole moment (field-independent basis, Debye-Ang**2):
  XXX=            -16.4668  YYY=            -16.1860  ZZZ=             -1.7007  XYY=              2.5576
  XXY=             -6.5650  XXZ=             13.6547  XZZ=             -8.9478  YZZ=            -17.7168
  YYZ=            -13.2941  XYZ=              8.8036
 Hexadecapole moment (field-independent basis, Debye-Ang**3):
 XXXX=          -3951.1638 YYYY=          -3112.2161 ZZZZ=           -504.8311 XXXY=            340.6935
 XXXZ=            156.4968 YYYX=            335.5625 YYYZ=            -87.0893 ZZZX=            120.2262
 ZZZY=           -108.7373 XXYY=          -1176.4844 XXZZ=           -856.7291 YYZZ=           -665.7275
 XXYZ=            -68.9016 YYXZ=             48.1602 ZZXY=            153.0375
 N-N= 1.610917615562D+03 E-N=-5.186891130729D+03  KE= 8.436329774449D+02
 1\1\GINC-PLANA\SP\RB3LYP\6-311+G(d,p)\C22H14\YANNICK\21-Aug-2020\0\\# 
 rb3lyp/6-311+g** NMR geom=connectivity\\Title\\0,1\C,0,-4.0500558,-0.5
 771862,0.8136712\H,0,-5.0263804,-1.0082727,1.002476\C,0,-3.9381552,0.6
 617804,0.2400876\H,0,-4.8252424,1.233889,-0.0111295\C,0,-2.676841,1.24
 33246,0.0057578\C,0,-1.4974121,0.5051527,0.2848253\C,0,-1.6508332,-0.7
 338728,0.9404026\H,0,-0.7713646,-1.2730967,1.2633753\C,0,-2.8898548,-1
 .2624035,1.1994307\H,0,-2.9683706,-2.2124563,1.7152676\C,0,-2.5773185,
 2.5963696,-0.419293\H,0,-3.4870728,3.1412239,-0.6474055\C,0,-1.3741895
 ,3.2147896,-0.436403\H,0,-1.2997315,4.2742019,-0.6578144\C,0,-0.171948
 8,2.499409,-0.1734588\C,0,-0.2043917,1.1018437,0.0192689\C,0,1.0513491
 ,3.204256,-0.0676222\H,0,1.0427344,4.2819499,-0.1896997\C,0,2.1942091,
 2.5487446,0.2579577\H,0,3.1168527,3.0912848,0.4334727\C,0,2.2216473,1.
 1336562,0.293499\C,0,1.0486931,0.3945528,0.0302412\C,0,3.4483363,0.461
 4633,0.5573939\H,0,4.3095794,1.0606054,0.8334846\C,0,3.5427346,-0.8855
 926,0.4749463\H,0,4.4731467,-1.3939704,0.7038822\C,0,2.4490052,-1.6474
 447,-0.0196319\C,0,1.2150704,-1.0057258,-0.3013573\C,0,0.2531113,-1.74
 3444,-1.0216591\H,0,-0.6541356,-1.2535051,-1.3462847\C,0,0.4494193,-3.
 0628597,-1.3413779\H,0,-0.3083162,-3.5944309,-1.905406\C,0,1.6251726,-
 3.7207967,-0.9552541\H,0,1.7670048,-4.7687404,-1.1927019\C,0,2.6109872
 ,-3.0144177,-0.318305\H,0,3.5525612,-3.4902813,-0.0646367\Bq,0,2.89869
 41395,-1.8773401121,0.9514560288\Bq,0,3.0581411946,-1.7708775077,0.600
 3971299\Bq,0,2.8588323757,-1.9039557632,1.0392207535\Bq,0,3.0980029584
 ,-1.7442618566,0.5126324052\Bq,0,2.8189706119,-1.9305714143,1.12698547
 82\Bq,0,3.1378647222,-1.7176462055,0.4248676805\Bq,0,2.7791088481,-1.9
 571870654,1.2147502029\Bq,0,3.177726486,-1.6910305543,0.3371029558\Bq,
 0,2.9784176671,-1.8241088099,0.7759265793\Bq,0,2.9275494299,-1.7543314
 783,0.8879245545\Bq,0,3.0072729575,-1.7011001761,0.7123951051\Bq,0,2.8
 876876661,-1.7809471294,0.9756892792\Bq,0,3.0471347213,-1.674484525,0.
 6246303804\Bq,0,2.8478259023,-1.8075627805,1.0634540039\Bq,0,3.0869964
 851,-1.6478688739,0.5368656557\Bq,0,2.8079641385,-1.8341784316,1.15121
 87286\Bq,0,3.1268582488,-1.6212532227,0.4491009309\Bq,0,2.7681023748,-
 1.8607940827,1.2389834534\Bq,0,3.1667200126,-1.5946375716,0.3613362062
 \Bq,0,2.9674111937,-1.7277158272,0.8001598298\Bq,0,2.9165429565,-1.657
 9384956,0.912157805\Bq,0,2.9962664841,-1.6047071934,0.7366283555\Bq,0,
 2.8766811927,-1.6845541467,0.9999225297\Bq,0,3.0361282479,-1.578091542
 2,0.6488636308\Bq,0,2.836819429,-1.7111697978,1.0876872544\Bq,0,3.0759
 900117,-1.5514758911,0.5610989061\Bq,0,2.7969576652,-1.7377854489,1.17
 54519791\Bq,0,3.1158517755,-1.52486024,0.4733341814\Bq,0,2.7570959014,
 -1.7644011,1.2632167038\Bq,0,3.1557135393,-1.4982445889,0.3855694567\B
 q,0,2.9564047203,-1.6313228445,0.8243930803\Bq,0,2.9055364832,-1.56154
 55129,0.9363910554\Bq,0,2.9852600107,-1.5083142106,0.760861606\Bq,0,2.
 8656747194,-1.588161164,1.0241557801\Bq,0,3.0251217745,-1.4816985595,0
 .6730968813\Bq,0,2.8258129556,-1.6147768151,1.1119205048\Bq,0,3.064983
 5383,-1.4550829084,0.5853321566\Bq,0,2.7859511918,-1.6413924662,1.1996
 852296\Bq,0,3.1048453021,-1.4284672573,0.4975674319\Bq,0,2.746089428,-
 1.6680081173,1.2874499543\Bq,0,3.1447070659,-1.4018516062,0.4098027071
 \Bq,0,2.9453982469,-1.5349298617,0.8486263307\Bq,0,2.8945300098,-1.465
 1525301,0.9606243059\Bq,0,2.9742535374,-1.4119212279,0.7850948565\Bq,0
 ,2.854668246,-1.4917681812,1.0483890306\Bq,0,3.0141153011,-1.385305576
 8,0.6973301317\Bq,0,2.8148064822,-1.5183838324,1.1361537553\Bq,0,3.053
 9770649,-1.3586899257,0.609565407\Bq,0,2.7749447184,-1.5449994835,1.22
 391848\Bq,0,3.0938388287,-1.3320742746,0.5218006823\Bq,0,2.7350829546,
 -1.5716151346,1.3116832047\Bq,0,3.1337005925,-1.3054586235,0.434035957
 6\Bq,0,2.9343917736,-1.438536879,0.8728595812\Bq,0,2.8835235364,-1.368
 7595474,0.9848575563\Bq,0,2.963247064,-1.3155282452,0.8093281069\Bq,0,
 2.8436617726,-1.3953751985,1.0726222811\Bq,0,3.0031088278,-1.288912594
 1,0.7215633822\Bq,0,2.8038000088,-1.4219908496,1.1603870058\Bq,0,3.042
 9705916,-1.262296943,0.6337986575\Bq,0,2.7639382451,-1.4486065008,1.24
 81517305\Bq,0,3.0828323554,-1.2356812919,0.5460339328\Bq,0,2.724076481
 3,-1.4752221519,1.3359164552\Bq,0,3.1226941191,-1.2090656408,0.4582692
 081\Bq,0,2.9233853002,-1.3421438963,0.8970928316\Bq,0,2.872517063,-1.2
 723665647,1.0090908068\Bq,0,2.9522405906,-1.2191352625,0.8335613574\Bq
 ,0,2.8326552993,-1.2989822158,1.0968555315\Bq,0,2.9921023544,-1.192519
 6114,0.7457966327\Bq,0,2.7927935355,-1.3255978669,1.1846202562\Bq,0,3.
 0319641182,-1.1659039603,0.6580319079\Bq,0,2.7529317717,-1.352213518,1
 .2723849809\Bq,0,3.071825882,-1.1392883092,0.5702671832\Bq,0,2.7130700
 079,-1.3788291691,1.3601497056\Bq,0,3.1116876458,-1.1126726581,0.48250
 24585\Bq,0,2.9123788268,-1.2457509136,0.9213260821\Bq,0,2.8615105897,-
 1.175973582,1.0333240573\Bq,0,2.9412341172,-1.1227422798,0.8577946078\
 Bq,0,2.8216488259,-1.2025892331,1.121088782\Bq,0,2.981095881,-1.096126
 6287,0.7700298831\Bq,0,2.7817870621,-1.2292048842,1.2088535067\Bq,0,3.
 0209576448,-1.0695109776,0.6822651584\Bq,0,2.7419252983,-1.2558205353,
 1.2966182314\Bq,0,3.0608194086,-1.0428953265,0.5945004337\Bq,0,2.70206
 35345,-1.2824361864,1.3843829561\Bq,0,3.1006811724,-1.0162796754,0.506
 735709\Bq,0,2.9013723535,-1.1493579309,0.9455593325\Bq,0,2.8505041163,
 -1.0795805993,1.0575573077\Bq,0,2.9302276439,-1.0263492971,0.882027858
 3\Bq,0,2.8106423525,-1.1061962504,1.1453220324\Bq,0,2.9700894077,-0.99
 9733646,0.7942631336\Bq,0,2.7707805887,-1.1328119015,1.2330867571\Bq,0
 ,3.0099511714,-0.9731179949,0.7064984089\Bq,0,2.7309188249,-1.15942755
 26,1.3208514819\Bq,0,3.0498129352,-0.9465023438,0.6187336841\Bq,0,2.69
 10570611,-1.1860432037,1.4086162066\Bq,0,3.089674699,-0.9198866927,0.5
 309689594\Bq,0,2.8903658801,-1.0529649482,0.969792583\Bq,0,2.839497642
 9,-0.9831876166,1.0817905582\Bq,0,2.9192211705,-0.9299563144,0.9062611
 087\Bq,0,2.7996358791,-1.0098032677,1.1695552829\Bq,0,2.9590829343,-0.
 9033406633,0.818496384\Bq,0,2.7597741153,-1.0364189188,1.2573200076\Bq
 ,0,2.9989446981,-0.8767250122,0.7307316593\Bq,0,2.7199123516,-1.063034
 5699,1.3450847323\Bq,0,3.0388064619,-0.850109361,0.6429669346\Bq,0,2.6
 800505878,-1.089650221,1.432849457\Bq,0,3.0786682256,-0.8234937099,0.5
 552022099\Bq,0,2.8793594067,-0.9565719655,0.9940258335\Bq,0,2.82849116
 96,-0.8867946339,1.1060238086\Bq,0,2.9082146971,-0.8335633317,0.930494
 3592\Bq,0,2.7886294058,-0.913410285,1.1937885333\Bq,0,2.9480764609,-0.
 8069476805,0.8427296345\Bq,0,2.748767642,-0.9400259361,1.2815532581\Bq
 ,0,2.9879382247,-0.7803320294,0.7549649098\Bq,0,2.7089058782,-0.966641
 5872,1.3693179828\Bq,0,3.0277999885,-0.7537163783,0.6672001851\Bq,0,2.
 6690441144,-0.9932572383,1.4570827075\Bq,0,3.0676617523,-0.7271007272,
 0.5794354604\Bq,0,2.8683529333,-0.8601789828,1.0182590839\Bq,0,2.81748
 46962,-0.7904016512,1.1302570591\Bq,0,2.8972082238,-0.7371703489,0.954
 7276097\Bq,0,2.7776229324,-0.8170173023,1.2180217838\Bq,0,2.9370699875
 ,-0.7105546978,0.8669628849\Bq,0,2.7377611686,-0.8436329534,1.30578650
 85\Bq,0,2.9769317513,-0.6839390467,0.7791981602\Bq,0,2.6978994048,-0.8
 702486045,1.3935512332\Bq,0,3.0167935151,-0.6573233956,0.6914334355\Bq
 ,0,2.658037641,-0.8968642556,1.4813159579\Bq,0,3.0566552789,-0.6307077
 445,0.6036687108\Bq,0,2.85734646,-0.763786,1.0424923344\Bq,0,2.8064782
 228,-0.6940086684,1.1544903095\Bq,0,2.8862017504,-0.6407773662,0.97896
 08601\Bq,0,2.766616459,-0.7206243196,1.2422550343\Bq,0,2.9260635142,-0
 .6141617151,0.8911961354\Bq,0,2.7267546952,-0.7472399707,1.330019759\B
 q,0,2.965925278,-0.587546064,0.8034314107\Bq,0,2.6868929314,-0.7738556
 218,1.4177844837\Bq,0,3.0057870417,-0.5609304129,0.715666686\Bq,0,2.64
 70311677,-0.8004712729,1.5055492084\Bq,0,3.0456488055,-0.5343147618,0.
 6279019613\Bq,0,2.8463399866,-0.6673930173,1.0667255848\Bq,0,2.7954717
 494,-0.5976156857,1.17872356\Bq,0,2.875195277,-0.5443843835,1.00319411
 06\Bq,0,2.7556099856,-0.6242313368,1.2664882847\Bq,0,2.9150570408,-0.5
 177687324,0.9154293859\Bq,0,2.7157482219,-0.6508469879,1.3542530094\Bq
 ,0,2.9549188046,-0.4911530813,0.8276646612\Bq,0,2.6758864581,-0.677462
 6391,1.4420177341\Bq,0,2.9947805684,-0.4645374302,0.7398999364\Bq,0,2.
 6360246943,-0.7040782902,1.5297824589\Bq,0,3.0346423322,-0.4379217791,
 0.6521352117\Bq,0,2.8353335132,-0.5710000346,1.0909588353\Bq,0,2.78446
 52761,-0.501222703,1.2029568105\Bq,0,2.8641888036,-0.4479914008,1.0274
 27361\Bq,0,2.7446035123,-0.5278383541,1.2907215352\Bq,0,2.9040505674,-
 0.4213757497,0.9396626363\Bq,0,2.7047417485,-0.5544540052,1.3784862599
 \Bq,0,2.9439123312,-0.3947600986,0.8518979116\Bq,0,2.6648799847,-0.581
 0696563,1.4662509846\Bq,0,2.983774095,-0.3681444475,0.7641331869\Bq,0,
 2.6250182209,-0.6076853074,1.5540157093\Bq,0,3.0236358588,-0.341528796
 4,0.6763684622\Bq,0,2.8243270399,-0.4746070519,1.1151920857\Bq,0,2.773
 4588027,-0.4048297203,1.2271900609\Bq,0,2.8531823303,-0.3515984181,1.0
 516606115\Bq,0,2.7335970389,-0.4314453714,1.3149547856\Bq,0,2.89304409
 41,-0.324982767,0.9638958868\Bq,0,2.6937352751,-0.4580610225,1.4027195
 103\Bq,0,2.9329058578,-0.2983671159,0.8761311621\Bq,0,2.6538735113,-0.
 4846766736,1.4904842351\Bq,0,2.9727676216,-0.2717514648,0.7883664374\B
 q,0,2.6140117475,-0.5112923247,1.5782489598\Bq,0,3.0126293854,-0.24513
 58137,0.7006017126\Bq,0,2.8133205665,-0.3782140692,1.1394253362\Bq,0,2
 .7624523293,-0.3084367376,1.2514233114\Bq,0,2.8421758569,-0.2552054354
 ,1.075893862\Bq,0,2.7225905655,-0.3350523887,1.3391880361\Bq,0,2.88203
 76207,-0.2285897843,0.9881291372\Bq,0,2.6827288017,-0.3616680398,1.426
 9527608\Bq,0,2.9218993845,-0.2019741332,0.9003644125\Bq,0,2.642867038,
 -0.3882836909,1.5147174855\Bq,0,2.9617611483,-0.1753584821,0.812599687
 8\Bq,0,2.6030052742,-0.414899342,1.6024822102\Bq,0,3.001622912,-0.1487
 42831,0.7248349631\Bq,0,2.8023140931,-0.2818210865,1.1636585867\Bq,0,2
 .7514458559,-0.2120437549,1.2756565618\Bq,0,2.8311693835,-0.1588124527
 ,1.1001271124\Bq,0,2.7115840922,-0.238659406,1.3634212865\Bq,0,2.87103
 11473,-0.1321968016,1.0123623877\Bq,0,2.6717223284,-0.2652750571,1.451
 1860113\Bq,0,2.9108929111,-0.1055811505,0.924597663\Bq,0,2.6318605646,
 -0.2918907082,1.538950736\Bq,0,2.9507546749,-0.0789654993,0.8368329383
 \Bq,0,2.5919988008,-0.3185063593,1.6267154607\Bq,0,2.9906164387,-0.052
 3498482,0.7490682136\Bq,0,2.7913076197,-0.1854281038,1.1878918371\Bq,0
 ,2.7404393826,-0.1156507722,1.2998898123\Bq,0,2.8201629102,-0.06241947
 ,1.1243603629\Bq,0,2.7005776188,-0.1422664233,1.387654537\Bq,0,2.86002
 46739,-0.0358038189,1.0365956382\\Version=ES64L-G09RevD.01\HF=-847.003
 2898\RMSD=7.615e-09\Dipole=0.0186808,0.0336671,0.0011595\Quadrupole=4.
 9072795,4.7288219,-9.6361014,-0.2850201,2.3867064,-0.880172\PG=C01 [X(
 C22H14)]\\@


 EXPERIENCE IS A WONDERFUL THING.  IT ENABLES
 YOU TO RECOGNIZE A MISTAKE WHEN YOU MAKE IT AGAIN.
           - BACK OF A SUGAR PACKET
 Job cpu time:       0 days  3 hours 49 minutes  1.0 seconds.
 File lengths (MBytes):  RWF=    184 Int=      0 D2E=      0 Chk=     19 Scr=      1
 Normal termination of Gaussian 09 at Fri Aug 21 18:43:15 2020.
