 Entering Gaussian System, Link 0=g09
 Input=input_cycle_05_batch_22800.com
 Output=input_cycle_05_batch_22800.log
 Initial command:
 /share/programs/GAUSSIAN/64/g09/l1.exe "/scratch/yannick.30807/Gau-21071.inp" -scrdir="/scratch/yannick.30807/"
 Entering Link 1 = /share/programs/GAUSSIAN/64/g09/l1.exe PID=     21072.
  
 Copyright (c) 1988,1990,1992,1993,1995,1998,2003,2009,2013,
            Gaussian, Inc.  All Rights Reserved.
  
 This is part of the Gaussian(R) 09 program.  It is based on
 the Gaussian(R) 03 system (copyright 2003, Gaussian, Inc.),
 the Gaussian(R) 98 system (copyright 1998, Gaussian, Inc.),
 the Gaussian(R) 94 system (copyright 1995, Gaussian, Inc.),
 the Gaussian 92(TM) system (copyright 1992, Gaussian, Inc.),
 the Gaussian 90(TM) system (copyright 1990, Gaussian, Inc.),
 the Gaussian 88(TM) system (copyright 1988, Gaussian, Inc.),
 the Gaussian 86(TM) system (copyright 1986, Carnegie Mellon
 University), and the Gaussian 82(TM) system (copyright 1983,
 Carnegie Mellon University). Gaussian is a federally registered
 trademark of Gaussian, Inc.
  
 This software contains proprietary and confidential information,
 including trade secrets, belonging to Gaussian, Inc.
  
 This software is provided under written license and may be
 used, copied, transmitted, or stored only in accord with that
 written license.
  
 The following legend is applicable only to US Government
 contracts under FAR:
  
                    RESTRICTED RIGHTS LEGEND
  
 Use, reproduction and disclosure by the US Government is
 subject to restrictions as set forth in subparagraphs (a)
 and (c) of the Commercial Computer Software - Restricted
 Rights clause in FAR 52.227-19.
  
 Gaussian, Inc.
 340 Quinnipiac St., Bldg. 40, Wallingford CT 06492
  
  
 ---------------------------------------------------------------
 Warning -- This program may not be used in any manner that
 competes with the business of Gaussian, Inc. or will provide
 assistance to any competitor of Gaussian, Inc.  The licensee
 of this program is prohibited from giving any competitor of
 Gaussian, Inc. access to this program.  By using this program,
 the user acknowledges that Gaussian, Inc. is engaged in the
 business of creating and licensing software in the field of
 computational chemistry and represents and warrants to the
 licensee that it is not a competitor of Gaussian, Inc. and that
 it will not use this program in any manner prohibited above.
 ---------------------------------------------------------------
  

 Cite this work as:
 Gaussian 09, Revision D.01,
 M. J. Frisch, G. W. Trucks, H. B. Schlegel, G. E. Scuseria, 
 M. A. Robb, J. R. Cheeseman, G. Scalmani, V. Barone, B. Mennucci, 
 G. A. Petersson, H. Nakatsuji, M. Caricato, X. Li, H. P. Hratchian, 
 A. F. Izmaylov, J. Bloino, G. Zheng, J. L. Sonnenberg, M. Hada, 
 M. Ehara, K. Toyota, R. Fukuda, J. Hasegawa, M. Ishida, T. Nakajima, 
 Y. Honda, O. Kitao, H. Nakai, T. Vreven, J. A. Montgomery, Jr., 
 J. E. Peralta, F. Ogliaro, M. Bearpark, J. J. Heyd, E. Brothers, 
 K. N. Kudin, V. N. Staroverov, T. Keith, R. Kobayashi, J. Normand, 
 K. Raghavachari, A. Rendell, J. C. Burant, S. S. Iyengar, J. Tomasi, 
 M. Cossi, N. Rega, J. M. Millam, M. Klene, J. E. Knox, J. B. Cross, 
 V. Bakken, C. Adamo, J. Jaramillo, R. Gomperts, R. E. Stratmann, 
 O. Yazyev, A. J. Austin, R. Cammi, C. Pomelli, J. W. Ochterski, 
 R. L. Martin, K. Morokuma, V. G. Zakrzewski, G. A. Voth, 
 P. Salvador, J. J. Dannenberg, S. Dapprich, A. D. Daniels, 
 O. Farkas, J. B. Foresman, J. V. Ortiz, J. Cioslowski, 
 and D. J. Fox, Gaussian, Inc., Wallingford CT, 2013.
 
 ******************************************
 Gaussian 09:  ES64L-G09RevD.01 24-Apr-2013
                23-Aug-2020 
 ******************************************
 %nproc=8
 Will use up to    8 processors via shared memory.
 %mem=1000MB
 ----------------------------------------
 # rb3lyp/6-311+g** NMR geom=connectivity
 ----------------------------------------
 1/38=1,57=2/1;
 2/12=2,17=6,18=5,40=1/2;
 3/5=4,6=6,7=111,11=2,16=1,25=1,30=1,74=-5,116=1/1,2,8,3;
 4//1;
 5/5=2,38=5/2;
 8/6=1,10=90,11=11/1;
 10/13=100,45=16/2;
 6/7=2,8=2,9=2,10=2,28=1/1;
 99/9=1/99;
 -----
 Title
 -----
 Symbolic Z-matrix:
 Charge =  0 Multiplicity = 1
 C                    -4.05006  -0.57719   0.81367 
 H                    -5.02638  -1.00827   1.00248 
 C                    -3.93816   0.66178   0.24009 
 H                    -4.82524   1.23389  -0.01113 
 C                    -2.67684   1.24332   0.00576 
 C                    -1.49741   0.50515   0.28483 
 C                    -1.65083  -0.73387   0.9404 
 H                    -0.77136  -1.2731    1.26338 
 C                    -2.88985  -1.2624    1.19943 
 H                    -2.96837  -2.21246   1.71527 
 C                    -2.57732   2.59637  -0.41929 
 H                    -3.48707   3.14122  -0.64741 
 C                    -1.37419   3.21479  -0.4364 
 H                    -1.29973   4.2742   -0.65781 
 C                    -0.17195   2.49941  -0.17346 
 C                    -0.20439   1.10184   0.01927 
 C                     1.05135   3.20426  -0.06762 
 H                     1.04273   4.28195  -0.1897 
 C                     2.19421   2.54874   0.25796 
 H                     3.11685   3.09128   0.43347 
 C                     2.22165   1.13366   0.2935 
 C                     1.04869   0.39455   0.03024 
 C                     3.44834   0.46146   0.55739 
 H                     4.30958   1.06061   0.83348 
 C                     3.54273  -0.88559   0.47495 
 H                     4.47315  -1.39397   0.70388 
 C                     2.44901  -1.64744  -0.01963 
 C                     1.21507  -1.00573  -0.30136 
 C                     0.25311  -1.74344  -1.02166 
 H                    -0.65414  -1.25351  -1.34628 
 C                     0.44942  -3.06286  -1.34138 
 H                    -0.30832  -3.59443  -1.90541 
 C                     1.62517  -3.7208   -0.95525 
 H                     1.767    -4.76874  -1.1927 
 C                     2.61099  -3.01442  -0.31831 
 H                     3.55256  -3.49028  -0.06464 
 Bq                   -1.28303   0.64664   0.37227 
 Bq                   -1.28621   1.03799   1.18272 
 Bq                   -1.28267   0.60316   0.28222 
 Bq                   -1.28444   0.82057   0.73247 
 Bq                   -1.28463   0.95411   0.77904 
 Bq                   -1.28392   0.86714   0.59894 
 Bq                   -1.28498   0.99759   0.86909 
 Bq                   -1.28356   0.82366   0.50889 
 Bq                   -1.28533   1.04107   0.95914 
 Bq                   -1.28321   0.78018   0.41883 
 Bq                   -1.28569   1.08455   1.04919 
 Bq                   -1.28286   0.73669   0.32878 
 Bq                   -1.28604   1.12804   1.13924 
 Bq                   -1.2825    0.69321   0.23873 
 Bq                   -1.28427   0.91062   0.68899 
 Bq                   -1.28446   1.04416   0.73556 
 Bq                   -1.28375   0.95719   0.55545 
 Bq                   -1.28481   1.08764   0.82561 
 Bq                   -1.28339   0.91371   0.4654 
 Bq                   -1.28516   1.13112   0.91566 
 Bq                   -1.28304   0.87023   0.37535 
 Bq                   -1.28552   1.17461   1.00571 
 Bq                   -1.28269   0.82674   0.2853 
 Bq                   -1.28587   1.21809   1.09576 
 Bq                   -1.28233   0.78326   0.19525 
 Bq                   -1.2841    1.00068   0.6455 
 Bq                   -1.28428   1.13421   0.69207 
 Bq                   -1.28358   1.04724   0.51197 
 Bq                   -1.28464   1.17769   0.78212 
 Bq                   -1.28322   1.00376   0.42192 
 Bq                   -1.28499   1.22117   0.87217 
 Bq                   -1.28287   0.96028   0.33187 
 Bq                   -1.28535   1.26466   0.96222 
 Bq                   -1.28251   0.9168    0.24182 
 Bq                   -1.2857    1.30814   1.05228 
 Bq                   -1.28216   0.87331   0.15177 
 Bq                   -1.28393   1.09073   0.60202 
 Bq                   -1.28411   1.22426   0.64859 
 Bq                   -1.28341   1.1373    0.46849 
 Bq                   -1.28447   1.26774   0.73864 
 Bq                   -1.28305   1.09381   0.37844 
 Bq                   -1.28482   1.31123   0.82869 
 Bq                   -1.2827    1.05033   0.28839 
 Bq                   -1.28518   1.35471   0.91874 
 Bq                   -1.28234   1.00685   0.19834 
 Bq                   -1.28553   1.39819   1.00879 
 Bq                   -1.28199   0.96336   0.10829 
 Bq                   -1.28376   1.18078   0.55854 
 Bq                   -1.28394   1.31431   0.60511 
 Bq                   -1.28324   1.22735   0.42501 
 Bq                   -1.2843    1.35779   0.69516 
 Bq                   -1.28288   1.18386   0.33496 
 Bq                   -1.28465   1.40128   0.78521 
 Bq                   -1.28253   1.14038   0.24491 
 Bq                   -1.28501   1.44476   0.87526 
 Bq                   -1.28217   1.0969    0.15485 
 Bq                   -1.28536   1.48824   0.96531 
 Bq                   -1.28182   1.05342   0.0648 
 Bq                   -1.28359   1.27083   0.51506 
 Bq                   -1.28377   1.40436   0.56163 
 Bq                   -1.28306   1.3174    0.38152 
 Bq                   -1.28413   1.44785   0.65168 
 Bq                   -1.28271   1.27392   0.29147 
 Bq                   -1.28448   1.49133   0.74173 
 Bq                   -1.28236   1.23043   0.20142 
 Bq                   -1.28483   1.53481   0.83178 
 Bq                   -1.282     1.18695   0.11137 
 Bq                   -1.28519   1.57829   0.92183 
 Bq                   -1.28165   1.14347   0.02132 
 Bq                   -1.28342   1.36088   0.47157 
 Bq                   -1.2836    1.49441   0.51814 
 Bq                   -1.28289   1.40745   0.33804 
 Bq                   -1.28396   1.5379    0.60819 
 Bq                   -1.28254   1.36397   0.24799 
 Bq                   -1.28431   1.58138   0.69824 
 Bq                   -1.28219   1.32048   0.15794 
 Bq                   -1.28466   1.62486   0.7883 
 Bq                   -1.28183   1.277     0.06789 
 Bq                   -1.28502   1.66835   0.87835 
 Bq                   -1.28148   1.23352  -0.02216 
 Bq                   -1.28325   1.45093   0.42809 
 Bq                   -1.28343   1.58447   0.47466 
 Bq                   -1.28272   1.4975    0.29456 
 Bq                   -1.28378   1.62795   0.56471 
 Bq                   -1.28237   1.45402   0.20451 
 Bq                   -1.28414   1.67143   0.65476 
 Bq                   -1.28201   1.41054   0.11446 
 Bq                   -1.28449   1.71491   0.74481 
 Bq                   -1.28166   1.36705   0.02441 
 Bq                   -1.28485   1.7584    0.83486 
 Bq                   -1.28131   1.32357  -0.06564 
 Bq                   -1.28308   1.54098   0.38461 
 Bq                   -1.28326   1.67452   0.43118 
 Bq                   -1.28255   1.58755   0.25108 
 Bq                   -1.28361   1.718     0.52123 
 Bq                   -1.2822    1.54407   0.16103 
 Bq                   -1.28397   1.76148   0.61128 
 Bq                   -1.28184   1.50059   0.07098 
 Bq                   -1.28432   1.80497   0.70133 
 Bq                   -1.28149   1.4571   -0.01907 
 Bq                   -1.28468   1.84845   0.79138 
 Bq                   -1.28114   1.41362  -0.10913 
 Bq                   -1.28291   1.63104   0.34113 
 Bq                   -1.28309   1.76457   0.3877 
 Bq                   -1.28238   1.6776    0.20759 
 Bq                   -1.28344   1.80805   0.47775 
 Bq                   -1.28203   1.63412   0.11754 
 Bq                   -1.2838    1.85153   0.5678 
 Bq                   -1.28167   1.59064   0.02749 
 Bq                   -1.28415   1.89502   0.65785 
 Bq                   -1.28132   1.54716  -0.06256 
 Bq                   -1.2845    1.9385    0.7479 
 Bq                   -1.28096   1.50367  -0.15261 
 Bq                   -1.28273   1.72109   0.29765 
 Bq                   -1.28292   1.85462   0.34421 
 Bq                   -1.28221   1.76766   0.16411 
 Bq                   -1.28327   1.8981    0.43426 
 Bq                   -1.28186   1.72417   0.07406 
 Bq                   -1.28363   1.94159   0.52432 
 Bq                   -1.2815    1.68069  -0.01599 
 Bq                   -1.28398   1.98507   0.61437 
 Bq                   -1.28115   1.63721  -0.10604 
 Bq                   -1.28433   2.02855   0.70442 
 Bq                   -1.28079   1.59372  -0.19609 
 Bq                   -1.28256   1.81114   0.25416 
 Bq                   -1.28275   1.94467   0.30073 
 Bq                   -1.28204   1.85771   0.12063 
 Bq                   -1.2831    1.98815   0.39078 
 Bq                   -1.28168   1.81422   0.03058 
 Bq                   -1.28345   2.03164   0.48083 
 Bq                   -1.28133   1.77074  -0.05947 
 Bq                   -1.28381   2.07512   0.57088 
 Bq                   -1.28098   1.72726  -0.14952 
 Bq                   -1.28416   2.1186    0.66093 
 Bq                   -1.28062   1.68378  -0.23957 
 Bq                   -1.28239   1.90119   0.21068 
 Bq                   -1.28258   2.03472   0.25725 
 Bq                   -1.28187   1.94776   0.07715 
 Bq                   -1.28293   2.07821   0.3473 
 Bq                   -1.28151   1.90428  -0.0129 
 Bq                   -1.28328   2.12169   0.43735 
 Bq                   -1.28116   1.86079  -0.10295 
 Bq                   -1.28364   2.16517   0.5274 
 Bq                   -1.28081   1.81731  -0.193 
 Bq                   -1.28399   2.20865   0.61745 
 Bq                   -1.28045   1.77383  -0.28306 
 Bq                   -1.28222   1.99124   0.1672 
 Bq                   -1.2824    2.12477   0.21377 
 Bq                   -1.2817    2.03781   0.03367 
 Bq                   -1.28276   2.16826   0.30382 
 Bq                   -1.28134   1.99433  -0.05639 
 Bq                   -1.28311   2.21174   0.39387 
 Bq                   -1.28099   1.95084  -0.14644 
 Bq                   -1.28347   2.25522   0.48392 
 Bq                   -1.28063   1.90736  -0.23649 
 Bq                   -1.28382   2.29871   0.57397 
 Bq                   -1.28028   1.86388  -0.32654 
 Bq                   -1.28205   2.08129   0.12372 
 Bq                   -1.28223   2.21483   0.17028 
 Bq                   -1.28153   2.12786  -0.00982 
 Bq                   -1.28259   2.25831   0.26033 
 Bq                   -1.28117   2.08438  -0.09987 
 Bq                   -1.28294   2.30179   0.35039 
 Bq                   -1.28082   2.0409   -0.18992 
 Bq                   -1.2833    2.34527   0.44044 
 Bq                   -1.28046   1.99741  -0.27997 
 Bq                   -1.28365   2.38876   0.53049 
 Bq                   -1.28011   1.95393  -0.37002 
 Bq                   -1.28188   2.17134   0.08023 
 Bq                   -1.28206   2.30488   0.1268 
 Bq                   -1.28135   2.21791  -0.0533 
 Bq                   -1.28242   2.34836   0.21685 
 Bq                   -1.281     2.17443  -0.14335 
 Bq                   -1.28277   2.39184   0.3069 
 Bq                   -1.28065   2.13095  -0.2334 
 Bq                   -1.28312   2.43533   0.39695 
 Bq                   -1.28029   2.08746  -0.32345 
 Bq                   -1.28348   2.47881   0.487 
 Bq                   -1.27994   2.04398  -0.4135 
 Bq                   -1.28171   2.26139   0.03675 
 Bq                   -1.28189   2.39493   0.08332 
 Bq                   -1.28118   2.30796  -0.09678 
 Bq                   -1.28225   2.43841   0.17337 
 Bq                   -1.28083   2.26448  -0.18683 
 Bq                   -1.2826    2.48189   0.26342 
 Bq                   -1.28048   2.221    -0.27688 
 Bq                   -1.28295   2.52538   0.35347 
 Bq                   -1.28012   2.17752  -0.36693 
 Bq                   -1.28331   2.56886   0.44352 
 Bq                   -1.27977   2.13403  -0.45698 
 Bq                   -1.28154   2.35145  -0.00673 
 Bq                   -1.28172   2.48498   0.03984 
 Bq                   -1.28101   2.39801  -0.14026 
 Bq                   -1.28207   2.52846   0.12989 
 Bq                   -1.28066   2.35453  -0.23032 
 Bq                   -1.28243   2.57195   0.21994 
 Bq                   -1.2803    2.31105  -0.32037 
 Bq                   -1.28278   2.61543   0.30999 
 Bq                   -1.27995   2.26757  -0.41042 
 Bq                   -1.28314   2.65891   0.40004 
 
 Symmetry turned off:
 Cannot cope with ghost atoms or with translation vectors.
 Stoichiometry    C22H14
 Framework group  C1[X(C22H14)]
 NUMDOF-- NAT=    36 NAtoms=   236
 Deg. of freedom     0
 Full point group                 C1      NOp   1
                          Input orientation:                          
 ---------------------------------------------------------------------
 Center     Atomic      Atomic             Coordinates (Angstroms)
 Number     Number       Type             X           Y           Z
 ---------------------------------------------------------------------
      1          6           0       -4.050056   -0.577186    0.813671
      2          1           0       -5.026380   -1.008273    1.002476
      3          6           0       -3.938155    0.661780    0.240088
      4          1           0       -4.825242    1.233889   -0.011130
      5          6           0       -2.676841    1.243325    0.005758
      6          6           0       -1.497412    0.505153    0.284825
      7          6           0       -1.650833   -0.733873    0.940403
      8          1           0       -0.771365   -1.273097    1.263375
      9          6           0       -2.889855   -1.262404    1.199431
     10          1           0       -2.968371   -2.212456    1.715268
     11          6           0       -2.577319    2.596370   -0.419293
     12          1           0       -3.487073    3.141224   -0.647406
     13          6           0       -1.374190    3.214790   -0.436403
     14          1           0       -1.299732    4.274202   -0.657814
     15          6           0       -0.171949    2.499409   -0.173459
     16          6           0       -0.204392    1.101844    0.019269
     17          6           0        1.051349    3.204256   -0.067622
     18          1           0        1.042734    4.281950   -0.189700
     19          6           0        2.194209    2.548745    0.257958
     20          1           0        3.116853    3.091285    0.433473
     21          6           0        2.221647    1.133656    0.293499
     22          6           0        1.048693    0.394553    0.030241
     23          6           0        3.448336    0.461463    0.557394
     24          1           0        4.309579    1.060605    0.833485
     25          6           0        3.542735   -0.885593    0.474946
     26          1           0        4.473147   -1.393970    0.703882
     27          6           0        2.449005   -1.647445   -0.019632
     28          6           0        1.215070   -1.005726   -0.301357
     29          6           0        0.253111   -1.743444   -1.021659
     30          1           0       -0.654136   -1.253505   -1.346285
     31          6           0        0.449419   -3.062860   -1.341378
     32          1           0       -0.308316   -3.594431   -1.905406
     33          6           0        1.625173   -3.720797   -0.955254
     34          1           0        1.767005   -4.768740   -1.192702
     35          6           0        2.610987   -3.014418   -0.318305
     36          1           0        3.552561   -3.490281   -0.064637
     37          0           0       -1.283028    0.646642    0.372266
     38          0           0       -1.286214    1.037986    1.182723
     39          0           0       -1.282674    0.603159    0.282216
     40          0           0       -1.284444    0.820573    0.732469
     41          0           0       -1.284627    0.954107    0.779038
     42          0           0       -1.283919    0.867141    0.598936
     43          0           0       -1.284981    0.997589    0.869088
     44          0           0       -1.283565    0.823658    0.508885
     45          0           0       -1.285335    1.041072    0.959139
     46          0           0       -1.283211    0.780176    0.418835
     47          0           0       -1.285689    1.084555    1.049190
     48          0           0       -1.282857    0.736693    0.328784
     49          0           0       -1.286043    1.128038    1.139240
     50          0           0       -1.282503    0.693210    0.238733
     51          0           0       -1.284273    0.910624    0.688987
     52          0           0       -1.284456    1.044158    0.735555
     53          0           0       -1.283748    0.957193    0.555454
     54          0           0       -1.284810    1.087641    0.825606
     55          0           0       -1.283394    0.913710    0.465403
     56          0           0       -1.285164    1.131123    0.915657
     57          0           0       -1.283040    0.870227    0.375352
     58          0           0       -1.285518    1.174606    1.005707
     59          0           0       -1.282686    0.826744    0.285302
     60          0           0       -1.285872    1.218089    1.095758
     61          0           0       -1.282332    0.783262    0.195251
     62          0           0       -1.284102    1.000675    0.645504
     63          0           0       -1.284285    1.134209    0.692073
     64          0           0       -1.283577    1.047244    0.511971
     65          0           0       -1.284639    1.177692    0.782123
     66          0           0       -1.283223    1.003761    0.421921
     67          0           0       -1.284993    1.221175    0.872174
     68          0           0       -1.282869    0.960279    0.331870
     69          0           0       -1.285347    1.264658    0.962225
     70          0           0       -1.282515    0.916796    0.241819
     71          0           0       -1.285701    1.308140    1.052276
     72          0           0       -1.282161    0.873313    0.151769
     73          0           0       -1.283931    1.090727    0.602022
     74          0           0       -1.284114    1.224261    0.648590
     75          0           0       -1.283406    1.137295    0.468489
     76          0           0       -1.284468    1.267744    0.738641
     77          0           0       -1.283052    1.093813    0.378438
     78          0           0       -1.284822    1.311226    0.828692
     79          0           0       -1.282698    1.050330    0.288388
     80          0           0       -1.285176    1.354709    0.918743
     81          0           0       -1.282344    1.006847    0.198337
     82          0           0       -1.285530    1.398192    1.008793
     83          0           0       -1.281990    0.963365    0.108286
     84          0           0       -1.283760    1.180778    0.558540
     85          0           0       -1.283943    1.314312    0.605108
     86          0           0       -1.283235    1.227347    0.425007
     87          0           0       -1.284297    1.357795    0.695159
     88          0           0       -1.282881    1.183864    0.334956
     89          0           0       -1.284651    1.401278    0.785209
     90          0           0       -1.282527    1.140381    0.244905
     91          0           0       -1.285005    1.444760    0.875260
     92          0           0       -1.282173    1.096899    0.154855
     93          0           0       -1.285359    1.488243    0.965311
     94          0           0       -1.281819    1.053416    0.064804
     95          0           0       -1.283589    1.270829    0.515057
     96          0           0       -1.283772    1.404364    0.561626
     97          0           0       -1.283064    1.317398    0.381524
     98          0           0       -1.284126    1.447846    0.651676
     99          0           0       -1.282710    1.273915    0.291474
    100          0           0       -1.284480    1.491329    0.741727
    101          0           0       -1.282356    1.230433    0.201423
    102          0           0       -1.284834    1.534812    0.831778
    103          0           0       -1.282002    1.186950    0.111372
    104          0           0       -1.285188    1.578294    0.921828
    105          0           0       -1.281648    1.143467    0.021321
    106          0           0       -1.283418    1.360881    0.471575
    107          0           0       -1.283601    1.494415    0.518143
    108          0           0       -1.282893    1.407450    0.338042
    109          0           0       -1.283955    1.537898    0.608194
    110          0           0       -1.282539    1.363967    0.247991
    111          0           0       -1.284309    1.581380    0.698245
    112          0           0       -1.282185    1.320484    0.157940
    113          0           0       -1.284663    1.624863    0.788295
    114          0           0       -1.281831    1.277001    0.067890
    115          0           0       -1.285017    1.668346    0.878346
    116          0           0       -1.281477    1.233519   -0.022161
    117          0           0       -1.283247    1.450932    0.428093
    118          0           0       -1.283430    1.584466    0.474661
    119          0           0       -1.282722    1.497501    0.294559
    120          0           0       -1.283784    1.627949    0.564712
    121          0           0       -1.282368    1.454018    0.204509
    122          0           0       -1.284138    1.671432    0.654762
    123          0           0       -1.282014    1.410536    0.114458
    124          0           0       -1.284492    1.714915    0.744813
    125          0           0       -1.281660    1.367053    0.024407
    126          0           0       -1.284846    1.758397    0.834864
    127          0           0       -1.281306    1.323570   -0.065643
    128          0           0       -1.283076    1.540984    0.384610
    129          0           0       -1.283259    1.674518    0.431179
    130          0           0       -1.282551    1.587552    0.251077
    131          0           0       -1.283613    1.718001    0.521229
    132          0           0       -1.282197    1.544070    0.161026
    133          0           0       -1.283967    1.761483    0.611280
    134          0           0       -1.281843    1.500587    0.070976
    135          0           0       -1.284321    1.804966    0.701331
    136          0           0       -1.281489    1.457104   -0.019075
    137          0           0       -1.284675    1.848449    0.791381
    138          0           0       -1.281135    1.413621   -0.109126
    139          0           0       -1.282905    1.631035    0.341128
    140          0           0       -1.283088    1.764569    0.387696
    141          0           0       -1.282380    1.677604    0.207595
    142          0           0       -1.283442    1.808052    0.477747
    143          0           0       -1.282026    1.634121    0.117544
    144          0           0       -1.283796    1.851535    0.567798
    145          0           0       -1.281672    1.590638    0.027493
    146          0           0       -1.284150    1.895017    0.657848
    147          0           0       -1.281318    1.547156   -0.062557
    148          0           0       -1.284504    1.938500    0.747899
    149          0           0       -1.280964    1.503673   -0.152608
    150          0           0       -1.282734    1.721086    0.297645
    151          0           0       -1.282917    1.854621    0.344214
    152          0           0       -1.282209    1.767655    0.164112
    153          0           0       -1.283271    1.898103    0.434264
    154          0           0       -1.281855    1.724172    0.074062
    155          0           0       -1.283625    1.941586    0.524315
    156          0           0       -1.281501    1.680690   -0.015989
    157          0           0       -1.283979    1.985069    0.614366
    158          0           0       -1.281147    1.637207   -0.106040
    159          0           0       -1.284333    2.028551    0.704417
    160          0           0       -1.280793    1.593724   -0.196090
    161          0           0       -1.282563    1.811138    0.254163
    162          0           0       -1.282747    1.944672    0.300731
    163          0           0       -1.282039    1.857707    0.120630
    164          0           0       -1.283101    1.988155    0.390782
    165          0           0       -1.281685    1.814224    0.030579
    166          0           0       -1.283455    2.031637    0.480833
    167          0           0       -1.281331    1.770741   -0.059471
    168          0           0       -1.283809    2.075120    0.570883
    169          0           0       -1.280977    1.727258   -0.149522
    170          0           0       -1.284163    2.118603    0.660934
    171          0           0       -1.280623    1.683776   -0.239573
    172          0           0       -1.282393    1.901189    0.210681
    173          0           0       -1.282576    2.034723    0.257249
    174          0           0       -1.281868    1.947758    0.077148
    175          0           0       -1.282930    2.078206    0.347300
    176          0           0       -1.281514    1.904275   -0.012903
    177          0           0       -1.283284    2.121689    0.437350
    178          0           0       -1.281160    1.860792   -0.102954
    179          0           0       -1.283638    2.165172    0.527401
    180          0           0       -1.280806    1.817310   -0.193004
    181          0           0       -1.283992    2.208654    0.617452
    182          0           0       -1.280452    1.773827   -0.283055
    183          0           0       -1.282222    1.991241    0.167198
    184          0           0       -1.282405    2.124775    0.213767
    185          0           0       -1.281697    2.037809    0.033665
    186          0           0       -1.282759    2.168257    0.303817
    187          0           0       -1.281343    1.994327   -0.056385
    188          0           0       -1.283113    2.211740    0.393868
    189          0           0       -1.280989    1.950844   -0.146436
    190          0           0       -1.283467    2.255223    0.483919
    191          0           0       -1.280635    1.907361   -0.236487
    192          0           0       -1.283821    2.298706    0.573969
    193          0           0       -1.280281    1.863878   -0.326538
    194          0           0       -1.282051    2.081292    0.123716
    195          0           0       -1.282234    2.214826    0.170284
    196          0           0       -1.281526    2.127861   -0.009817
    197          0           0       -1.282588    2.258309    0.260335
    198          0           0       -1.281172    2.084378   -0.099868
    199          0           0       -1.282942    2.301792    0.350386
    200          0           0       -1.280818    2.040895   -0.189919
    201          0           0       -1.283296    2.345274    0.440436
    202          0           0       -1.280464    1.997413   -0.279969
    203          0           0       -1.283650    2.388757    0.530487
    204          0           0       -1.280110    1.953930   -0.370020
    205          0           0       -1.281880    2.171343    0.080234
    206          0           0       -1.282063    2.304878    0.126802
    207          0           0       -1.281355    2.217912   -0.053300
    208          0           0       -1.282417    2.348360    0.216853
    209          0           0       -1.281001    2.174429   -0.143350
    210          0           0       -1.282771    2.391843    0.306903
    211          0           0       -1.280647    2.130947   -0.233401
    212          0           0       -1.283125    2.435326    0.396954
    213          0           0       -1.280293    2.087464   -0.323452
    214          0           0       -1.283479    2.478808    0.487005
    215          0           0       -1.279939    2.043981   -0.413502
    216          0           0       -1.281709    2.261395    0.036751
    217          0           0       -1.281892    2.394929    0.083319
    218          0           0       -1.281184    2.307963   -0.096782
    219          0           0       -1.282246    2.438412    0.173370
    220          0           0       -1.280830    2.264481   -0.186833
    221          0           0       -1.282600    2.481894    0.263421
    222          0           0       -1.280476    2.220998   -0.276883
    223          0           0       -1.282954    2.525377    0.353472
    224          0           0       -1.280122    2.177515   -0.366934
    225          0           0       -1.283308    2.568860    0.443522
    226          0           0       -1.279768    2.134033   -0.456985
    227          0           0       -1.281538    2.351446   -0.006731
    228          0           0       -1.281721    2.484980    0.039837
    229          0           0       -1.281013    2.398015   -0.140264
    230          0           0       -1.282075    2.528463    0.129888
    231          0           0       -1.280659    2.354532   -0.230315
    232          0           0       -1.282429    2.571946    0.219938
    233          0           0       -1.280305    2.311049   -0.320366
    234          0           0       -1.282783    2.615428    0.309989
    235          0           0       -1.279951    2.267567   -0.410416
    236          0           0       -1.283137    2.658911    0.400040
 ---------------------------------------------------------------------
 Rotational constants (GHZ):      0.4529074      0.2836956      0.1879557
 Standard basis: 6-311+G(d,p) (5D, 7F)
 Warning:  center  37 has no basis functions!
 Warning:  center  38 has no basis functions!
 Warning:  center  39 has no basis functions!
 Warning:  center  40 has no basis functions!
 Warning:  center  41 has no basis functions!
 Warning:  center  42 has no basis functions!
 Warning:  center  43 has no basis functions!
 Warning:  center  44 has no basis functions!
 Warning:  center  45 has no basis functions!
 Warning:  center  46 has no basis functions!
 Warning:  center  47 has no basis functions!
 Warning:  center  48 has no basis functions!
 Warning:  center  49 has no basis functions!
 Warning:  center  50 has no basis functions!
 Warning:  center  51 has no basis functions!
 Warning:  center  52 has no basis functions!
 Warning:  center  53 has no basis functions!
 Warning:  center  54 has no basis functions!
 Warning:  center  55 has no basis functions!
 Warning:  center  56 has no basis functions!
 Warning:  center  57 has no basis functions!
 Warning:  center  58 has no basis functions!
 Warning:  center  59 has no basis functions!
 Warning:  center  60 has no basis functions!
 Warning:  center  61 has no basis functions!
 Warning:  center  62 has no basis functions!
 Warning:  center  63 has no basis functions!
 Warning:  center  64 has no basis functions!
 Warning:  center  65 has no basis functions!
 Warning:  center  66 has no basis functions!
 Warning:  center  67 has no basis functions!
 Warning:  center  68 has no basis functions!
 Warning:  center  69 has no basis functions!
 Warning:  center  70 has no basis functions!
 Warning:  center  71 has no basis functions!
 Warning:  center  72 has no basis functions!
 Warning:  center  73 has no basis functions!
 Warning:  center  74 has no basis functions!
 Warning:  center  75 has no basis functions!
 Warning:  center  76 has no basis functions!
 Warning:  center  77 has no basis functions!
 Warning:  center  78 has no basis functions!
 Warning:  center  79 has no basis functions!
 Warning:  center  80 has no basis functions!
 Warning:  center  81 has no basis functions!
 Warning:  center  82 has no basis functions!
 Warning:  center  83 has no basis functions!
 Warning:  center  84 has no basis functions!
 Warning:  center  85 has no basis functions!
 Warning:  center  86 has no basis functions!
 Warning:  center  87 has no basis functions!
 Warning:  center  88 has no basis functions!
 Warning:  center  89 has no basis functions!
 Warning:  center  90 has no basis functions!
 Warning:  center  91 has no basis functions!
 Warning:  center  92 has no basis functions!
 Warning:  center  93 has no basis functions!
 Warning:  center  94 has no basis functions!
 Warning:  center  95 has no basis functions!
 Warning:  center  96 has no basis functions!
 Warning:  center  97 has no basis functions!
 Warning:  center  98 has no basis functions!
 Warning:  center  99 has no basis functions!
 Warning:  center 100 has no basis functions!
 Warning:  center 101 has no basis functions!
 Warning:  center 102 has no basis functions!
 Warning:  center 103 has no basis functions!
 Warning:  center 104 has no basis functions!
 Warning:  center 105 has no basis functions!
 Warning:  center 106 has no basis functions!
 Warning:  center 107 has no basis functions!
 Warning:  center 108 has no basis functions!
 Warning:  center 109 has no basis functions!
 Warning:  center 110 has no basis functions!
 Warning:  center 111 has no basis functions!
 Warning:  center 112 has no basis functions!
 Warning:  center 113 has no basis functions!
 Warning:  center 114 has no basis functions!
 Warning:  center 115 has no basis functions!
 Warning:  center 116 has no basis functions!
 Warning:  center 117 has no basis functions!
 Warning:  center 118 has no basis functions!
 Warning:  center 119 has no basis functions!
 Warning:  center 120 has no basis functions!
 Warning:  center 121 has no basis functions!
 Warning:  center 122 has no basis functions!
 Warning:  center 123 has no basis functions!
 Warning:  center 124 has no basis functions!
 Warning:  center 125 has no basis functions!
 Warning:  center 126 has no basis functions!
 Warning:  center 127 has no basis functions!
 Warning:  center 128 has no basis functions!
 Warning:  center 129 has no basis functions!
 Warning:  center 130 has no basis functions!
 Warning:  center 131 has no basis functions!
 Warning:  center 132 has no basis functions!
 Warning:  center 133 has no basis functions!
 Warning:  center 134 has no basis functions!
 Warning:  center 135 has no basis functions!
 Warning:  center 136 has no basis functions!
 Warning:  center 137 has no basis functions!
 Warning:  center 138 has no basis functions!
 Warning:  center 139 has no basis functions!
 Warning:  center 140 has no basis functions!
 Warning:  center 141 has no basis functions!
 Warning:  center 142 has no basis functions!
 Warning:  center 143 has no basis functions!
 Warning:  center 144 has no basis functions!
 Warning:  center 145 has no basis functions!
 Warning:  center 146 has no basis functions!
 Warning:  center 147 has no basis functions!
 Warning:  center 148 has no basis functions!
 Warning:  center 149 has no basis functions!
 Warning:  center 150 has no basis functions!
 Warning:  center 151 has no basis functions!
 Warning:  center 152 has no basis functions!
 Warning:  center 153 has no basis functions!
 Warning:  center 154 has no basis functions!
 Warning:  center 155 has no basis functions!
 Warning:  center 156 has no basis functions!
 Warning:  center 157 has no basis functions!
 Warning:  center 158 has no basis functions!
 Warning:  center 159 has no basis functions!
 Warning:  center 160 has no basis functions!
 Warning:  center 161 has no basis functions!
 Warning:  center 162 has no basis functions!
 Warning:  center 163 has no basis functions!
 Warning:  center 164 has no basis functions!
 Warning:  center 165 has no basis functions!
 Warning:  center 166 has no basis functions!
 Warning:  center 167 has no basis functions!
 Warning:  center 168 has no basis functions!
 Warning:  center 169 has no basis functions!
 Warning:  center 170 has no basis functions!
 Warning:  center 171 has no basis functions!
 Warning:  center 172 has no basis functions!
 Warning:  center 173 has no basis functions!
 Warning:  center 174 has no basis functions!
 Warning:  center 175 has no basis functions!
 Warning:  center 176 has no basis functions!
 Warning:  center 177 has no basis functions!
 Warning:  center 178 has no basis functions!
 Warning:  center 179 has no basis functions!
 Warning:  center 180 has no basis functions!
 Warning:  center 181 has no basis functions!
 Warning:  center 182 has no basis functions!
 Warning:  center 183 has no basis functions!
 Warning:  center 184 has no basis functions!
 Warning:  center 185 has no basis functions!
 Warning:  center 186 has no basis functions!
 Warning:  center 187 has no basis functions!
 Warning:  center 188 has no basis functions!
 Warning:  center 189 has no basis functions!
 Warning:  center 190 has no basis functions!
 Warning:  center 191 has no basis functions!
 Warning:  center 192 has no basis functions!
 Warning:  center 193 has no basis functions!
 Warning:  center 194 has no basis functions!
 Warning:  center 195 has no basis functions!
 Warning:  center 196 has no basis functions!
 Warning:  center 197 has no basis functions!
 Warning:  center 198 has no basis functions!
 Warning:  center 199 has no basis functions!
 Warning:  center 200 has no basis functions!
 Warning:  center 201 has no basis functions!
 Warning:  center 202 has no basis functions!
 Warning:  center 203 has no basis functions!
 Warning:  center 204 has no basis functions!
 Warning:  center 205 has no basis functions!
 Warning:  center 206 has no basis functions!
 Warning:  center 207 has no basis functions!
 Warning:  center 208 has no basis functions!
 Warning:  center 209 has no basis functions!
 Warning:  center 210 has no basis functions!
 Warning:  center 211 has no basis functions!
 Warning:  center 212 has no basis functions!
 Warning:  center 213 has no basis functions!
 Warning:  center 214 has no basis functions!
 Warning:  center 215 has no basis functions!
 Warning:  center 216 has no basis functions!
 Warning:  center 217 has no basis functions!
 Warning:  center 218 has no basis functions!
 Warning:  center 219 has no basis functions!
 Warning:  center 220 has no basis functions!
 Warning:  center 221 has no basis functions!
 Warning:  center 222 has no basis functions!
 Warning:  center 223 has no basis functions!
 Warning:  center 224 has no basis functions!
 Warning:  center 225 has no basis functions!
 Warning:  center 226 has no basis functions!
 Warning:  center 227 has no basis functions!
 Warning:  center 228 has no basis functions!
 Warning:  center 229 has no basis functions!
 Warning:  center 230 has no basis functions!
 Warning:  center 231 has no basis functions!
 Warning:  center 232 has no basis functions!
 Warning:  center 233 has no basis functions!
 Warning:  center 234 has no basis functions!
 Warning:  center 235 has no basis functions!
 Warning:  center 236 has no basis functions!
   568 basis functions,   904 primitive gaussians,   590 cartesian basis functions
    73 alpha electrons       73 beta electrons
       nuclear repulsion energy      1610.9176155625 Hartrees.
 NAtoms=  236 NActive=  236 NUniq=  236 SFac= 1.00D+00 NAtFMM=   60 NAOKFM=T Big=T
 Integral buffers will be    131072 words long.
 Raffenetti 2 integral format.
 Two-electron integral symmetry is turned off.
 One-electron integrals computed using PRISM.
 NBasis=   568 RedAO= T EigKep=  1.78D-06  NBF=   568
 NBsUse=   556 1.00D-06 EigRej=  9.09D-07 NBFU=   556
 ExpMin= 4.38D-02 ExpMax= 4.56D+03 ExpMxC= 6.82D+02 IAcc=2 IRadAn=         4 AccDes= 0.00D+00
 Harris functional with IExCor=  402 and IRadAn=       4 diagonalized for initial guess.
 HarFok:  IExCor=  402 AccDes= 0.00D+00 IRadAn=         4 IDoV= 1 UseB2=F ITyADJ=14
 ICtDFT=  3500011 ScaDFX=  1.000000  1.000000  1.000000  1.000000
 FoFCou: FMM=F IPFlag=           0 FMFlag=      100000 FMFlg1=        2001
         NFxFlg=           0 DoJE=T BraDBF=F KetDBF=T FulRan=T
         wScrn=  0.000000 ICntrl=     500 IOpCl=  0 I1Cent=   200000004 NGrid=           0
         NMat0=    1 NMatS0=      1 NMatT0=    0 NMatD0=    1 NMtDS0=    0 NMtDT0=    0
 Symmetry not used in FoFCou.
 Requested convergence on RMS density matrix=1.00D-08 within 128 cycles.
 Requested convergence on MAX density matrix=1.00D-06.
 Requested convergence on             energy=1.00D-06.
 No special actions if energy rises.
 SCF Done:  E(RB3LYP) =  -847.003289847     A.U. after   15 cycles
            NFock= 15  Conv=0.75D-08     -V/T= 2.0040
 DoSCS=F DFT=T ScalE2(SS,OS)=  1.000000  1.000000
 Range of M.O.s used for correlation:     1   556
 NBasis=   568 NAE=    73 NBE=    73 NFC=     0 NFV=     0
 NROrb=    556 NOA=    73 NOB=    73 NVA=   483 NVB=   483

 **** Warning!!: The largest alpha MO coefficient is  0.10971036D+03

          Differentiating once with respect to magnetic field using GIAOs.
          Electric field/nuclear overlap derivatives assumed to be zero.
 FoFCou: FMM=F IPFlag=           0 FMFlag=      100000 FMFlg1=        2001
         NFxFlg=           0 DoJE=F BraDBF=F KetDBF=T FulRan=T
         wScrn=  0.000000 ICntrl=    6100 IOpCl=  0 I1Cent=           7 NGrid=         236
         NMat0=    1 NMatS0=      1 NMatT0=    0 NMatD0=    1 NMtDS0=    0 NMtDT0=    0
 Symmetry not used in FoFCou.
 FoFJK:  IHMeth= 1 ICntrl=    6127 DoSepK=F KAlg= 0 I1Cent=   0 FoldK=F
 IRaf=         1 NMat=   1 IRICut=       1 DoRegI=T DoRafI=F ISym2E= 0.
          There are     3 degrees of freedom in the 1st order CPHF.  IDoFFX=0 NUNeed=     3.
      3 vectors produced by pass  0 Test12= 1.18D-12 3.33D-08 XBig12= 2.07D+03 9.18D+00.
 AX will form     3 AO Fock derivatives at one time.
      3 vectors produced by pass  1 Test12= 1.18D-12 3.33D-08 XBig12= 3.56D+00 8.03D-01.
      3 vectors produced by pass  2 Test12= 1.18D-12 3.33D-08 XBig12= 2.10D-02 6.92D-02.
      3 vectors produced by pass  3 Test12= 1.18D-12 3.33D-08 XBig12= 5.45D-05 1.89D-03.
      3 vectors produced by pass  4 Test12= 1.18D-12 3.33D-08 XBig12= 1.20D-07 7.79D-05.
      3 vectors produced by pass  5 Test12= 1.18D-12 3.33D-08 XBig12= 4.02D-10 4.73D-06.
      3 vectors produced by pass  6 Test12= 1.18D-12 3.33D-08 XBig12= 1.32D-12 2.61D-07.
 InvSVY:  IOpt=1 It=  1 EMax= 7.11D-15
 Solved reduced A of dimension    21 with     3 vectors.
 Calculating GIAO nuclear magnetic shielding tensors.
 SCF GIAO Magnetic shielding tensor (ppm):
      1  C    Isotropic =    53.8139   Anisotropy =   178.0260
   XX=   -41.4327   YX=   -32.3458   ZX=    10.0287
   XY=   -28.3572   YY=    59.0527   ZY=    55.1899
   XZ=    13.1759   YZ=    58.7550   ZZ=   143.8218
   Eigenvalues:   -53.8775    42.8214   172.4979
      2  H    Isotropic =    24.3095   Anisotropy =     4.8536
   XX=    25.5771   YX=    -1.0289   ZX=     0.5661
   XY=    -0.7431   YY=    26.1829   ZY=    -2.3306
   XZ=    -0.1707   YZ=    -2.4411   ZZ=    21.1687
   Eigenvalues:    20.2108    25.1725    27.5453
      3  C    Isotropic =    51.4055   Anisotropy =   157.8639
   XX=   -31.5399   YX=    38.5015   ZX=   -17.9316
   XY=    34.3519   YY=    49.9437   ZY=    49.6392
   XZ=    -9.8383   YZ=    44.6006   ZZ=   135.8127
   Eigenvalues:   -50.5747    48.1432   156.6481
      4  H    Isotropic =    23.8290   Anisotropy =     7.1838
   XX=    25.3635   YX=     1.8486   ZX=    -0.3559
   XY=     1.9656   YY=    26.4581   ZY=    -2.4103
   XZ=    -1.2941   YZ=    -2.6614   ZZ=    19.6654
   Eigenvalues:    18.8176    24.0511    28.6182
      5  C    Isotropic =    46.0697   Anisotropy =   207.6751
   XX=   -19.2123   YX=    -4.8852   ZX=    -1.6475
   XY=     2.8938   YY=    -2.9860   ZY=    66.5656
   XZ=     2.5356   YZ=    67.9144   ZZ=   160.4073
   Eigenvalues:   -27.2455   -19.0652   184.5197
      6  C    Isotropic =    47.5218   Anisotropy =   196.9389
   XX=   -28.1552   YX=    -2.7889   ZX=    12.0660
   XY=   -14.3886   YY=    21.2063   ZY=    74.2521
   XZ=   -18.6356   YZ=    61.1113   ZZ=   149.5144
   Eigenvalues:   -30.2925    -5.9564   178.8144
      7  C    Isotropic =    49.3915   Anisotropy =   179.8333
   XX=   -12.5211   YX=    28.7048   ZX=   -24.6745
   XY=    31.5123   YY=    29.7000   ZY=    77.7459
   XZ=   -40.0095   YZ=    65.3072   ZZ=   130.9956
   Eigenvalues:   -52.1299    31.0240   169.2804
      8  H    Isotropic =    23.1586   Anisotropy =    13.5525
   XX=    28.5711   YX=     1.5482   ZX=    -3.6986
   XY=     3.2466   YY=    22.7592   ZY=    -2.1157
   XZ=    -8.3753   YZ=    -1.0821   ZZ=    18.1456
   Eigenvalues:    15.3521    21.9301    32.1936
      9  C    Isotropic =    55.1460   Anisotropy =   174.7426
   XX=    46.7071   YX=    -2.6162   ZX=    -2.8420
   XY=     0.6223   YY=    -1.6258   ZY=    92.8272
   XZ=     0.5159   YZ=    95.6598   ZZ=   120.3568
   Eigenvalues:   -52.8932    46.6901   171.6411
     10  H    Isotropic =    24.6278   Anisotropy =     7.1815
   XX=    29.1040   YX=     0.1399   ZX=    -0.3694
   XY=     0.3642   YY=    23.4778   ZY=    -1.0805
   XZ=    -2.4493   YZ=    -2.9465   ZZ=    21.3016
   Eigenvalues:    19.9703    24.4977    29.4155
     11  C    Isotropic =    51.5607   Anisotropy =   151.2142
   XX=     2.1639   YX=    40.9287   ZX=   -26.0048
   XY=    49.9131   YY=    12.2331   ZY=    42.1342
   XZ=   -15.6145   YZ=    38.6614   ZZ=   140.2851
   Eigenvalues:   -48.1951    50.5071   152.3701
     12  H    Isotropic =    23.8537   Anisotropy =     7.3815
   XX=    25.9672   YX=     2.3738   ZX=    -0.2390
   XY=     2.4320   YY=    26.3975   ZY=    -1.8291
   XZ=     0.3529   YZ=    -1.7731   ZZ=    19.1964
   Eigenvalues:    18.7149    24.0714    28.7747
     13  C    Isotropic =    52.8653   Anisotropy =   147.4265
   XX=    51.2944   YX=    19.9221   ZX=   -13.4678
   XY=    11.5478   YY=   -34.0176   ZY=    42.5079
   XZ=    -9.2241   YZ=    40.0716   ZZ=   141.3192
   Eigenvalues:   -46.5152    53.9616   151.1497
     14  H    Isotropic =    24.0156   Anisotropy =     7.3485
   XX=    28.6644   YX=     0.6281   ZX=     1.0808
   XY=     0.5926   YY=    24.4325   ZY=    -1.0823
   XZ=     1.6846   YZ=    -0.3842   ZZ=    18.9500
   Eigenvalues:    18.6430    24.4892    28.9146
     15  C    Isotropic =    46.2221   Anisotropy =   203.9048
   XX=   -27.2215   YX=    -0.0442   ZX=   -28.9124
   XY=     4.6427   YY=   -10.5571   ZY=    28.3830
   XZ=   -10.2704   YZ=    26.7376   ZZ=   176.4448
   Eigenvalues:   -30.5512   -12.9411   182.1586
     16  C    Isotropic =    51.9375   Anisotropy =   188.2004
   XX=   -19.4441   YX=     5.5046   ZX=    15.7858
   XY=    -8.3874   YY=     2.4863   ZY=    22.9264
   XZ=   -50.6243   YZ=    23.3340   ZZ=   172.7704
   Eigenvalues:   -21.0294    -0.5625   177.4045
     17  C    Isotropic =    51.9482   Anisotropy =   149.1264
   XX=    50.7296   YX=   -23.9353   ZX=   -18.4207
   XY=   -16.7271   YY=   -41.8764   ZY=    17.8662
   XZ=   -14.3278   YZ=    11.4871   ZZ=   146.9915
   Eigenvalues:   -46.7796    51.2584   151.3658
     18  H    Isotropic =    24.0122   Anisotropy =     7.5163
   XX=    28.5811   YX=    -0.0866   ZX=     1.5071
   XY=    -0.2466   YY=    24.3342   ZY=    -0.7657
   XZ=     2.5088   YZ=    -1.5208   ZZ=    19.1214
   Eigenvalues:    18.5094    24.5041    29.0231
     19  C    Isotropic =    51.7356   Anisotropy =   148.5924
   XX=     2.4559   YX=   -45.6913   ZX=   -31.2531
   XY=   -53.4448   YY=     7.4698   ZY=    -1.8888
   XZ=   -23.5601   YZ=    -1.2765   ZZ=   145.2810
   Eigenvalues:   -46.9894    51.3989   150.7972
     20  H    Isotropic =    23.9071   Anisotropy =     7.6651
   XX=    25.5796   YX=    -2.0226   ZX=     1.4905
   XY=    -1.9998   YY=    27.3706   ZY=    -0.5164
   XZ=     2.7276   YZ=    -1.1179   ZZ=    18.7711
   Eigenvalues:    18.1643    24.5398    29.0172
     21  C    Isotropic =    45.9767   Anisotropy =   203.9316
   XX=   -16.2108   YX=    13.1802   ZX=   -44.5913
   XY=     6.5714   YY=   -20.6329   ZY=     0.0949
   XZ=   -28.8984   YZ=   -13.0883   ZZ=   174.7736
   Eigenvalues:   -30.5796   -13.4215   181.9311
     22  C    Isotropic =    52.0450   Anisotropy =   188.1157
   XX=    -0.0787   YX=     2.5023   ZX=   -16.3451
   XY=    18.9327   YY=   -14.4798   ZY=   -34.4335
   XZ=   -50.6032   YZ=    19.9104   ZZ=   170.6934
   Eigenvalues:   -20.7705    -0.5500   177.4554
     23  C    Isotropic =    53.2392   Anisotropy =   146.7412
   XX=   -22.0674   YX=   -32.0012   ZX=   -49.4857
   XY=   -23.2043   YY=    44.3661   ZY=   -15.6400
   XZ=   -43.8090   YZ=   -20.2525   ZZ=   137.4189
   Eigenvalues:   -45.6776    54.3286   151.0667
     24  H    Isotropic =    23.8249   Anisotropy =     7.5289
   XX=    25.1073   YX=    -1.7330   ZX=     1.5380
   XY=    -1.5944   YY=    28.0047   ZY=     0.0879
   XZ=     1.2557   YZ=    -0.8283   ZZ=    18.3628
   Eigenvalues:    18.0848    24.5458    28.8442
     25  C    Isotropic =    51.4969   Anisotropy =   150.1066
   XX=   -28.4915   YX=    33.9684   ZX=   -52.3137
   XY=    22.0311   YY=    46.6072   ZY=    -3.8075
   XZ=   -44.5594   YZ=   -10.6355   ZZ=   136.3748
   Eigenvalues:   -48.3857    51.3083   151.5679
     26  H    Isotropic =    23.7431   Anisotropy =     7.4052
   XX=    24.0663   YX=     1.1141   ZX=     1.9989
   XY=     0.9693   YY=    28.1000   ZY=     1.6568
   XZ=     2.0795   YZ=     0.8886   ZZ=    19.0630
   Eigenvalues:    18.2615    24.2880    28.6799
     27  C    Isotropic =    45.8108   Anisotropy =   207.2710
   XX=    -2.7702   YX=    13.7697   ZX=   -61.4651
   XY=     6.5593   YY=   -12.0335   ZY=   -41.6456
   XZ=   -62.6381   YZ=   -44.9232   ZZ=   152.2361
   Eigenvalues:   -28.0803   -18.4787   183.9915
     28  C    Isotropic =    47.8398   Anisotropy =   197.2870
   XX=    19.6900   YX=    14.4398   ZX=   -60.5682
   XY=    28.5650   YY=   -19.3566   ZY=   -56.7015
   XZ=   -63.1331   YZ=   -24.4782   ZZ=   143.1859
   Eigenvalues:   -30.5979    -5.2472   179.3644
     29  C    Isotropic =    49.3441   Anisotropy =   179.7793
   XX=    -3.4110   YX=    38.3775   ZX=   -80.8875
   XY=    36.1252   YY=    25.9805   ZY=   -23.7573
   XZ=   -78.1065   YZ=    -3.9802   ZZ=   125.4627
   Eigenvalues:   -51.6645    30.4997   169.1970
     30  H    Isotropic =    23.1387   Anisotropy =    13.3222
   XX=    22.4354   YX=    -0.7013   ZX=    -0.2375
   XY=    -2.1539   YY=    28.3546   ZY=     4.5555
   XZ=    -3.4181   YZ=     8.3231   ZZ=    18.6259
   Eigenvalues:    15.2751    22.1208    32.0201
     31  C    Isotropic =    55.4410   Anisotropy =   174.9390
   XX=    17.1871   YX=   -14.0890   ZX=   -84.0024
   XY=   -17.9030   YY=    37.4745   ZY=   -50.3662
   XZ=   -84.6557   YZ=   -54.8325   ZZ=   111.6615
   Eigenvalues:   -51.9248    46.1808   172.0670
     32  H    Isotropic =    24.5337   Anisotropy =     7.2554
   XX=    24.6185   YX=    -2.5264   ZX=     0.7632
   XY=    -2.7385   YY=    27.4630   ZY=     1.0335
   XZ=     1.1913   YZ=     3.7573   ZZ=    21.5194
   Eigenvalues:    19.8987    24.3316    29.3706
     33  C    Isotropic =    53.1814   Anisotropy =   179.0596
   XX=    60.9231   YX=    35.2256   ZX=   -42.9515
   XY=    32.0226   YY=   -38.1801   ZY=   -45.5652
   XZ=   -44.2248   YZ=   -50.7831   ZZ=   136.8014
   Eigenvalues:   -55.1197    42.1095   172.5545
     34  H    Isotropic =    24.2825   Anisotropy =     5.1861
   XX=    26.7643   YX=    -0.0934   ZX=     2.5955
   XY=    -0.2993   YY=    24.8157   ZY=     0.8589
   XZ=     2.3715   YZ=     1.4580   ZZ=    21.2676
   Eigenvalues:    20.0339    25.0737    27.7399
     35  C    Isotropic =    51.5295   Anisotropy =   155.1748
   XX=    -0.5131   YX=    52.5760   ZX=   -52.1551
   XY=    55.6135   YY=    25.1843   ZY=   -14.2643
   XZ=   -45.7255   YZ=   -17.1625   ZZ=   129.9171
   Eigenvalues:   -48.3147    47.9237   154.9793
     36  H    Isotropic =    23.8384   Anisotropy =     7.3073
   XX=    24.2302   YX=     1.4459   ZX=     2.1759
   XY=     1.2147   YY=    27.1572   ZY=     2.0665
   XZ=     1.6853   YZ=     2.7775   ZZ=    20.1277
   Eigenvalues:    18.9464    23.8588    28.7099
     37  Bq   Isotropic =   -23.2788   Anisotropy =    76.2629
   XX=   -59.2692   YX=   -15.5727   ZX=    -6.6127
   XY=   -10.8953   YY=   -28.1709   ZY=    19.8252
   XZ=    -5.7584   YZ=    23.5143   ZZ=    17.6037
   Eigenvalues:   -64.1790   -33.2205    27.5631
     38  Bq   Isotropic =    13.4127   Anisotropy =    19.2274
   XX=     7.4848   YX=     2.2192   ZX=    -1.7653
   XY=     7.8276   YY=     7.4903   ZY=     7.0512
   XZ=     6.3428   YZ=    -1.3558   ZZ=    25.2628
   Eigenvalues:     2.4570    11.5501    26.2309
     39  Bq   Isotropic =   -36.0880   Anisotropy =    87.0580
   XX=   -77.7988   YX=   -11.8434   ZX=     4.1925
   XY=   -12.6474   YY=   -41.2057   ZY=    28.4193
   XZ=    -5.1711   YZ=    24.0338   ZZ=    10.7406
   Eigenvalues:   -82.1692   -48.0453    21.9507
     40  Bq   Isotropic =    22.3942   Anisotropy =    16.8373
   XX=    16.8580   YX=    -3.3951   ZX=    -8.9669
   XY=     3.4973   YY=    18.1076   ZY=     1.6212
   XZ=    -0.5882   YZ=    -0.0097   ZZ=    32.2169
   Eigenvalues:    15.4651    18.0983    33.6191
     41  Bq   Isotropic =    22.7024   Anisotropy =    17.6412
   XX=    17.9124   YX=    -1.6901   ZX=    -5.6509
   XY=     4.3615   YY=    16.3424   ZY=     2.1178
   XZ=     0.9320   YZ=     2.7104   ZZ=    33.8523
   Eigenvalues:    15.0058    18.6382    34.4632
     42  Bq   Isotropic =    21.1413   Anisotropy =    27.9505
   XX=    14.4140   YX=    -8.9587   ZX=    -9.3886
   XY=    -2.9104   YY=    12.4706   ZY=    -0.4330
   XZ=    -4.7307   YZ=     8.6051   ZZ=    36.5393
   Eigenvalues:     7.3399    16.3091    39.7750
     43  Bq   Isotropic =    20.7370   Anisotropy =    17.3148
   XX=    15.6430   YX=     0.2252   ZX=    -4.1856
   XY=     6.1377   YY=    14.7050   ZY=     3.9553
   XZ=     2.9471   YZ=     1.4526   ZZ=    31.8632
   Eigenvalues:    11.6570    18.2739    32.2802
     44  Bq   Isotropic =    14.7483   Anisotropy =    39.5377
   XX=     4.2418   YX=   -14.2835   ZX=   -10.3380
   XY=    -8.5543   YY=     3.9576   ZY=     1.1529
   XZ=    -6.8154   YZ=    13.8367   ZZ=    36.0455
   Eigenvalues:    -7.3329    10.4710    41.1067
     45  Bq   Isotropic =    18.3003   Anisotropy =    18.3016
   XX=    12.7179   YX=     1.3213   ZX=    -3.1410
   XY=     7.0523   YY=    12.3300   ZY=     5.4779
   XZ=     4.1976   YZ=     0.8687   ZZ=    29.8528
   Eigenvalues:     8.1546    16.2449    30.5013
     46  Bq   Isotropic =     3.4337   Anisotropy =    54.6289
   XX=   -13.3262   YX=   -19.4860   ZX=    -8.4957
   XY=   -14.6981   YY=    -9.4100   ZY=     6.8011
   XZ=    -6.5489   YZ=    20.0964   ZZ=    33.0373
   Eigenvalues:   -28.7736    -0.7783    39.8530
     47  Bq   Isotropic =    15.8931   Anisotropy =    19.4934
   XX=     9.8498   YX=     1.8506   ZX=    -2.4408
   XY=     7.3807   YY=     9.8771   ZY=     6.5710
   XZ=     4.8094   YZ=     0.7122   ZZ=    27.9524
   Eigenvalues:     5.1088    13.6818    28.8887
     48  Bq   Isotropic =   -10.3497   Anisotropy =    69.4453
   XX=   -34.2725   YX=   -22.1565   ZX=    -2.1710
   XY=   -19.6173   YY=   -24.0163   ZY=    16.6763
   XZ=    -3.4535   YZ=    24.6381   ZZ=    27.2397
   Eigenvalues:   -52.1893   -14.8070    35.9472
     49  Bq   Isotropic =    13.7424   Anisotropy =    20.4213
   XX=     7.3457   YX=     2.0128   ZX=    -1.9896
   XY=     7.3329   YY=     7.6673   ZY=     7.2584
   XZ=     4.9496   YZ=     0.8164   ZZ=    26.2143
   Eigenvalues:     2.6924    11.1782    27.3567
     50  Bq   Isotropic =   -19.7701   Anisotropy =    77.9780
   XX=   -48.3919   YX=   -20.6672   ZX=     7.5702
   XY=   -22.0466   YY=   -32.7315   ZY=    27.6589
   XZ=     0.3316   YZ=    23.6384   ZZ=    21.8129
   Eigenvalues:   -67.2314   -24.2942    32.2152
     51  Bq   Isotropic =    23.2867   Anisotropy =    20.7934
   XX=    18.1856   YX=    -4.6929   ZX=    -7.4998
   XY=     1.4205   YY=    16.1135   ZY=     0.3674
   XZ=    -1.7863   YZ=     4.9726   ZZ=    35.5609
   Eigenvalues:    15.2121    17.4989    37.1490
     52  Bq   Isotropic =    22.4480   Anisotropy =    19.7783
   XX=    17.9105   YX=    -2.0114   ZX=    -4.8041
   XY=     3.3372   YY=    15.1931   ZY=     2.0992
   XZ=    -0.7656   YZ=     6.9429   ZZ=    34.2403
   Eigenvalues:    13.7619    17.9485    35.6335
     53  Bq   Isotropic =    22.2419   Anisotropy =    28.6730
   XX=    18.1192   YX=    -9.0788   ZX=    -6.6963
   XY=    -4.2106   YY=    11.0744   ZY=    -0.5913
   XZ=    -5.4451   YZ=    13.0640   ZZ=    37.5321
   Eigenvalues:     6.8877    18.4808    41.3573
     54  Bq   Isotropic =    20.4806   Anisotropy =    19.2252
   XX=    15.2590   YX=    -0.0764   ZX=    -3.8408
   XY=     5.2738   YY=    14.0073   ZY=     4.0099
   XZ=     1.1393   YZ=     5.1677   ZZ=    32.1754
   Eigenvalues:    11.0061    17.1382    33.2974
     55  Bq   Isotropic =    18.1922   Anisotropy =    37.5591
   XX=    12.9714   YX=   -14.1189   ZX=    -6.5258
   XY=    -9.8926   YY=     3.7799   ZY=     0.8125
   XZ=    -6.7435   YZ=    17.3389   ZZ=    37.8252
   Eigenvalues:    -4.8399    16.1848    43.2316
     56  Bq   Isotropic =    18.1496   Anisotropy =    19.8332
   XX=    12.2819   YX=     1.0617   ZX=    -3.0912
   XY=     6.3294   YY=    12.0133   ZY=     5.5986
   XZ=     2.4384   YZ=     4.0370   ZZ=    30.1535
   Eigenvalues:     7.8042    15.2729    31.3717
     57  Bq   Isotropic =    11.0814   Anisotropy =    48.0005
   XX=     3.5472   YX=   -19.1990   ZX=    -4.2345
   XY=   -16.0789   YY=    -6.6571   ZY=     5.9150
   XZ=    -5.8563   YZ=    21.5025   ZZ=    36.3542
   Eigenvalues:   -21.0919    11.2544    43.0817
     58  Bq   Isotropic =    15.8611   Anisotropy =    20.6983
   XX=     9.4826   YX=     1.6343   ZX=    -2.5493
   XY=     6.7725   YY=     9.8317   ZY=     6.7402
   XZ=     3.1807   YZ=     3.3787   ZZ=    28.2691
   Eigenvalues:     4.9545    12.9689    29.6600
     59  Bq   Isotropic =     2.7547   Anisotropy =    57.4221
   XX=    -7.7546   YX=   -22.6085   ZX=     1.0208
   XY=   -21.2515   YY=   -17.0442   ZY=    15.0221
   XZ=    -2.2858   YZ=    23.6061   ZZ=    33.0629
   Eigenvalues:   -37.9679     5.1959    41.0361
     60  Bq   Isotropic =    13.8095   Anisotropy =    21.3950
   XX=     7.0768   YX=     1.8324   ZX=    -2.1729
   XY=     6.8145   YY=     7.7969   ZY=     7.4535
   XZ=     3.4834   YZ=     3.0531   ZZ=    26.5547
   Eigenvalues:     2.6657    10.6899    28.0728
     61  Bq   Isotropic =    -2.7055   Anisotropy =    62.6591
   XX=   -15.4579   YX=   -22.7236   ZX=     8.5197
   XY=   -23.7116   YY=   -22.2204   ZY=    25.9269
   XZ=     2.8466   YZ=    21.7216   ZZ=    29.5617
   Eigenvalues:   -48.5427     1.3590    39.0672
     62  Bq   Isotropic =    23.3544   Anisotropy =    22.6768
   XX=    19.3110   YX=    -4.9725   ZX=    -5.8732
   XY=     0.2376   YY=    14.6056   ZY=     0.2803
   XZ=    -3.1307   YZ=     9.5412   ZZ=    36.1467
   Eigenvalues:    13.1796    18.4114    38.4723
     63  Bq   Isotropic =    21.4346   Anisotropy =    20.5491
   XX=    17.3293   YX=    -1.8437   ZX=    -4.0032
   XY=     2.8043   YY=    14.3436   ZY=     2.5146
   XZ=    -2.4070   YZ=    10.3107   ZZ=    32.6309
   Eigenvalues:    11.9173    17.2526    35.1340
     64  Bq   Isotropic =    22.1301   Anisotropy =    26.8702
   XX=    20.2882   YX=    -7.9060   ZX=    -4.5699
   XY=    -3.9971   YY=    10.9080   ZY=     0.1572
   XZ=    -6.2603   YZ=    15.7641   ZZ=    35.1943
   Eigenvalues:     7.0539    19.2930    40.0436
     65  Bq   Isotropic =    19.6235   Anisotropy =    20.2174
   XX=    14.4834   YX=    -0.1013   ZX=    -3.4727
   XY=     4.6591   YY=    13.3973   ZY=     4.2933
   XZ=    -0.6215   YZ=     8.3160   ZZ=    30.9899
   Eigenvalues:     9.7101    16.0587    33.1018
     66  Bq   Isotropic =    19.9238   Anisotropy =    32.7824
   XX=    18.8643   YX=   -12.0207   ZX=    -3.8318
   XY=    -8.8257   YY=     5.3680   ZY=     1.4542
   XZ=    -7.0217   YZ=    18.6611   ZZ=    35.5392
   Eigenvalues:    -1.4648    19.4575    41.7788
     67  Bq   Isotropic =    17.5340   Anisotropy =    20.7594
   XX=    11.5737   YX=     0.9493   ZX=    -2.9987
   XY=     5.7172   YY=    11.6874   ZY=     5.8064
   XZ=     0.7056   YZ=     6.8444   ZZ=    29.3409
   Eigenvalues:     6.9618    14.2666    31.3736
     68  Bq   Isotropic =    15.9945   Anisotropy =    38.9839
   XX=    15.1881   YX=   -16.0921   ZX=    -1.6604
   XY=   -13.8706   YY=    -2.0579   ZY=     5.8006
   XZ=    -5.8619   YZ=    20.6846   ZZ=    34.8534
   Eigenvalues:   -12.7631    18.7628    41.9838
     69  Bq   Isotropic =    15.4776   Anisotropy =    21.4924
   XX=     8.9253   YX=     1.4897   ZX=    -2.6168
   XY=     6.1993   YY=     9.7451   ZY=     6.9091
   XZ=     1.5609   YZ=     5.8215   ZZ=    27.7624
   Eigenvalues:     4.4461    12.1809    29.8059
     70  Bq   Isotropic =    11.5952   Anisotropy =    43.7756
   XX=    10.5210   YX=   -18.9865   ZX=     2.2333
   XY=   -17.9692   YY=    -8.9618   ZY=    13.3020
   XZ=    -2.4428   YZ=    20.6543   ZZ=    33.2263
   Eigenvalues:   -23.8954    17.9020    40.7789
     71  Bq   Isotropic =    13.6163   Anisotropy =    22.0771
   XX=     6.6763   YX=     1.6816   ZX=    -2.3236
   XY=     6.2924   YY=     7.8838   ZY=     7.5999
   XZ=     2.0150   YZ=     5.1549   ZZ=    26.2888
   Eigenvalues:     2.3928    10.1217    28.3344
     72  Bq   Isotropic =     8.9118   Anisotropy =    45.9501
   XX=     7.3560   YX=   -19.5972   ZX=     7.2565
   XY=   -19.8777   YY=   -12.0492   ZY=    22.2736
   XZ=     2.4114   YZ=    17.8227   ZZ=    31.4287
   Eigenvalues:   -30.6012    17.7914    39.5452
     73  Bq   Isotropic =    22.4744   Anisotropy =    22.6218
   XX=    19.5311   YX=    -4.4337   ZX=    -4.4643
   XY=    -0.0531   YY=    13.7780   ZY=     0.8773
   XZ=    -4.4521   YZ=    12.8398   ZZ=    34.1140
   Eigenvalues:    11.5794    18.2882    37.5556
     74  Bq   Isotropic =    19.8110   Anisotropy =    20.2357
   XX=    16.1119   YX=    -1.3620   ZX=    -3.3673
   XY=     2.6508   YY=    13.7496   ZY=     3.0354
   XZ=    -3.8519   YZ=    12.4715   ZZ=    29.5716
   Eigenvalues:     9.9175    16.2141    33.3015
     75  Bq   Isotropic =    20.8447   Anisotropy =    23.6430
   XX=    20.4480   YX=    -6.1198   ZX=    -3.1600
   XY=    -2.9054   YY=    11.4374   ZY=     0.9921
   XZ=    -7.0199   YZ=    16.5722   ZZ=    30.6488
   Eigenvalues:     7.5364    18.3910    36.6067
     76  Bq   Isotropic =    18.2882   Anisotropy =    20.3962
   XX=    13.3208   YX=     0.0688   ZX=    -3.1553
   XY=     4.2595   YY=    12.8776   ZY=     4.6178
   XZ=    -2.2081   YZ=    10.5843   ZZ=    28.6660
   Eigenvalues:     8.0534    14.9254    31.8856
     77  Bq   Isotropic =    19.7855   Anisotropy =    26.9679
   XX=    21.1211   YX=    -9.1961   ZX=    -2.2774
   XY=    -6.6199   YY=     7.6348   ZY=     1.9875
   XZ=    -7.4567   YZ=    17.9948   ZZ=    30.6005
   Eigenvalues:     2.0316    19.5607    37.7641
     78  Bq   Isotropic =    16.5420   Anisotropy =    21.0966
   XX=    10.6174   YX=     0.9474   ZX=    -2.9038
   XY=     5.2119   YY=    11.3599   ZY=     5.9956
   XZ=    -0.8926   YZ=     9.0307   ZZ=    27.6487
   Eigenvalues:     5.7901    13.2295    30.6064
     79  Bq   Isotropic =    17.8052   Anisotropy =    30.0019
   XX=    20.5995   YX=   -12.1625   ZX=    -0.5276
   XY=   -10.3370   YY=     2.6997   ZY=     5.2729
   XZ=    -6.2986   YZ=    18.1659   ZZ=    30.1164
   Eigenvalues:    -5.2064    20.8155    37.8064
     80  Bq   Isotropic =    14.8026   Anisotropy =    21.8606
   XX=     8.2043   YX=     1.4003   ZX=    -2.6620
   XY=     5.6675   YY=     9.6178   ZY=     7.0166
   XZ=     0.0373   YZ=     7.8344   ZZ=    26.5857
   Eigenvalues:     3.6837    11.3477    29.3763
     81  Bq   Isotropic =    15.6834   Anisotropy =    31.5305
   XX=    19.4205   YX=   -14.3078   ZX=     2.1196
   XY=   -13.2665   YY=    -1.7693   ZY=    10.8007
   XZ=    -3.3737   YZ=    16.4880   ZZ=    29.3990
   Eigenvalues:   -12.1068    22.4533    36.7037
     82  Bq   Isotropic =    13.2022   Anisotropy =    22.4467
   XX=     6.1669   YX=     1.5523   ZX=    -2.4482
   XY=     5.7746   YY=     7.9213   ZY=     7.6598
   XZ=     0.6131   YZ=     6.9636   ZZ=    25.5183
   Eigenvalues:     1.9375     9.5023    28.1667
     83  Bq   Isotropic =    14.5379   Anisotropy =    31.2817
   XX=    18.5812   YX=   -14.9861   ZX=     5.2430
   XY=   -14.6716   YY=    -3.8414   ZY=    17.3648
   XZ=     0.6739   YZ=    12.9035   ZZ=    28.8740
   Eigenvalues:   -16.1709    24.3923    35.3924
     84  Bq   Isotropic =    20.7828   Anisotropy =    21.2255
   XX=    18.6416   YX=    -3.4326   ZX=    -3.4329
   XY=     0.2626   YY=    13.4356   ZY=     1.6151
   XZ=    -5.6043   YZ=    14.5647   ZZ=    30.2711
   Eigenvalues:    10.1721    17.2432    34.9331
     85  Bq   Isotropic =    17.8160   Anisotropy =    19.2246
   XX=    14.4158   YX=    -0.7566   ZX=    -2.9200
   XY=     2.6942   YY=    13.2531   ZY=     3.4347
   XZ=    -5.0150   YZ=    13.4406   ZZ=    25.7793
   Eigenvalues:     7.8615    14.9542    30.6324
     86  Bq   Isotropic =    18.7446   Anisotropy =    19.9883
   XX=    18.9836   YX=    -4.2540   ZX=    -2.3464
   XY=    -1.5492   YY=    12.0425   ZY=     1.5156
   XZ=    -7.6064   YZ=    15.9085   ZZ=    25.2076
   Eigenvalues:     7.6910    16.4726    32.0701
     87  Bq   Isotropic =    16.6575   Anisotropy =    19.9625
   XX=    11.8854   YX=     0.3296   ZX=    -2.9149
   XY=     3.9873   YY=    12.3806   ZY=     4.8433
   XZ=    -3.5375   YZ=    11.9055   ZZ=    25.7066
   Eigenvalues:     6.2833    13.7235    29.9659
     88  Bq   Isotropic =    18.2561   Anisotropy =    21.4017
   XX=    20.5007   YX=    -6.4374   ZX=    -1.5343
   XY=    -4.2527   YY=     9.6251   ZY=     2.0606
   XZ=    -7.8596   YZ=    16.0424   ZZ=    24.6424
   Eigenvalues:     4.7943    17.4500    32.5239
     89  Bq   Isotropic =    15.3080   Anisotropy =    20.9406
   XX=     9.4968   YX=     1.0000   ZX=    -2.8247
   XY=     4.7756   YY=    11.0014   ZY=     6.0851
   XZ=    -2.2788   YZ=    10.4964   ZZ=    25.4257
   Eigenvalues:     4.4858    12.1698    29.2684
     90  Bq   Isotropic =    17.2977   Anisotropy =    22.5137
   XX=    21.3375   YX=    -8.5145   ZX=    -0.2455
   XY=    -6.8853   YY=     6.4611   ZY=     4.2193
   XZ=    -6.8378   YZ=    14.8498   ZZ=    24.0944
   Eigenvalues:     0.6412    18.9449    32.3068
     91  Bq   Isotropic =    13.9315   Anisotropy =    21.8474
   XX=     7.3805   YX=     1.3362   ZX=    -2.6939
   XY=     5.1634   YY=     9.4340   ZY=     7.0170
   XZ=    -1.3216   YZ=     9.3146   ZZ=    24.9800
   Eigenvalues:     2.8050    10.4930    28.4964
     92  Bq   Isotropic =    16.3410   Anisotropy =    22.4092
   XX=    21.6601   YX=   -10.0572   ZX=     1.4683
   XY=    -8.9523   YY=     3.5242   ZY=     7.9132
   XZ=    -4.4694   YZ=    12.1326   ZZ=    23.8388
   Eigenvalues:    -3.3782    21.1208    31.2804
     93  Bq   Isotropic =    12.6332   Anisotropy =    22.5263
   XX=     5.5924   YX=     1.4287   ZX=    -2.5486
   XY=     5.2590   YY=     7.8966   ZY=     7.6076
   XZ=    -0.6646   YZ=     8.3861   ZZ=    24.4104
   Eigenvalues:     1.3931     8.8557    27.6507
     94  Bq   Isotropic =    15.9557   Anisotropy =    20.7614
   XX=    21.8094   YX=   -10.7022   ZX=     3.3470
   XY=   -10.0452   YY=     1.9074   ZY=    12.3606
   XZ=    -1.2380   YZ=     8.1987   ZZ=    24.1504
   Eigenvalues:    -5.8007    23.8713    29.7967
     95  Bq   Isotropic =    18.5759   Anisotropy =    19.1517
   XX=    16.8730   YX=    -2.2997   ZX=    -2.7665
   XY=     0.8350   YY=    13.2431   ZY=     2.1646
   XZ=    -6.4963   YZ=    14.8900   ZZ=    25.6116
   Eigenvalues:     8.6062    15.7778    31.3437
     96  Bq   Isotropic =    15.7021   Anisotropy =    17.8666
   XX=    12.5043   YX=    -0.1820   ZX=    -2.6254
   XY=     2.7639   YY=    12.7051   ZY=     3.6291
   XZ=    -5.8628   YZ=    13.4602   ZZ=    21.8970
   Eigenvalues:     5.8636    13.6296    27.6132
     97  Bq   Isotropic =    16.2787   Anisotropy =    16.5517
   XX=    16.6213   YX=    -2.6211   ZX=    -1.9268
   XY=    -0.3353   YY=    12.3271   ZY=     1.6870
   XZ=    -7.9536   YZ=    14.3848   ZZ=    19.8878
   Eigenvalues:     6.9898    14.5332    27.3132
     98  Bq   Isotropic =    14.9267   Anisotropy =    19.1337
   XX=    10.3490   YX=     0.5840   ZX=    -2.7413
   XY=     3.7465   YY=    11.8324   ZY=     4.9109
   XZ=    -4.5711   YZ=    12.3961   ZZ=    22.5989
   Eigenvalues:     4.5989    12.4988    27.6826
     99  Bq   Isotropic =    15.9980   Anisotropy =    16.6872
   XX=    18.2491   YX=    -4.1208   ZX=    -1.2545
   XY=    -2.2485   YY=    10.8702   ZY=     1.7732
   XZ=    -8.0957   YZ=    13.5699   ZZ=    18.8746
   Eigenvalues:     6.2108    14.6603    27.1227
    100  Bq   Isotropic =    13.9803   Anisotropy =    20.4226
   XX=     8.3288   YX=     1.0493   ZX=    -2.7589
   XY=     4.3591   YY=    10.5785   ZY=     6.0400
   XZ=    -3.4100   YZ=    11.2796   ZZ=    23.0335
   Eigenvalues:     3.2323    11.1131    27.5954
    101  Bq   Isotropic =    15.5003   Anisotropy =    16.8090
   XX=    19.4482   YX=    -5.5532   ZX=    -0.3446
   XY=    -4.0981   YY=     8.8542   ZY=     2.9652
   XZ=    -7.2387   YZ=    11.5458   ZZ=    18.1986
   Eigenvalues:     4.4527    15.3420    26.7063
    102  Bq   Isotropic =    12.9744   Anisotropy =    21.5342
   XX=     6.5350   YX=     1.2643   ZX=    -2.7106
   XY=     4.6649   YY=     9.1781   ZY=     6.8927
   XZ=    -2.4721   YZ=    10.2571   ZZ=    23.2100
   Eigenvalues:     1.9515     9.6411    27.3305
    103  Bq   Isotropic =    15.0794   Anisotropy =    16.3003
   XX=    20.2364   YX=    -6.6675   ZX=     0.7425
   XY=    -5.5902   YY=     6.8421   ZY=     5.2133
   XZ=    -5.3611   YZ=     8.3586   ZZ=    18.1597
   Eigenvalues:     2.4109    16.8810    25.9463
    104  Bq   Isotropic =    11.9887   Anisotropy =    22.3693
   XX=     5.0089   YX=     1.2921   ZX=    -2.6214
   XY=     4.7378   YY=     7.8003   ZY=     7.4367
   XZ=    -1.7769   YZ=     9.3981   ZZ=    23.1569
   Eigenvalues:     0.8611     8.2034    26.9016
    105  Bq   Isotropic =    15.0348   Anisotropy =    14.8582
   XX=    20.7013   YX=    -7.2571   ZX=     1.8616
   XY=    -6.5000   YY=     5.4508   ZY=     8.0519
   XZ=    -2.8114   YZ=     4.4670   ZZ=    18.9524
   Eigenvalues:     0.9833    19.1808    24.9403
    106  Bq   Isotropic =    16.1829   Anisotropy =    16.9191
   XX=    14.6529   YX=    -1.2653   ZX=    -2.3698
   XY=     1.3868   YY=    12.9361   ZY=     2.4364
   XZ=    -7.0907   YZ=    14.2317   ZZ=    20.9596
   Eigenvalues:     6.7660    14.3203    27.4623
    107  Bq   Isotropic =    13.6841   Anisotropy =    16.4140
   XX=    10.6392   YX=     0.2580   ZX=    -2.4225
   XY=     2.7423   YY=    12.0315   ZY=     3.6379
   XZ=    -6.3978   YZ=    12.8471   ZZ=    18.3815
   Eigenvalues:     4.1058    12.3196    24.6267
    108  Bq   Isotropic =    13.8257   Anisotropy =    13.6557
   XX=    14.0347   YX=    -1.3659   ZX=    -1.7168
   XY=     0.5353   YY=    12.1624   ZY=     1.6269
   XZ=    -8.0373   YZ=    12.5429   ZZ=    15.2801
   Eigenvalues:     5.4716    13.0761    22.9296
    109  Bq   Isotropic =    13.2680   Anisotropy =    18.0965
   XX=     8.8841   YX=     0.7590   ZX=    -2.6035
   XY=     3.4628   YY=    11.1974   ZY=     4.8279
   XZ=    -5.3043   YZ=    12.2617   ZZ=    19.7223
   Eigenvalues:     3.1709    11.3007    25.3323
    110  Bq   Isotropic =    13.5681   Anisotropy =    12.9829
   XX=    15.4478   YX=    -2.3731   ZX=    -1.1809
   XY=    -0.8064   YY=    11.3080   ZY=     1.3419
   XZ=    -8.0938   YZ=    11.1484   ZZ=    13.9484
   Eigenvalues:     5.8875    12.5934    22.2233
    111  Bq   Isotropic =    12.6958   Anisotropy =    19.6774
   XX=     7.2315   YX=     1.0477   ZX=    -2.6904
   XY=     3.9206   YY=    10.0796   ZY=     5.8667
   XZ=    -4.2725   YZ=    11.5017   ZZ=    20.7762
   Eigenvalues:     2.1822    10.0911    25.8141
    112  Bq   Isotropic =    13.2407   Anisotropy =    12.6110
   XX=    16.5626   YX=    -3.3568   ZX=    -0.5426
   XY=    -2.1181   YY=     9.9965   ZY=     1.8177
   XZ=    -7.3737   YZ=     8.7541   ZZ=    13.1629
   Eigenvalues:     6.0585    12.0155    21.6480
    113  Bq   Isotropic =    12.0372   Anisotropy =    21.0181
   XX=     5.7502   YX=     1.1557   ZX=    -2.7024
   XY=     4.1515   YY=     8.8489   ZY=     6.6530
   XZ=    -3.3940   YZ=    10.7266   ZZ=    21.5126
   Eigenvalues:     1.2459     8.8165    26.0493
    114  Bq   Isotropic =    13.0371   Anisotropy =    12.0928
   XX=    17.3557   YX=    -4.1729   ZX=     0.1514
   XY=    -3.2311   YY=     8.5444   ZY=     3.0431
   XZ=    -5.8776   YZ=     5.5308   ZZ=    13.2112
   Eigenvalues:     5.6944    12.3179    21.0990
    115  Bq   Isotropic =    11.3487   Anisotropy =    22.0467
   XX=     4.4742   YX=     1.1261   ZX=    -2.6589
   XY=     4.2037   YY=     7.6339   ZY=     7.1586
   XZ=    -2.7006   YZ=    10.0295   ZZ=    21.9379
   Eigenvalues:     0.4339     7.5657    26.0464
    116  Bq   Isotropic =    13.1242   Anisotropy =    11.1115
   XX=    17.8337   YX=    -4.7011   ZX=     0.8273
   XY=    -4.0202   YY=     7.3045   ZY=     4.7592
   XZ=    -3.8521   YZ=     1.9588   ZZ=    14.2342
   Eigenvalues:     4.9403    13.9003    20.5318
    117  Bq   Isotropic =    13.8793   Anisotropy =    14.8458
   XX=    12.3954   YX=    -0.4614   ZX=    -2.1306
   XY=     1.7525   YY=    12.3987   ZY=     2.4842
   XZ=    -7.3869   YZ=    13.0301   ZZ=    16.8438
   Eigenvalues:     4.8858    12.9756    23.7765
    118  Bq   Isotropic =    11.9172   Anisotropy =    15.0147
   XX=     9.0151   YX=     0.5083   ZX=    -2.2491
   XY=     2.5731   YY=    11.2424   ZY=     3.5234
   XZ=    -6.6437   YZ=    11.8865   ZZ=    15.4940
   Eigenvalues:     2.7651    11.0595    21.9270
    119  Bq   Isotropic =    11.6395   Anisotropy =    11.4008
   XX=    11.6791   YX=    -0.5319   ZX=    -1.5787
   XY=     1.0089   YY=    11.6086   ZY=     1.4769
   XZ=    -7.8601   YZ=    10.7462   ZZ=    11.6308
   Eigenvalues:     3.7949    11.8835    19.2400
    120  Bq   Isotropic =    11.8121   Anisotropy =    16.9898
   XX=     7.6251   YX=     0.8112   ZX=    -2.4644
   XY=     3.0963   YY=    10.4906   ZY=     4.6355
   XZ=    -5.7552   YZ=    11.7167   ZZ=    17.3206
   Eigenvalues:     2.1303    10.1673    23.1386
    121  Bq   Isotropic =    11.3295   Anisotropy =    10.2487
   XX=    12.7921   YX=    -1.2001   ZX=    -1.1498
   XY=     0.0605   YY=    11.1008   ZY=     0.9420
   XZ=    -7.8306   YZ=     9.0933   ZZ=    10.0957
   Eigenvalues:     4.3766    11.4500    18.1620
    122  Bq   Isotropic =    11.5639   Anisotropy =    18.8238
   XX=     6.3002   YX=     0.9658   ZX=    -2.5971
   XY=     3.4364   YY=     9.5237   ZY=     5.5960
   XZ=    -4.8751   YZ=    11.3122   ZZ=    18.8679
   Eigenvalues:     1.4459     9.1327    24.1132
    123  Bq   Isotropic =    11.0400   Anisotropy =     9.6197
   XX=    13.6806   YX=    -1.8792   ZX=    -0.6897
   XY=    -0.8893   YY=    10.2070   ZY=     0.9451
   XZ=    -7.1972   YZ=     6.6713   ZZ=     9.2325
   Eigenvalues:     5.2664    10.4006    17.4532
    124  Bq   Isotropic =    11.2092   Anisotropy =    20.3953
   XX=     5.0949   YX=     0.9925   ZX=    -2.6550
   XY=     3.6125   YY=     8.4659   ZY=     6.3241
   XZ=    -4.0870   YZ=    10.8220   ZZ=    20.0669
   Eigenvalues:     0.7790     8.0426    24.8061
    125  Bq   Isotropic =    10.9065   Anisotropy =     9.1326
[...]
   132  Bq   0.000000
   133  Bq   0.000000
   134  Bq   0.000000
   135  Bq   0.000000
   136  Bq   0.000000
   137  Bq   0.000000
   138  Bq   0.000000
   139  Bq   0.000000
   140  Bq   0.000000
   141  Bq   0.000000
   142  Bq   0.000000
   143  Bq   0.000000
   144  Bq   0.000000
   145  Bq   0.000000
   146  Bq   0.000000
   147  Bq   0.000000
   148  Bq   0.000000
   149  Bq   0.000000
   150  Bq   0.000000
   151  Bq   0.000000
   152  Bq   0.000000
   153  Bq   0.000000
   154  Bq   0.000000
   155  Bq   0.000000
   156  Bq   0.000000
   157  Bq   0.000000
   158  Bq   0.000000
   159  Bq   0.000000
   160  Bq   0.000000
   161  Bq   0.000000
   162  Bq   0.000000
   163  Bq   0.000000
   164  Bq   0.000000
   165  Bq   0.000000
   166  Bq   0.000000
   167  Bq   0.000000
   168  Bq   0.000000
   169  Bq   0.000000
   170  Bq   0.000000
   171  Bq   0.000000
   172  Bq   0.000000
   173  Bq   0.000000
   174  Bq   0.000000
   175  Bq   0.000000
   176  Bq   0.000000
   177  Bq   0.000000
   178  Bq   0.000000
   179  Bq   0.000000
   180  Bq   0.000000
   181  Bq   0.000000
   182  Bq   0.000000
   183  Bq   0.000000
   184  Bq   0.000000
   185  Bq   0.000000
   186  Bq   0.000000
   187  Bq   0.000000
   188  Bq   0.000000
   189  Bq   0.000000
   190  Bq   0.000000
   191  Bq   0.000000
   192  Bq   0.000000
   193  Bq   0.000000
   194  Bq   0.000000
   195  Bq   0.000000
   196  Bq   0.000000
   197  Bq   0.000000
   198  Bq   0.000000
   199  Bq   0.000000
   200  Bq   0.000000
   201  Bq   0.000000
   202  Bq   0.000000
   203  Bq   0.000000
   204  Bq   0.000000
   205  Bq   0.000000
   206  Bq   0.000000
   207  Bq   0.000000
   208  Bq   0.000000
   209  Bq   0.000000
   210  Bq   0.000000
   211  Bq   0.000000
   212  Bq   0.000000
   213  Bq   0.000000
   214  Bq   0.000000
   215  Bq   0.000000
   216  Bq   0.000000
   217  Bq   0.000000
   218  Bq   0.000000
   219  Bq   0.000000
   220  Bq   0.000000
   221  Bq   0.000000
   222  Bq   0.000000
   223  Bq   0.000000
   224  Bq   0.000000
   225  Bq   0.000000
   226  Bq   0.000000
   227  Bq   0.000000
   228  Bq   0.000000
   229  Bq   0.000000
   230  Bq   0.000000
   231  Bq   0.000000
   232  Bq   0.000000
   233  Bq   0.000000
   234  Bq   0.000000
   235  Bq   0.000000
   236  Bq   0.000000
 Sum of Mulliken charges =   0.00000
 Mulliken charges with hydrogens summed into heavy atoms:
               1
     1  C   -0.255498
     3  C    0.169409
     5  C    0.448258
     6  C    0.064351
     7  C   -0.333926
     9  C   -0.139521
    11  C   -0.205988
    13  C   -0.119315
    15  C    0.653397
    16  C    0.034822
    17  C   -0.317410
    19  C   -0.316854
    21  C    0.651066
    22  C    0.037784
    23  C   -0.117289
    25  C   -0.205316
    27  C    0.448331
    28  C    0.061983
    29  C   -0.333381
    31  C   -0.139505
    33  C   -0.255977
    35  C    0.170579
    37  Bq   0.000000
    38  Bq   0.000000
    39  Bq   0.000000
    40  Bq   0.000000
    41  Bq   0.000000
    42  Bq   0.000000
    43  Bq   0.000000
    44  Bq   0.000000
    45  Bq   0.000000
    46  Bq   0.000000
    47  Bq   0.000000
    48  Bq   0.000000
    49  Bq   0.000000
    50  Bq   0.000000
    51  Bq   0.000000
    52  Bq   0.000000
    53  Bq   0.000000
    54  Bq   0.000000
    55  Bq   0.000000
    56  Bq   0.000000
    57  Bq   0.000000
    58  Bq   0.000000
    59  Bq   0.000000
    60  Bq   0.000000
    61  Bq   0.000000
    62  Bq   0.000000
    63  Bq   0.000000
    64  Bq   0.000000
    65  Bq   0.000000
    66  Bq   0.000000
    67  Bq   0.000000
    68  Bq   0.000000
    69  Bq   0.000000
    70  Bq   0.000000
    71  Bq   0.000000
    72  Bq   0.000000
    73  Bq   0.000000
    74  Bq   0.000000
    75  Bq   0.000000
    76  Bq   0.000000
    77  Bq   0.000000
    78  Bq   0.000000
    79  Bq   0.000000
    80  Bq   0.000000
    81  Bq   0.000000
    82  Bq   0.000000
    83  Bq   0.000000
    84  Bq   0.000000
    85  Bq   0.000000
    86  Bq   0.000000
    87  Bq   0.000000
    88  Bq   0.000000
    89  Bq   0.000000
    90  Bq   0.000000
    91  Bq   0.000000
    92  Bq   0.000000
    93  Bq   0.000000
    94  Bq   0.000000
    95  Bq   0.000000
    96  Bq   0.000000
    97  Bq   0.000000
    98  Bq   0.000000
    99  Bq   0.000000
   100  Bq   0.000000
   101  Bq   0.000000
   102  Bq   0.000000
   103  Bq   0.000000
   104  Bq   0.000000
   105  Bq   0.000000
   106  Bq   0.000000
   107  Bq   0.000000
   108  Bq   0.000000
   109  Bq   0.000000
   110  Bq   0.000000
   111  Bq   0.000000
   112  Bq   0.000000
   113  Bq   0.000000
   114  Bq   0.000000
   115  Bq   0.000000
   116  Bq   0.000000
   117  Bq   0.000000
   118  Bq   0.000000
   119  Bq   0.000000
   120  Bq   0.000000
   121  Bq   0.000000
   122  Bq   0.000000
   123  Bq   0.000000
   124  Bq   0.000000
   125  Bq   0.000000
   126  Bq   0.000000
   127  Bq   0.000000
   128  Bq   0.000000
   129  Bq   0.000000
   130  Bq   0.000000
   131  Bq   0.000000
   132  Bq   0.000000
   133  Bq   0.000000
   134  Bq   0.000000
   135  Bq   0.000000
   136  Bq   0.000000
   137  Bq   0.000000
   138  Bq   0.000000
   139  Bq   0.000000
   140  Bq   0.000000
   141  Bq   0.000000
   142  Bq   0.000000
   143  Bq   0.000000
   144  Bq   0.000000
   145  Bq   0.000000
   146  Bq   0.000000
   147  Bq   0.000000
   148  Bq   0.000000
   149  Bq   0.000000
   150  Bq   0.000000
   151  Bq   0.000000
   152  Bq   0.000000
   153  Bq   0.000000
   154  Bq   0.000000
   155  Bq   0.000000
   156  Bq   0.000000
   157  Bq   0.000000
   158  Bq   0.000000
   159  Bq   0.000000
   160  Bq   0.000000
   161  Bq   0.000000
   162  Bq   0.000000
   163  Bq   0.000000
   164  Bq   0.000000
   165  Bq   0.000000
   166  Bq   0.000000
   167  Bq   0.000000
   168  Bq   0.000000
   169  Bq   0.000000
   170  Bq   0.000000
   171  Bq   0.000000
   172  Bq   0.000000
   173  Bq   0.000000
   174  Bq   0.000000
   175  Bq   0.000000
   176  Bq   0.000000
   177  Bq   0.000000
   178  Bq   0.000000
   179  Bq   0.000000
   180  Bq   0.000000
   181  Bq   0.000000
   182  Bq   0.000000
   183  Bq   0.000000
   184  Bq   0.000000
   185  Bq   0.000000
   186  Bq   0.000000
   187  Bq   0.000000
   188  Bq   0.000000
   189  Bq   0.000000
   190  Bq   0.000000
   191  Bq   0.000000
   192  Bq   0.000000
   193  Bq   0.000000
   194  Bq   0.000000
   195  Bq   0.000000
   196  Bq   0.000000
   197  Bq   0.000000
   198  Bq   0.000000
   199  Bq   0.000000
   200  Bq   0.000000
   201  Bq   0.000000
   202  Bq   0.000000
   203  Bq   0.000000
   204  Bq   0.000000
   205  Bq   0.000000
   206  Bq   0.000000
   207  Bq   0.000000
   208  Bq   0.000000
   209  Bq   0.000000
   210  Bq   0.000000
   211  Bq   0.000000
   212  Bq   0.000000
   213  Bq   0.000000
   214  Bq   0.000000
   215  Bq   0.000000
   216  Bq   0.000000
   217  Bq   0.000000
   218  Bq   0.000000
   219  Bq   0.000000
   220  Bq   0.000000
   221  Bq   0.000000
   222  Bq   0.000000
   223  Bq   0.000000
   224  Bq   0.000000
   225  Bq   0.000000
   226  Bq   0.000000
   227  Bq   0.000000
   228  Bq   0.000000
   229  Bq   0.000000
   230  Bq   0.000000
   231  Bq   0.000000
   232  Bq   0.000000
   233  Bq   0.000000
   234  Bq   0.000000
   235  Bq   0.000000
   236  Bq   0.000000
 Electronic spatial extent (au):  <R**2>=           5736.9264
 Charge=              0.0000 electrons
 Dipole moment (field-independent basis, Debye):
    X=              0.0475    Y=              0.0856    Z=              0.0029  Tot=              0.0979
 Quadrupole moment (field-independent basis, Debye-Ang):
   XX=           -113.7056   YY=           -113.9456   ZZ=           -133.2669
   XY=             -0.3834   XZ=              3.2102   YZ=             -1.1839
 Traceless Quadrupole moment (field-independent basis, Debye-Ang):
   XX=              6.6005   YY=              6.3604   ZZ=            -12.9609
   XY=             -0.3834   XZ=              3.2102   YZ=             -1.1839
 Octapole moment (field-independent basis, Debye-Ang**2):
  XXX=            -16.4668  YYY=            -16.1860  ZZZ=             -1.7007  XYY=              2.5576
  XXY=             -6.5650  XXZ=             13.6547  XZZ=             -8.9478  YZZ=            -17.7168
  YYZ=            -13.2941  XYZ=              8.8036
 Hexadecapole moment (field-independent basis, Debye-Ang**3):
 XXXX=          -3951.1638 YYYY=          -3112.2161 ZZZZ=           -504.8311 XXXY=            340.6935
 XXXZ=            156.4968 YYYX=            335.5625 YYYZ=            -87.0893 ZZZX=            120.2262
 ZZZY=           -108.7373 XXYY=          -1176.4844 XXZZ=           -856.7291 YYZZ=           -665.7275
 XXYZ=            -68.9016 YYXZ=             48.1602 ZZXY=            153.0375
 N-N= 1.610917615562D+03 E-N=-5.186891130729D+03  KE= 8.436329774449D+02
 1\1\GINC-XHYSTOS\SP\RB3LYP\6-311+G(d,p)\C22H14\YANNICK\23-Aug-2020\0\\
 # rb3lyp/6-311+g** NMR geom=connectivity\\Title\\0,1\C,0,-4.0500558,-0
 .5771862,0.8136712\H,0,-5.0263804,-1.0082727,1.002476\C,0,-3.9381552,0
 .6617804,0.2400876\H,0,-4.8252424,1.233889,-0.0111295\C,0,-2.676841,1.
 2433246,0.0057578\C,0,-1.4974121,0.5051527,0.2848253\C,0,-1.6508332,-0
 .7338728,0.9404026\H,0,-0.7713646,-1.2730967,1.2633753\C,0,-2.8898548,
 -1.2624035,1.1994307\H,0,-2.9683706,-2.2124563,1.7152676\C,0,-2.577318
 5,2.5963696,-0.419293\H,0,-3.4870728,3.1412239,-0.6474055\C,0,-1.37418
 95,3.2147896,-0.436403\H,0,-1.2997315,4.2742019,-0.6578144\C,0,-0.1719
 488,2.499409,-0.1734588\C,0,-0.2043917,1.1018437,0.0192689\C,0,1.05134
 91,3.204256,-0.0676222\H,0,1.0427344,4.2819499,-0.1896997\C,0,2.194209
 1,2.5487446,0.2579577\H,0,3.1168527,3.0912848,0.4334727\C,0,2.2216473,
 1.1336562,0.293499\C,0,1.0486931,0.3945528,0.0302412\C,0,3.4483363,0.4
 614633,0.5573939\H,0,4.3095794,1.0606054,0.8334846\C,0,3.5427346,-0.88
 55926,0.4749463\H,0,4.4731467,-1.3939704,0.7038822\C,0,2.4490052,-1.64
 74447,-0.0196319\C,0,1.2150704,-1.0057258,-0.3013573\C,0,0.2531113,-1.
 743444,-1.0216591\H,0,-0.6541356,-1.2535051,-1.3462847\C,0,0.4494193,-
 3.0628597,-1.3413779\H,0,-0.3083162,-3.5944309,-1.905406\C,0,1.6251726
 ,-3.7207967,-0.9552541\H,0,1.7670048,-4.7687404,-1.1927019\C,0,2.61098
 72,-3.0144177,-0.318305\H,0,3.5525612,-3.4902813,-0.0646367\Bq,0,-1.28
 30277428,0.6466416657,0.3722664555\Bq,0,-1.286213703,1.0379861187,1.18
 27227274\Bq,0,-1.2826737473,0.6031589487,0.2822157586\Bq,0,-1.28444372
 51,0.8205725337,0.732469243\Bq,0,-1.2846267884,0.9541066434,0.77903755
 88\Bq,0,-1.2839187973,0.8671412094,0.5989361651\Bq,0,-1.284980784,0.99
 75893604,0.8690882557\Bq,0,-1.2835648017,0.8236584924,0.5088854682\Bq,
 0,-1.2853347796,1.0410720774,0.9591389526\Bq,0,-1.2832108061,0.7801757
 754,0.4188347713\Bq,0,-1.2856887752,1.0845547944,1.0491896495\Bq,0,-1.
 2828568106,0.7366930584,0.3287840744\Bq,0,-1.2860427707,1.1280375114,1
 .1392403464\Bq,0,-1.282502815,0.6932103414,0.2387333775\Bq,0,-1.284272
 7929,0.9106239264,0.688986862\Bq,0,-1.2844558562,1.0441580361,0.735555
 1778\Bq,0,-1.283747865,0.9571926021,0.555453784\Bq,0,-1.2848098517,1.0
 876407531,0.8256058747\Bq,0,-1.2833938694,0.913709885,0.4654030872\Bq,
 0,-1.2851638473,1.1311234701,0.9156565716\Bq,0,-1.2830398739,0.8702271
 68,0.3753523903\Bq,0,-1.2855178429,1.1746061871,1.0057072685\Bq,0,-1.2
 826858783,0.826744451,0.2853016934\Bq,0,-1.2858718385,1.2180889041,1.0
 957579653\Bq,0,-1.2823318827,0.783261734,0.1952509965\Bq,0,-1.28410186
 06,1.0006753191,0.6455044809\Bq,0,-1.2842849239,1.1342094287,0.6920727
 968\Bq,0,-1.2835769327,1.0472439947,0.511971403\Bq,0,-1.2846389195,1.1
 776921457,0.7821234937\Bq,0,-1.2832229372,1.0037612777,0.4219207061\Bq
 ,0,-1.284992915,1.2211748627,0.8721741905\Bq,0,-1.2828689416,0.9602785
 607,0.3318700092\Bq,0,-1.2853469106,1.2646575797,0.9622248874\Bq,0,-1.
 282514946,0.9167958437,0.2418193124\Bq,0,-1.2857009062,1.3081402968,1.
 0522755843\Bq,0,-1.2821609504,0.8733131267,0.1517686155\Bq,0,-1.283930
 9283,1.0907267117,0.6020220999\Bq,0,-1.2841139916,1.2242608214,0.64859
 04157\Bq,0,-1.2834060005,1.1372953874,0.468489022\Bq,0,-1.2844679872,1
 .2677435384,0.7386411126\Bq,0,-1.2830520049,1.0938126704,0.3784383251\
 Bq,0,-1.2848219828,1.3112262554,0.8286918095\Bq,0,-1.2826980093,1.0503
 299534,0.2883876282\Bq,0,-1.2851759783,1.3547089724,0.9187425064\Bq,0,
 -1.2823440137,1.0068472364,0.1983369313\Bq,0,-1.2855299739,1.398191689
 4,1.0087932033\Bq,0,-1.2819900182,0.9633645194,0.1082862344\Bq,0,-1.28
 3759996,1.1807781044,0.5585397189\Bq,0,-1.2839430593,1.3143122141,0.60
 51080347\Bq,0,-1.2832350682,1.2273467801,0.4250066409\Bq,0,-1.28429705
 49,1.3577949311,0.6951587316\Bq,0,-1.2828810726,1.1838640631,0.3349559
 441\Bq,0,-1.2846510505,1.4012776481,0.7852094285\Bq,0,-1.282527077,1.1
 403813461,0.2449052472\Bq,0,-1.2850050461,1.4447603651,0.8752601254\Bq
 ,0,-1.2821730815,1.0968986291,0.1548545503\Bq,0,-1.2853590416,1.488243
 0821,0.9653108222\Bq,0,-1.2818190859,1.053415912,0.0648038534\Bq,0,-1.
 2835890638,1.2708294971,0.5150573378\Bq,0,-1.2837721271,1.4043636067,0
 .5616256537\Bq,0,-1.2830641359,1.3173981727,0.3815242599\Bq,0,-1.28412
 61226,1.4478463237,0.6516763506\Bq,0,-1.2827101403,1.2739154557,0.2914
 73563\Bq,0,-1.2844801182,1.4913290408,0.7417270474\Bq,0,-1.2823561448,
 1.2304327387,0.2014228661\Bq,0,-1.2848341138,1.5348117578,0.8317777443
 \Bq,0,-1.2820021492,1.1869500217,0.1113721693\Bq,0,-1.2851881094,1.578
 2944748,0.9218284412\Bq,0,-1.2816481536,1.1434673047,0.0213214724\Bq,0
 ,-1.2834181315,1.3608808897,0.4715749568\Bq,0,-1.2836011948,1.49441499
 94,0.5181432726\Bq,0,-1.2828932036,1.4074495654,0.3380418789\Bq,0,-1.2
 839551904,1.5378977164,0.6081939695\Bq,0,-1.2825392081,1.3639668484,0.
 247991182\Bq,0,-1.2843091859,1.5813804334,0.6982446664\Bq,0,-1.2821852
 125,1.3204841314,0.1579404851\Bq,0,-1.2846631815,1.6248631504,0.788295
 3633\Bq,0,-1.2818312169,1.2770014144,0.0678897882\Bq,0,-1.2850171771,1
 .6683458674,0.8783460602\Bq,0,-1.2814772213,1.2335186974,-0.0221609087
 \Bq,0,-1.2832471992,1.4509322824,0.4280925758\Bq,0,-1.2834302625,1.584
 4663921,0.4746608916\Bq,0,-1.2827222714,1.4975009581,0.2945594978\Bq,0
 ,-1.2837842581,1.6279491091,0.5647115885\Bq,0,-1.2823682758,1.45401824
 11,0.204508801\Bq,0,-1.2841382537,1.6714318261,0.6547622854\Bq,0,-1.28
 20142802,1.4105355241,0.1144581041\Bq,0,-1.2844922492,1.7149145431,0.7
 448129823\Bq,0,-1.2816602846,1.3670528071,0.0244074072\Bq,0,-1.2848462
 448,1.7583972601,0.8348636791\Bq,0,-1.2813062891,1.3235700901,-0.06564
 32897\Bq,0,-1.2830762669,1.5409836751,0.3846101947\Bq,0,-1.2832593302,
 1.6745177848,0.4311785106\Bq,0,-1.2825513391,1.5875523507,0.2510771168
 \Bq,0,-1.2836133258,1.7180005018,0.5212292075\Bq,0,-1.2821973435,1.544
 0696337,0.1610264199\Bq,0,-1.2839673214,1.7614832188,0.6112799043\Bq,0
 ,-1.2818433479,1.5005869167,0.070975723\Bq,0,-1.284321317,1.8049659358
 ,0.7013306012\Bq,0,-1.2814893524,1.4571041997,-0.0190749738\Bq,0,-1.28
 46753125,1.8484486528,0.7913812981\Bq,0,-1.2811353568,1.4136214827,-0.
 1091256707\Bq,0,-1.2829053347,1.6310350678,0.3411278137\Bq,0,-1.283088
 398,1.7645691774,0.3876961295\Bq,0,-1.2823804068,1.6776037434,0.207594
 7358\Bq,0,-1.2834423935,1.8080518944,0.4777468264\Bq,0,-1.2820264112,1
 .6341210264,0.1175440389\Bq,0,-1.2837963891,1.8515346114,0.5677975233\
 Bq,0,-1.2816724157,1.5906383094,0.027493342\Bq,0,-1.2841503847,1.89501
 73284,0.6578482202\Bq,0,-1.2813184201,1.5471555924,-0.0625573549\Bq,0,
 -1.2845043803,1.9385000454,0.7478989171\Bq,0,-1.2809644245,1.503672875
 4,-0.1526080518\Bq,0,-1.2827344024,1.7210864604,0.2976454327\Bq,0,-1.2
 829174657,1.8546205701,0.3442137485\Bq,0,-1.2822094745,1.7676551361,0.
 1641123547\Bq,0,-1.2832714613,1.8981032871,0.4342644454\Bq,0,-1.281855
 479,1.7241724191,0.0740616579\Bq,0,-1.2836254568,1.9415860041,0.524315
 1423\Bq,0,-1.2815014834,1.6806897021,-0.015989039\Bq,0,-1.2839794524,1
 .9850687211,0.6143658392\Bq,0,-1.2811474878,1.6372069851,-0.1060397359
 \Bq,0,-1.284333448,2.0285514381,0.704416536\Bq,0,-1.2807934922,1.59372
 42681,-0.1960904328\Bq,0,-1.2825634701,1.8111378531,0.2541630516\Bq,0,
 -1.2827465334,1.9446719628,0.3007313675\Bq,0,-1.2820385423,1.857706528
 8,0.1206299737\Bq,0,-1.283100529,1.9881546798,0.3907820644\Bq,0,-1.281
 6845467,1.8142238118,0.0305792768\Bq,0,-1.2834545246,2.0316373968,0.48
 08327612\Bq,0,-1.2813305511,1.7707410947,-0.0594714201\Bq,0,-1.2838085
 201,2.0751201138,0.5708834581\Bq,0,-1.2809765555,1.7272583777,-0.14952
 21169\Bq,0,-1.2841625157,2.1186028308,0.660934155\Bq,0,-1.28062256,1.6
 837756607,-0.2395728138\Bq,0,-1.2823925378,1.9011892458,0.2106806706\B
 q,0,-1.2825756011,2.0347233554,0.2572489864\Bq,0,-1.28186761,1.9477579
 214,0.0771475927\Bq,0,-1.2829295967,2.0782060724,0.3472996833\Bq,0,-1.
 2815136144,1.9042752044,-0.0129031042\Bq,0,-1.2832835923,2.1216887894,
 0.4373503802\Bq,0,-1.2811596188,1.8607924874,-0.1029538011\Bq,0,-1.283
 6375879,2.1651715065,0.5274010771\Bq,0,-1.2808056233,1.8173097704,-0.1
 93004498\Bq,0,-1.2839915834,2.2086542235,0.617451774\Bq,0,-1.280451627
 7,1.7738270534,-0.2830551948\Bq,0,-1.2822216056,1.9912406384,0.1671982
 896\Bq,0,-1.2824046689,2.1247747481,0.2137666054\Bq,0,-1.2816966777,2.
 0378093141,0.0336652116\Bq,0,-1.2827586644,2.1682574651,0.3038173023\B
 q,0,-1.2813426821,1.9943265971,-0.0563854852\Bq,0,-1.28311266,2.211740
 1821,0.3938679992\Bq,0,-1.2809886866,1.9508438801,-0.1464361821\Bq,0,-
 1.2834666556,2.2552228991,0.4839186961\Bq,0,-1.280634691,1.9073611631,
 -0.236486879\Bq,0,-1.2838206512,2.2987056161,0.5739693929\Bq,0,-1.2802
 806954,1.8638784461,-0.3265375759\Bq,0,-1.2820506733,2.0812920311,0.12
 37159085\Bq,0,-1.2822337366,2.2148261408,0.1702842244\Bq,0,-1.28152574
 54,2.1278607068,-0.0098171694\Bq,0,-1.2825877322,2.2583088578,0.260334
 9213\Bq,0,-1.2811717499,2.0843779898,-0.0998678663\Bq,0,-1.2829417277,
 2.3017915748,0.3503856181\Bq,0,-1.2808177543,2.0408952728,-0.189918563
 1\Bq,0,-1.2832957233,2.3452742918,0.440436315\Bq,0,-1.2804637587,1.997
 4125558,-0.27996926\Bq,0,-1.2836497189,2.3887570088,0.5304870119\Bq,0,
 -1.2801097631,1.9539298388,-0.3700199569\Bq,0,-1.281879741,2.171343423
 8,0.0802335275\Bq,0,-1.2820628043,2.3048775334,0.1268018433\Bq,0,-1.28
 13548132,2.2179120994,-0.0532995504\Bq,0,-1.2824167999,2.3483602505,0.
 2168525402\Bq,0,-1.2810008176,2.1744293824,-0.1433502473\Bq,0,-1.28277
 07955,2.3918429675,0.3069032371\Bq,0,-1.280646822,2.1309466654,-0.2334
 009442\Bq,0,-1.283124791,2.4353256845,0.396953934\Bq,0,-1.2802928264,2
 .0874639484,-0.3234516411\Bq,0,-1.2834787866,2.4788084015,0.4870046309
 \Bq,0,-1.2799388309,2.0439812314,-0.4135023379\Bq,0,-1.2817088087,2.26
 13948164,0.0367511465\Bq,0,-1.281891872,2.3949289261,0.0833194623\Bq,0
 ,-1.2811838809,2.3079634921,-0.0967819314\Bq,0,-1.2822458676,2.4384116
 431,0.1733701592\Bq,0,-1.2808298853,2.2644807751,-0.1868326283\Bq,0,-1
 .2825998632,2.4818943601,0.2634208561\Bq,0,-1.2804758897,2.2209980581,
 -0.2768833252\Bq,0,-1.2829538588,2.5253770771,0.353471553\Bq,0,-1.2801
 218942,2.1775153411,-0.3669340221\Bq,0,-1.2833078543,2.5688597941,0.44
 35222498\Bq,0,-1.2797678986,2.1340326241,-0.456984719\Bq,0,-1.28153787
 65,2.3514462091,-0.0067312346\Bq,0,-1.2817209398,2.4849803188,0.039837
 0813\Bq,0,-1.2810129486,2.3980148848,-0.1402643125\Bq,0,-1.2820749353,
 2.5284630358,0.1298877782\Bq,0,-1.280658953,2.3545321678,-0.2303150094
 \Bq,0,-1.2824289309,2.5719457528,0.219938475\Bq,0,-1.2803049575,2.3110
 494508,-0.3203657062\Bq,0,-1.2827829265,2.6154284698,0.3099891719\Bq,0
 ,-1.2799509619,2.2675667338,-0.4104164031\Bq,0,-1.2831369221,2.6589111
 868,0.4000398688\\Version=ES64L-G09RevD.01\HF=-847.0032898\RMSD=7.514e
 -09\Dipole=0.0186808,0.0336671,0.0011595\Quadrupole=4.9072795,4.728821
 9,-9.6361014,-0.2850201,2.3867064,-0.880172\PG=C01 [X(C22H14)]\\@


 FRICTION IS A DRAG,
 AND ENTROPY AIN'T WHAT IT USED TO BE.
 Job cpu time:       0 days  2 hours 35 minutes 31.4 seconds.
 File lengths (MBytes):  RWF=    184 Int=      0 D2E=      0 Chk=     19 Scr=      1
 Normal termination of Gaussian 09 at Sun Aug 23 05:50:15 2020.
