 Entering Gaussian System, Link 0=g09
 Input=input_cycle_04_batch_15600.com
 Output=input_cycle_04_batch_15600.log
 Initial command:
 /share/programs/GAUSSIAN/64/g09/l1.exe "/scratch/yannick.30526/Gau-2968268.inp" -scrdir="/scratch/yannick.30526/"
 Entering Link 1 = /share/programs/GAUSSIAN/64/g09/l1.exe PID=   2968269.
  
 Copyright (c) 1988,1990,1992,1993,1995,1998,2003,2009,2013,
            Gaussian, Inc.  All Rights Reserved.
  
 This is part of the Gaussian(R) 09 program.  It is based on
 the Gaussian(R) 03 system (copyright 2003, Gaussian, Inc.),
 the Gaussian(R) 98 system (copyright 1998, Gaussian, Inc.),
 the Gaussian(R) 94 system (copyright 1995, Gaussian, Inc.),
 the Gaussian 92(TM) system (copyright 1992, Gaussian, Inc.),
 the Gaussian 90(TM) system (copyright 1990, Gaussian, Inc.),
 the Gaussian 88(TM) system (copyright 1988, Gaussian, Inc.),
 the Gaussian 86(TM) system (copyright 1986, Carnegie Mellon
 University), and the Gaussian 82(TM) system (copyright 1983,
 Carnegie Mellon University). Gaussian is a federally registered
 trademark of Gaussian, Inc.
  
 This software contains proprietary and confidential information,
 including trade secrets, belonging to Gaussian, Inc.
  
 This software is provided under written license and may be
 used, copied, transmitted, or stored only in accord with that
 written license.
  
 The following legend is applicable only to US Government
 contracts under FAR:
  
                    RESTRICTED RIGHTS LEGEND
  
 Use, reproduction and disclosure by the US Government is
 subject to restrictions as set forth in subparagraphs (a)
 and (c) of the Commercial Computer Software - Restricted
 Rights clause in FAR 52.227-19.
  
 Gaussian, Inc.
 340 Quinnipiac St., Bldg. 40, Wallingford CT 06492
  
  
 ---------------------------------------------------------------
 Warning -- This program may not be used in any manner that
 competes with the business of Gaussian, Inc. or will provide
 assistance to any competitor of Gaussian, Inc.  The licensee
 of this program is prohibited from giving any competitor of
 Gaussian, Inc. access to this program.  By using this program,
 the user acknowledges that Gaussian, Inc. is engaged in the
 business of creating and licensing software in the field of
 computational chemistry and represents and warrants to the
 licensee that it is not a competitor of Gaussian, Inc. and that
 it will not use this program in any manner prohibited above.
 ---------------------------------------------------------------
  

 Cite this work as:
 Gaussian 09, Revision D.01,
 M. J. Frisch, G. W. Trucks, H. B. Schlegel, G. E. Scuseria, 
 M. A. Robb, J. R. Cheeseman, G. Scalmani, V. Barone, B. Mennucci, 
 G. A. Petersson, H. Nakatsuji, M. Caricato, X. Li, H. P. Hratchian, 
 A. F. Izmaylov, J. Bloino, G. Zheng, J. L. Sonnenberg, M. Hada, 
 M. Ehara, K. Toyota, R. Fukuda, J. Hasegawa, M. Ishida, T. Nakajima, 
 Y. Honda, O. Kitao, H. Nakai, T. Vreven, J. A. Montgomery, Jr., 
 J. E. Peralta, F. Ogliaro, M. Bearpark, J. J. Heyd, E. Brothers, 
 K. N. Kudin, V. N. Staroverov, T. Keith, R. Kobayashi, J. Normand, 
 K. Raghavachari, A. Rendell, J. C. Burant, S. S. Iyengar, J. Tomasi, 
 M. Cossi, N. Rega, J. M. Millam, M. Klene, J. E. Knox, J. B. Cross, 
 V. Bakken, C. Adamo, J. Jaramillo, R. Gomperts, R. E. Stratmann, 
 O. Yazyev, A. J. Austin, R. Cammi, C. Pomelli, J. W. Ochterski, 
 R. L. Martin, K. Morokuma, V. G. Zakrzewski, G. A. Voth, 
 P. Salvador, J. J. Dannenberg, S. Dapprich, A. D. Daniels, 
 O. Farkas, J. B. Foresman, J. V. Ortiz, J. Cioslowski, 
 and D. J. Fox, Gaussian, Inc., Wallingford CT, 2013.
 
 ******************************************
 Gaussian 09:  ES64L-G09RevD.01 24-Apr-2013
                22-Aug-2020 
 ******************************************
 %nproc=8
 Will use up to    8 processors via shared memory.
 %mem=1000MB
 ----------------------------------------
 # rb3lyp/6-311+g** NMR geom=connectivity
 ----------------------------------------
 1/38=1,57=2/1;
 2/12=2,17=6,18=5,40=1/2;
 3/5=4,6=6,7=111,11=2,16=1,25=1,30=1,74=-5,116=1/1,2,8,3;
 4//1;
 5/5=2,38=5/2;
 8/6=1,10=90,11=11/1;
 10/13=100,45=16/2;
 6/7=2,8=2,9=2,10=2,28=1/1;
 99/9=1/99;
 -----
 Title
 -----
 Symbolic Z-matrix:
 Charge =  0 Multiplicity = 1
 C                    -4.05006  -0.57719   0.81367 
 H                    -5.02638  -1.00827   1.00248 
 C                    -3.93816   0.66178   0.24009 
 H                    -4.82524   1.23389  -0.01113 
 C                    -2.67684   1.24332   0.00576 
 C                    -1.49741   0.50515   0.28483 
 C                    -1.65083  -0.73387   0.9404 
 H                    -0.77136  -1.2731    1.26338 
 C                    -2.88985  -1.2624    1.19943 
 H                    -2.96837  -2.21246   1.71527 
 C                    -2.57732   2.59637  -0.41929 
 H                    -3.48707   3.14122  -0.64741 
 C                    -1.37419   3.21479  -0.4364 
 H                    -1.29973   4.2742   -0.65781 
 C                    -0.17195   2.49941  -0.17346 
 C                    -0.20439   1.10184   0.01927 
 C                     1.05135   3.20426  -0.06762 
 H                     1.04273   4.28195  -0.1897 
 C                     2.19421   2.54874   0.25796 
 H                     3.11685   3.09128   0.43347 
 C                     2.22165   1.13366   0.2935 
 C                     1.04869   0.39455   0.03024 
 C                     3.44834   0.46146   0.55739 
 H                     4.30958   1.06061   0.83348 
 C                     3.54273  -0.88559   0.47495 
 H                     4.47315  -1.39397   0.70388 
 C                     2.44901  -1.64744  -0.01963 
 C                     1.21507  -1.00573  -0.30136 
 C                     0.25311  -1.74344  -1.02166 
 H                    -0.65414  -1.25351  -1.34628 
 C                     0.44942  -3.06286  -1.34138 
 H                    -0.30832  -3.59443  -1.90541 
 C                     1.62517  -3.7208   -0.95525 
 H                     1.767    -4.76874  -1.1927 
 C                     2.61099  -3.01442  -0.31831 
 H                     3.55256  -3.49028  -0.06464 
 Bq                    2.35229   1.26863   0.82662 
 Bq                    2.27526   1.22595   1.11341 
 Bq                    2.37797   1.28286   0.73103 
 Bq                    2.24958   1.21172   1.209 
 Bq                    2.40365   1.29709   0.63544 
 Bq                    2.2239    1.19749   1.30459 
 Bq                    2.42933   1.31131   0.53984 
 Bq                    2.19822   1.18326   1.40019 
 Bq                    2.45501   1.32554   0.44425 
 Bq                    2.32662   1.2544    0.92222 
 Bq                    2.29725   1.33916   1.03155 
 Bq                    2.3486    1.36761   0.84037 
 Bq                    2.27157   1.32493   1.12715 
 Bq                    2.37428   1.38184   0.74477 
 Bq                    2.24589   1.3107    1.22274 
 Bq                    2.39996   1.39607   0.64918 
 Bq                    2.22021   1.29648   1.31833 
 Bq                    2.42564   1.4103    0.55358 
 Bq                    2.19453   1.28225   1.41393 
 Bq                    2.45132   1.42452   0.45799 
 Bq                    2.32292   1.35339   0.93596 
 Bq                    2.29355   1.43814   1.04529 
 Bq                    2.34491   1.4666    0.85411 
 Bq                    2.26788   1.42391   1.14089 
 Bq                    2.37059   1.48082   0.75851 
 Bq                    2.2422    1.40969   1.23648 
 Bq                    2.39627   1.49505   0.66292 
 Bq                    2.21652   1.39546   1.33207 
 Bq                    2.42195   1.50928   0.56732 
 Bq                    2.19084   1.38123   1.42767 
 Bq                    2.44763   1.52351   0.47173 
 Bq                    2.31923   1.45237   0.9497 
 Bq                    2.28986   1.53712   1.05903 
 Bq                    2.34122   1.56558   0.86785 
 Bq                    2.26418   1.5229    1.15463 
 Bq                    2.3669    1.57981   0.77225 
 Bq                    2.23851   1.50867   1.25022 
 Bq                    2.39258   1.59403   0.67666 
 Bq                    2.21283   1.49444   1.34581 
 Bq                    2.41826   1.60826   0.58106 
 Bq                    2.18715   1.48021   1.44141 
 Bq                    2.44394   1.62249   0.48547 
 Bq                    2.31554   1.55135   0.96344 
 Bq                    2.28617   1.63611   1.07277 
 Bq                    2.33753   1.66456   0.88159 
 Bq                    2.26049   1.62188   1.16837 
 Bq                    2.36321   1.67879   0.78599 
 Bq                    2.23482   1.60765   1.26396 
 Bq                    2.38889   1.69302   0.6904 
 Bq                    2.20914   1.59342   1.35956 
 Bq                    2.41457   1.70724   0.59481 
 Bq                    2.18346   1.5792    1.45515 
 Bq                    2.44025   1.72147   0.49921 
 Bq                    2.31185   1.65033   0.97718 
 Bq                    2.28248   1.73509   1.08651 
 Bq                    2.33384   1.76354   0.89533 
 Bq                    2.2568    1.72086   1.18211 
 Bq                    2.35952   1.77777   0.79973 
 Bq                    2.23112   1.70663   1.2777 
 Bq                    2.3852    1.792     0.70414 
 Bq                    2.20545   1.69241   1.3733 
 Bq                    2.41088   1.80623   0.60855 
 Bq                    2.17977   1.67818   1.46889 
 Bq                    2.43655   1.82045   0.51295 
 Bq                    2.30816   1.74932   0.99092 
 Bq                    2.27879   1.83407   1.10026 
 Bq                    2.33015   1.86253   0.90907 
 Bq                    2.25311   1.81984   1.19585 
 Bq                    2.35583   1.87675   0.81347 
 Bq                    2.22743   1.80562   1.29144 
 Bq                    2.38151   1.89098   0.71788 
 Bq                    2.20175   1.79139   1.38704 
 Bq                    2.40719   1.90521   0.62229 
 Bq                    2.17608   1.77716   1.48263 
 Bq                    2.43286   1.91944   0.52669 
 Bq                    2.30447   1.8483    1.00466 
 Bq                    2.2751    1.93305   1.114 
 Bq                    2.32646   1.96151   0.92281 
 Bq                    2.24942   1.91883   1.20959 
 Bq                    2.35214   1.97574   0.82721 
 Bq                    2.22374   1.9046    1.30518 
 Bq                    2.37782   1.98996   0.73162 
 Bq                    2.19806   1.89037   1.40078 
 Bq                    2.40349   2.00419   0.63603 
 Bq                    2.17238   1.87614   1.49637 
 Bq                    2.42917   2.01842   0.54043 
 Bq                    2.30078   1.94728   1.0184 
 Bq                    2.27141   2.03204   1.12774 
 Bq                    2.32277   2.06049   0.93655 
 Bq                    2.24573   2.01781   1.22333 
 Bq                    2.34845   2.07472   0.84096 
 Bq                    2.22005   2.00358   1.31892 
 Bq                    2.37412   2.08895   0.74536 
 Bq                    2.19437   1.98935   1.41452 
 Bq                    2.3998    2.10318   0.64977 
 Bq                    2.16869   1.97513   1.51011 
 Bq                    2.42548   2.1174    0.55417 
 Bq                    2.29709   2.04626   1.03214 
 Bq                    2.26772   2.13102   1.14148 
 Bq                    2.31908   2.15947   0.95029 
 Bq                    2.24204   2.11679   1.23707 
 Bq                    2.34475   2.1737    0.8547 
 Bq                    2.21636   2.10256   1.33266 
 Bq                    2.37043   2.18793   0.7591 
 Bq                    2.19068   2.08834   1.42826 
 Bq                    2.39611   2.20216   0.66351 
 Bq                    2.165     2.07411   1.52385 
 Bq                    2.42179   2.21639   0.56791 
 Bq                    2.2934    2.14525   1.04588 
 Bq                    2.54885  -2.81812   0.48039 
 Bq                    2.6002   -2.78966   0.28921 
 Bq                    2.52317  -2.83234   0.57599 
 Bq                    2.62588  -2.77543   0.19361 
 Bq                    2.49749  -2.84657   0.67158 
 Bq                    2.65156  -2.7612    0.09802 
 Bq                    2.47181  -2.8608    0.76717 
 Bq                    2.67724  -2.74698   0.00242 
 Bq                    2.44613  -2.87503   0.86277 
 Bq                    2.70292  -2.73275  -0.09317 
 Bq                    2.57453  -2.80389   0.3848 
 Bq                    2.54516  -2.71913   0.49413 
 Bq                    2.59651  -2.69068   0.30295 
 Bq                    2.51948  -2.73336   0.58973 
 Bq                    2.62219  -2.67645   0.20735 
 Bq                    2.4938   -2.74759   0.68532 
 Bq                    2.64787  -2.66222   0.11176 
 Bq                    2.46812  -2.76182   0.78091 
 Bq                    2.67355  -2.64799   0.01616 
 Bq                    2.44244  -2.77604   0.87651 
 Bq                    2.69923  -2.63377  -0.07943 
 Bq                    2.57083  -2.7049    0.39854 
 Bq                    2.54146  -2.62015   0.50787 
 Bq                    2.59282  -2.59169   0.31669 
 Bq                    2.51579  -2.63438   0.60347 
 Bq                    2.6185   -2.57747   0.22109 
 Bq                    2.49011  -2.64861   0.69906 
 Bq                    2.64418  -2.56324   0.1255 
 Bq                    2.46443  -2.66283   0.79466 
 Bq                    2.66986  -2.54901   0.0299 
 Bq                    2.43875  -2.67706   0.89025 
 Bq                    2.69554  -2.53478  -0.06569 
 Bq                    2.56714  -2.60592   0.41228 
 Bq                    2.53777  -2.52117   0.52161 
 Bq                    2.58913  -2.49271   0.33043 
 Bq                    2.51209  -2.53539   0.61721 
 Bq                    2.61481  -2.47848   0.23483 
 Bq                    2.48642  -2.54962   0.7128 
 Bq                    2.64049  -2.46426   0.13924 
 Bq                    2.46074  -2.56385   0.8084 
 Bq                    2.66617  -2.45003   0.04365 
 Bq                    2.43506  -2.57808   0.90399 
 Bq                    2.69185  -2.4358   -0.05195 
 Bq                    2.56345  -2.50694   0.42602 
 Bq                    2.53408  -2.42218   0.53535 
 Bq                    2.58544  -2.39373   0.34417 
 Bq                    2.5084   -2.43641   0.63095 
 Bq                    2.61112  -2.3795    0.24857 
 Bq                    2.48272  -2.45064   0.72654 
 Bq                    2.6368   -2.36527   0.15298 
 Bq                    2.45705  -2.46487   0.82214 
 Bq                    2.66248  -2.35105   0.05739 
 Bq                    2.43137  -2.47909   0.91773 
 Bq                    2.68816  -2.33682  -0.03821 
 Bq                    2.55976  -2.40796   0.43976 
 Bq                    2.53039  -2.3232    0.5491 
 Bq                    2.58175  -2.29475   0.35791 
 Bq                    2.50471  -2.33743   0.64469 
 Bq                    2.60743  -2.28052   0.26231 
 Bq                    2.47903  -2.35166   0.74028 
 Bq                    2.63311  -2.26629   0.16672 
 Bq                    2.45335  -2.36588   0.83588 
 Bq                    2.65879  -2.25206   0.07113 
 Bq                    2.42768  -2.38011   0.93147 
 Bq                    2.68446  -2.23784  -0.02447 
 Bq                    2.55607  -2.30897   0.4535 
 Bq                    2.5267   -2.22422   0.56284 
 Bq                    2.57806  -2.19576   0.37165 
 Bq                    2.50102  -2.23845   0.65843 
 Bq                    2.60374  -2.18154   0.27605 
 Bq                    2.47534  -2.25267   0.75402 
 Bq                    2.62942  -2.16731   0.18046 
 Bq                    2.44966  -2.2669    0.84962 
 Bq                    2.65509  -2.15308   0.08487 
 Bq                    2.42398  -2.28113   0.94521 
 Bq                    2.68077  -2.13885  -0.01073 
 Bq                    2.55238  -2.20999   0.46724 
 Bq                    2.52301  -2.12524   0.57658 
 Bq                    2.57437  -2.09678   0.38539 
 Bq                    2.49733  -2.13946   0.67217 
 Bq                    2.60005  -2.08255   0.2898 
 Bq                    2.47165  -2.15369   0.76776 
 Bq                    2.62572  -2.06833   0.1942 
 Bq                    2.44597  -2.16792   0.86336 
 Bq                    2.6514   -2.0541    0.09861 
 Bq                    2.42029  -2.18215   0.95895 
 Bq                    2.67708  -2.03987   0.00301 
 Bq                    2.54869  -2.11101   0.48098 
 Bq                    2.51932  -2.02625   0.59032 
 Bq                    2.57068  -1.9978    0.39913 
 Bq                    2.49364  -2.04048   0.68591 
 
 Symmetry turned off:
 Cannot cope with ghost atoms or with translation vectors.
 Stoichiometry    C22H14
 Framework group  C1[X(C22H14)]
 NUMDOF-- NAT=    36 NAtoms=   236
 Deg. of freedom     0
 Full point group                 C1      NOp   1
                          Input orientation:                          
 ---------------------------------------------------------------------
 Center     Atomic      Atomic             Coordinates (Angstroms)
 Number     Number       Type             X           Y           Z
 ---------------------------------------------------------------------
      1          6           0       -4.050056   -0.577186    0.813671
      2          1           0       -5.026380   -1.008273    1.002476
      3          6           0       -3.938155    0.661780    0.240088
      4          1           0       -4.825242    1.233889   -0.011130
      5          6           0       -2.676841    1.243325    0.005758
      6          6           0       -1.497412    0.505153    0.284825
      7          6           0       -1.650833   -0.733873    0.940403
      8          1           0       -0.771365   -1.273097    1.263375
      9          6           0       -2.889855   -1.262404    1.199431
     10          1           0       -2.968371   -2.212456    1.715268
     11          6           0       -2.577319    2.596370   -0.419293
     12          1           0       -3.487073    3.141224   -0.647406
     13          6           0       -1.374190    3.214790   -0.436403
     14          1           0       -1.299732    4.274202   -0.657814
     15          6           0       -0.171949    2.499409   -0.173459
     16          6           0       -0.204392    1.101844    0.019269
     17          6           0        1.051349    3.204256   -0.067622
     18          1           0        1.042734    4.281950   -0.189700
     19          6           0        2.194209    2.548745    0.257958
     20          1           0        3.116853    3.091285    0.433473
     21          6           0        2.221647    1.133656    0.293499
     22          6           0        1.048693    0.394553    0.030241
     23          6           0        3.448336    0.461463    0.557394
     24          1           0        4.309579    1.060605    0.833485
     25          6           0        3.542735   -0.885593    0.474946
     26          1           0        4.473147   -1.393970    0.703882
     27          6           0        2.449005   -1.647445   -0.019632
     28          6           0        1.215070   -1.005726   -0.301357
     29          6           0        0.253111   -1.743444   -1.021659
     30          1           0       -0.654136   -1.253505   -1.346285
     31          6           0        0.449419   -3.062860   -1.341378
     32          1           0       -0.308316   -3.594431   -1.905406
     33          6           0        1.625173   -3.720797   -0.955254
     34          1           0        1.767005   -4.768740   -1.192702
     35          6           0        2.610987   -3.014418   -0.318305
     36          1           0        3.552561   -3.490281   -0.064637
     37          0           0        2.352295    1.268631    0.826624
     38          0           0        2.275258    1.225948    1.113406
     39          0           0        2.377974    1.282858    0.731031
     40          0           0        2.249579    1.211720    1.209000
     41          0           0        2.403652    1.297086    0.635437
     42          0           0        2.223900    1.197492    1.304593
     43          0           0        2.429331    1.311314    0.539843
     44          0           0        2.198222    1.183265    1.400187
     45          0           0        2.455010    1.325541    0.444249
     46          0           0        2.326616    1.254403    0.922218
     47          0           0        2.297246    1.339158    1.031553
     48          0           0        2.348604    1.367613    0.840365
     49          0           0        2.271567    1.324930    1.127146
     50          0           0        2.374283    1.381841    0.744771
     51          0           0        2.245888    1.310703    1.222740
     52          0           0        2.399961    1.396069    0.649177
     53          0           0        2.220209    1.296475    1.318334
     54          0           0        2.425640    1.410296    0.553584
     55          0           0        2.194530    1.282247    1.413928
     56          0           0        2.451319    1.424524    0.457990
     57          0           0        2.322925    1.353386    0.935959
     58          0           0        2.293555    1.438141    1.045293
     59          0           0        2.344913    1.466596    0.854106
     60          0           0        2.267876    1.423913    1.140887
     61          0           0        2.370591    1.480824    0.758512
     62          0           0        2.242197    1.409685    1.236481
     63          0           0        2.396270    1.495051    0.662918
     64          0           0        2.216518    1.395458    1.332074
     65          0           0        2.421949    1.509279    0.567324
     66          0           0        2.190839    1.381230    1.427668
     67          0           0        2.447628    1.523507    0.471730
     68          0           0        2.319234    1.452368    0.949699
     69          0           0        2.289864    1.537123    1.059034
     70          0           0        2.341222    1.565579    0.867846
     71          0           0        2.264185    1.522896    1.154627
     72          0           0        2.366900    1.579806    0.772252
     73          0           0        2.238506    1.508668    1.250221
     74          0           0        2.392579    1.594034    0.676659
     75          0           0        2.212827    1.494440    1.345815
     76          0           0        2.418258    1.608262    0.581065
     77          0           0        2.187148    1.480213    1.441409
     78          0           0        2.443937    1.622489    0.485471
     79          0           0        2.315543    1.551351    0.963440
     80          0           0        2.286173    1.636106    1.072774
     81          0           0        2.337531    1.664561    0.881587
     82          0           0        2.260494    1.621878    1.168368
     83          0           0        2.363209    1.678789    0.785993
     84          0           0        2.234815    1.607651    1.263962
     85          0           0        2.388888    1.693017    0.690399
     86          0           0        2.209136    1.593423    1.359556
     87          0           0        2.414567    1.707244    0.594805
     88          0           0        2.183457    1.579195    1.455149
     89          0           0        2.440246    1.721472    0.499212
     90          0           0        2.311852    1.650334    0.977180
     91          0           0        2.282482    1.735089    1.086515
     92          0           0        2.333839    1.763544    0.895327
     93          0           0        2.256803    1.720861    1.182109
     94          0           0        2.359518    1.777772    0.799733
     95          0           0        2.231124    1.706634    1.277702
     96          0           0        2.385197    1.791999    0.704140
     97          0           0        2.205445    1.692406    1.373296
     98          0           0        2.410876    1.806227    0.608546
     99          0           0        2.179766    1.678178    1.468890
    100          0           0        2.436555    1.820455    0.512952
    101          0           0        2.308161    1.749316    0.990921
    102          0           0        2.278791    1.834072    1.100255
    103          0           0        2.330148    1.862527    0.909068
    104          0           0        2.253112    1.819844    1.195849
    105          0           0        2.355827    1.876754    0.813474
    106          0           0        2.227433    1.805616    1.291443
    107          0           0        2.381506    1.890982    0.717880
    108          0           0        2.201754    1.791389    1.387037
    109          0           0        2.407185    1.905210    0.622286
    110          0           0        2.176075    1.777161    1.482630
    111          0           0        2.432864    1.919437    0.526693
    112          0           0        2.304470    1.848299    1.004662
    113          0           0        2.275100    1.933054    1.113996
    114          0           0        2.326457    1.961510    0.922808
    115          0           0        2.249421    1.918827    1.209590
    116          0           0        2.352136    1.975737    0.827214
    117          0           0        2.223742    1.904599    1.305183
    118          0           0        2.377815    1.989965    0.731621
    119          0           0        2.198063    1.890371    1.400777
    120          0           0        2.403494    2.004193    0.636027
    121          0           0        2.172384    1.876144    1.496371
    122          0           0        2.429173    2.018420    0.540433
    123          0           0        2.300778    1.947282    1.018402
    124          0           0        2.271409    2.032037    1.127736
    125          0           0        2.322766    2.060492    0.936549
    126          0           0        2.245730    2.017809    1.223330
    127          0           0        2.348445    2.074720    0.840955
    128          0           0        2.220051    2.003582    1.318924
    129          0           0        2.374124    2.088948    0.745361
    130          0           0        2.194372    1.989354    1.414518
    131          0           0        2.399803    2.103175    0.649767
    132          0           0        2.168693    1.975126    1.510111
    133          0           0        2.425482    2.117403    0.554174
    134          0           0        2.297087    2.046265    1.032143
    135          0           0        2.267718    2.131020    1.141477
    136          0           0        2.319075    2.159475    0.950289
    137          0           0        2.242039    2.116792    1.237071
    138          0           0        2.344754    2.173703    0.854696
    139          0           0        2.216360    2.102564    1.332664
    140          0           0        2.370433    2.187930    0.759102
    141          0           0        2.190681    2.088337    1.428258
    142          0           0        2.396112    2.202158    0.663508
    143          0           0        2.165002    2.074109    1.523852
    144          0           0        2.421791    2.216386    0.567914
    145          0           0        2.293396    2.145247    1.045883
    146          0           0        2.548846   -2.818115    0.480393
    147          0           0        2.600204   -2.789660    0.289205
    148          0           0        2.523167   -2.832343    0.575986
    149          0           0        2.625883   -2.775432    0.193611
    150          0           0        2.497489   -2.846570    0.671580
    151          0           0        2.651562   -2.761204    0.098018
    152          0           0        2.471810   -2.860798    0.767174
    153          0           0        2.677241   -2.746977    0.002424
    154          0           0        2.446131   -2.875026    0.862768
    155          0           0        2.702919   -2.732749   -0.093170
    156          0           0        2.574525   -2.803887    0.384799
    157          0           0        2.545155   -2.719132    0.494133
    158          0           0        2.596513   -2.690677    0.302946
    159          0           0        2.519476   -2.733360    0.589727
    160          0           0        2.622192   -2.676449    0.207352
    161          0           0        2.493798   -2.747588    0.685321
    162          0           0        2.647871   -2.662222    0.111758
    163          0           0        2.468119   -2.761815    0.780915
    164          0           0        2.673550   -2.647994    0.016164
    165          0           0        2.442440   -2.776043    0.876508
    166          0           0        2.699228   -2.633766   -0.079429
    167          0           0        2.570834   -2.704905    0.398539
    168          0           0        2.541464   -2.620150    0.507874
    169          0           0        2.592822   -2.591694    0.316686
    170          0           0        2.515785   -2.634377    0.603468
    171          0           0        2.618501   -2.577467    0.221092
    172          0           0        2.490106   -2.648605    0.699061
    173          0           0        2.644180   -2.563239    0.125499
    174          0           0        2.464428   -2.662833    0.794655
    175          0           0        2.669859   -2.549011    0.029905
    176          0           0        2.438749   -2.677060    0.890249
    177          0           0        2.695537   -2.534784   -0.065689
    178          0           0        2.567143   -2.605922    0.412280
    179          0           0        2.537773   -2.521167    0.521614
    180          0           0        2.589131   -2.492712    0.330427
    181          0           0        2.512094   -2.535395    0.617208
    182          0           0        2.614810   -2.478484    0.234833
    183          0           0        2.486415   -2.549622    0.712802
    184          0           0        2.640489   -2.464256    0.139239
    185          0           0        2.460737   -2.563850    0.808396
    186          0           0        2.666167   -2.450029    0.043645
    187          0           0        2.435058   -2.578078    0.903989
    188          0           0        2.691846   -2.435801   -0.051948
    189          0           0        2.563452   -2.506939    0.426021
    190          0           0        2.534082   -2.422184    0.535355
    191          0           0        2.585440   -2.393729    0.344167
    192          0           0        2.508403   -2.436412    0.630949
    193          0           0        2.611119   -2.379501    0.248574
    194          0           0        2.482724   -2.450640    0.726542
    195          0           0        2.636798   -2.365274    0.152980
    196          0           0        2.457046   -2.464867    0.822136
    197          0           0        2.662476   -2.351046    0.057386
    198          0           0        2.431367   -2.479095    0.917730
    199          0           0        2.688155   -2.336818   -0.038208
    200          0           0        2.559761   -2.407957    0.439761
    201          0           0        2.530391   -2.323202    0.549095
    202          0           0        2.581749   -2.294746    0.357908
    203          0           0        2.504712   -2.337429    0.644689
    204          0           0        2.607428   -2.280519    0.262314
    205          0           0        2.479033   -2.351657    0.740283
    206          0           0        2.633107   -2.266291    0.166720
    207          0           0        2.453354   -2.365885    0.835877
    208          0           0        2.658785   -2.252063    0.071127
    209          0           0        2.427676   -2.380112    0.931470
    210          0           0        2.684464   -2.237836   -0.024467
    211          0           0        2.556070   -2.308974    0.453502
    212          0           0        2.526700   -2.224219    0.562836
    213          0           0        2.578058   -2.195764    0.371648
    214          0           0        2.501021   -2.238447    0.658430
    215          0           0        2.603737   -2.181536    0.276055
    216          0           0        2.475342   -2.252674    0.754023
    217          0           0        2.629415   -2.167308    0.180461
    218          0           0        2.449663   -2.266902    0.849617
    219          0           0        2.655094   -2.153081    0.084867
    220          0           0        2.423985   -2.281130    0.945211
    221          0           0        2.680773   -2.138853   -0.010727
    222          0           0        2.552379   -2.209991    0.467242
    223          0           0        2.523009   -2.125236    0.576576
    224          0           0        2.574367   -2.096781    0.385389
    225          0           0        2.497330   -2.139464    0.672170
    226          0           0        2.600046   -2.082553    0.289795
    227          0           0        2.471651   -2.153692    0.767764
    228          0           0        2.625724   -2.068326    0.194201
    229          0           0        2.445972   -2.167919    0.863358
    230          0           0        2.651403   -2.054098    0.098608
    231          0           0        2.420293   -2.182147    0.958952
    232          0           0        2.677082   -2.039870    0.003014
    233          0           0        2.548688   -2.111009    0.480983
    234          0           0        2.519318   -2.026254    0.590317
    235          0           0        2.570676   -1.997798    0.399129
    236          0           0        2.493639   -2.040481    0.685911
 ---------------------------------------------------------------------
 Rotational constants (GHZ):      0.4529074      0.2836956      0.1879557
 Standard basis: 6-311+G(d,p) (5D, 7F)
 Warning:  center  37 has no basis functions!
 Warning:  center  38 has no basis functions!
 Warning:  center  39 has no basis functions!
 Warning:  center  40 has no basis functions!
 Warning:  center  41 has no basis functions!
 Warning:  center  42 has no basis functions!
 Warning:  center  43 has no basis functions!
 Warning:  center  44 has no basis functions!
 Warning:  center  45 has no basis functions!
 Warning:  center  46 has no basis functions!
 Warning:  center  47 has no basis functions!
 Warning:  center  48 has no basis functions!
 Warning:  center  49 has no basis functions!
 Warning:  center  50 has no basis functions!
 Warning:  center  51 has no basis functions!
 Warning:  center  52 has no basis functions!
 Warning:  center  53 has no basis functions!
 Warning:  center  54 has no basis functions!
 Warning:  center  55 has no basis functions!
 Warning:  center  56 has no basis functions!
 Warning:  center  57 has no basis functions!
 Warning:  center  58 has no basis functions!
 Warning:  center  59 has no basis functions!
 Warning:  center  60 has no basis functions!
 Warning:  center  61 has no basis functions!
 Warning:  center  62 has no basis functions!
 Warning:  center  63 has no basis functions!
 Warning:  center  64 has no basis functions!
 Warning:  center  65 has no basis functions!
 Warning:  center  66 has no basis functions!
 Warning:  center  67 has no basis functions!
 Warning:  center  68 has no basis functions!
 Warning:  center  69 has no basis functions!
 Warning:  center  70 has no basis functions!
 Warning:  center  71 has no basis functions!
 Warning:  center  72 has no basis functions!
 Warning:  center  73 has no basis functions!
 Warning:  center  74 has no basis functions!
 Warning:  center  75 has no basis functions!
 Warning:  center  76 has no basis functions!
 Warning:  center  77 has no basis functions!
 Warning:  center  78 has no basis functions!
 Warning:  center  79 has no basis functions!
 Warning:  center  80 has no basis functions!
 Warning:  center  81 has no basis functions!
 Warning:  center  82 has no basis functions!
 Warning:  center  83 has no basis functions!
 Warning:  center  84 has no basis functions!
 Warning:  center  85 has no basis functions!
 Warning:  center  86 has no basis functions!
 Warning:  center  87 has no basis functions!
 Warning:  center  88 has no basis functions!
 Warning:  center  89 has no basis functions!
 Warning:  center  90 has no basis functions!
 Warning:  center  91 has no basis functions!
 Warning:  center  92 has no basis functions!
 Warning:  center  93 has no basis functions!
 Warning:  center  94 has no basis functions!
 Warning:  center  95 has no basis functions!
 Warning:  center  96 has no basis functions!
 Warning:  center  97 has no basis functions!
 Warning:  center  98 has no basis functions!
 Warning:  center  99 has no basis functions!
 Warning:  center 100 has no basis functions!
 Warning:  center 101 has no basis functions!
 Warning:  center 102 has no basis functions!
 Warning:  center 103 has no basis functions!
 Warning:  center 104 has no basis functions!
 Warning:  center 105 has no basis functions!
 Warning:  center 106 has no basis functions!
 Warning:  center 107 has no basis functions!
 Warning:  center 108 has no basis functions!
 Warning:  center 109 has no basis functions!
 Warning:  center 110 has no basis functions!
 Warning:  center 111 has no basis functions!
 Warning:  center 112 has no basis functions!
 Warning:  center 113 has no basis functions!
 Warning:  center 114 has no basis functions!
 Warning:  center 115 has no basis functions!
 Warning:  center 116 has no basis functions!
 Warning:  center 117 has no basis functions!
 Warning:  center 118 has no basis functions!
 Warning:  center 119 has no basis functions!
 Warning:  center 120 has no basis functions!
 Warning:  center 121 has no basis functions!
 Warning:  center 122 has no basis functions!
 Warning:  center 123 has no basis functions!
 Warning:  center 124 has no basis functions!
 Warning:  center 125 has no basis functions!
 Warning:  center 126 has no basis functions!
 Warning:  center 127 has no basis functions!
 Warning:  center 128 has no basis functions!
 Warning:  center 129 has no basis functions!
 Warning:  center 130 has no basis functions!
 Warning:  center 131 has no basis functions!
 Warning:  center 132 has no basis functions!
 Warning:  center 133 has no basis functions!
 Warning:  center 134 has no basis functions!
 Warning:  center 135 has no basis functions!
 Warning:  center 136 has no basis functions!
 Warning:  center 137 has no basis functions!
 Warning:  center 138 has no basis functions!
 Warning:  center 139 has no basis functions!
 Warning:  center 140 has no basis functions!
 Warning:  center 141 has no basis functions!
 Warning:  center 142 has no basis functions!
 Warning:  center 143 has no basis functions!
 Warning:  center 144 has no basis functions!
 Warning:  center 145 has no basis functions!
 Warning:  center 146 has no basis functions!
 Warning:  center 147 has no basis functions!
 Warning:  center 148 has no basis functions!
 Warning:  center 149 has no basis functions!
 Warning:  center 150 has no basis functions!
 Warning:  center 151 has no basis functions!
 Warning:  center 152 has no basis functions!
 Warning:  center 153 has no basis functions!
 Warning:  center 154 has no basis functions!
 Warning:  center 155 has no basis functions!
 Warning:  center 156 has no basis functions!
 Warning:  center 157 has no basis functions!
 Warning:  center 158 has no basis functions!
 Warning:  center 159 has no basis functions!
 Warning:  center 160 has no basis functions!
 Warning:  center 161 has no basis functions!
 Warning:  center 162 has no basis functions!
 Warning:  center 163 has no basis functions!
 Warning:  center 164 has no basis functions!
 Warning:  center 165 has no basis functions!
 Warning:  center 166 has no basis functions!
 Warning:  center 167 has no basis functions!
 Warning:  center 168 has no basis functions!
 Warning:  center 169 has no basis functions!
 Warning:  center 170 has no basis functions!
 Warning:  center 171 has no basis functions!
 Warning:  center 172 has no basis functions!
 Warning:  center 173 has no basis functions!
 Warning:  center 174 has no basis functions!
 Warning:  center 175 has no basis functions!
 Warning:  center 176 has no basis functions!
 Warning:  center 177 has no basis functions!
 Warning:  center 178 has no basis functions!
 Warning:  center 179 has no basis functions!
 Warning:  center 180 has no basis functions!
 Warning:  center 181 has no basis functions!
 Warning:  center 182 has no basis functions!
 Warning:  center 183 has no basis functions!
 Warning:  center 184 has no basis functions!
 Warning:  center 185 has no basis functions!
 Warning:  center 186 has no basis functions!
 Warning:  center 187 has no basis functions!
 Warning:  center 188 has no basis functions!
 Warning:  center 189 has no basis functions!
 Warning:  center 190 has no basis functions!
 Warning:  center 191 has no basis functions!
 Warning:  center 192 has no basis functions!
 Warning:  center 193 has no basis functions!
 Warning:  center 194 has no basis functions!
 Warning:  center 195 has no basis functions!
 Warning:  center 196 has no basis functions!
 Warning:  center 197 has no basis functions!
 Warning:  center 198 has no basis functions!
 Warning:  center 199 has no basis functions!
 Warning:  center 200 has no basis functions!
 Warning:  center 201 has no basis functions!
 Warning:  center 202 has no basis functions!
 Warning:  center 203 has no basis functions!
 Warning:  center 204 has no basis functions!
 Warning:  center 205 has no basis functions!
 Warning:  center 206 has no basis functions!
 Warning:  center 207 has no basis functions!
 Warning:  center 208 has no basis functions!
 Warning:  center 209 has no basis functions!
 Warning:  center 210 has no basis functions!
 Warning:  center 211 has no basis functions!
 Warning:  center 212 has no basis functions!
 Warning:  center 213 has no basis functions!
 Warning:  center 214 has no basis functions!
 Warning:  center 215 has no basis functions!
 Warning:  center 216 has no basis functions!
 Warning:  center 217 has no basis functions!
 Warning:  center 218 has no basis functions!
 Warning:  center 219 has no basis functions!
 Warning:  center 220 has no basis functions!
 Warning:  center 221 has no basis functions!
 Warning:  center 222 has no basis functions!
 Warning:  center 223 has no basis functions!
 Warning:  center 224 has no basis functions!
 Warning:  center 225 has no basis functions!
 Warning:  center 226 has no basis functions!
 Warning:  center 227 has no basis functions!
 Warning:  center 228 has no basis functions!
 Warning:  center 229 has no basis functions!
 Warning:  center 230 has no basis functions!
 Warning:  center 231 has no basis functions!
 Warning:  center 232 has no basis functions!
 Warning:  center 233 has no basis functions!
 Warning:  center 234 has no basis functions!
 Warning:  center 235 has no basis functions!
 Warning:  center 236 has no basis functions!
   568 basis functions,   904 primitive gaussians,   590 cartesian basis functions
    73 alpha electrons       73 beta electrons
       nuclear repulsion energy      1610.9176155625 Hartrees.
 NAtoms=  236 NActive=  236 NUniq=  236 SFac= 1.00D+00 NAtFMM=   60 NAOKFM=T Big=T
 Integral buffers will be    131072 words long.
 Raffenetti 2 integral format.
 Two-electron integral symmetry is turned off.
 One-electron integrals computed using PRISM.
 NBasis=   568 RedAO= T EigKep=  1.78D-06  NBF=   568
 NBsUse=   556 1.00D-06 EigRej=  9.09D-07 NBFU=   556
 ExpMin= 4.38D-02 ExpMax= 4.56D+03 ExpMxC= 6.82D+02 IAcc=2 IRadAn=         4 AccDes= 0.00D+00
 Harris functional with IExCor=  402 and IRadAn=       4 diagonalized for initial guess.
 HarFok:  IExCor=  402 AccDes= 0.00D+00 IRadAn=         4 IDoV= 1 UseB2=F ITyADJ=14
 ICtDFT=  3500011 ScaDFX=  1.000000  1.000000  1.000000  1.000000
 FoFCou: FMM=F IPFlag=           0 FMFlag=      100000 FMFlg1=        2001
         NFxFlg=           0 DoJE=T BraDBF=F KetDBF=T FulRan=T
         wScrn=  0.000000 ICntrl=     500 IOpCl=  0 I1Cent=   200000004 NGrid=           0
         NMat0=    1 NMatS0=      1 NMatT0=    0 NMatD0=    1 NMtDS0=    0 NMtDT0=    0
 Symmetry not used in FoFCou.
 Requested convergence on RMS density matrix=1.00D-08 within 128 cycles.
 Requested convergence on MAX density matrix=1.00D-06.
 Requested convergence on             energy=1.00D-06.
 No special actions if energy rises.
 SCF Done:  E(RB3LYP) =  -847.003289847     A.U. after   15 cycles
            NFock= 15  Conv=0.75D-08     -V/T= 2.0040
 DoSCS=F DFT=T ScalE2(SS,OS)=  1.000000  1.000000
 Range of M.O.s used for correlation:     1   556
 NBasis=   568 NAE=    73 NBE=    73 NFC=     0 NFV=     0
 NROrb=    556 NOA=    73 NOB=    73 NVA=   483 NVB=   483

 **** Warning!!: The largest alpha MO coefficient is  0.10971037D+03

          Differentiating once with respect to magnetic field using GIAOs.
          Electric field/nuclear overlap derivatives assumed to be zero.
 FoFCou: FMM=F IPFlag=           0 FMFlag=      100000 FMFlg1=        2001
         NFxFlg=           0 DoJE=F BraDBF=F KetDBF=T FulRan=T
         wScrn=  0.000000 ICntrl=    6100 IOpCl=  0 I1Cent=           7 NGrid=         236
         NMat0=    1 NMatS0=      1 NMatT0=    0 NMatD0=    1 NMtDS0=    0 NMtDT0=    0
 Symmetry not used in FoFCou.
 FoFJK:  IHMeth= 1 ICntrl=    6127 DoSepK=F KAlg= 0 I1Cent=   0 FoldK=F
 IRaf=         1 NMat=   1 IRICut=       1 DoRegI=T DoRafI=F ISym2E= 0.
          There are     3 degrees of freedom in the 1st order CPHF.  IDoFFX=0 NUNeed=     3.
      3 vectors produced by pass  0 Test12= 1.18D-12 3.33D-08 XBig12= 2.07D+03 9.18D+00.
 AX will form     3 AO Fock derivatives at one time.
      3 vectors produced by pass  1 Test12= 1.18D-12 3.33D-08 XBig12= 3.56D+00 8.03D-01.
      3 vectors produced by pass  2 Test12= 1.18D-12 3.33D-08 XBig12= 2.10D-02 6.92D-02.
      3 vectors produced by pass  3 Test12= 1.18D-12 3.33D-08 XBig12= 5.45D-05 1.89D-03.
      3 vectors produced by pass  4 Test12= 1.18D-12 3.33D-08 XBig12= 1.20D-07 7.79D-05.
      3 vectors produced by pass  5 Test12= 1.18D-12 3.33D-08 XBig12= 4.02D-10 4.73D-06.
      3 vectors produced by pass  6 Test12= 1.18D-12 3.33D-08 XBig12= 1.32D-12 2.61D-07.
 InvSVY:  IOpt=1 It=  1 EMax= 3.55D-15
 Solved reduced A of dimension    21 with     3 vectors.
 Calculating GIAO nuclear magnetic shielding tensors.
 SCF GIAO Magnetic shielding tensor (ppm):
      1  C    Isotropic =    53.8139   Anisotropy =   178.0260
   XX=   -41.4327   YX=   -32.3458   ZX=    10.0287
   XY=   -28.3572   YY=    59.0527   ZY=    55.1899
   XZ=    13.1759   YZ=    58.7550   ZZ=   143.8218
   Eigenvalues:   -53.8775    42.8214   172.4979
      2  H    Isotropic =    24.3095   Anisotropy =     4.8536
   XX=    25.5771   YX=    -1.0289   ZX=     0.5661
   XY=    -0.7431   YY=    26.1829   ZY=    -2.3306
   XZ=    -0.1707   YZ=    -2.4411   ZZ=    21.1687
   Eigenvalues:    20.2108    25.1725    27.5453
      3  C    Isotropic =    51.4055   Anisotropy =   157.8639
   XX=   -31.5399   YX=    38.5015   ZX=   -17.9316
   XY=    34.3519   YY=    49.9437   ZY=    49.6392
   XZ=    -9.8383   YZ=    44.6006   ZZ=   135.8127
   Eigenvalues:   -50.5747    48.1432   156.6481
      4  H    Isotropic =    23.8290   Anisotropy =     7.1838
   XX=    25.3635   YX=     1.8486   ZX=    -0.3559
   XY=     1.9656   YY=    26.4581   ZY=    -2.4103
   XZ=    -1.2941   YZ=    -2.6614   ZZ=    19.6654
   Eigenvalues:    18.8176    24.0511    28.6182
      5  C    Isotropic =    46.0697   Anisotropy =   207.6751
   XX=   -19.2123   YX=    -4.8852   ZX=    -1.6475
   XY=     2.8938   YY=    -2.9860   ZY=    66.5656
   XZ=     2.5356   YZ=    67.9144   ZZ=   160.4073
   Eigenvalues:   -27.2455   -19.0652   184.5197
      6  C    Isotropic =    47.5218   Anisotropy =   196.9389
   XX=   -28.1552   YX=    -2.7889   ZX=    12.0660
   XY=   -14.3886   YY=    21.2063   ZY=    74.2521
   XZ=   -18.6356   YZ=    61.1113   ZZ=   149.5144
   Eigenvalues:   -30.2925    -5.9564   178.8144
      7  C    Isotropic =    49.3915   Anisotropy =   179.8333
   XX=   -12.5211   YX=    28.7048   ZX=   -24.6745
   XY=    31.5123   YY=    29.7000   ZY=    77.7459
   XZ=   -40.0095   YZ=    65.3072   ZZ=   130.9956
   Eigenvalues:   -52.1299    31.0240   169.2804
      8  H    Isotropic =    23.1586   Anisotropy =    13.5525
   XX=    28.5711   YX=     1.5482   ZX=    -3.6986
   XY=     3.2466   YY=    22.7592   ZY=    -2.1157
   XZ=    -8.3753   YZ=    -1.0821   ZZ=    18.1456
   Eigenvalues:    15.3521    21.9301    32.1936
      9  C    Isotropic =    55.1460   Anisotropy =   174.7426
   XX=    46.7071   YX=    -2.6162   ZX=    -2.8420
   XY=     0.6223   YY=    -1.6258   ZY=    92.8272
   XZ=     0.5159   YZ=    95.6598   ZZ=   120.3568
   Eigenvalues:   -52.8932    46.6901   171.6411
     10  H    Isotropic =    24.6278   Anisotropy =     7.1815
   XX=    29.1040   YX=     0.1399   ZX=    -0.3694
   XY=     0.3642   YY=    23.4778   ZY=    -1.0805
   XZ=    -2.4493   YZ=    -2.9465   ZZ=    21.3016
   Eigenvalues:    19.9703    24.4977    29.4155
     11  C    Isotropic =    51.5607   Anisotropy =   151.2142
   XX=     2.1639   YX=    40.9287   ZX=   -26.0048
   XY=    49.9131   YY=    12.2331   ZY=    42.1342
   XZ=   -15.6145   YZ=    38.6614   ZZ=   140.2851
   Eigenvalues:   -48.1951    50.5071   152.3701
     12  H    Isotropic =    23.8537   Anisotropy =     7.3815
   XX=    25.9672   YX=     2.3738   ZX=    -0.2390
   XY=     2.4320   YY=    26.3975   ZY=    -1.8291
   XZ=     0.3529   YZ=    -1.7731   ZZ=    19.1964
   Eigenvalues:    18.7149    24.0714    28.7747
     13  C    Isotropic =    52.8653   Anisotropy =   147.4265
   XX=    51.2944   YX=    19.9221   ZX=   -13.4678
   XY=    11.5478   YY=   -34.0176   ZY=    42.5079
   XZ=    -9.2241   YZ=    40.0716   ZZ=   141.3192
   Eigenvalues:   -46.5152    53.9616   151.1497
     14  H    Isotropic =    24.0156   Anisotropy =     7.3485
   XX=    28.6644   YX=     0.6281   ZX=     1.0808
   XY=     0.5926   YY=    24.4325   ZY=    -1.0823
   XZ=     1.6846   YZ=    -0.3842   ZZ=    18.9500
   Eigenvalues:    18.6430    24.4892    28.9146
     15  C    Isotropic =    46.2221   Anisotropy =   203.9048
   XX=   -27.2215   YX=    -0.0442   ZX=   -28.9124
   XY=     4.6427   YY=   -10.5571   ZY=    28.3830
   XZ=   -10.2704   YZ=    26.7376   ZZ=   176.4448
   Eigenvalues:   -30.5512   -12.9411   182.1586
     16  C    Isotropic =    51.9375   Anisotropy =   188.2004
   XX=   -19.4441   YX=     5.5046   ZX=    15.7858
   XY=    -8.3874   YY=     2.4863   ZY=    22.9264
   XZ=   -50.6243   YZ=    23.3340   ZZ=   172.7704
   Eigenvalues:   -21.0294    -0.5625   177.4045
     17  C    Isotropic =    51.9482   Anisotropy =   149.1264
   XX=    50.7296   YX=   -23.9353   ZX=   -18.4207
   XY=   -16.7271   YY=   -41.8764   ZY=    17.8662
   XZ=   -14.3278   YZ=    11.4871   ZZ=   146.9915
   Eigenvalues:   -46.7796    51.2584   151.3658
     18  H    Isotropic =    24.0122   Anisotropy =     7.5163
   XX=    28.5811   YX=    -0.0866   ZX=     1.5071
   XY=    -0.2466   YY=    24.3342   ZY=    -0.7657
   XZ=     2.5088   YZ=    -1.5208   ZZ=    19.1214
   Eigenvalues:    18.5094    24.5041    29.0231
     19  C    Isotropic =    51.7356   Anisotropy =   148.5924
   XX=     2.4559   YX=   -45.6913   ZX=   -31.2531
   XY=   -53.4448   YY=     7.4698   ZY=    -1.8888
   XZ=   -23.5601   YZ=    -1.2765   ZZ=   145.2810
   Eigenvalues:   -46.9894    51.3989   150.7972
     20  H    Isotropic =    23.9071   Anisotropy =     7.6651
   XX=    25.5796   YX=    -2.0226   ZX=     1.4905
   XY=    -1.9998   YY=    27.3706   ZY=    -0.5164
   XZ=     2.7276   YZ=    -1.1179   ZZ=    18.7711
   Eigenvalues:    18.1643    24.5398    29.0172
     21  C    Isotropic =    45.9767   Anisotropy =   203.9316
   XX=   -16.2108   YX=    13.1802   ZX=   -44.5913
   XY=     6.5714   YY=   -20.6329   ZY=     0.0949
   XZ=   -28.8984   YZ=   -13.0883   ZZ=   174.7736
   Eigenvalues:   -30.5796   -13.4215   181.9311
     22  C    Isotropic =    52.0450   Anisotropy =   188.1157
   XX=    -0.0787   YX=     2.5023   ZX=   -16.3451
   XY=    18.9327   YY=   -14.4798   ZY=   -34.4335
   XZ=   -50.6032   YZ=    19.9104   ZZ=   170.6934
   Eigenvalues:   -20.7705    -0.5500   177.4554
     23  C    Isotropic =    53.2392   Anisotropy =   146.7412
   XX=   -22.0674   YX=   -32.0012   ZX=   -49.4857
   XY=   -23.2043   YY=    44.3661   ZY=   -15.6400
   XZ=   -43.8090   YZ=   -20.2525   ZZ=   137.4189
   Eigenvalues:   -45.6776    54.3286   151.0667
     24  H    Isotropic =    23.8249   Anisotropy =     7.5289
   XX=    25.1073   YX=    -1.7330   ZX=     1.5380
   XY=    -1.5944   YY=    28.0047   ZY=     0.0879
   XZ=     1.2557   YZ=    -0.8283   ZZ=    18.3628
   Eigenvalues:    18.0848    24.5458    28.8442
     25  C    Isotropic =    51.4969   Anisotropy =   150.1066
   XX=   -28.4915   YX=    33.9684   ZX=   -52.3137
   XY=    22.0311   YY=    46.6072   ZY=    -3.8075
   XZ=   -44.5594   YZ=   -10.6355   ZZ=   136.3748
   Eigenvalues:   -48.3857    51.3083   151.5679
     26  H    Isotropic =    23.7431   Anisotropy =     7.4052
   XX=    24.0663   YX=     1.1141   ZX=     1.9989
   XY=     0.9693   YY=    28.1000   ZY=     1.6568
   XZ=     2.0795   YZ=     0.8886   ZZ=    19.0630
   Eigenvalues:    18.2615    24.2880    28.6799
     27  C    Isotropic =    45.8108   Anisotropy =   207.2710
   XX=    -2.7702   YX=    13.7697   ZX=   -61.4651
   XY=     6.5593   YY=   -12.0335   ZY=   -41.6456
   XZ=   -62.6381   YZ=   -44.9232   ZZ=   152.2361
   Eigenvalues:   -28.0803   -18.4787   183.9915
     28  C    Isotropic =    47.8398   Anisotropy =   197.2870
   XX=    19.6900   YX=    14.4398   ZX=   -60.5682
   XY=    28.5650   YY=   -19.3566   ZY=   -56.7015
   XZ=   -63.1331   YZ=   -24.4782   ZZ=   143.1859
   Eigenvalues:   -30.5979    -5.2472   179.3644
     29  C    Isotropic =    49.3441   Anisotropy =   179.7793
   XX=    -3.4110   YX=    38.3775   ZX=   -80.8875
   XY=    36.1252   YY=    25.9805   ZY=   -23.7573
   XZ=   -78.1065   YZ=    -3.9802   ZZ=   125.4627
   Eigenvalues:   -51.6645    30.4997   169.1970
     30  H    Isotropic =    23.1387   Anisotropy =    13.3222
   XX=    22.4354   YX=    -0.7013   ZX=    -0.2375
   XY=    -2.1539   YY=    28.3546   ZY=     4.5555
   XZ=    -3.4181   YZ=     8.3231   ZZ=    18.6259
   Eigenvalues:    15.2751    22.1208    32.0201
     31  C    Isotropic =    55.4410   Anisotropy =   174.9390
   XX=    17.1871   YX=   -14.0890   ZX=   -84.0024
   XY=   -17.9030   YY=    37.4745   ZY=   -50.3662
   XZ=   -84.6557   YZ=   -54.8325   ZZ=   111.6615
   Eigenvalues:   -51.9248    46.1808   172.0670
     32  H    Isotropic =    24.5337   Anisotropy =     7.2554
   XX=    24.6185   YX=    -2.5264   ZX=     0.7632
   XY=    -2.7385   YY=    27.4630   ZY=     1.0335
   XZ=     1.1913   YZ=     3.7573   ZZ=    21.5194
   Eigenvalues:    19.8987    24.3316    29.3706
     33  C    Isotropic =    53.1814   Anisotropy =   179.0596
   XX=    60.9231   YX=    35.2256   ZX=   -42.9515
   XY=    32.0226   YY=   -38.1801   ZY=   -45.5652
   XZ=   -44.2248   YZ=   -50.7831   ZZ=   136.8014
   Eigenvalues:   -55.1197    42.1095   172.5545
     34  H    Isotropic =    24.2825   Anisotropy =     5.1861
   XX=    26.7643   YX=    -0.0934   ZX=     2.5955
   XY=    -0.2993   YY=    24.8157   ZY=     0.8589
   XZ=     2.3715   YZ=     1.4580   ZZ=    21.2676
   Eigenvalues:    20.0339    25.0737    27.7399
     35  C    Isotropic =    51.5295   Anisotropy =   155.1748
   XX=    -0.5131   YX=    52.5760   ZX=   -52.1551
   XY=    55.6135   YY=    25.1843   ZY=   -14.2643
   XZ=   -45.7255   YZ=   -17.1625   ZZ=   129.9171
   Eigenvalues:   -48.3147    47.9237   154.9793
     36  H    Isotropic =    23.8384   Anisotropy =     7.3073
   XX=    24.2302   YX=     1.4459   ZX=     2.1759
   XY=     1.2147   YY=    27.1572   ZY=     2.0665
   XZ=     1.6853   YZ=     2.7775   ZZ=    20.1277
   Eigenvalues:    18.9464    23.8588    28.7099
     37  Bq   Isotropic =    18.9158   Anisotropy =     9.5391
   XX=    14.5500   YX=    -8.2591   ZX=   -13.4624
   XY=    -5.5044   YY=    19.0414   ZY=    -8.4510
   XZ=     7.5278   YZ=     1.5704   ZZ=    23.1560
   Eigenvalues:     8.2398    23.2325    25.2752
     38  Bq   Isotropic =    16.6188   Anisotropy =    15.7795
   XX=    11.2329   YX=    -5.5086   ZX=    -5.1791
   XY=    -1.6851   YY=    12.6126   ZY=    -1.8386
   XZ=    13.4768   YZ=     5.2931   ZZ=    26.0109
   Eigenvalues:     7.2638    15.4541    27.1385
     39  Bq   Isotropic =    14.9638   Anisotropy =    15.7876
   XX=     8.7439   YX=   -10.5299   ZX=   -18.6719
   XY=    -8.3726   YY=    15.1615   ZY=   -12.1097
   XZ=     2.7156   YZ=    -0.6399   ZZ=    20.9860
   Eigenvalues:    -2.4654    21.8680    25.4889
     40  Bq   Isotropic =    14.3383   Anisotropy =    18.8258
   XX=     8.2912   YX=    -5.0350   ZX=    -4.3060
   XY=    -1.1416   YY=     9.0790   ZY=    -1.0033
   XZ=    13.4018   YZ=     5.5355   ZZ=    25.6447
   Eigenvalues:     4.4229    11.7032    26.8889
     41  Bq   Isotropic =     7.1970   Anisotropy =    27.5765
   XX=    -3.1971   YX=   -14.1323   ZX=   -23.6887
   XY=   -12.5419   YY=     5.9076   ZY=   -15.2660
   XZ=    -2.8637   YZ=    -2.6160   ZZ=    18.8805
   Eigenvalues:   -19.4219    15.4316    25.5813
     42  Bq   Isotropic =    12.1493   Anisotropy =    20.8501
   XX=     5.6191   YX=    -4.6165   ZX=    -3.8541
   XY=    -0.7488   YY=     5.9548   ZY=    -0.5314
   XZ=    12.8657   YZ=     5.5011   ZZ=    24.8741
   Eigenvalues:     2.0004     8.3982    26.0494
     43  Bq   Isotropic =    -3.1429   Anisotropy =    40.8798
   XX=   -19.5711   YX=   -18.8449   ZX=   -25.6072
   XY=   -17.6788   YY=    -7.2323   ZY=   -15.8716
   XZ=    -7.8607   YZ=    -3.6714   ZZ=    17.3748
   Eigenvalues:   -39.2582     5.7192    24.1103
     44  Bq   Isotropic =    10.2066   Anisotropy =    22.0185
   XX=     3.3807   YX=    -4.2314   ZX=    -3.6287
   XY=    -0.4561   YY=     3.3829   ZY=    -0.2800
   XZ=    12.0899   YZ=     5.2951   ZZ=    23.8562
   Eigenvalues:     0.0728     5.6614    24.8856
     45  Bq   Isotropic =   -11.6962   Anisotropy =    50.2608
   XX=   -33.5723   YX=   -23.3560   ZX=   -21.7558
   XY=   -22.4746   YY=   -18.3939   ZY=   -12.3659
   XZ=   -11.0902   YZ=    -4.0186   ZZ=    16.8774
   Eigenvalues:   -54.7144    -2.1853    21.8110
     46  Bq   Isotropic =    19.7445   Anisotropy =     8.4993
   XX=    15.6261   YX=    -6.9222   ZX=    -9.4307
   XY=    -3.6570   YY=    18.7633   ZY=    -5.4006
   XZ=    10.8899   YZ=     3.4038   ZZ=    24.8442
   Eigenvalues:    11.6774    22.1455    25.4107
     47  Bq   Isotropic =    17.2225   Anisotropy =    13.0316
   XX=    12.9559   YX=    -6.6952   ZX=    -4.6717
   XY=    -2.6287   YY=    14.9562   ZY=    -4.6083
   XZ=    14.4606   YZ=     4.7640   ZZ=    23.7555
   Eigenvalues:     8.1778    17.5795    25.9103
     48  Bq   Isotropic =    18.5126   Anisotropy =    13.7481
   XX=    16.0323   YX=    -9.6337   ZX=    -9.0986
   XY=    -6.0762   YY=    17.6964   ZY=   -10.9980
   XZ=    10.1640   YZ=     1.2528   ZZ=    21.8091
   Eigenvalues:     8.3116    19.5482    27.6780
     49  Bq   Isotropic =    15.2855   Anisotropy =    16.0521
   XX=    10.0228   YX=    -5.8723   ZX=    -3.6761
   XY=    -1.7282   YY=    11.8167   ZY=    -2.6595
   XZ=    14.8883   YZ=     5.5846   ZZ=    24.0170
   Eigenvalues:     5.4512    14.4184    25.9869
     50  Bq   Isotropic =    16.4140   Anisotropy =    17.1891
   XX=    13.8539   YX=   -12.3227   ZX=   -12.5051
   XY=    -9.1721   YY=    14.8401   ZY=   -14.9136
   XZ=     6.0524   YZ=    -1.2688   ZZ=    20.5479
   Eigenvalues:     0.3909    20.9777    27.8734
     51  Bq   Isotropic =    13.1954   Anisotropy =    18.7192
   XX=     7.1485   YX=    -5.2460   ZX=    -3.1844
   XY=    -1.1191   YY=     8.6242   ZY=    -1.3901
   XZ=    14.6050   YZ=     5.9383   ZZ=    23.8135
   Eigenvalues:     2.9299    10.9814    25.6749
     52  Bq   Isotropic =    11.9286   Anisotropy =    21.6915
   XX=     8.0095   YX=   -16.1350   ZX=   -15.7009
   XY=   -13.4371   YY=     8.0781   ZY=   -17.8836
   XZ=     1.2084   YZ=    -3.6958   ZZ=    19.6982
   Eigenvalues:   -11.9148    21.3110    26.3896
     53  Bq   Isotropic =    11.2139   Anisotropy =    20.5659
   XX=     4.6312   YX=    -4.7339   ZX=    -2.9843
   XY=    -0.6940   YY=     5.7572   ZY=    -0.6066
   XZ=    13.9021   YZ=     5.9721   ZZ=    23.2533
   Eigenvalues:     0.8367     7.8805    24.9245
     54  Bq   Isotropic =     5.9879   Anisotropy =    28.6219
   XX=    -0.4784   YX=   -20.7120   ZX=   -16.9031
   XY=   -18.4868   YY=    -1.2641   ZY=   -18.0134
   XZ=    -3.2343   YZ=    -5.3744   ZZ=    19.7062
   Eigenvalues:   -25.6997    18.5943    25.0692
     55  Bq   Isotropic =     9.4597   Anisotropy =    21.6489
   XX=     2.5659   YX=    -4.2935   ZX=    -2.9308
   XY=    -0.3895   YY=     3.3613   ZY=    -0.1472
   XZ=    12.9859   YZ=     5.8005   ZZ=    22.4519
   Eigenvalues:    -0.8029     5.2897    23.8923
     56  Bq   Isotropic =     1.1699   Anisotropy =    34.7540
   XX=    -8.0003   YX=   -24.8284   ZX=   -14.4449
   XY=   -23.1155   YY=    -9.2156   ZY=   -13.9879
   XZ=    -6.0277   YZ=    -6.0440   ZZ=    20.7257
   Eigenvalues:   -36.1894    15.3599    24.3393
     57  Bq   Isotropic =    18.5317   Anisotropy =    11.7763
   XX=    15.3098   YX=    -7.8658   ZX=    -6.4232
   XY=    -3.9939   YY=    17.3003   ZY=    -7.3976
   XZ=    12.9765   YZ=     3.3334   ZZ=    22.9850
   Eigenvalues:    10.1716    19.0410    26.3826
     58  Bq   Isotropic =    16.0198   Anisotropy =    14.8508
   XX=    12.1407   YX=    -6.7105   ZX=    -2.7073
   XY=    -2.5276   YY=    13.4820   ZY=    -4.9094
   XZ=    15.5814   YZ=     4.6687   ZZ=    22.4368
   Eigenvalues:     6.5305    15.6086    25.9204
     59  Bq   Isotropic =    18.4389   Anisotropy =    16.0874
   XX=    17.5468   YX=    -9.5829   ZX=    -5.1140
   XY=    -5.7778   YY=    16.1296   ZY=   -10.9364
   XZ=    12.0557   YZ=     1.1576   ZZ=    21.6402
   Eigenvalues:     8.9702    17.1826    29.1638
     60  Bq   Isotropic =    14.0949   Anisotropy =    16.8805
   XX=     8.9911   YX=    -5.8543   ZX=    -2.2623
   XY=    -1.6336   YY=    10.7622   ZY=    -2.8728
   XZ=    15.8319   YZ=     5.5769   ZZ=    22.5313
   Eigenvalues:     3.8789    13.0571    25.3485
     61  Bq   Isotropic =    18.0636   Anisotropy =    18.8550
   XX=    18.3686   YX=   -11.9569   ZX=    -7.0270
   XY=    -8.4867   YY=    14.3909   ZY=   -14.2124
   XZ=     8.6405   YZ=    -1.2556   ZZ=    21.4315
   Eigenvalues:     4.1034    19.4539    30.6336
     62  Bq   Isotropic =    12.1428   Anisotropy =    18.9581
   XX=     6.1397   YX=    -5.2011   ZX=    -2.1293
   XY=    -1.0231   YY=     7.9640   ZY=    -1.4670
   XZ=    15.4304   YZ=     6.0301   ZZ=    22.3247
   Eigenvalues:     1.5922    10.0547    24.7815
     63  Bq   Isotropic =    16.3511   Anisotropy =    21.6316
   XX=    17.1680   YX=   -15.0540   ZX=    -8.7922
   XY=   -11.9859   YY=    10.0545   ZY=   -16.3694
   XZ=     4.6606   YZ=    -3.5887   ZZ=    21.8308
   Eigenvalues:    -3.7370    22.0182    30.7722
     64  Bq   Isotropic =    10.3358   Anisotropy =    20.4818
   XX=     3.7455   YX=    -4.6740   ZX=    -2.1656
   XY=    -0.5993   YY=     5.4083   ZY=    -0.5508
   XZ=    14.6343   YZ=     6.1526   ZZ=    21.8536
   Eigenvalues:    -0.2351     7.2522    23.9904
     65  Bq   Isotropic =    13.8450   Anisotropy =    23.8737
   XX=    14.3475   YX=   -18.5159   ZX=    -9.4184
   XY=   -15.8955   YY=     4.1487   ZY=   -16.0231
   XZ=     1.0614   YZ=    -5.2726   ZZ=    23.0389
   Eigenvalues:   -12.1763    23.9505    29.7608
     66  Bq   Isotropic =     8.7517   Anisotropy =    21.3874
   XX=     1.8346   YX=    -4.2288   ZX=    -2.2723
   XY=    -0.3003   YY=     3.2360   ZY=     0.0148
   XZ=    13.6362   YZ=     6.0503   ZZ=    21.1843
   Eigenvalues:    -1.6260     4.8710    23.0100
     67  Bq   Isotropic =    11.8336   Anisotropy =    25.2514
   XX=    11.5097   YX=   -21.4573   ZX=    -8.0047
   XY=   -19.3284   YY=    -0.8357   ZY=   -12.3851
   XZ=    -1.1779   YZ=    -5.9470   ZZ=    24.8267
   Eigenvalues:   -18.3353    25.1682    28.6678
     68  Bq   Isotropic =    17.6124   Anisotropy =    14.3716
   XX=    15.2084   YX=    -7.8947   ZX=    -3.6264
   XY=    -3.8480   YY=    15.5466   ZY=    -7.6467
   XZ=    14.3913   YZ=     3.1985   ZZ=    22.0821
   Eigenvalues:     9.0067    16.6370    27.1934
     69  Bq   Isotropic =    15.0598   Anisotropy =    16.3750
   XX=    11.4358   YX=    -6.2844   ZX=    -1.0732
   XY=    -2.2270   YY=    12.0652   ZY=    -4.2922
   XZ=    16.2375   YZ=     4.5535   ZZ=    21.6784
   Eigenvalues:     5.2208    13.9822    25.9764
     70  Bq   Isotropic =    18.4564   Anisotropy =    16.8830
   XX=    18.5561   YX=    -8.5916   ZX=    -1.9887
   XY=    -4.9312   YY=    14.8124   ZY=    -9.0564
   XZ=    13.2765   YZ=     1.4138   ZZ=    22.0007
   Eigenvalues:     9.6529    16.0045    29.7117
     71  Bq   Isotropic =    13.1037   Anisotropy =    17.8320
   XX=     8.1049   YX=    -5.5385   ZX=    -1.0626
   XY=    -1.4262   YY=     9.6930   ZY=    -2.5177
   XZ=    16.3893   YZ=     5.4545   ZZ=    21.5131
   Eigenvalues:     2.6115    11.7079    24.9916
     72  Bq   Isotropic =    19.3844   Anisotropy =    18.6909
   XX=    21.4096   YX=   -10.3222   ZX=    -2.8930
   XY=    -6.9945   YY=    14.1443   ZY=   -11.3502
   XZ=    10.4248   YZ=    -0.6152   ZZ=    22.5992
   Eigenvalues:     7.7283    18.5798    31.8450
     73  Bq   Isotropic =    11.2396   Anisotropy =    19.3762
   XX=     5.2659   YX=    -4.9520   ZX=    -1.2197
   XY=    -0.8646   YY=     7.2537   ZY=    -1.2252
   XZ=    15.9343   YZ=     5.9593   ZZ=    21.1991
   Eigenvalues:     0.4882     9.0735    24.1571
     74  Bq   Isotropic =    19.6045   Anisotropy =    20.5248
   XX=    23.1525   YX=   -12.4165   ZX=    -3.7719
   XY=    -9.4745   YY=    11.8606   ZY=   -12.6193
   XZ=     7.1525   YZ=    -2.5374   ZZ=    23.8003
   Eigenvalues:     3.5569    21.9689    33.2877
     75  Bq   Isotropic =     9.5663   Anisotropy =    20.5389
   XX=     2.9752   YX=    -4.4704   ZX=    -1.4501
   XY=    -0.4699   YY=     5.0007   ZY=    -0.3414
   XZ=    15.0989   YZ=     6.1551   ZZ=    20.7229
   Eigenvalues:    -1.1383     6.5783    23.2589
     76  Bq   Isotropic =    19.3247   Anisotropy =    21.8646
   XX=    23.7266   YX=   -14.5931   ZX=    -4.1134
   XY=   -12.0529   YY=     8.6500   ZY=   -12.0173
   XZ=     4.2263   YZ=    -3.9356   ZZ=    25.5975
   Eigenvalues:    -0.9294    25.0023    33.9011
     77  Bq   Isotropic =     8.1227   Anisotropy =    21.2198
   XX=     1.2012   YX=    -4.0599   ZX=    -1.6889
   XY=    -0.1915   YY=     3.0581   ZY=     0.2280
   XZ=    14.0640   YZ=     6.1268   ZZ=    20.1089
   Eigenvalues:    -2.3299     4.4288    22.2693
     78  Bq   Isotropic =    19.0612   Anisotropy =    22.4730
   XX=    23.6509   YX=   -16.3061   ZX=    -3.4432
   XY=   -14.1625   YY=     5.9547   ZY=    -9.1977
   XZ=     2.3705   YZ=    -4.5497   ZZ=    27.5781
   Eigenvalues:    -4.0491    27.1896    34.0432
     79  Bq   Isotropic =    16.9288   Anisotropy =    15.9092
   XX=    15.0523   YX=    -7.2697   ZX=    -1.3594
   XY=    -3.3616   YY=    13.9539   ZY=    -6.5380
   XZ=    15.2470   YZ=     3.1973   ZZ=    21.7801
   Eigenvalues:     8.0411    15.2103    27.5349
     80  Bq   Isotropic =    14.3162   Anisotropy =    17.5006
   XX=    10.7576   YX=    -5.5855   ZX=     0.1494
   XY=    -1.8018   YY=    10.9186   ZY=    -3.0744
   XZ=    16.5714   YZ=     4.5200   ZZ=    21.2723
   Eigenvalues:     4.2085    12.7568    25.9833
     81  Bq   Isotropic =    18.4131   Anisotropy =    16.8739
   XX=    18.9056   YX=    -7.1218   ZX=     0.1742
   XY=    -3.8304   YY=    13.9063   ZY=    -6.2585
   XZ=    14.0023   YZ=     1.9425   ZZ=    22.4274
   Eigenvalues:     9.9053    15.6716    29.6624
     82  Bq   Isotropic =    12.3179   Anisotropy =    18.6830
   XX=     7.3232   YX=    -5.0281   ZX=    -0.1355
   XY=    -1.1422   YY=     8.7798   ZY=    -1.7541
   XZ=    16.6673   YZ=     5.3371   ZZ=    20.8507
   Eigenvalues:     1.6362    10.5442    24.7732
     83  Bq   Isotropic =    20.1754   Anisotropy =    17.5822
   XX=    22.9223   YX=    -8.1417   ZX=    -0.1529
   XY=    -5.2157   YY=    14.1097   ZY=    -7.5770
   XZ=    11.5439   YZ=     0.3861   ZZ=    23.4942
   Eigenvalues:    10.4934    18.1359    31.8969
     84  Bq   Isotropic =    10.5066   Anisotropy =    19.8312
   XX=     4.5135   YX=    -4.5640   ZX=    -0.4967
   XY=    -0.6613   YY=     6.6159   ZY=    -0.7357
   XZ=    16.1926   YZ=     5.8396   ZZ=    20.3903
   Eigenvalues:    -0.3709     8.1632    23.7274
     85  Bq   Isotropic =    21.5518   Anisotropy =    18.4244
   XX=    26.2796   YX=    -9.2640   ZX=    -0.5789
   XY=    -6.7300   YY=    13.3181   ZY=    -8.1121
   XZ=     8.7393   YZ=    -1.0519   ZZ=    25.0577
   Eigenvalues:     9.1127    21.7079    33.8347
     86  Bq   Isotropic =     8.9296   Anisotropy =    20.6661
   XX=     2.3199   YX=    -4.1661   ZX=    -0.8663
   XY=    -0.3152   YY=     4.6152   ZY=    -0.0040
   XZ=    15.3484   YZ=     6.0773   ZZ=    19.8538
   Eigenvalues:    -1.8490     5.9309    22.7070
     87  Bq   Isotropic =    22.5270   Anisotropy =    19.0087
   XX=    28.6431   YX=   -10.3034   ZX=    -0.8490
   XY=    -8.1329   YY=    11.9261   ZY=    -7.4455
   XZ=     6.2143   YZ=    -2.1126   ZZ=    27.0119
   Eigenvalues:     7.2735    25.1081    35.1995
     88  Bq   Isotropic =     7.5950   Anisotropy =    21.1166
   XX=     0.6696   YX=    -3.8163   ZX=    -1.2008
   XY=    -0.0684   YY=     2.8763   ZY=     0.4875
   XZ=    14.3059   YZ=     6.1090   ZZ=    19.2391
   Eigenvalues:    -2.8873     3.9995    21.6727
     89  Bq   Isotropic =    23.2117   Anisotropy =    19.1226
   XX=    29.9948   YX=   -10.9675   ZX=    -0.6865
   XY=    -9.0966   YY=    10.7121   ZY=    -5.5145
   XZ=     4.5384   YZ=    -2.6632   ZZ=    28.9282
   Eigenvalues:     6.0374    27.6376    35.9601
     90  Bq   Isotropic =    16.4000   Anisotropy =    16.7816
   XX=    14.7085   YX=    -6.2719   ZX=     0.2753
   XY=    -2.6870   YY=    12.7445   ZY=    -4.6386
   XZ=    15.7151   YZ=     3.3713   ZZ=    21.7469
   Eigenvalues:     7.2113    14.4009    27.5877
     91  Bq   Isotropic =    13.7423   Anisotropy =    18.3214
   XX=    10.0622   YX=    -4.7566   ZX=     0.9610
   XY=    -1.3175   YY=    10.1240   ZY=    -1.5817
   XZ=    16.7138   YZ=     4.5938   ZZ=    21.0407
   Eigenvalues:     3.4338    11.8366    25.9566
     92  Bq   Isotropic =    18.2433   Anisotropy =    16.6564
   XX=    18.6507   YX=    -5.4918   ZX=     1.4649
   XY=    -2.6671   YY=    13.4029   ZY=    -3.2075
   XZ=    14.4271   YZ=     2.6158   ZZ=    22.6762
   Eigenvalues:     9.6892    15.6930    29.3476
     93  Bq   Isotropic =    11.7153   Anisotropy =    19.3667
   XX=     6.6156   YX=    -4.4161   ZX=     0.5103
   XY=    -0.8170   YY=     8.1081   ZY=    -0.7784
   XZ=    16.7651   YZ=     5.2843   ZZ=    20.4222
   Eigenvalues:     0.9096     9.6098    24.6264
     94  Bq   Isotropic =    20.4409   Anisotropy =    16.3126
   XX=    23.1888   YX=    -5.8439   ZX=     1.3910
   XY=    -3.4320   YY=    14.2144   ZY=    -3.6708
   XZ=    12.2123   YZ=     1.5077   ZZ=    23.9193
   Eigenvalues:    11.9287    18.0780    31.3159
     95  Bq   Isotropic =     9.9385   Anisotropy =    20.2362
   XX=     3.8676   YX=    -4.0988   ZX=     0.0304
   XY=    -0.4322   YY=     6.1237   ZY=    -0.1074
   XZ=    16.2784   YZ=     5.7438   ZZ=    19.8241
   Eigenvalues:    -1.0062     7.3923    23.4293
     96  Bq   Isotropic =    22.3753   Anisotropy =    16.1508
   XX=    27.2519   YX=    -6.1079   ZX=     1.1151
   XY=    -4.1075   YY=    14.3393   ZY=    -3.6119
   XZ=     9.6513   YZ=     0.5150   ZZ=    25.5346
   Eigenvalues:    12.5548    21.4286    33.1425
     97  Bq   Isotropic =     8.4293   Anisotropy =    20.8030
   XX=     1.7748   YX=    -3.8033   ZX=    -0.4222
   XY=    -0.1456   YY=     4.3059   ZY=     0.4066
   XZ=    15.4367   YZ=     5.9915   ZZ=    19.2073
   Eigenvalues:    -2.3730     5.3630    22.2980
     98  Bq   Isotropic =    23.9044   Anisotropy =    15.9590
   XX=    30.3563   YX=    -6.1787   ZX=     0.7734
   XY=    -4.5141   YY=    13.9538   ZY=    -2.9258
   XZ=     7.2725   YZ=    -0.2305   ZZ=    27.4032
   Eigenvalues:    12.3554    24.8141    34.5437
     99  Bq   Isotropic =     7.1747   Anisotropy =    21.0456
   XX=     0.2387   YX=    -3.5279   ZX=    -0.8145
   XY=     0.0627   YY=     2.7259   ZY=     0.7702
   XZ=    14.4017   YZ=     6.0622   ZZ=    18.5593
   Eigenvalues:    -3.2960     3.6149    21.2051
    100  Bq   Isotropic =    24.9536   Anisotropy =    15.5719
   XX=    32.2343   YX=    -5.9385   ZX=     0.5763
   XY=    -4.4840   YY=    13.4665   ZY=    -1.7440
   XZ=     5.5796   YZ=    -0.6996   ZZ=    29.1599
   Eigenvalues:    12.1064    27.4194    35.3349
    101  Bq   Isotropic =    15.9569   Anisotropy =    17.3400
   XX=    14.1458   YX=    -5.1188   ZX=     1.3058
   XY=    -1.9405   YY=    11.9697   ZY=    -2.4405
   XZ=    15.9601   YZ=     3.6840   ZZ=    21.7552
   Eigenvalues:     6.4963    13.8575    27.5169
    102  Bq   Isotropic =    13.2951   Anisotropy =    18.9188
   XX=     9.3410   YX=    -3.9011   ZX=     1.4010
   XY=    -0.8221   YY=     9.6819   ZY=    -0.0786
   XZ=    16.7581   YZ=     4.7619   ZZ=    20.8624
   Eigenvalues:     2.8453    11.1324    25.9076
    103  Bq   Isotropic =    17.9381   Anisotropy =    16.5636
   XX=    17.9096   YX=    -3.8866   ZX=     2.0202
   XY=    -1.5457   YY=    13.2586   ZY=    -0.3050
   XZ=    14.7026   YZ=     3.3258   ZZ=    22.6460
   Eigenvalues:     9.2307    15.6031    28.9805
    104  Bq   Isotropic =    11.2648   Anisotropy =    19.8741
   XX=     5.9700   YX=    -3.7754   ZX=     0.8952
   XY=    -0.4793   YY=     7.6973   ZY=     0.2283
   XZ=    16.7558   YZ=     5.3162   ZZ=    20.1271
   Eigenvalues:     0.3866     8.8936    24.5142
    105  Bq   Isotropic =    20.2638   Anisotropy =    15.4161
   XX=    22.5156   YX=    -3.6410   ZX=     1.9556
   XY=    -1.7642   YY=    14.4428   ZY=    -0.0203
   XZ=    12.6209   YZ=     2.5970   ZZ=    23.8331
   Eigenvalues:    12.1737    18.0766    30.5412
    106  Bq   Isotropic =     9.5166   Anisotropy =    20.5469
   XX=     3.3207   YX=    -3.6077   ZX=     0.3725
   XY=    -0.1940   YY=     5.8031   ZY=     0.5470
   XZ=    16.2496   YZ=     5.7116   ZZ=    19.4260
   Eigenvalues:    -1.4483     6.7836    23.2145
    107  Bq   Isotropic =    22.3125   Anisotropy =    14.4102
   XX=    26.6543   YX=    -3.1489   ZX=     1.5976
   XY=    -1.7068   YY=    15.0121   ZY=     0.5858
   XZ=    10.1211   YZ=     1.9818   ZZ=    25.2712
   Eigenvalues:    13.8887    21.1295    31.9193
    108  Bq   Isotropic =     8.0552   Anisotropy =    20.9081
   XX=     1.3360   YX=    -3.4187   ZX=    -0.1114
   XY=     0.0292   YY=     4.0967   ZY=     0.8270
   XZ=    15.4098   YZ=     5.9460   ZZ=    18.7330
   Eigenvalues:    -2.7287     4.9004    21.9939
    109  Bq   Isotropic =    23.8662   Anisotropy =    13.5755
   XX=    29.7437   YX=    -2.3575   ZX=     1.0468
   XY=    -1.2233   YY=    14.9770   ZY=     1.3827
   XZ=     7.6641   YZ=     1.5225   ZZ=    26.8780
   Eigenvalues:    14.4246    24.2575    32.9166
    110  Bq   Isotropic =     6.8562   Anisotropy =    20.9793
   XX=    -0.0940   YX=    -3.2213   ZX=    -0.5262
   XY=     0.1959   YY=     2.6247   ZY=     1.0445
   XZ=    14.3880   YZ=     6.0349   ZZ=    18.0380
   Eigenvalues:    -3.5672     3.2934    20.8424
    111  Bq   Isotropic =    24.7845   Anisotropy =    12.8952
   XX=    31.3993   YX=    -1.2694   ZX=     0.5349
   XY=    -0.2464   YY=    14.5673   ZY=     2.0603
   XZ=     5.7518   YZ=     1.1679   ZZ=    28.3871
   Eigenvalues:    14.3060    26.6663    33.3813
    112  Bq   Isotropic =    15.5567   Anisotropy =    17.7718
   XX=    13.3881   YX=    -3.9533   ZX=     1.8081
   XY=    -1.1971   YY=    11.6025   ZY=    -0.2918
   XZ=    16.1015   YZ=     4.0775   ZZ=    21.6795
   Eigenvalues:     5.8860    13.3796    27.4045
    113  Bq   Isotropic =    12.9459   Anisotropy =    19.3179
   XX=     8.6155   YX=    -3.0911   ZX=     1.5216
   XY=    -0.3479   YY=     9.5518   ZY=     1.2356
   XZ=    16.7544   YZ=     4.9991   ZZ=    20.6704
   Eigenvalues:     2.4134    10.5998    25.8245
    114  Bq   Isotropic =    17.5262   Anisotropy =    16.6396
   XX=    16.8092   YX=    -2.4177   ZX=     1.9577
   XY=    -0.5267   YY=    13.4540   ZY=     2.1914
   XZ=    14.9150   YZ=     3.9900   ZZ=    22.3153
   Eigenvalues:     8.7214    15.2378    28.6192
    115  Bq   Isotropic =    10.9373   Anisotropy =    20.2044
   XX=     5.3927   YX=    -3.1597   ZX=     1.0528
   XY=    -0.1495   YY=     7.5229   ZY=     1.1198
   XZ=    16.6830   YZ=     5.4334   ZZ=    19.8963
   Eigenvalues:     0.0345     8.3705    24.4069
    116  Bq   Isotropic =    19.7492   Anisotropy =    15.0904
   XX=    21.1365   YX=    -1.6505   ZX=     1.6929
   XY=    -0.2757   YY=    14.8664   ZY=     3.1441
   XZ=    12.8909   YZ=     3.5507   ZZ=    23.2446
   Eigenvalues:    11.8226    17.6155    29.8094
    117  Bq   Isotropic =     9.2168   Anisotropy =    20.7425
   XX=     2.8734   YX=    -3.1303   ZX=     0.5519
   XY=     0.0412   YY=     5.6430   ZY=     1.1306
   XZ=    16.1450   YZ=     5.7622   ZZ=    19.1340
   Eigenvalues:    -1.7253     6.3306    23.0451
    118  Bq   Isotropic =    21.5648   Anisotropy =    13.6978
   XX=    24.8395   YX=    -0.4871   ZX=     1.0258
   XY=     0.4271   YY=    15.5711   ZY=     4.3169
   XZ=    10.3107   YZ=     3.2317   ZZ=    24.2838
   Eigenvalues:    13.7046    20.2933    30.6967
    119  Bq   Isotropic =     7.7887   Anisotropy =    20.9568
   XX=     1.0015   YX=    -3.0416   ZX=     0.0816
   XY=     0.2018   YY=     3.9841   ZY=     1.1996
   XZ=    15.3020   YZ=     5.9707   ZZ=    18.3804
   Eigenvalues:    -2.9387     4.5448    21.7598
    120  Bq   Isotropic =    22.6823   Anisotropy =    12.7197
   XX=    27.2172   YX=     1.1018   ZX=     0.0724
   XY=     1.7395   YY=    15.4225   ZY=     5.3928
   XZ=     7.5771   YZ=     3.0179   ZZ=    25.4073
   Eigenvalues:    13.8873    22.9976    31.1622
    121  Bq   Isotropic =     6.6257   Anisotropy =    20.8984
   XX=    -0.3323   YX=    -2.9188   ZX=    -0.3249
   XY=     0.3266   YY=     2.5724   ZY=     1.2810
   XZ=    14.2946   YZ=     6.0615   ZZ=    17.6369
   Eigenvalues:    -3.7184     3.0375    20.5579
    122  Bq   Isotropic =    22.9473   Anisotropy =    12.2979
   XX=    27.8069   YX=     3.0312   ZX=    -0.8359
   XY=     3.6750   YY=    14.5648   ZY=     5.8625
   XZ=     5.2270   YZ=     2.7979   ZZ=    26.4701
   Eigenvalues:    12.7203    24.9756    31.1458
    123  Bq   Isotropic =    15.1858   Anisotropy =    18.1025
   XX=    12.4926   YX=    -2.8687   ZX=     1.8630
   XY=    -0.5040   YY=    11.5961   ZY=     1.5650
   XZ=    16.2021   YZ=     4.4973   ZZ=    21.4687
   Eigenvalues:     5.3844    12.9189    27.2541
    124  Bq   Isotropic =    12.6790   Anisotropy =    19.5013
   XX=     7.9317   YX=    -2.3812   ZX=     1.3798
   XY=     0.0840   YY=     9.6654   ZY=     2.2113
   XZ=    16.7159   YZ=     5.2847   ZZ=    20.4400
   Eigenvalues:     2.1303    10.2269    25.6799
    125  Bq   Isotropic =    17.0642   Anisotropy =    16.6967
[...]
   138  Bq   0.000000
   139  Bq   0.000000
   140  Bq   0.000000
   141  Bq   0.000000
   142  Bq   0.000000
   143  Bq   0.000000
   144  Bq   0.000000
   145  Bq   0.000000
   146  Bq   0.000000
   147  Bq   0.000000
   148  Bq   0.000000
   149  Bq   0.000000
   150  Bq   0.000000
   151  Bq   0.000000
   152  Bq   0.000000
   153  Bq   0.000000
   154  Bq   0.000000
   155  Bq   0.000000
   156  Bq   0.000000
   157  Bq   0.000000
   158  Bq   0.000000
   159  Bq   0.000000
   160  Bq   0.000000
   161  Bq   0.000000
   162  Bq   0.000000
   163  Bq   0.000000
   164  Bq   0.000000
   165  Bq   0.000000
   166  Bq   0.000000
   167  Bq   0.000000
   168  Bq   0.000000
   169  Bq   0.000000
   170  Bq   0.000000
   171  Bq   0.000000
   172  Bq   0.000000
   173  Bq   0.000000
   174  Bq   0.000000
   175  Bq   0.000000
   176  Bq   0.000000
   177  Bq   0.000000
   178  Bq   0.000000
   179  Bq   0.000000
   180  Bq   0.000000
   181  Bq   0.000000
   182  Bq   0.000000
   183  Bq   0.000000
   184  Bq   0.000000
   185  Bq   0.000000
   186  Bq   0.000000
   187  Bq   0.000000
   188  Bq   0.000000
   189  Bq   0.000000
   190  Bq   0.000000
   191  Bq   0.000000
   192  Bq   0.000000
   193  Bq   0.000000
   194  Bq   0.000000
   195  Bq   0.000000
   196  Bq   0.000000
   197  Bq   0.000000
   198  Bq   0.000000
   199  Bq   0.000000
   200  Bq   0.000000
   201  Bq   0.000000
   202  Bq   0.000000
   203  Bq   0.000000
   204  Bq   0.000000
   205  Bq   0.000000
   206  Bq   0.000000
   207  Bq   0.000000
   208  Bq   0.000000
   209  Bq   0.000000
   210  Bq   0.000000
   211  Bq   0.000000
   212  Bq   0.000000
   213  Bq   0.000000
   214  Bq   0.000000
   215  Bq   0.000000
   216  Bq   0.000000
   217  Bq   0.000000
   218  Bq   0.000000
   219  Bq   0.000000
   220  Bq   0.000000
   221  Bq   0.000000
   222  Bq   0.000000
   223  Bq   0.000000
   224  Bq   0.000000
   225  Bq   0.000000
   226  Bq   0.000000
   227  Bq   0.000000
   228  Bq   0.000000
   229  Bq   0.000000
   230  Bq   0.000000
   231  Bq   0.000000
   232  Bq   0.000000
   233  Bq   0.000000
   234  Bq   0.000000
   235  Bq   0.000000
   236  Bq   0.000000
 Sum of Mulliken charges =   0.00000
 Mulliken charges with hydrogens summed into heavy atoms:
               1
     1  C   -0.255498
     3  C    0.169409
     5  C    0.448258
     6  C    0.064351
     7  C   -0.333926
     9  C   -0.139521
    11  C   -0.205988
    13  C   -0.119315
    15  C    0.653397
    16  C    0.034822
    17  C   -0.317410
    19  C   -0.316854
    21  C    0.651066
    22  C    0.037784
    23  C   -0.117289
    25  C   -0.205316
    27  C    0.448331
    28  C    0.061983
    29  C   -0.333381
    31  C   -0.139505
    33  C   -0.255977
    35  C    0.170579
    37  Bq   0.000000
    38  Bq   0.000000
    39  Bq   0.000000
    40  Bq   0.000000
    41  Bq   0.000000
    42  Bq   0.000000
    43  Bq   0.000000
    44  Bq   0.000000
    45  Bq   0.000000
    46  Bq   0.000000
    47  Bq   0.000000
    48  Bq   0.000000
    49  Bq   0.000000
    50  Bq   0.000000
    51  Bq   0.000000
    52  Bq   0.000000
    53  Bq   0.000000
    54  Bq   0.000000
    55  Bq   0.000000
    56  Bq   0.000000
    57  Bq   0.000000
    58  Bq   0.000000
    59  Bq   0.000000
    60  Bq   0.000000
    61  Bq   0.000000
    62  Bq   0.000000
    63  Bq   0.000000
    64  Bq   0.000000
    65  Bq   0.000000
    66  Bq   0.000000
    67  Bq   0.000000
    68  Bq   0.000000
    69  Bq   0.000000
    70  Bq   0.000000
    71  Bq   0.000000
    72  Bq   0.000000
    73  Bq   0.000000
    74  Bq   0.000000
    75  Bq   0.000000
    76  Bq   0.000000
    77  Bq   0.000000
    78  Bq   0.000000
    79  Bq   0.000000
    80  Bq   0.000000
    81  Bq   0.000000
    82  Bq   0.000000
    83  Bq   0.000000
    84  Bq   0.000000
    85  Bq   0.000000
    86  Bq   0.000000
    87  Bq   0.000000
    88  Bq   0.000000
    89  Bq   0.000000
    90  Bq   0.000000
    91  Bq   0.000000
    92  Bq   0.000000
    93  Bq   0.000000
    94  Bq   0.000000
    95  Bq   0.000000
    96  Bq   0.000000
    97  Bq   0.000000
    98  Bq   0.000000
    99  Bq   0.000000
   100  Bq   0.000000
   101  Bq   0.000000
   102  Bq   0.000000
   103  Bq   0.000000
   104  Bq   0.000000
   105  Bq   0.000000
   106  Bq   0.000000
   107  Bq   0.000000
   108  Bq   0.000000
   109  Bq   0.000000
   110  Bq   0.000000
   111  Bq   0.000000
   112  Bq   0.000000
   113  Bq   0.000000
   114  Bq   0.000000
   115  Bq   0.000000
   116  Bq   0.000000
   117  Bq   0.000000
   118  Bq   0.000000
   119  Bq   0.000000
   120  Bq   0.000000
   121  Bq   0.000000
   122  Bq   0.000000
   123  Bq   0.000000
   124  Bq   0.000000
   125  Bq   0.000000
   126  Bq   0.000000
   127  Bq   0.000000
   128  Bq   0.000000
   129  Bq   0.000000
   130  Bq   0.000000
   131  Bq   0.000000
   132  Bq   0.000000
   133  Bq   0.000000
   134  Bq   0.000000
   135  Bq   0.000000
   136  Bq   0.000000
   137  Bq   0.000000
   138  Bq   0.000000
   139  Bq   0.000000
   140  Bq   0.000000
   141  Bq   0.000000
   142  Bq   0.000000
   143  Bq   0.000000
   144  Bq   0.000000
   145  Bq   0.000000
   146  Bq   0.000000
   147  Bq   0.000000
   148  Bq   0.000000
   149  Bq   0.000000
   150  Bq   0.000000
   151  Bq   0.000000
   152  Bq   0.000000
   153  Bq   0.000000
   154  Bq   0.000000
   155  Bq   0.000000
   156  Bq   0.000000
   157  Bq   0.000000
   158  Bq   0.000000
   159  Bq   0.000000
   160  Bq   0.000000
   161  Bq   0.000000
   162  Bq   0.000000
   163  Bq   0.000000
   164  Bq   0.000000
   165  Bq   0.000000
   166  Bq   0.000000
   167  Bq   0.000000
   168  Bq   0.000000
   169  Bq   0.000000
   170  Bq   0.000000
   171  Bq   0.000000
   172  Bq   0.000000
   173  Bq   0.000000
   174  Bq   0.000000
   175  Bq   0.000000
   176  Bq   0.000000
   177  Bq   0.000000
   178  Bq   0.000000
   179  Bq   0.000000
   180  Bq   0.000000
   181  Bq   0.000000
   182  Bq   0.000000
   183  Bq   0.000000
   184  Bq   0.000000
   185  Bq   0.000000
   186  Bq   0.000000
   187  Bq   0.000000
   188  Bq   0.000000
   189  Bq   0.000000
   190  Bq   0.000000
   191  Bq   0.000000
   192  Bq   0.000000
   193  Bq   0.000000
   194  Bq   0.000000
   195  Bq   0.000000
   196  Bq   0.000000
   197  Bq   0.000000
   198  Bq   0.000000
   199  Bq   0.000000
   200  Bq   0.000000
   201  Bq   0.000000
   202  Bq   0.000000
   203  Bq   0.000000
   204  Bq   0.000000
   205  Bq   0.000000
   206  Bq   0.000000
   207  Bq   0.000000
   208  Bq   0.000000
   209  Bq   0.000000
   210  Bq   0.000000
   211  Bq   0.000000
   212  Bq   0.000000
   213  Bq   0.000000
   214  Bq   0.000000
   215  Bq   0.000000
   216  Bq   0.000000
   217  Bq   0.000000
   218  Bq   0.000000
   219  Bq   0.000000
   220  Bq   0.000000
   221  Bq   0.000000
   222  Bq   0.000000
   223  Bq   0.000000
   224  Bq   0.000000
   225  Bq   0.000000
   226  Bq   0.000000
   227  Bq   0.000000
   228  Bq   0.000000
   229  Bq   0.000000
   230  Bq   0.000000
   231  Bq   0.000000
   232  Bq   0.000000
   233  Bq   0.000000
   234  Bq   0.000000
   235  Bq   0.000000
   236  Bq   0.000000
 Electronic spatial extent (au):  <R**2>=           5736.9264
 Charge=              0.0000 electrons
 Dipole moment (field-independent basis, Debye):
    X=              0.0475    Y=              0.0856    Z=              0.0029  Tot=              0.0979
 Quadrupole moment (field-independent basis, Debye-Ang):
   XX=           -113.7056   YY=           -113.9456   ZZ=           -133.2669
   XY=             -0.3834   XZ=              3.2102   YZ=             -1.1839
 Traceless Quadrupole moment (field-independent basis, Debye-Ang):
   XX=              6.6005   YY=              6.3604   ZZ=            -12.9609
   XY=             -0.3834   XZ=              3.2102   YZ=             -1.1839
 Octapole moment (field-independent basis, Debye-Ang**2):
  XXX=            -16.4668  YYY=            -16.1860  ZZZ=             -1.7007  XYY=              2.5576
  XXY=             -6.5650  XXZ=             13.6547  XZZ=             -8.9478  YZZ=            -17.7168
  YYZ=            -13.2941  XYZ=              8.8036
 Hexadecapole moment (field-independent basis, Debye-Ang**3):
 XXXX=          -3951.1638 YYYY=          -3112.2161 ZZZZ=           -504.8311 XXXY=            340.6935
 XXXZ=            156.4968 YYYX=            335.5625 YYYZ=            -87.0893 ZZZX=            120.2262
 ZZZY=           -108.7373 XXYY=          -1176.4844 XXZZ=           -856.7291 YYZZ=           -665.7275
 XXYZ=            -68.9016 YYXZ=             48.1602 ZZXY=            153.0375
 N-N= 1.610917615562D+03 E-N=-5.186891130729D+03  KE= 8.436329774449D+02
 1\1\GINC-MUHKA\SP\RB3LYP\6-311+G(d,p)\C22H14\YANNICK\22-Aug-2020\0\\# 
 rb3lyp/6-311+g** NMR geom=connectivity\\Title\\0,1\C,0,-4.0500558,-0.5
 771862,0.8136712\H,0,-5.0263804,-1.0082727,1.002476\C,0,-3.9381552,0.6
 617804,0.2400876\H,0,-4.8252424,1.233889,-0.0111295\C,0,-2.676841,1.24
 33246,0.0057578\C,0,-1.4974121,0.5051527,0.2848253\C,0,-1.6508332,-0.7
 338728,0.9404026\H,0,-0.7713646,-1.2730967,1.2633753\C,0,-2.8898548,-1
 .2624035,1.1994307\H,0,-2.9683706,-2.2124563,1.7152676\C,0,-2.5773185,
 2.5963696,-0.419293\H,0,-3.4870728,3.1412239,-0.6474055\C,0,-1.3741895
 ,3.2147896,-0.436403\H,0,-1.2997315,4.2742019,-0.6578144\C,0,-0.171948
 8,2.499409,-0.1734588\C,0,-0.2043917,1.1018437,0.0192689\C,0,1.0513491
 ,3.204256,-0.0676222\H,0,1.0427344,4.2819499,-0.1896997\C,0,2.1942091,
 2.5487446,0.2579577\H,0,3.1168527,3.0912848,0.4334727\C,0,2.2216473,1.
 1336562,0.293499\C,0,1.0486931,0.3945528,0.0302412\C,0,3.4483363,0.461
 4633,0.5573939\H,0,4.3095794,1.0606054,0.8334846\C,0,3.5427346,-0.8855
 926,0.4749463\H,0,4.4731467,-1.3939704,0.7038822\C,0,2.4490052,-1.6474
 447,-0.0196319\C,0,1.2150704,-1.0057258,-0.3013573\C,0,0.2531113,-1.74
 3444,-1.0216591\H,0,-0.6541356,-1.2535051,-1.3462847\C,0,0.4494193,-3.
 0628597,-1.3413779\H,0,-0.3083162,-3.5944309,-1.905406\C,0,1.6251726,-
 3.7207967,-0.9552541\H,0,1.7670048,-4.7687404,-1.1927019\C,0,2.6109872
 ,-3.0144177,-0.318305\H,0,3.5525612,-3.4902813,-0.0646367\Bq,0,2.35229
 47176,1.2686306685,0.8266244929\Bq,0,2.2752581246,1.2259476914,1.11340
 58152\Bq,0,2.3779735819,1.2828583275,0.7310307188\Bq,0,2.2495792603,1.
 2117200323,1.2089995893\Bq,0,2.4036524462,1.2970859865,0.6354369447\Bq
 ,0,2.223900396,1.1974923733,1.3045933634\Bq,0,2.4293313105,1.311313645
 5,0.5398431706\Bq,0,2.1982215316,1.1832647143,1.4001871375\Bq,0,2.4550
 101749,1.3255413046,0.4442493965\Bq,0,2.3266158532,1.2544030094,0.9222
 18267\Bq,0,2.2972459384,1.3391580444,1.0315525806\Bq,0,2.348603667,1.3
 676133625,0.8403650325\Bq,0,2.2715670741,1.3249303854,1.1271463547\Bq,
 0,2.3742825314,1.3818410215,0.7447712584\Bq,0,2.2458882097,1.310702726
 4,1.2227401288\Bq,0,2.3999613957,1.3960686806,0.6491774843\Bq,0,2.2202
 093454,1.2964750674,1.3183339029\Bq,0,2.42564026,1.4102963396,0.553583
 7102\Bq,0,2.1945304811,1.2822474083,1.413927677\Bq,0,2.4513191243,1.42
 45239986,0.4579899361\Bq,0,2.3229248027,1.3533857035,0.9359588066\Bq,0
 ,2.2935548879,1.4381407385,1.0452931202\Bq,0,2.3449126165,1.4665960565
 ,0.854105572\Bq,0,2.2678760235,1.4239130794,1.1408868943\Bq,0,2.370591
 4808,1.4808237156,0.7585117979\Bq,0,2.2421971592,1.4096854204,1.236480
 6684\Bq,0,2.3962703451,1.4950513746,0.6629180238\Bq,0,2.2165182949,1.3
 954577614,1.3320744425\Bq,0,2.4219492095,1.5092790336,0.5673242497\Bq,
 0,2.1908394306,1.3812301024,1.4276682166\Bq,0,2.4476280738,1.523506692
 6,0.4717304756\Bq,0,2.3192337522,1.4523683975,0.9496993461\Bq,0,2.2898
 638373,1.5371234325,1.0590336598\Bq,0,2.341221566,1.5655787506,0.86784
 61116\Bq,0,2.264184973,1.5228957735,1.1546274339\Bq,0,2.3669004303,1.5
 798064096,0.7722523375\Bq,0,2.2385061087,1.5086681145,1.250221208\Bq,0
 ,2.3925792946,1.5940340686,0.6766585634\Bq,0,2.2128272444,1.4944404554
 ,1.345814982\Bq,0,2.4182581589,1.6082617277,0.5810647893\Bq,0,2.187148
 38,1.4802127964,1.4414087561\Bq,0,2.4439370233,1.6224893867,0.48547101
 52\Bq,0,2.3155427016,1.5513510915,0.9634398857\Bq,0,2.2861727868,1.636
 1061265,1.0727741993\Bq,0,2.3375305154,1.6645614446,0.8815866511\Bq,0,
 2.2604939225,1.6218784675,1.1683679734\Bq,0,2.3632093798,1.6787891036,
 0.785992877\Bq,0,2.2348150581,1.6076508085,1.2639617475\Bq,0,2.3888882
 441,1.6930167627,0.6903991029\Bq,0,2.2091361938,1.5934231495,1.3595555
 216\Bq,0,2.4145671084,1.7072444217,0.5948053289\Bq,0,2.1834573295,1.57
 91954904,1.4551492957\Bq,0,2.4402459727,1.7214720807,0.4992115548\Bq,0
 ,2.3118516511,1.6503337856,0.9771804252\Bq,0,2.2824817362,1.7350888206
 ,1.0865147389\Bq,0,2.3338394649,1.7635441386,0.8953271907\Bq,0,2.25680
 28719,1.7208611616,1.182108513\Bq,0,2.3595183292,1.7777717977,0.799733
 4166\Bq,0,2.2311240076,1.7066335025,1.2777022871\Bq,0,2.3851971935,1.7
 919994567,0.7041396425\Bq,0,2.2054451433,1.6924058435,1.3732960612\Bq,
 0,2.4108760579,1.8062271157,0.6085458684\Bq,0,2.179766279,1.6781781845
 ,1.4688898353\Bq,0,2.4365549222,1.8204547748,0.5129520943\Bq,0,2.30816
 06006,1.7493164796,0.9909209648\Bq,0,2.2787906857,1.8340715146,1.10025
 52784\Bq,0,2.3301484144,1.8625268327,0.9090677303\Bq,0,2.2531118214,1.
 8198438556,1.1958490525\Bq,0,2.3558272787,1.8767544917,0.8134739562\Bq
 ,0,2.2274329571,1.8056161966,1.2914428266\Bq,0,2.381506143,1.890982150
 7,0.7178801821\Bq,0,2.2017540927,1.7913885375,1.3870366007\Bq,0,2.4071
 850073,1.9052098098,0.622286408\Bq,0,2.1760752284,1.7771608785,1.48263
 03748\Bq,0,2.4328638716,1.9194374688,0.5266926339\Bq,0,2.30446955,1.84
 82991736,1.0046615043\Bq,0,2.2750996352,1.9330542087,1.113995818\Bq,0,
 2.3264573638,1.9615095267,0.9228082698\Bq,0,2.2494207709,1.9188265496,
 1.2095895921\Bq,0,2.3521362281,1.9757371857,0.8272144957\Bq,0,2.223741
 9065,1.9045988906,1.3051833662\Bq,0,2.3778150925,1.9899648448,0.731620
 7216\Bq,0,2.1980630422,1.8903712316,1.4007771403\Bq,0,2.4034939568,2.0
 041925038,0.6360269475\Bq,0,2.1723841779,1.8761435725,1.4963709144\Bq,
 0,2.4291728211,2.0184201628,0.5404331734\Bq,0,2.3007784995,1.947281867
 7,1.0184020439\Bq,0,2.2714085846,2.0320369027,1.1277363576\Bq,0,2.3227
 663133,2.0604922207,0.9365488094\Bq,0,2.2457297203,2.0178092437,1.2233
 301317\Bq,0,2.3484451776,2.0747198798,0.8409550353\Bq,0,2.220050856,2.
 0035815846,1.3189239057\Bq,0,2.3741240419,2.0889475388,0.7453612612\Bq
 ,0,2.1943719917,1.9893539256,1.4145176798\Bq,0,2.3998029063,2.10317519
 78,0.6497674871\Bq,0,2.1686931274,1.9751262666,1.5101114539\Bq,0,2.425
 4817706,2.1174028569,0.554173713\Bq,0,2.297087449,2.0462645617,1.03214
 25835\Bq,0,2.2677175341,2.1310195967,1.1414768971\Bq,0,2.3190752628,2.
 1594749148,0.9502893489\Bq,0,2.2420386698,2.1167919377,1.2370706712\Bq
 ,0,2.3447541271,2.1737025738,0.8546955748\Bq,0,2.2163598055,2.10256427
 87,1.3326644453\Bq,0,2.3704329914,2.1879302328,0.7591018007\Bq,0,2.190
 6809411,2.0883366196,1.4282582194\Bq,0,2.3961118557,2.2021578919,0.663
 5080266\Bq,0,2.1650020768,2.0741089606,1.5238519935\Bq,0,2.42179072,2.
 2163855509,0.5679142526\Bq,0,2.2933963984,2.1452472558,1.045883123\Bq,
 0,2.5488463109,-2.8181151051,0.480392701\Bq,0,2.6002040396,-2.78965978
 7,0.2892051528\Bq,0,2.5231674466,-2.8323427641,0.5759864751\Bq,0,2.625
 8829039,-2.775432128,0.1936113787\Bq,0,2.4974885823,-2.8465704231,0.67
 15802492\Bq,0,2.6515617682,-2.761204469,0.0980176046\Bq,0,2.471809718,
 -2.8607980821,0.7671740232\Bq,0,2.6772406325,-2.7469768099,0.002423830
 5\Bq,0,2.4461308536,-2.8750257412,0.8627677973\Bq,0,2.7029194969,-2.73
 27491509,-0.0931699436\Bq,0,2.5745251752,-2.803887446,0.3847989269\Bq,
 0,2.5451552604,-2.719132411,0.4941332405\Bq,0,2.596512989,-2.690677093
 ,0.3029456923\Bq,0,2.5194763961,-2.7333600701,0.5897270146\Bq,0,2.6221
 918534,-2.6764494339,0.2073519182\Bq,0,2.4937975317,-2.7475877291,0.68
 53207887\Bq,0,2.6478707177,-2.6622217749,0.1117581441\Bq,0,2.468118667
 4,-2.7618153881,0.7809145628\Bq,0,2.673549582,-2.6479941159,0.01616437
 \Bq,0,2.4424398031,-2.7760430471,0.8765083369\Bq,0,2.6992284463,-2.633
 7664569,-0.079429404\Bq,0,2.5708341247,-2.704904752,0.3985394664\Bq,0,
 2.5414642099,-2.620149717,0.5078737801\Bq,0,2.5928219385,-2.5916943989
 ,0.3166862319\Bq,0,2.5157853455,-2.634377376,0.6034675542\Bq,0,2.61850
 08028,-2.5774667399,0.2210924578\Bq,0,2.4901064812,-2.648605035,0.6990
 613283\Bq,0,2.6441796671,-2.5632390809,0.1254986837\Bq,0,2.4644276169,
 -2.6628326941,0.7946551024\Bq,0,2.6698585315,-2.5490114219,0.029904909
 6\Bq,0,2.4387487526,-2.6770603531,0.8902488765\Bq,0,2.6955373958,-2.53
 47837628,-0.0656888645\Bq,0,2.5671430742,-2.605922058,0.412280006\Bq,0
 ,2.5377731593,-2.521167023,0.5216143196\Bq,0,2.589130888,-2.4927117049
 ,0.3304267715\Bq,0,2.512094295,-2.535394682,0.6172080937\Bq,0,2.614809
 7523,-2.4784840459,0.2348329974\Bq,0,2.4864154307,-2.549622341,0.71280
 18678\Bq,0,2.6404886166,-2.4642563868,0.1392392233\Bq,0,2.4607365663,-
 2.56385,0.8083956419\Bq,0,2.6661674809,-2.4500287278,0.0436454492\Bq,0
 ,2.435057702,-2.5780776591,0.903989416\Bq,0,2.6918463453,-2.4358010688
 ,-0.0519483249\Bq,0,2.5634520236,-2.5069393639,0.4260205455\Bq,0,2.534
 0821088,-2.4221843289,0.5353548592\Bq,0,2.5854398374,-2.3937290109,0.3
 44167311\Bq,0,2.5084032445,-2.4364119879,0.6309486333\Bq,0,2.611118701
 7,-2.3795013518,0.2485735369\Bq,0,2.4827243801,-2.450639647,0.72654240
 74\Bq,0,2.6367975661,-2.3652736928,0.1529797628\Bq,0,2.4570455158,-2.4
 64867306,0.8221361815\Bq,0,2.6624764304,-2.3510460338,0.0573859887\Bq,
 0,2.4313666515,-2.479094965,0.9177299556\Bq,0,2.6881552947,-2.33681837
 48,-0.0382077854\Bq,0,2.5597609731,-2.4079566699,0.4397610851\Bq,0,2.5
 303910582,-2.3232016349,0.5490953988\Bq,0,2.5817487869,-2.2947463168,0
 .3579078506\Bq,0,2.5047121939,-2.3374292939,0.6446891729\Bq,0,2.607427
 6512,-2.2805186578,0.2623140765\Bq,0,2.4790333296,-2.3516569529,0.7402
 829469\Bq,0,2.6331065155,-2.2662909988,0.1667203024\Bq,0,2.4533544653,
 -2.365884612,0.835876721\Bq,0,2.6587853799,-2.2520633397,0.0711265283\
 Bq,0,2.427675601,-2.380112271,0.9314704951\Bq,0,2.6844642442,-2.237835
 6807,-0.0244672458\Bq,0,2.5560699226,-2.3089739759,0.4535016247\Bq,0,2
 .5267000077,-2.2242189408,0.5628359383\Bq,0,2.5780577364,-2.1957636228
 ,0.3716483901\Bq,0,2.5010211434,-2.2384465999,0.6584297124\Bq,0,2.6037
 366007,-2.1815359638,0.276054616\Bq,0,2.4753422791,-2.2526742589,0.754
 0234865\Bq,0,2.629415465,-2.1673083047,0.1804608419\Bq,0,2.4496634147,
 -2.2669019179,0.8496172606\Bq,0,2.6550943293,-2.1530806457,0.084867067
 8\Bq,0,2.4239845504,-2.281129577,0.9452110347\Bq,0,2.6807731936,-2.138
 8529867,-0.0107267063\Bq,0,2.552378872,-2.2099912818,0.4672421642\Bq,0
 ,2.5230089572,-2.1252362468,0.5765764779\Bq,0,2.5743666858,-2.09678092
 88,0.3853889297\Bq,0,2.4973300929,-2.1394639058,0.672170252\Bq,0,2.600
 0455501,-2.0825532697,0.2897951556\Bq,0,2.4716512285,-2.1536915649,0.7
 677640261\Bq,0,2.6257244145,-2.0683256107,0.1942013815\Bq,0,2.44597236
 42,-2.1679192239,0.8633578002\Bq,0,2.6514032788,-2.0540979517,0.098607
 6074\Bq,0,2.4202934999,-2.1821468829,0.9589515743\Bq,0,2.6770821431,-2
 .0398702926,0.0030138333\Bq,0,2.5486878215,-2.1110085878,0.4809827038\
 Bq,0,2.5193179066,-2.0262535528,0.5903170174\Bq,0,2.5706756353,-1.9977
 982347,0.3991294692\Bq,0,2.4936390423,-2.0404812118,0.6859107915\\Vers
 ion=ES64L-G09RevD.01\HF=-847.0032898\RMSD=7.547e-09\Dipole=0.0186808,0
 .0336671,0.0011595\Quadrupole=4.9072795,4.7288219,-9.6361014,-0.285020
 1,2.3867064,-0.880172\PG=C01 [X(C22H14)]\\@


 The juvenile sea squirt wanders through the sea searching
 for a suitable rock or hunk of coral to cling to and make
 its home for life.  For this task it has a rudimentary
 nervous system.  When it finds its spot and takes root, it
 doesn't need its brain any more so it eats it.
 It's rather like getting tenure.

                               -- source unknown
 Job cpu time:       0 days  2 hours 54 minutes 30.0 seconds.
 File lengths (MBytes):  RWF=    184 Int=      0 D2E=      0 Chk=     19 Scr=      1
 Normal termination of Gaussian 09 at Sat Aug 22 18:39:00 2020.
