 Entering Gaussian System, Link 0=g09
 Input=input_cycle_01_batch_04600.com
 Output=input_cycle_01_batch_04600.log
 Initial command:
 /share/programs/GAUSSIAN/64/g09/l1.exe "/scratch/yannick.29867/Gau-9871.inp" -scrdir="/scratch/yannick.29867/"
 Entering Link 1 = /share/programs/GAUSSIAN/64/g09/l1.exe PID=      9872.
  
 Copyright (c) 1988,1990,1992,1993,1995,1998,2003,2009,2013,
            Gaussian, Inc.  All Rights Reserved.
  
 This is part of the Gaussian(R) 09 program.  It is based on
 the Gaussian(R) 03 system (copyright 2003, Gaussian, Inc.),
 the Gaussian(R) 98 system (copyright 1998, Gaussian, Inc.),
 the Gaussian(R) 94 system (copyright 1995, Gaussian, Inc.),
 the Gaussian 92(TM) system (copyright 1992, Gaussian, Inc.),
 the Gaussian 90(TM) system (copyright 1990, Gaussian, Inc.),
 the Gaussian 88(TM) system (copyright 1988, Gaussian, Inc.),
 the Gaussian 86(TM) system (copyright 1986, Carnegie Mellon
 University), and the Gaussian 82(TM) system (copyright 1983,
 Carnegie Mellon University). Gaussian is a federally registered
 trademark of Gaussian, Inc.
  
 This software contains proprietary and confidential information,
 including trade secrets, belonging to Gaussian, Inc.
  
 This software is provided under written license and may be
 used, copied, transmitted, or stored only in accord with that
 written license.
  
 The following legend is applicable only to US Government
 contracts under FAR:
  
                    RESTRICTED RIGHTS LEGEND
  
 Use, reproduction and disclosure by the US Government is
 subject to restrictions as set forth in subparagraphs (a)
 and (c) of the Commercial Computer Software - Restricted
 Rights clause in FAR 52.227-19.
  
 Gaussian, Inc.
 340 Quinnipiac St., Bldg. 40, Wallingford CT 06492
  
  
 ---------------------------------------------------------------
 Warning -- This program may not be used in any manner that
 competes with the business of Gaussian, Inc. or will provide
 assistance to any competitor of Gaussian, Inc.  The licensee
 of this program is prohibited from giving any competitor of
 Gaussian, Inc. access to this program.  By using this program,
 the user acknowledges that Gaussian, Inc. is engaged in the
 business of creating and licensing software in the field of
 computational chemistry and represents and warrants to the
 licensee that it is not a competitor of Gaussian, Inc. and that
 it will not use this program in any manner prohibited above.
 ---------------------------------------------------------------
  

 Cite this work as:
 Gaussian 09, Revision D.01,
 M. J. Frisch, G. W. Trucks, H. B. Schlegel, G. E. Scuseria, 
 M. A. Robb, J. R. Cheeseman, G. Scalmani, V. Barone, B. Mennucci, 
 G. A. Petersson, H. Nakatsuji, M. Caricato, X. Li, H. P. Hratchian, 
 A. F. Izmaylov, J. Bloino, G. Zheng, J. L. Sonnenberg, M. Hada, 
 M. Ehara, K. Toyota, R. Fukuda, J. Hasegawa, M. Ishida, T. Nakajima, 
 Y. Honda, O. Kitao, H. Nakai, T. Vreven, J. A. Montgomery, Jr., 
 J. E. Peralta, F. Ogliaro, M. Bearpark, J. J. Heyd, E. Brothers, 
 K. N. Kudin, V. N. Staroverov, T. Keith, R. Kobayashi, J. Normand, 
 K. Raghavachari, A. Rendell, J. C. Burant, S. S. Iyengar, J. Tomasi, 
 M. Cossi, N. Rega, J. M. Millam, M. Klene, J. E. Knox, J. B. Cross, 
 V. Bakken, C. Adamo, J. Jaramillo, R. Gomperts, R. E. Stratmann, 
 O. Yazyev, A. J. Austin, R. Cammi, C. Pomelli, J. W. Ochterski, 
 R. L. Martin, K. Morokuma, V. G. Zakrzewski, G. A. Voth, 
 P. Salvador, J. J. Dannenberg, S. Dapprich, A. D. Daniels, 
 O. Farkas, J. B. Foresman, J. V. Ortiz, J. Cioslowski, 
 and D. J. Fox, Gaussian, Inc., Wallingford CT, 2013.
 
 ******************************************
 Gaussian 09:  ES64L-G09RevD.01 24-Apr-2013
                21-Aug-2020 
 ******************************************
 %nproc=8
 Will use up to    8 processors via shared memory.
 %mem=1000MB
 ----------------------------------------
 # rb3lyp/6-311+g** NMR geom=connectivity
 ----------------------------------------
 1/38=1,57=2/1;
 2/12=2,17=6,18=5,40=1/2;
 3/5=4,6=6,7=111,11=2,16=1,25=1,30=1,74=-5,116=1/1,2,8,3;
 4//1;
 5/5=2,38=5/2;
 8/6=1,10=90,11=11/1;
 10/13=100,45=16/2;
 6/7=2,8=2,9=2,10=2,28=1/1;
 99/9=1/99;
 -----
 Title
 -----
 Symbolic Z-matrix:
 Charge =  0 Multiplicity = 1
 C                    -4.05006  -0.57719   0.81367 
 H                    -5.02638  -1.00827   1.00248 
 C                    -3.93816   0.66178   0.24009 
 H                    -4.82524   1.23389  -0.01113 
 C                    -2.67684   1.24332   0.00576 
 C                    -1.49741   0.50515   0.28483 
 C                    -1.65083  -0.73387   0.9404 
 H                    -0.77136  -1.2731    1.26338 
 C                    -2.88985  -1.2624    1.19943 
 H                    -2.96837  -2.21246   1.71527 
 C                    -2.57732   2.59637  -0.41929 
 H                    -3.48707   3.14122  -0.64741 
 C                    -1.37419   3.21479  -0.4364 
 H                    -1.29973   4.2742   -0.65781 
 C                    -0.17195   2.49941  -0.17346 
 C                    -0.20439   1.10184   0.01927 
 C                     1.05135   3.20426  -0.06762 
 H                     1.04273   4.28195  -0.1897 
 C                     2.19421   2.54874   0.25796 
 H                     3.11685   3.09128   0.43347 
 C                     2.22165   1.13366   0.2935 
 C                     1.04869   0.39455   0.03024 
 C                     3.44834   0.46146   0.55739 
 H                     4.30958   1.06061   0.83348 
 C                     3.54273  -0.88559   0.47495 
 H                     4.47315  -1.39397   0.70388 
 C                     2.44901  -1.64744  -0.01963 
 C                     1.21507  -1.00573  -0.30136 
 C                     0.25311  -1.74344  -1.02166 
 H                    -0.65414  -1.25351  -1.34628 
 C                     0.44942  -3.06286  -1.34138 
 H                    -0.30832  -3.59443  -1.90541 
 C                     1.62517  -3.7208   -0.95525 
 H                     1.767    -4.76874  -1.1927 
 C                     2.61099  -3.01442  -0.31831 
 H                     3.55256  -3.49028  -0.06464 
 Bq                   -0.10839  -3.91814  -1.37504 
 Bq                   -0.22797  -3.99799  -1.11175 
 Bq                   -0.06852  -3.89152  -1.46281 
 Bq                   -0.26783  -4.0246   -1.02399 
 Bq                   -0.02866  -3.86491  -1.55057 
 Bq                   -0.3077   -4.05122  -0.93622 
 Bq                    0.0112   -3.83829  -1.63834 
 Bq                   -0.34756  -4.07783  -0.84846 
 Bq                    0.05106  -3.81168  -1.7261 
 Bq                   -0.14825  -3.94475  -1.28728 
 Bq                   -0.19912  -3.87498  -1.17528 
 Bq                   -0.11939  -3.82175  -1.35081 
 Bq                   -0.23898  -3.90159  -1.08752 
 Bq                   -0.07953  -3.79513  -1.43858 
 Bq                   -0.27884  -3.92821  -0.99975 
 Bq                   -0.03967  -3.76851  -1.52634 
 Bq                   -0.3187   -3.95482  -0.91199 
 Bq                    0.00019  -3.7419   -1.61411 
 Bq                   -0.35856  -3.98144  -0.82422 
 Bq                    0.04005  -3.71528  -1.70187 
 Bq                   -0.15925  -3.84836  -1.26305 
 Bq                   -0.21012  -3.77858  -1.15105 
 Bq                   -0.1304   -3.72535  -1.32658 
 Bq                   -0.24998  -3.8052   -1.06328 
 Bq                   -0.09054  -3.69874  -1.41434 
 Bq                   -0.28985  -3.83182  -0.97552 
 Bq                   -0.05068  -3.67212  -1.50211 
 Bq                   -0.32971  -3.85843  -0.88775 
 Bq                   -0.01081  -3.64551  -1.58987 
 Bq                   -0.36957  -3.88505  -0.79999 
 Bq                    0.02905  -3.61889  -1.67764 
 Bq                   -0.17026  -3.75197  -1.23881 
 Bq                   -0.22113  -3.68219  -1.12682 
 Bq                   -0.14141  -3.62896  -1.30235 
 Bq                   -0.26099  -3.70881  -1.03905 
 Bq                   -0.10154  -3.60234  -1.39011 
 Bq                   -0.30085  -3.73542  -0.95129 
 Bq                   -0.06168  -3.57573  -1.47787 
 Bq                   -0.34071  -3.76204  -0.86352 
 Bq                   -0.02182  -3.54911  -1.56564 
 Bq                   -0.38058  -3.78865  -0.77576 
 Bq                    0.01804  -3.5225   -1.6534 
 Bq                   -0.18127  -3.65558  -1.21458 
 Bq                   -0.23214  -3.5858   -1.10258 
 Bq                   -0.15241  -3.53257  -1.27811 
 Bq                   -0.272    -3.61241  -1.01482 
 Bq                   -0.11255  -3.50595  -1.36588 
 Bq                   -0.31186  -3.63903  -0.92705 
 Bq                   -0.07269  -3.47934  -1.45364 
 Bq                   -0.35172  -3.66565  -0.83929 
 Bq                   -0.03283  -3.45272  -1.54141 
 Bq                   -0.39158  -3.69226  -0.75152 
 Bq                    0.00703  -3.4261   -1.62917 
 Bq                   -0.19227  -3.55918  -1.19035 
 Bq                   -0.24314  -3.48941  -1.07835 
 Bq                   -0.16342  -3.43617  -1.25388 
 Bq                   -0.283    -3.51602  -0.99058 
 Bq                   -0.12356  -3.40956  -1.34164 
 Bq                   -0.32287  -3.54264  -0.90282 
 Bq                   -0.0837   -3.38294  -1.42941 
 Bq                   -0.36273  -3.56925  -0.81506 
 Bq                   -0.04383  -3.35633  -1.51717 
 Bq                   -0.40259  -3.59587  -0.72729 
 Bq                   -0.00397  -3.32971  -1.60494 
 Bq                   -0.20328  -3.46279  -1.16611 
 Bq                   -0.25415  -3.39301  -1.05412 
 Bq                   -0.17443  -3.33978  -1.22965 
 Bq                   -0.29401  -3.41963  -0.96635 
 Bq                   -0.13456  -3.31317  -1.31741 
 Bq                   -0.33387  -3.44624  -0.87859 
 Bq                   -0.0947   -3.28655  -1.40517 
 Bq                   -0.37373  -3.47286  -0.79082 
 Bq                   -0.05484  -3.25993  -1.49294 
 Bq                   -0.4136   -3.49947  -0.70306 
 Bq                   -0.01498  -3.23332  -1.5807 
 Bq                   -0.21429  -3.3664   -1.14188 
 Bq                   -0.26516  -3.29662  -1.02988 
 Bq                   -0.18543  -3.24339  -1.20541 
 Bq                   -0.30502  -3.32323  -0.94212 
 Bq                   -0.14557  -3.21677  -1.29318 
 Bq                   -0.34488  -3.34985  -0.85435 
 Bq                   -0.10571  -3.19016  -1.38094 
 Bq                   -0.38474  -3.37647  -0.76659 
 Bq                   -0.06585  -3.16354  -1.46871 
 Bq                   -0.4246   -3.40308  -0.67882 
 Bq                   -0.02598  -3.13693  -1.55647 
 Bq                   -0.22529  -3.27     -1.11765 
 Bq                   -0.27616  -3.20023  -1.00565 
 Bq                   -0.19644  -3.14699  -1.18118 
 Bq                   -0.31602  -3.22684  -0.91788 
 Bq                   -0.15658  -3.12038  -1.26894 
 Bq                   -0.35589  -3.25346  -0.83012 
 Bq                   -0.11671  -3.09376  -1.35671 
 Bq                   -0.39575  -3.28007  -0.74236 
 Bq                   -0.07685  -3.06715  -1.44447 
 Bq                   -0.43561  -3.30669  -0.65459 
 Bq                   -0.03699  -3.04053  -1.53224 
 Bq                   -0.2363   -3.17361  -1.09341 
 Bq                   -0.28717  -3.10383  -0.98142 
 Bq                   -0.20744  -3.0506   -1.15695 
 Bq                   -0.32703  -3.13045  -0.89365 
 Bq                   -0.16758  -3.02399  -1.24471 
 Bq                   -0.36689  -3.15706  -0.80589 
 Bq                   -0.12772  -2.99737  -1.33248 
 Bq                   -0.40675  -3.18368  -0.71812 
 Bq                   -0.08786  -2.97075  -1.42024 
 Bq                   -0.44662  -3.2103   -0.63036 
 Bq                   -0.048    -2.94414  -1.508 
 Bq                   -0.24731  -3.07722  -1.06918 
 Bq                   -0.29817  -3.00744  -0.95718 
 Bq                   -0.21845  -2.95421  -1.13271 
 Bq                   -0.33804  -3.03406  -0.86942 
 Bq                   -0.17859  -2.92759  -1.22048 
 Bq                   -0.3779   -3.06067  -0.78165 
 Bq                   -0.13873  -2.90098  -1.30824 
 Bq                   -0.41776  -3.08729  -0.69389 
 Bq                   -0.09887  -2.87436  -1.39601 
 Bq                   -0.45762  -3.1139   -0.60612 
 Bq                   -0.059    -2.84775  -1.48377 
 Bq                   -0.25831  -2.98082  -1.04495 
 Bq                   -0.30918  -2.91105  -0.93295 
 Bq                   -0.22946  -2.85782  -1.10848 
 Bq                   -0.34904  -2.93766  -0.84519 
 Bq                   -0.1896   -2.8312   -1.19624 
 Bq                   -0.3889   -2.96428  -0.75742 
 Bq                   -0.14973  -2.80458  -1.28401 
 Bq                   -0.42877  -2.99089  -0.66966 
 Bq                   -0.10987  -2.77797  -1.37177 
 Bq                   -0.46863  -3.01751  -0.58189 
 Bq                   -0.07001  -2.75135  -1.45954 
 Bq                   -0.26932  -2.88443  -1.02071 
 Bq                   -0.32019  -2.81465  -0.90872 
 Bq                   -0.24046  -2.76142  -1.08425 
 Bq                   -0.36005  -2.84127  -0.82095 
 Bq                   -0.2006   -2.73481  -1.17201 
 Bq                   -0.39991  -2.86789  -0.73319 
 Bq                   -0.16074  -2.70819  -1.25978 
 Bq                   -0.43977  -2.8945   -0.64542 
 Bq                   -0.12088  -2.68158  -1.34754 
 Bq                   -0.47963  -2.92112  -0.55766 
 Bq                   -0.08102  -2.65496  -1.4353 
 Bq                   -0.28033  -2.78804  -0.99648 
 Bq                   -0.33119  -2.71826  -0.88448 
 Bq                   -0.25147  -2.66503  -1.06001 
 Bq                   -0.37106  -2.74488  -0.79672 
 Bq                   -0.21161  -2.63841  -1.14778 
 Bq                   -0.41092  -2.77149  -0.70895 
 Bq                   -0.17175  -2.6118   -1.23554 
 Bq                   -0.45078  -2.79811  -0.62119 
 Bq                   -0.13189  -2.58518  -1.32331 
 Bq                   -0.49064  -2.82472  -0.53342 
 Bq                   -0.09202  -2.55857  -1.41107 
 Bq                   -0.29133  -2.69165  -0.97225 
 Bq                   -0.3422   -2.62187  -0.86025 
 Bq                   -0.26248  -2.56864  -1.03578 
 Bq                   -0.38206  -2.64848  -0.77249 
 Bq                   -0.22262  -2.54202  -1.12354 
 Bq                   -0.42192  -2.6751   -0.68472 
 Bq                   -0.18275  -2.51541  -1.21131 
 Bq                   -0.46179  -2.70172  -0.59696 
 Bq                   -0.14289  -2.48879  -1.29907 
 Bq                   -0.50165  -2.72833  -0.50919 
 Bq                   -0.10303  -2.46217  -1.38684 
 Bq                   -0.30234  -2.59525  -0.94801 
 Bq                   -0.35321  -2.52548  -0.83602 
 Bq                   -0.27348  -2.47224  -1.01155 
 Bq                   -0.39307  -2.55209  -0.74825 
 Bq                   -0.23362  -2.44563  -1.09931 
 Bq                   -0.43293  -2.57871  -0.66049 
 Bq                   -0.19376  -2.41901  -1.18708 
 Bq                   -0.47279  -2.60532  -0.57272 
 Bq                   -0.1539   -2.3924   -1.27484 
 Bq                   -0.51265  -2.63194  -0.48496 
 Bq                   -0.11404  -2.36578  -1.36261 
 Bq                   -0.31335  -2.49886  -0.92378 
 Bq                   -0.36421  -2.42908  -0.81178 
 Bq                   -0.28449  -2.37585  -0.98731 
 Bq                   -0.40408  -2.4557   -0.72402 
 Bq                   -0.24463  -2.34924  -1.07508 
 Bq                   -0.44394  -2.48231  -0.63625 
 Bq                   -0.20477  -2.32262  -1.16284 
 Bq                   -0.4838   -2.50893  -0.54849 
 Bq                   -0.1649   -2.296    -1.25061 
 Bq                   -0.52366  -2.53554  -0.46072 
 Bq                   -0.12504  -2.26939  -1.33837 
 Bq                   -0.32435  -2.40247  -0.89955 
 Bq                   -0.37522  -2.33269  -0.78755 
 Bq                   -0.2955   -2.27946  -0.96308 
 Bq                   -0.41508  -2.35931  -0.69979 
 Bq                   -0.25563  -2.25284  -1.05084 
 Bq                   -0.45494  -2.38592  -0.61202 
 Bq                   -0.21577  -2.22623  -1.13861 
 Bq                   -0.49481  -2.41254  -0.52426 
 Bq                   -0.17591  -2.19961  -1.22637 
 Bq                   -0.53467  -2.43915  -0.43649 
 Bq                   -0.13605  -2.173    -1.31414 
 Bq                   -0.33536  -2.30607  -0.87532 
 Bq                   -0.38623  -2.2363   -0.76332 
 Bq                   -0.3065   -2.18307  -0.93885 
 Bq                   -0.42609  -2.26291  -0.67555 
 
 Symmetry turned off:
 Cannot cope with ghost atoms or with translation vectors.
 Stoichiometry    C22H14
 Framework group  C1[X(C22H14)]
 NUMDOF-- NAT=    36 NAtoms=   236
 Deg. of freedom     0
 Full point group                 C1      NOp   1
                          Input orientation:                          
 ---------------------------------------------------------------------
 Center     Atomic      Atomic             Coordinates (Angstroms)
 Number     Number       Type             X           Y           Z
 ---------------------------------------------------------------------
      1          6           0       -4.050056   -0.577186    0.813671
      2          1           0       -5.026380   -1.008273    1.002476
      3          6           0       -3.938155    0.661780    0.240088
      4          1           0       -4.825242    1.233889   -0.011130
      5          6           0       -2.676841    1.243325    0.005758
      6          6           0       -1.497412    0.505153    0.284825
      7          6           0       -1.650833   -0.733873    0.940403
      8          1           0       -0.771365   -1.273097    1.263375
      9          6           0       -2.889855   -1.262404    1.199431
     10          1           0       -2.968371   -2.212456    1.715268
     11          6           0       -2.577319    2.596370   -0.419293
     12          1           0       -3.487073    3.141224   -0.647406
     13          6           0       -1.374190    3.214790   -0.436403
     14          1           0       -1.299732    4.274202   -0.657814
     15          6           0       -0.171949    2.499409   -0.173459
     16          6           0       -0.204392    1.101844    0.019269
     17          6           0        1.051349    3.204256   -0.067622
     18          1           0        1.042734    4.281950   -0.189700
     19          6           0        2.194209    2.548745    0.257958
     20          1           0        3.116853    3.091285    0.433473
     21          6           0        2.221647    1.133656    0.293499
     22          6           0        1.048693    0.394553    0.030241
     23          6           0        3.448336    0.461463    0.557394
     24          1           0        4.309579    1.060605    0.833485
     25          6           0        3.542735   -0.885593    0.474946
     26          1           0        4.473147   -1.393970    0.703882
     27          6           0        2.449005   -1.647445   -0.019632
     28          6           0        1.215070   -1.005726   -0.301357
     29          6           0        0.253111   -1.743444   -1.021659
     30          1           0       -0.654136   -1.253505   -1.346285
     31          6           0        0.449419   -3.062860   -1.341378
     32          1           0       -0.308316   -3.594431   -1.905406
     33          6           0        1.625173   -3.720797   -0.955254
     34          1           0        1.767005   -4.768740   -1.192702
     35          6           0        2.610987   -3.014418   -0.318305
     36          1           0        3.552561   -3.490281   -0.064637
     37          0           0       -0.108386   -3.918139   -1.375045
     38          0           0       -0.227972   -3.997986   -1.111751
     39          0           0       -0.068525   -3.891523   -1.462810
     40          0           0       -0.267834   -4.024601   -1.023986
     41          0           0       -0.028663   -3.864907   -1.550574
     42          0           0       -0.307695   -4.051217   -0.936221
     43          0           0        0.011199   -3.838292   -1.638339
     44          0           0       -0.347557   -4.077833   -0.848457
     45          0           0        0.051061   -3.811676   -1.726104
     46          0           0       -0.148248   -3.944754   -1.287280
     47          0           0       -0.199116   -3.874977   -1.175282
     48          0           0       -0.119393   -3.821746   -1.350812
     49          0           0       -0.238978   -3.901593   -1.087518
     50          0           0       -0.079531   -3.795130   -1.438576
     51          0           0       -0.278840   -3.928208   -0.999753
     52          0           0       -0.039669   -3.768514   -1.526341
     53          0           0       -0.318702   -3.954824   -0.911988
     54          0           0        0.000192   -3.741899   -1.614106
     55          0           0       -0.358564   -3.981440   -0.824223
     56          0           0        0.040054   -3.715283   -1.701871
     57          0           0       -0.159255   -3.848361   -1.263047
     58          0           0       -0.210123   -3.778584   -1.151049
     59          0           0       -0.130399   -3.725353   -1.326578
     60          0           0       -0.249985   -3.805200   -1.063284
     61          0           0       -0.090538   -3.698737   -1.414343
     62          0           0       -0.289846   -3.831815   -0.975520
     63          0           0       -0.050676   -3.672122   -1.502108
     64          0           0       -0.329708   -3.858431   -0.887755
     65          0           0       -0.010814   -3.645506   -1.589873
     66          0           0       -0.369570   -3.885047   -0.799990
     67          0           0        0.029048   -3.618890   -1.677637
     68          0           0       -0.170261   -3.751968   -1.238814
     69          0           0       -0.221129   -3.682191   -1.126816
     70          0           0       -0.141406   -3.628960   -1.302345
     71          0           0       -0.260991   -3.708807   -1.039051
     72          0           0       -0.101544   -3.602344   -1.390110
     73          0           0       -0.300853   -3.735422   -0.951286
     74          0           0       -0.061682   -3.575729   -1.477875
     75          0           0       -0.340715   -3.762038   -0.863522
     76          0           0       -0.021821   -3.549113   -1.565639
     77          0           0       -0.380576   -3.788654   -0.775757
     78          0           0        0.018041   -3.522497   -1.653404
     79          0           0       -0.181268   -3.655575   -1.214581
     80          0           0       -0.232136   -3.585798   -1.102583
     81          0           0       -0.152412   -3.532567   -1.278112
     82          0           0       -0.271998   -3.612414   -1.014818
     83          0           0       -0.112551   -3.505951   -1.365877
     84          0           0       -0.311859   -3.639029   -0.927053
     85          0           0       -0.072689   -3.479336   -1.453641
     86          0           0       -0.351721   -3.665645   -0.839288
     87          0           0       -0.032827   -3.452720   -1.541406
     88          0           0       -0.391583   -3.692261   -0.751524
     89          0           0        0.007035   -3.426104   -1.629171
     90          0           0       -0.192274   -3.559182   -1.190347
     91          0           0       -0.243142   -3.489405   -1.078349
     92          0           0       -0.163419   -3.436174   -1.253879
     93          0           0       -0.283004   -3.516021   -0.990585
     94          0           0       -0.123557   -3.409558   -1.341643
     95          0           0       -0.322866   -3.542636   -0.902820
     96          0           0       -0.083695   -3.382943   -1.429408
     97          0           0       -0.362728   -3.569252   -0.815055
     98          0           0       -0.043834   -3.356327   -1.517173
     99          0           0       -0.402589   -3.595868   -0.727290
    100          0           0       -0.003972   -3.329711   -1.604938
    101          0           0       -0.203281   -3.462790   -1.166114
    102          0           0       -0.254149   -3.393012   -1.054116
    103          0           0       -0.174425   -3.339781   -1.229645
    104          0           0       -0.294011   -3.419628   -0.966351
    105          0           0       -0.134564   -3.313165   -1.317410
    106          0           0       -0.333872   -3.446243   -0.878587
    107          0           0       -0.094702   -3.286550   -1.405175
    108          0           0       -0.373734   -3.472859   -0.790822
    109          0           0       -0.054840   -3.259934   -1.492940
    110          0           0       -0.413596   -3.499475   -0.703057
    111          0           0       -0.014978   -3.233318   -1.580704
    112          0           0       -0.214287   -3.366397   -1.141881
    113          0           0       -0.265155   -3.296619   -1.029883
    114          0           0       -0.185432   -3.243388   -1.205412
    115          0           0       -0.305017   -3.323235   -0.942118
    116          0           0       -0.145570   -3.216772   -1.293177
    117          0           0       -0.344879   -3.349851   -0.854353
    118          0           0       -0.105708   -3.190157   -1.380942
    119          0           0       -0.384741   -3.376466   -0.766589
    120          0           0       -0.065846   -3.163541   -1.468706
    121          0           0       -0.424602   -3.403082   -0.678824
    122          0           0       -0.025985   -3.136925   -1.556471
    123          0           0       -0.225294   -3.270004   -1.117648
    124          0           0       -0.276162   -3.200226   -1.005650
    125          0           0       -0.196438   -3.146995   -1.181179
    126          0           0       -0.316024   -3.226842   -0.917885
    127          0           0       -0.156576   -3.120379   -1.268944
    128          0           0       -0.355885   -3.253458   -0.830120
    129          0           0       -0.116715   -3.093764   -1.356708
    130          0           0       -0.395747   -3.280073   -0.742355
    131          0           0       -0.076853   -3.067148   -1.444473
    132          0           0       -0.435609   -3.306689   -0.654591
    133          0           0       -0.036991   -3.040532   -1.532238
    134          0           0       -0.236300   -3.173611   -1.093414
    135          0           0       -0.287168   -3.103833   -0.981416
    136          0           0       -0.207445   -3.050602   -1.156946
    137          0           0       -0.327030   -3.130449   -0.893652
    138          0           0       -0.167583   -3.023986   -1.244710
    139          0           0       -0.366892   -3.157065   -0.805887
    140          0           0       -0.127721   -2.997371   -1.332475
    141          0           0       -0.406754   -3.183680   -0.718122
    142          0           0       -0.087859   -2.970755   -1.420240
    143          0           0       -0.446615   -3.210296   -0.630357
    144          0           0       -0.047998   -2.944139   -1.508005
    145          0           0       -0.247306   -3.077218   -1.069181
    146          0           0       -0.298175   -3.007440   -0.957183
    147          0           0       -0.218451   -2.954209   -1.132712
    148          0           0       -0.338036   -3.034056   -0.869418
    149          0           0       -0.178589   -2.927593   -1.220477
    150          0           0       -0.377898   -3.060672   -0.781654
    151          0           0       -0.138728   -2.900978   -1.308242
    152          0           0       -0.417760   -3.087287   -0.693889
    153          0           0       -0.098866   -2.874362   -1.396007
    154          0           0       -0.457622   -3.113903   -0.606124
    155          0           0       -0.059004   -2.847746   -1.483771
    156          0           0       -0.258313   -2.980825   -1.044948
    157          0           0       -0.309181   -2.911047   -0.932950
    158          0           0       -0.229458   -2.857816   -1.108479
    159          0           0       -0.349043   -2.937663   -0.845185
    160          0           0       -0.189596   -2.831200   -1.196244
    161          0           0       -0.388905   -2.964279   -0.757420
    162          0           0       -0.149734   -2.804585   -1.284009
    163          0           0       -0.428766   -2.990894   -0.669656
    164          0           0       -0.109872   -2.777969   -1.371773
    165          0           0       -0.468628   -3.017510   -0.581891
    166          0           0       -0.070011   -2.751353   -1.459538
    167          0           0       -0.269319   -2.884432   -1.020715
    168          0           0       -0.320188   -2.814654   -0.908717
    169          0           0       -0.240464   -2.761423   -1.084246
    170          0           0       -0.360049   -2.841270   -0.820952
    171          0           0       -0.200602   -2.734807   -1.172011
    172          0           0       -0.399911   -2.867886   -0.733187
    173          0           0       -0.160741   -2.708192   -1.259775
    174          0           0       -0.439773   -2.894501   -0.645422
    175          0           0       -0.120879   -2.681576   -1.347540
    176          0           0       -0.479635   -2.921117   -0.557658
    177          0           0       -0.081017   -2.654960   -1.435305
    178          0           0       -0.280326   -2.788039   -0.996481
    179          0           0       -0.331194   -2.718261   -0.884483
    180          0           0       -0.251471   -2.665030   -1.060013
    181          0           0       -0.371056   -2.744877   -0.796719
    182          0           0       -0.211609   -2.638414   -1.147777
    183          0           0       -0.410918   -2.771493   -0.708954
    184          0           0       -0.171747   -2.611799   -1.235542
    185          0           0       -0.450779   -2.798108   -0.621189
    186          0           0       -0.131885   -2.585183   -1.323307
    187          0           0       -0.490641   -2.824724   -0.533424
    188          0           0       -0.092024   -2.558567   -1.411072
    189          0           0       -0.291332   -2.691646   -0.972248
    190          0           0       -0.342201   -2.621868   -0.860250
    191          0           0       -0.262477   -2.568637   -1.035779
    192          0           0       -0.382062   -2.648484   -0.772485
    193          0           0       -0.222615   -2.542021   -1.123544
    194          0           0       -0.421924   -2.675100   -0.684721
    195          0           0       -0.182754   -2.515406   -1.211309
    196          0           0       -0.461786   -2.701715   -0.596956
    197          0           0       -0.142892   -2.488790   -1.299074
    198          0           0       -0.501648   -2.728331   -0.509191
    199          0           0       -0.103030   -2.462174   -1.386838
    200          0           0       -0.302339   -2.595253   -0.948015
    201          0           0       -0.353207   -2.525475   -0.836017
    202          0           0       -0.273484   -2.472244   -1.011546
    203          0           0       -0.393069   -2.552091   -0.748252
    204          0           0       -0.233622   -2.445628   -1.099311
    205          0           0       -0.432931   -2.578707   -0.660487
    206          0           0       -0.193760   -2.419013   -1.187076
    207          0           0       -0.472792   -2.605322   -0.572723
    208          0           0       -0.153898   -2.392397   -1.274840
    209          0           0       -0.512654   -2.631938   -0.484958
    210          0           0       -0.114037   -2.365781   -1.362605
    211          0           0       -0.313345   -2.498860   -0.923782
    212          0           0       -0.364214   -2.429082   -0.811784
    213          0           0       -0.284490   -2.375851   -0.987313
    214          0           0       -0.404075   -2.455698   -0.724019
    215          0           0       -0.244628   -2.349235   -1.075078
    216          0           0       -0.443937   -2.482314   -0.636254
    217          0           0       -0.204767   -2.322620   -1.162842
    218          0           0       -0.483799   -2.508929   -0.548489
    219          0           0       -0.164905   -2.296004   -1.250607
    220          0           0       -0.523661   -2.535545   -0.460725
    221          0           0       -0.125043   -2.269388   -1.338372
    222          0           0       -0.324352   -2.402467   -0.899548
    223          0           0       -0.375220   -2.332689   -0.787550
    224          0           0       -0.295497   -2.279458   -0.963080
    225          0           0       -0.415082   -2.359305   -0.699786
    226          0           0       -0.255635   -2.252842   -1.050844
    227          0           0       -0.454944   -2.385921   -0.612021
    228          0           0       -0.215773   -2.226227   -1.138609
    229          0           0       -0.494805   -2.412536   -0.524256
    230          0           0       -0.175911   -2.199611   -1.226374
    231          0           0       -0.534667   -2.439152   -0.436491
    232          0           0       -0.136049   -2.172995   -1.314139
    233          0           0       -0.335358   -2.306074   -0.875315
    234          0           0       -0.386227   -2.236296   -0.763317
    235          0           0       -0.306503   -2.183065   -0.938846
    236          0           0       -0.426088   -2.262912   -0.675552
 ---------------------------------------------------------------------
 Rotational constants (GHZ):      0.4529074      0.2836956      0.1879557
 Standard basis: 6-311+G(d,p) (5D, 7F)
 Warning:  center  37 has no basis functions!
 Warning:  center  38 has no basis functions!
 Warning:  center  39 has no basis functions!
 Warning:  center  40 has no basis functions!
 Warning:  center  41 has no basis functions!
 Warning:  center  42 has no basis functions!
 Warning:  center  43 has no basis functions!
 Warning:  center  44 has no basis functions!
 Warning:  center  45 has no basis functions!
 Warning:  center  46 has no basis functions!
 Warning:  center  47 has no basis functions!
 Warning:  center  48 has no basis functions!
 Warning:  center  49 has no basis functions!
 Warning:  center  50 has no basis functions!
 Warning:  center  51 has no basis functions!
 Warning:  center  52 has no basis functions!
 Warning:  center  53 has no basis functions!
 Warning:  center  54 has no basis functions!
 Warning:  center  55 has no basis functions!
 Warning:  center  56 has no basis functions!
 Warning:  center  57 has no basis functions!
 Warning:  center  58 has no basis functions!
 Warning:  center  59 has no basis functions!
 Warning:  center  60 has no basis functions!
 Warning:  center  61 has no basis functions!
 Warning:  center  62 has no basis functions!
 Warning:  center  63 has no basis functions!
 Warning:  center  64 has no basis functions!
 Warning:  center  65 has no basis functions!
 Warning:  center  66 has no basis functions!
 Warning:  center  67 has no basis functions!
 Warning:  center  68 has no basis functions!
 Warning:  center  69 has no basis functions!
 Warning:  center  70 has no basis functions!
 Warning:  center  71 has no basis functions!
 Warning:  center  72 has no basis functions!
 Warning:  center  73 has no basis functions!
 Warning:  center  74 has no basis functions!
 Warning:  center  75 has no basis functions!
 Warning:  center  76 has no basis functions!
 Warning:  center  77 has no basis functions!
 Warning:  center  78 has no basis functions!
 Warning:  center  79 has no basis functions!
 Warning:  center  80 has no basis functions!
 Warning:  center  81 has no basis functions!
 Warning:  center  82 has no basis functions!
 Warning:  center  83 has no basis functions!
 Warning:  center  84 has no basis functions!
 Warning:  center  85 has no basis functions!
 Warning:  center  86 has no basis functions!
 Warning:  center  87 has no basis functions!
 Warning:  center  88 has no basis functions!
 Warning:  center  89 has no basis functions!
 Warning:  center  90 has no basis functions!
 Warning:  center  91 has no basis functions!
 Warning:  center  92 has no basis functions!
 Warning:  center  93 has no basis functions!
 Warning:  center  94 has no basis functions!
 Warning:  center  95 has no basis functions!
 Warning:  center  96 has no basis functions!
 Warning:  center  97 has no basis functions!
 Warning:  center  98 has no basis functions!
 Warning:  center  99 has no basis functions!
 Warning:  center 100 has no basis functions!
 Warning:  center 101 has no basis functions!
 Warning:  center 102 has no basis functions!
 Warning:  center 103 has no basis functions!
 Warning:  center 104 has no basis functions!
 Warning:  center 105 has no basis functions!
 Warning:  center 106 has no basis functions!
 Warning:  center 107 has no basis functions!
 Warning:  center 108 has no basis functions!
 Warning:  center 109 has no basis functions!
 Warning:  center 110 has no basis functions!
 Warning:  center 111 has no basis functions!
 Warning:  center 112 has no basis functions!
 Warning:  center 113 has no basis functions!
 Warning:  center 114 has no basis functions!
 Warning:  center 115 has no basis functions!
 Warning:  center 116 has no basis functions!
 Warning:  center 117 has no basis functions!
 Warning:  center 118 has no basis functions!
 Warning:  center 119 has no basis functions!
 Warning:  center 120 has no basis functions!
 Warning:  center 121 has no basis functions!
 Warning:  center 122 has no basis functions!
 Warning:  center 123 has no basis functions!
 Warning:  center 124 has no basis functions!
 Warning:  center 125 has no basis functions!
 Warning:  center 126 has no basis functions!
 Warning:  center 127 has no basis functions!
 Warning:  center 128 has no basis functions!
 Warning:  center 129 has no basis functions!
 Warning:  center 130 has no basis functions!
 Warning:  center 131 has no basis functions!
 Warning:  center 132 has no basis functions!
 Warning:  center 133 has no basis functions!
 Warning:  center 134 has no basis functions!
 Warning:  center 135 has no basis functions!
 Warning:  center 136 has no basis functions!
 Warning:  center 137 has no basis functions!
 Warning:  center 138 has no basis functions!
 Warning:  center 139 has no basis functions!
 Warning:  center 140 has no basis functions!
 Warning:  center 141 has no basis functions!
 Warning:  center 142 has no basis functions!
 Warning:  center 143 has no basis functions!
 Warning:  center 144 has no basis functions!
 Warning:  center 145 has no basis functions!
 Warning:  center 146 has no basis functions!
 Warning:  center 147 has no basis functions!
 Warning:  center 148 has no basis functions!
 Warning:  center 149 has no basis functions!
 Warning:  center 150 has no basis functions!
 Warning:  center 151 has no basis functions!
 Warning:  center 152 has no basis functions!
 Warning:  center 153 has no basis functions!
 Warning:  center 154 has no basis functions!
 Warning:  center 155 has no basis functions!
 Warning:  center 156 has no basis functions!
 Warning:  center 157 has no basis functions!
 Warning:  center 158 has no basis functions!
 Warning:  center 159 has no basis functions!
 Warning:  center 160 has no basis functions!
 Warning:  center 161 has no basis functions!
 Warning:  center 162 has no basis functions!
 Warning:  center 163 has no basis functions!
 Warning:  center 164 has no basis functions!
 Warning:  center 165 has no basis functions!
 Warning:  center 166 has no basis functions!
 Warning:  center 167 has no basis functions!
 Warning:  center 168 has no basis functions!
 Warning:  center 169 has no basis functions!
 Warning:  center 170 has no basis functions!
 Warning:  center 171 has no basis functions!
 Warning:  center 172 has no basis functions!
 Warning:  center 173 has no basis functions!
 Warning:  center 174 has no basis functions!
 Warning:  center 175 has no basis functions!
 Warning:  center 176 has no basis functions!
 Warning:  center 177 has no basis functions!
 Warning:  center 178 has no basis functions!
 Warning:  center 179 has no basis functions!
 Warning:  center 180 has no basis functions!
 Warning:  center 181 has no basis functions!
 Warning:  center 182 has no basis functions!
 Warning:  center 183 has no basis functions!
 Warning:  center 184 has no basis functions!
 Warning:  center 185 has no basis functions!
 Warning:  center 186 has no basis functions!
 Warning:  center 187 has no basis functions!
 Warning:  center 188 has no basis functions!
 Warning:  center 189 has no basis functions!
 Warning:  center 190 has no basis functions!
 Warning:  center 191 has no basis functions!
 Warning:  center 192 has no basis functions!
 Warning:  center 193 has no basis functions!
 Warning:  center 194 has no basis functions!
 Warning:  center 195 has no basis functions!
 Warning:  center 196 has no basis functions!
 Warning:  center 197 has no basis functions!
 Warning:  center 198 has no basis functions!
 Warning:  center 199 has no basis functions!
 Warning:  center 200 has no basis functions!
 Warning:  center 201 has no basis functions!
 Warning:  center 202 has no basis functions!
 Warning:  center 203 has no basis functions!
 Warning:  center 204 has no basis functions!
 Warning:  center 205 has no basis functions!
 Warning:  center 206 has no basis functions!
 Warning:  center 207 has no basis functions!
 Warning:  center 208 has no basis functions!
 Warning:  center 209 has no basis functions!
 Warning:  center 210 has no basis functions!
 Warning:  center 211 has no basis functions!
 Warning:  center 212 has no basis functions!
 Warning:  center 213 has no basis functions!
 Warning:  center 214 has no basis functions!
 Warning:  center 215 has no basis functions!
 Warning:  center 216 has no basis functions!
 Warning:  center 217 has no basis functions!
 Warning:  center 218 has no basis functions!
 Warning:  center 219 has no basis functions!
 Warning:  center 220 has no basis functions!
 Warning:  center 221 has no basis functions!
 Warning:  center 222 has no basis functions!
 Warning:  center 223 has no basis functions!
 Warning:  center 224 has no basis functions!
 Warning:  center 225 has no basis functions!
 Warning:  center 226 has no basis functions!
 Warning:  center 227 has no basis functions!
 Warning:  center 228 has no basis functions!
 Warning:  center 229 has no basis functions!
 Warning:  center 230 has no basis functions!
 Warning:  center 231 has no basis functions!
 Warning:  center 232 has no basis functions!
 Warning:  center 233 has no basis functions!
 Warning:  center 234 has no basis functions!
 Warning:  center 235 has no basis functions!
 Warning:  center 236 has no basis functions!
   568 basis functions,   904 primitive gaussians,   590 cartesian basis functions
    73 alpha electrons       73 beta electrons
       nuclear repulsion energy      1610.9176155625 Hartrees.
 NAtoms=  236 NActive=  236 NUniq=  236 SFac= 1.00D+00 NAtFMM=   60 NAOKFM=T Big=T
 Integral buffers will be    131072 words long.
 Raffenetti 2 integral format.
 Two-electron integral symmetry is turned off.
 One-electron integrals computed using PRISM.
 NBasis=   568 RedAO= T EigKep=  1.78D-06  NBF=   568
 NBsUse=   556 1.00D-06 EigRej=  9.09D-07 NBFU=   556
 ExpMin= 4.38D-02 ExpMax= 4.56D+03 ExpMxC= 6.82D+02 IAcc=2 IRadAn=         4 AccDes= 0.00D+00
 Harris functional with IExCor=  402 and IRadAn=       4 diagonalized for initial guess.
 HarFok:  IExCor=  402 AccDes= 0.00D+00 IRadAn=         4 IDoV= 1 UseB2=F ITyADJ=14
 ICtDFT=  3500011 ScaDFX=  1.000000  1.000000  1.000000  1.000000
 FoFCou: FMM=F IPFlag=           0 FMFlag=      100000 FMFlg1=        2001
         NFxFlg=           0 DoJE=T BraDBF=F KetDBF=T FulRan=T
         wScrn=  0.000000 ICntrl=     500 IOpCl=  0 I1Cent=   200000004 NGrid=           0
         NMat0=    1 NMatS0=      1 NMatT0=    0 NMatD0=    1 NMtDS0=    0 NMtDT0=    0
 Symmetry not used in FoFCou.
 Requested convergence on RMS density matrix=1.00D-08 within 128 cycles.
 Requested convergence on MAX density matrix=1.00D-06.
 Requested convergence on             energy=1.00D-06.
 No special actions if energy rises.
 SCF Done:  E(RB3LYP) =  -847.003289847     A.U. after   15 cycles
            NFock= 15  Conv=0.75D-08     -V/T= 2.0040
 DoSCS=F DFT=T ScalE2(SS,OS)=  1.000000  1.000000
 Range of M.O.s used for correlation:     1   556
 NBasis=   568 NAE=    73 NBE=    73 NFC=     0 NFV=     0
 NROrb=    556 NOA=    73 NOB=    73 NVA=   483 NVB=   483

 **** Warning!!: The largest alpha MO coefficient is  0.10971038D+03

          Differentiating once with respect to magnetic field using GIAOs.
          Electric field/nuclear overlap derivatives assumed to be zero.
 FoFCou: FMM=F IPFlag=           0 FMFlag=      100000 FMFlg1=        2001
         NFxFlg=           0 DoJE=F BraDBF=F KetDBF=T FulRan=T
         wScrn=  0.000000 ICntrl=    6100 IOpCl=  0 I1Cent=           7 NGrid=         236
         NMat0=    1 NMatS0=      1 NMatT0=    0 NMatD0=    1 NMtDS0=    0 NMtDT0=    0
 Symmetry not used in FoFCou.
 FoFJK:  IHMeth= 1 ICntrl=    6127 DoSepK=F KAlg= 0 I1Cent=   0 FoldK=F
 IRaf=         1 NMat=   1 IRICut=       1 DoRegI=T DoRafI=F ISym2E= 0.
          There are     3 degrees of freedom in the 1st order CPHF.  IDoFFX=0 NUNeed=     3.
      3 vectors produced by pass  0 Test12= 1.18D-12 3.33D-08 XBig12= 2.07D+03 9.18D+00.
 AX will form     3 AO Fock derivatives at one time.
      3 vectors produced by pass  1 Test12= 1.18D-12 3.33D-08 XBig12= 3.56D+00 8.03D-01.
      3 vectors produced by pass  2 Test12= 1.18D-12 3.33D-08 XBig12= 2.10D-02 6.92D-02.
      3 vectors produced by pass  3 Test12= 1.18D-12 3.33D-08 XBig12= 5.45D-05 1.89D-03.
      3 vectors produced by pass  4 Test12= 1.18D-12 3.33D-08 XBig12= 1.20D-07 7.79D-05.
      3 vectors produced by pass  5 Test12= 1.18D-12 3.33D-08 XBig12= 4.02D-10 4.73D-06.
      3 vectors produced by pass  6 Test12= 1.18D-12 3.33D-08 XBig12= 1.32D-12 2.61D-07.
 InvSVY:  IOpt=1 It=  1 EMax= 7.11D-15
 Solved reduced A of dimension    21 with     3 vectors.
 Calculating GIAO nuclear magnetic shielding tensors.
 SCF GIAO Magnetic shielding tensor (ppm):
      1  C    Isotropic =    53.8139   Anisotropy =   178.0260
   XX=   -41.4327   YX=   -32.3458   ZX=    10.0287
   XY=   -28.3572   YY=    59.0527   ZY=    55.1899
   XZ=    13.1759   YZ=    58.7550   ZZ=   143.8218
   Eigenvalues:   -53.8775    42.8214   172.4979
      2  H    Isotropic =    24.3095   Anisotropy =     4.8536
   XX=    25.5771   YX=    -1.0289   ZX=     0.5661
   XY=    -0.7431   YY=    26.1829   ZY=    -2.3306
   XZ=    -0.1707   YZ=    -2.4411   ZZ=    21.1687
   Eigenvalues:    20.2108    25.1725    27.5453
      3  C    Isotropic =    51.4055   Anisotropy =   157.8639
   XX=   -31.5399   YX=    38.5015   ZX=   -17.9316
   XY=    34.3519   YY=    49.9437   ZY=    49.6392
   XZ=    -9.8383   YZ=    44.6006   ZZ=   135.8127
   Eigenvalues:   -50.5747    48.1432   156.6481
      4  H    Isotropic =    23.8290   Anisotropy =     7.1838
   XX=    25.3635   YX=     1.8486   ZX=    -0.3559
   XY=     1.9656   YY=    26.4581   ZY=    -2.4103
   XZ=    -1.2941   YZ=    -2.6614   ZZ=    19.6654
   Eigenvalues:    18.8176    24.0511    28.6182
      5  C    Isotropic =    46.0697   Anisotropy =   207.6751
   XX=   -19.2123   YX=    -4.8852   ZX=    -1.6475
   XY=     2.8938   YY=    -2.9860   ZY=    66.5656
   XZ=     2.5356   YZ=    67.9144   ZZ=   160.4073
   Eigenvalues:   -27.2455   -19.0652   184.5197
      6  C    Isotropic =    47.5218   Anisotropy =   196.9389
   XX=   -28.1552   YX=    -2.7889   ZX=    12.0660
   XY=   -14.3886   YY=    21.2063   ZY=    74.2521
   XZ=   -18.6356   YZ=    61.1113   ZZ=   149.5144
   Eigenvalues:   -30.2925    -5.9564   178.8144
      7  C    Isotropic =    49.3915   Anisotropy =   179.8333
   XX=   -12.5211   YX=    28.7048   ZX=   -24.6745
   XY=    31.5123   YY=    29.7000   ZY=    77.7459
   XZ=   -40.0095   YZ=    65.3072   ZZ=   130.9956
   Eigenvalues:   -52.1299    31.0240   169.2804
      8  H    Isotropic =    23.1586   Anisotropy =    13.5525
   XX=    28.5711   YX=     1.5482   ZX=    -3.6986
   XY=     3.2466   YY=    22.7592   ZY=    -2.1157
   XZ=    -8.3753   YZ=    -1.0821   ZZ=    18.1456
   Eigenvalues:    15.3521    21.9301    32.1936
      9  C    Isotropic =    55.1460   Anisotropy =   174.7426
   XX=    46.7071   YX=    -2.6162   ZX=    -2.8420
   XY=     0.6223   YY=    -1.6258   ZY=    92.8272
   XZ=     0.5159   YZ=    95.6598   ZZ=   120.3568
   Eigenvalues:   -52.8932    46.6901   171.6411
     10  H    Isotropic =    24.6278   Anisotropy =     7.1815
   XX=    29.1040   YX=     0.1399   ZX=    -0.3694
   XY=     0.3642   YY=    23.4778   ZY=    -1.0805
   XZ=    -2.4493   YZ=    -2.9465   ZZ=    21.3016
   Eigenvalues:    19.9703    24.4977    29.4155
     11  C    Isotropic =    51.5607   Anisotropy =   151.2142
   XX=     2.1639   YX=    40.9287   ZX=   -26.0048
   XY=    49.9131   YY=    12.2331   ZY=    42.1342
   XZ=   -15.6145   YZ=    38.6614   ZZ=   140.2851
   Eigenvalues:   -48.1951    50.5071   152.3701
     12  H    Isotropic =    23.8537   Anisotropy =     7.3815
   XX=    25.9672   YX=     2.3738   ZX=    -0.2390
   XY=     2.4320   YY=    26.3975   ZY=    -1.8291
   XZ=     0.3529   YZ=    -1.7731   ZZ=    19.1964
   Eigenvalues:    18.7149    24.0714    28.7747
     13  C    Isotropic =    52.8653   Anisotropy =   147.4265
   XX=    51.2944   YX=    19.9221   ZX=   -13.4678
   XY=    11.5478   YY=   -34.0176   ZY=    42.5079
   XZ=    -9.2241   YZ=    40.0716   ZZ=   141.3192
   Eigenvalues:   -46.5152    53.9616   151.1497
     14  H    Isotropic =    24.0156   Anisotropy =     7.3485
   XX=    28.6644   YX=     0.6281   ZX=     1.0808
   XY=     0.5926   YY=    24.4325   ZY=    -1.0823
   XZ=     1.6846   YZ=    -0.3842   ZZ=    18.9500
   Eigenvalues:    18.6430    24.4892    28.9146
     15  C    Isotropic =    46.2221   Anisotropy =   203.9048
   XX=   -27.2215   YX=    -0.0442   ZX=   -28.9124
   XY=     4.6427   YY=   -10.5571   ZY=    28.3830
   XZ=   -10.2704   YZ=    26.7376   ZZ=   176.4448
   Eigenvalues:   -30.5512   -12.9411   182.1586
     16  C    Isotropic =    51.9375   Anisotropy =   188.2004
   XX=   -19.4441   YX=     5.5046   ZX=    15.7858
   XY=    -8.3874   YY=     2.4863   ZY=    22.9264
   XZ=   -50.6243   YZ=    23.3340   ZZ=   172.7704
   Eigenvalues:   -21.0294    -0.5625   177.4045
     17  C    Isotropic =    51.9482   Anisotropy =   149.1264
   XX=    50.7296   YX=   -23.9353   ZX=   -18.4207
   XY=   -16.7271   YY=   -41.8764   ZY=    17.8662
   XZ=   -14.3278   YZ=    11.4871   ZZ=   146.9915
   Eigenvalues:   -46.7796    51.2584   151.3658
     18  H    Isotropic =    24.0122   Anisotropy =     7.5163
   XX=    28.5811   YX=    -0.0866   ZX=     1.5071
   XY=    -0.2466   YY=    24.3342   ZY=    -0.7657
   XZ=     2.5088   YZ=    -1.5208   ZZ=    19.1214
   Eigenvalues:    18.5094    24.5041    29.0231
     19  C    Isotropic =    51.7356   Anisotropy =   148.5924
   XX=     2.4559   YX=   -45.6913   ZX=   -31.2531
   XY=   -53.4448   YY=     7.4698   ZY=    -1.8888
   XZ=   -23.5601   YZ=    -1.2765   ZZ=   145.2810
   Eigenvalues:   -46.9894    51.3989   150.7972
     20  H    Isotropic =    23.9071   Anisotropy =     7.6651
   XX=    25.5796   YX=    -2.0226   ZX=     1.4905
   XY=    -1.9998   YY=    27.3706   ZY=    -0.5164
   XZ=     2.7276   YZ=    -1.1179   ZZ=    18.7711
   Eigenvalues:    18.1643    24.5398    29.0172
     21  C    Isotropic =    45.9767   Anisotropy =   203.9316
   XX=   -16.2108   YX=    13.1802   ZX=   -44.5913
   XY=     6.5714   YY=   -20.6329   ZY=     0.0949
   XZ=   -28.8984   YZ=   -13.0883   ZZ=   174.7736
   Eigenvalues:   -30.5796   -13.4215   181.9311
     22  C    Isotropic =    52.0450   Anisotropy =   188.1157
   XX=    -0.0787   YX=     2.5023   ZX=   -16.3451
   XY=    18.9327   YY=   -14.4798   ZY=   -34.4335
   XZ=   -50.6032   YZ=    19.9104   ZZ=   170.6934
   Eigenvalues:   -20.7705    -0.5500   177.4554
     23  C    Isotropic =    53.2392   Anisotropy =   146.7412
   XX=   -22.0674   YX=   -32.0012   ZX=   -49.4857
   XY=   -23.2043   YY=    44.3661   ZY=   -15.6400
   XZ=   -43.8090   YZ=   -20.2525   ZZ=   137.4189
   Eigenvalues:   -45.6776    54.3286   151.0667
     24  H    Isotropic =    23.8249   Anisotropy =     7.5289
   XX=    25.1073   YX=    -1.7330   ZX=     1.5380
   XY=    -1.5944   YY=    28.0047   ZY=     0.0879
   XZ=     1.2557   YZ=    -0.8283   ZZ=    18.3628
   Eigenvalues:    18.0848    24.5458    28.8442
     25  C    Isotropic =    51.4969   Anisotropy =   150.1066
   XX=   -28.4915   YX=    33.9684   ZX=   -52.3137
   XY=    22.0311   YY=    46.6072   ZY=    -3.8075
   XZ=   -44.5594   YZ=   -10.6355   ZZ=   136.3748
   Eigenvalues:   -48.3857    51.3083   151.5679
     26  H    Isotropic =    23.7431   Anisotropy =     7.4052
   XX=    24.0663   YX=     1.1141   ZX=     1.9989
   XY=     0.9693   YY=    28.1000   ZY=     1.6568
   XZ=     2.0795   YZ=     0.8886   ZZ=    19.0630
   Eigenvalues:    18.2615    24.2880    28.6799
     27  C    Isotropic =    45.8108   Anisotropy =   207.2710
   XX=    -2.7702   YX=    13.7697   ZX=   -61.4651
   XY=     6.5593   YY=   -12.0335   ZY=   -41.6456
   XZ=   -62.6381   YZ=   -44.9232   ZZ=   152.2361
   Eigenvalues:   -28.0803   -18.4787   183.9915
     28  C    Isotropic =    47.8398   Anisotropy =   197.2870
   XX=    19.6900   YX=    14.4398   ZX=   -60.5682
   XY=    28.5650   YY=   -19.3566   ZY=   -56.7015
   XZ=   -63.1331   YZ=   -24.4782   ZZ=   143.1859
   Eigenvalues:   -30.5979    -5.2472   179.3644
     29  C    Isotropic =    49.3441   Anisotropy =   179.7793
   XX=    -3.4110   YX=    38.3775   ZX=   -80.8875
   XY=    36.1252   YY=    25.9805   ZY=   -23.7573
   XZ=   -78.1065   YZ=    -3.9802   ZZ=   125.4627
   Eigenvalues:   -51.6645    30.4997   169.1970
     30  H    Isotropic =    23.1387   Anisotropy =    13.3222
   XX=    22.4354   YX=    -0.7013   ZX=    -0.2375
   XY=    -2.1539   YY=    28.3546   ZY=     4.5555
   XZ=    -3.4181   YZ=     8.3231   ZZ=    18.6259
   Eigenvalues:    15.2751    22.1208    32.0201
     31  C    Isotropic =    55.4410   Anisotropy =   174.9390
   XX=    17.1871   YX=   -14.0890   ZX=   -84.0024
   XY=   -17.9030   YY=    37.4745   ZY=   -50.3662
   XZ=   -84.6557   YZ=   -54.8325   ZZ=   111.6615
   Eigenvalues:   -51.9248    46.1808   172.0670
     32  H    Isotropic =    24.5337   Anisotropy =     7.2554
   XX=    24.6185   YX=    -2.5264   ZX=     0.7632
   XY=    -2.7385   YY=    27.4630   ZY=     1.0335
   XZ=     1.1913   YZ=     3.7573   ZZ=    21.5194
   Eigenvalues:    19.8987    24.3316    29.3706
     33  C    Isotropic =    53.1814   Anisotropy =   179.0596
   XX=    60.9231   YX=    35.2256   ZX=   -42.9515
   XY=    32.0226   YY=   -38.1801   ZY=   -45.5652
   XZ=   -44.2248   YZ=   -50.7831   ZZ=   136.8014
   Eigenvalues:   -55.1197    42.1095   172.5545
     34  H    Isotropic =    24.2825   Anisotropy =     5.1861
   XX=    26.7643   YX=    -0.0934   ZX=     2.5955
   XY=    -0.2993   YY=    24.8157   ZY=     0.8589
   XZ=     2.3715   YZ=     1.4580   ZZ=    21.2676
   Eigenvalues:    20.0339    25.0737    27.7399
     35  C    Isotropic =    51.5295   Anisotropy =   155.1748
   XX=    -0.5131   YX=    52.5760   ZX=   -52.1551
   XY=    55.6135   YY=    25.1843   ZY=   -14.2643
   XZ=   -45.7255   YZ=   -17.1625   ZZ=   129.9171
   Eigenvalues:   -48.3147    47.9237   154.9793
     36  H    Isotropic =    23.8384   Anisotropy =     7.3073
   XX=    24.2302   YX=     1.4459   ZX=     2.1759
   XY=     1.2147   YY=    27.1572   ZY=     2.0665
   XZ=     1.6853   YZ=     2.7775   ZZ=    20.1277
   Eigenvalues:    18.9464    23.8588    28.7099
     37  Bq   Isotropic =     9.2392   Anisotropy =    10.1886
   XX=    10.5348   YX=    -0.3141   ZX=     5.2786
   XY=    -0.9224   YY=    14.3758   ZY=    -0.3097
   XZ=    -0.2533   YZ=    -7.8786   ZZ=     2.8071
   Eigenvalues:     0.9879    10.6982    16.0316
     38  Bq   Isotropic =     4.8611   Anisotropy =    11.1134
   XX=     6.9208   YX=     3.6905   ZX=     3.7315
   XY=     2.3672   YY=     9.5975   ZY=    -0.2677
   XZ=    -3.2806   YZ=    -7.3616   ZZ=    -1.9348
   Eigenvalues:    -3.2065     5.5198    12.2701
     39  Bq   Isotropic =    11.0601   Anisotropy =    11.8598
   XX=    12.4128   YX=    -2.3394   ZX=     5.2804
   XY=    -2.3986   YY=    16.1829   ZY=    -0.4139
   XZ=     0.7258   YZ=    -7.4284   ZZ=     4.5845
   Eigenvalues:     2.8495    11.3641    18.9666
     40  Bq   Isotropic =     3.8671   Anisotropy =    11.9742
   XX=     6.2199   YX=     4.3263   ZX=     3.0148
   XY=     2.9492   YY=     8.3845   ZY=    -0.3830
   XZ=    -4.1351   YZ=    -7.0163   ZZ=    -3.0032
   Eigenvalues:    -4.1259     3.8773    11.8499
     41  Bq   Isotropic =    12.8392   Anisotropy =    13.7674
   XX=    14.5239   YX=    -4.5391   ZX=     4.8553
   XY=    -3.8532   YY=    17.7980   ZY=    -0.4641
   XZ=     1.5683   YZ=    -6.3331   ZZ=     6.1956
   Eigenvalues:     4.7751    11.7250    22.0175
     42  Bq   Isotropic =     3.0738   Anisotropy =    12.5670
   XX=     5.6548   YX=     4.6930   ZX=     2.3086
   XY=     3.3051   YY=     7.3474   ZY=    -0.5317
   XZ=    -4.8590   YZ=    -6.6802   ZZ=    -3.7807
   Eigenvalues:    -4.8479     2.6175    11.4519
     43  Bq   Isotropic =    14.3167   Anisotropy =    15.3831
   XX=    16.5872   YX=    -6.6738   ZX=     3.9426
   XY=    -5.0825   YY=    18.8743   ZY=    -0.3771
   XZ=     2.2028   YZ=    -4.4351   ZZ=     7.4885
   Eigenvalues:     6.5095    11.8685    24.5721
     44  Bq   Isotropic =     2.4483   Anisotropy =    12.8852
   XX=     5.1776   YX=     4.8522   ZX=     1.6507
   XY=     3.4788   YY=     6.4639   ZY=    -0.6902
   XZ=    -5.4418   YZ=    -6.3640   ZZ=    -4.2968
   Eigenvalues:    -5.3933     1.6997    11.0384
     45  Bq   Isotropic =    15.2013   Anisotropy =    16.3739
   XX=    18.1734   YX=    -8.4318   ZX=     2.5745
   XY=    -5.8823   YY=    19.0396   ZY=    -0.1122
   XZ=     2.5877   YZ=    -1.7569   ZZ=     8.3908
   Eigenvalues:     7.6540    11.8327    26.1172
     46  Bq   Isotropic =     7.5518   Anisotropy =     9.5459
   XX=     9.0066   YX=     1.3938   ZX=     4.9501
   XY=     0.4174   YY=    12.6104   ZY=    -0.2276
   XZ=    -1.2918   YZ=    -7.8989   ZZ=     1.0385
   Eigenvalues:    -0.6666     9.4064    13.9157
     47  Bq   Isotropic =     7.7534   Anisotropy =     9.0965
   XX=     9.5343   YX=     2.5686   ZX=     4.0563
   XY=     1.2422   YY=    11.4971   ZY=    -0.1037
   XZ=    -4.0198   YZ=    -8.1757   ZZ=     2.2288
   Eigenvalues:     0.5932     8.8492    13.8177
     48  Bq   Isotropic =    11.7865   Anisotropy =     9.3591
   XX=    12.8663   YX=    -0.9007   ZX=     4.6477
   XY=    -1.7450   YY=    15.2539   ZY=    -0.5554
   XZ=    -2.2544   YZ=    -8.9438   ZZ=     7.2394
   Eigenvalues:     4.9959    12.3377    18.0259
     49  Bq   Isotropic =     6.1960   Anisotropy =    10.5797
   XX=     8.4063   YX=     3.6697   ZX=     3.4282
   XY=     2.2684   YY=     9.9656   ZY=    -0.1245
   XZ=    -4.8557   YZ=    -7.6990   ZZ=     0.2161
   Eigenvalues:    -1.1704     6.5092    13.2491
     50  Bq   Isotropic =    14.1367   Anisotropy =    11.5565
   XX=    15.1849   YX=    -3.1792   ZX=     4.3655
   XY=    -3.5183   YY=    17.3623   ZY=    -1.0369
   XZ=    -1.4370   YZ=    -8.9033   ZZ=     9.8629
   Eigenvalues:     7.3817    13.1873    21.8411
     51  Bq   Isotropic =     4.9312   Anisotropy =    11.8562
   XX=     7.5113   YX=     4.3926   ZX=     2.7208
   XY=     2.9746   YY=     8.6540   ZY=    -0.2508
   XZ=    -5.5986   YZ=    -7.2575   ZZ=    -1.3718
   Eigenvalues:    -2.6263     4.5845    12.8353
     52  Bq   Isotropic =    16.4570   Anisotropy =    13.8540
   XX=    17.8263   YX=    -5.6010   ZX=     3.5622
   XY=    -5.2111   YY=    19.3594   ZY=    -1.5963
   XZ=    -0.7281   YZ=    -8.2378   ZZ=    12.1854
   Eigenvalues:     9.4503    14.2277    25.6930
     53  Bq   Isotropic =     3.9207   Anisotropy =    12.7428
   XX=     6.7737   YX=     4.8059   ZX=     2.0091
   XY=     3.4044   YY=     7.5364   ZY=    -0.4321
   XZ=    -6.2199   YZ=    -6.8645   ZZ=    -2.5481
   Eigenvalues:    -3.7908     3.1369    12.4159
     54  Bq   Isotropic =    18.4094   Anisotropy =    15.7202
   XX=    20.4523   YX=    -7.8689   ZX=     2.2125
   XY=    -6.5502   YY=    20.8581   ZY=    -2.0912
   XZ=    -0.1537   YZ=    -6.6903   ZZ=    13.9179
   Eigenvalues:    10.9083    15.4305    28.8895
     55  Bq   Isotropic =     3.1223   Anisotropy =    13.2503
   XX=     6.1418   YX=     4.9823   ZX=     1.3427
   XY=     3.6146   YY=     6.5876   ZY=    -0.6284
   XZ=    -6.7056   YZ=    -6.5138   ZZ=    -3.3626
   Eigenvalues:    -4.6836     2.0947    11.9558
     56  Bq   Isotropic =    19.5945   Anisotropy =    16.8318
   XX=    22.5042   YX=    -9.6184   ZX=     0.4143
   XY=    -7.2834   YY=    21.3924   ZY=    -2.3790
   XZ=     0.2854   YZ=    -4.1811   ZZ=    14.8869
   Eigenvalues:    11.7947    16.1731    30.8157
     57  Bq   Isotropic =     9.6244   Anisotropy =     8.2766
   XX=    10.9911   YX=     1.0438   ZX=     4.5035
   XY=    -0.1128   YY=    13.2658   ZY=    -0.2379
   XZ=    -3.1344   YZ=    -8.6321   ZZ=     4.6162
   Eigenvalues:     2.6673    11.0638    15.1421
     58  Bq   Isotropic =     9.3953   Anisotropy =     8.0007
   XX=    11.0892   YX=     2.2090   ZX=     3.6577
   XY=     0.8574   YY=    11.9851   ZY=     0.2618
   XZ=    -5.9944   YZ=    -8.0850   ZZ=     5.1117
   Eigenvalues:     3.3164    10.1404    14.7292
     59  Bq   Isotropic =    14.1783   Anisotropy =     8.4308
   XX=    14.6587   YX=    -1.7872   ZX=     3.8145
   XY=    -2.7773   YY=    16.0331   ZY=    -0.4640
   XZ=    -4.7683   YZ=    -9.2923   ZZ=    11.8430
   Eigenvalues:     8.1897    14.5464    19.7988
     60  Bq   Isotropic =     7.5343   Anisotropy =    10.0121
   XX=     9.8386   YX=     3.4869   ZX=     3.0918
   XY=     2.0991   YY=    10.3453   ZY=     0.2204
   XZ=    -6.6360   YZ=    -7.5503   ZZ=     2.4190
   Eigenvalues:     0.9338     7.4601    14.2090
     61  Bq   Isotropic =    16.9557   Anisotropy =    11.0396
   XX=    17.1474   YX=    -4.3498   ZX=     3.0860
   XY=    -4.9118   YY=    18.3691   ZY=    -1.3488
   XZ=    -4.2834   YZ=    -9.6893   ZZ=    15.3505
   Eigenvalues:     9.5416    17.0100    24.3154
     62  Bq   Isotropic =     6.0137   Anisotropy =    11.7215
   XX=     8.8073   YX=     4.3265   ZX=     2.3982
   XY=     2.9479   YY=     8.9378   ZY=     0.0334
   XZ=    -7.2198   YZ=    -7.1060   ZZ=     0.2960
   Eigenvalues:    -1.0985     5.3116    13.8281
     63  Bq   Isotropic =    19.7036   Anisotropy =    13.6261
   XX=    20.0402   YX=    -6.9733   ZX=     1.6899
   XY=    -6.8850   YY=    20.6852   ZY=    -2.5184
   XZ=    -3.8849   YZ=    -9.5795   ZZ=    18.3853
   Eigenvalues:    10.1292    20.1939    28.7876
     64  Bq   Isotropic =     4.7913   Anisotropy =    12.9122
   XX=     7.9244   YX=     4.8084   ZX=     1.6804
   XY=     3.4621   YY=     7.7360   ZY=    -0.2195
   XZ=    -7.7050   YZ=    -6.7358   ZZ=    -1.2865
   Eigenvalues:    -2.7386     3.7132    13.3994
     65  Bq   Isotropic =    22.0308   Anisotropy =    15.6465
   XX=    22.9982   YX=    -9.2733   ZX=    -0.3159
   XY=    -8.3260   YY=    22.5957   ZY=    -3.7706
   XZ=    -3.5000   YZ=    -8.6083   ZZ=    20.4984
   Eigenvalues:    10.5239    23.1066    32.4618
     66  Bq   Isotropic =     3.8201   Anisotropy =    13.6140
   XX=     7.1466   YX=     5.0189   ZX=     1.0045
   XY=     3.7148   YY=     6.7159   ZY=    -0.4824
   XZ=    -8.0688   YZ=    -6.4148   ZZ=    -2.4024
   Eigenvalues:    -3.9956     2.5597    12.8961
     67  Bq   Isotropic =    23.4583   Anisotropy =    16.8135
   XX=    25.3895   YX=   -10.8365   ZX=    -2.6914
   XY=    -8.9257   YY=    23.5775   ZY=    -4.8237
   XZ=    -3.0255   YZ=    -6.5594   ZZ=    21.4079
   Eigenvalues:    10.9297    24.7779    34.6673
     68  Bq   Isotropic =    11.6190   Anisotropy =     6.9365
   XX=    12.6594   YX=     0.4438   ZX=     3.9542
   XY=    -0.7913   YY=    13.8813   ZY=     0.0622
   XZ=    -5.3517   YZ=    -8.6940   ZZ=     8.3163
   Eigenvalues:     5.8919    12.7218    16.2433
     69  Bq   Isotropic =    10.8603   Anisotropy =     7.0136
   XX=    12.2906   YX=     1.6749   ZX=     3.3152
   XY=     0.4561   YY=    12.5502   ZY=     0.8857
   XZ=    -8.1111   YZ=    -7.2811   ZZ=     7.7401
   Eigenvalues:     5.6882    11.3565    15.5360
     70  Bq   Isotropic =    16.0795   Anisotropy =     7.3364
   XX=    15.4141   YX=    -2.9386   ZX=     2.9564
   XY=    -3.8795   YY=    16.8255   ZY=     0.0520
   XZ=    -7.6339   YZ=    -8.6444   ZZ=    15.9988
   Eigenvalues:     9.3783    17.8897    20.9704
     71  Bq   Isotropic =     8.7755   Anisotropy =     9.5072
   XX=    11.0945   YX=     3.1595   ZX=     2.7994
   XY=     1.9167   YY=    10.7960   ZY=     0.7520
   XZ=    -8.5115   YZ=    -6.8352   ZZ=     4.4359
   Eigenvalues:     2.8014     8.4115    15.1136
     72  Bq   Isotropic =    19.0341   Anisotropy =    10.2893
   XX=    17.5607   YX=    -5.8246   ZX=     1.6343
   XY=    -6.4271   YY=    19.3043   ZY=    -1.1846
   XZ=    -7.6578   YZ=    -9.4171   ZZ=    20.2374
   Eigenvalues:     9.1816    22.0271    25.8937
     73  Bq   Isotropic =     7.0467   Anisotropy =    11.6251
   XX=    10.0291   YX=     4.1366   ZX=     2.1006
   XY=     2.9046   YY=     9.2772   ZY=     0.4504
   XZ=    -8.9101   YZ=    -6.5126   ZZ=     1.8339
   Eigenvalues:     0.2308     6.1126    14.7968
     74  Bq   Isotropic =    21.9183   Anisotropy =    13.1709
   XX=    20.1466   YX=    -8.6446   ZX=    -0.5836
   XY=    -8.7303   YY=    21.8375   ZY=    -2.9701
   XZ=    -7.7661   YZ=    -9.9103   ZZ=    23.7707
   Eigenvalues:     8.5926    26.4634    30.6989
     75  Bq   Isotropic =     5.6394   Anisotropy =    13.1054
   XX=     9.0547   YX=     4.7024   ZX=     1.3597
   XY=     3.4981   YY=     7.9740   ZY=     0.0888
   XZ=    -9.2439   YZ=    -6.2635   ZZ=    -0.1105
   Eigenvalues:    -1.8470     4.3889    14.3764
     76  Bq   Isotropic =    24.3450   Anisotropy =    15.3711
   XX=    22.9485   YX=   -10.8890   ZX=    -3.5057
   XY=   -10.2932   YY=    24.0882   ZY=    -5.0514
   XZ=    -7.7245   YZ=    -9.6913   ZZ=    25.9983
   Eigenvalues:     8.1916    30.2510    34.5924
     77  Bq   Isotropic =     4.5095   Anisotropy =    13.9913
   XX=     8.1558   YX=     4.9597   ZX=     0.6623
   XY=     3.7895   YY=     6.8677   ZY=    -0.2657
   XZ=    -9.4760   YZ=    -6.0473   ZZ=    -1.4949
   Eigenvalues:    -3.4289     3.1205    13.8371
     78  Bq   Isotropic =    25.8419   Anisotropy =    16.6368
   XX=    25.4026   YX=   -12.0874   ZX=    -6.6501
   XY=   -10.7325   YY=    25.5367   ZY=    -6.9821
   XZ=    -7.2472   YZ=    -8.3829   ZZ=    26.5863
   Eigenvalues:     8.2277    32.3649    36.9331
     79  Bq   Isotropic =    13.3099   Anisotropy =     5.6260
   XX=    13.6934   YX=    -0.3720   ZX=     3.4471
   XY=    -1.5033   YY=    14.5587   ZY=     0.7055
   XZ=    -7.7923   YZ=    -7.8890   ZZ=    11.6777
   Eigenvalues:     8.2511    14.6181    17.0606
     80  Bq   Isotropic =    12.0158   Anisotropy =     6.2947
   XX=    13.0075   YX=     1.0748   ZX=     3.1552
   XY=     0.1835   YY=    13.2661   ZY=     1.6978
   XZ=   -10.1709   YZ=    -5.7374   ZZ=     9.7738
   Eigenvalues:     7.2048    12.6304    16.2123
     81  Bq   Isotropic =    17.2060   Anisotropy =     6.5801
   XX=    14.7810   YX=    -4.1387   ZX=     2.3436
   XY=    -4.7584   YY=    17.7768   ZY=     0.9856
   XZ=   -10.5348   YZ=    -6.8403   ZZ=    19.0602
   Eigenvalues:     9.0526    20.9727    21.5928
     82  Bq   Isotropic =     9.8280   Anisotropy =     9.1291
   XX=    12.0903   YX=     2.7567   ZX=     2.6332
   XY=     1.8133   YY=    11.3641   ZY=     1.4040
   XZ=   -10.3304   YZ=    -5.5545   ZZ=     6.0297
   Eigenvalues:     4.0442     9.5258    15.9141
     83  Bq   Isotropic =    19.9652   Anisotropy =     9.8645
   XX=    15.8769   YX=    -7.3353   ZX=     0.3655
   XY=    -7.6992   YY=    20.3383   ZY=    -0.4566
   XZ=   -11.1871   YZ=    -7.8188   ZZ=    23.6804
   Eigenvalues:     7.4143    25.9398    26.5415
     84  Bq   Isotropic =     7.9660   Anisotropy =    11.6076
   XX=    11.1194   YX=     3.8641   ZX=     1.8815
   XY=     2.8999   YY=     9.7000   ZY=     0.9464
   XZ=   -10.5545   YZ=    -5.4890   ZZ=     3.0788
   Eigenvalues:     1.1124     7.0813    15.7045
     85  Bq   Isotropic =    22.5487   Anisotropy =    13.1930
   XX=    17.3663   YX=   -10.3174   ZX=    -2.8363
   XY=   -10.3409   YY=    22.9844   ZY=    -2.7187
   XZ=   -11.9564   YZ=    -8.8387   ZZ=    27.2954
   Eigenvalues:     5.4403    30.8617    31.3440
     86  Bq   Isotropic =     6.4194   Anisotropy =    13.3467
   XX=    10.1226   YX=     4.5110   ZX=     1.0830
   XY=     3.5438   YY=     8.2673   ZY=     0.4522
   XZ=   -10.7496   YZ=    -5.4615   ZZ=     0.8683
   Eigenvalues:    -1.2617     5.2026    15.3172
     87  Bq   Isotropic =    24.6623   Anisotropy =    15.6608
   XX=    19.3231   YX=   -12.4244   ZX=    -6.9083
   XY=   -12.0542   YY=    25.4632   ZY=    -5.5165
   XZ=   -12.3908   YZ=    -9.4234   ZZ=    29.2004
   Eigenvalues:     3.8911    34.9930    35.1028
     88  Bq   Isotropic =     5.1583   Anisotropy =    14.3934
   XX=     9.1374   YX=     4.8163   ZX=     0.3417
   XY=     3.8552   YY=     7.0537   ZY=    -0.0069
   XZ=   -10.8607   YZ=    -5.4230   ZZ=    -0.7163
   Eigenvalues:    -3.0665     3.7874    14.7539
     89  Bq   Isotropic =    25.9728   Anisotropy =    17.5792
   XX=    21.4741   YX=   -13.1160   ZX=   -11.0346
   XY=   -12.3646   YY=    27.3203   ZY=    -8.2426
   XZ=   -11.9480   YZ=    -9.0242   ZZ=    29.1241
   Eigenvalues:     3.3237    36.9026    37.6923
     90  Bq   Isotropic =    14.5033   Anisotropy =     4.8849
   XX=    13.8788   YX=    -1.2445   ZX=     3.1725
   XY=    -2.0346   YY=    15.4070   ZY=     1.6366
   XZ=   -10.2007   YZ=    -6.1387   ZZ=    14.2242
   Eigenvalues:     9.2984    16.4517    17.7599
     91  Bq   Isotropic =    12.7879   Anisotropy =     5.9235
   XX=    13.2553   YX=     0.5907   ZX=     3.2758
   XY=     0.2139   YY=    14.1501   ZY=     2.5582
   XZ=   -11.9331   YZ=    -3.5655   ZZ=    10.9583
   Eigenvalues:     7.6247    14.0021    16.7369
     92  Bq   Isotropic =    17.4411   Anisotropy =     9.8146
   XX=    12.7987   YX=    -4.9706   ZX=     2.2583
   XY=    -4.9984   YY=    18.9725   ZY=     2.2026
   XZ=   -13.0158   YZ=    -3.9243   ZZ=    20.5522
   Eigenvalues:     7.9089    20.4303    23.9842
     93  Bq   Isotropic =    10.6330   Anisotropy =     8.8933
   XX=    12.8246   YX=     2.3901   ZX=     2.6499
   XY=     1.8923   YY=    12.0511   ZY=     2.0659
   XZ=   -11.9207   YZ=    -3.8096   ZZ=     7.0232
   Eigenvalues:     4.4452    10.8919    16.5619
     94  Bq   Isotropic =    19.6046   Anisotropy =    14.0334
   XX=    12.1213   YX=    -8.3170   ZX=    -0.2878
   XY=    -8.1600   YY=    21.6009   ZY=     0.7871
   XZ=   -14.2835   YZ=    -4.8279   ZZ=    25.0917
   Eigenvalues:     4.7074    25.1462    28.9602
     95  Bq   Isotropic =     8.7252   Anisotropy =    11.6939
   XX=    12.0650   YX=     3.5758   ZX=     1.7760
   XY=     2.9926   YY=    10.2016   ZY=     1.4403
   XZ=   -12.0286   YZ=    -4.1176   ZZ=     3.9090
   Eigenvalues:     1.4302     8.2242    16.5212
     96  Bq   Isotropic =    21.4243   Anisotropy =    18.0685
   XX=    11.6906   YX=   -11.2984   ZX=    -4.4699
   XY=   -11.0188   YY=    24.2852   ZY=    -1.6436
   XZ=   -15.7474   YZ=    -6.1315   ZZ=    28.2970
   Eigenvalues:     0.9767    29.8261    33.4699
     97  Bq   Isotropic =     7.0951   Anisotropy =    13.6526
   XX=    11.1092   YX=     4.2732   ZX=     0.8742
   XY=     3.6313   YY=     8.6101   ZY=     0.8144
   XZ=   -12.1306   YZ=    -4.3922   ZZ=     1.5660
   Eigenvalues:    -1.0412     6.1297    16.1968
     98  Bq   Isotropic =    22.7967   Anisotropy =    20.9944
   XX=    12.0837   YX=   -13.1229   ZX=    -9.7910
   XY=   -12.8506   YY=    26.8683   ZY=    -4.8080
   XZ=   -16.7119   YZ=    -7.3678   ZZ=    29.4381
   Eigenvalues:    -2.1493    33.7465    36.7929
     99  Bq   Isotropic =     5.7385   Anisotropy =    14.8278
   XX=    10.0711   YX=     4.6115   ZX=     0.0605
   XY=     3.9290   YY=     7.2694   ZY=     0.2561
   XZ=   -12.1547   YZ=    -4.5872   ZZ=    -0.1249
   Eigenvalues:    -2.9393     4.5311    15.6237
    100  Bq   Isotropic =    23.6667   Anisotropy =    22.1091
   XX=    13.5684   YX=   -13.1974   ZX=   -15.0528
   XY=   -13.1010   YY=    29.0000   ZY=    -7.9965
   XZ=   -16.3307   YZ=    -7.8467   ZZ=    28.4316
   Eigenvalues:    -3.5904    36.1844    38.4061
    101  Bq   Isotropic =    15.1061   Anisotropy =     6.3763
   XX=    13.2476   YX=    -1.8899   ZX=     3.3000
   XY=    -2.1066   YY=    16.4716   ZY=     2.7001
   XZ=   -12.2416   YZ=    -3.5417   ZZ=    15.5992
   Eigenvalues:     9.3219    16.6395    19.3570
    102  Bq   Isotropic =    13.1879   Anisotropy =     5.8851
   XX=    13.2375   YX=     0.4167   ZX=     3.6937
   XY=     0.6785   YY=    15.1208   ZY=     3.2900
   XZ=   -13.1680   YZ=    -1.0207   ZZ=    11.2054
   Eigenvalues:     7.1867    15.2657    17.1113
    103  Bq   Isotropic =    16.9165   Anisotropy =    12.9026
   XX=    10.0689   YX=    -4.9505   ZX=     2.8635
   XY=    -4.2201   YY=    20.3261   ZY=     3.4501
   XZ=   -14.5737   YZ=    -0.2078   ZZ=    20.3544
   Eigenvalues:     6.4829    18.7483    25.5182
    104  Bq   Isotropic =    11.1803   Anisotropy =     8.8033
   XX=    13.3980   YX=     2.1764   ZX=     2.8511
   XY=     2.2245   YY=    12.7920   ZY=     2.6106
   XZ=   -13.1263   YZ=    -1.7987   ZZ=     7.3510
   Eigenvalues:     4.1645    12.3273    17.0492
    105  Bq   Isotropic =    18.1991   Anisotropy =    17.7906
   XX=     7.1880   YX=    -8.0801   ZX=     0.0143
   XY=    -7.2408   YY=    23.0231   ZY=     2.3258
   XZ=   -16.2415   YZ=    -0.6910   ZZ=    24.3863
   Eigenvalues:     1.7296    22.8082    30.0595
    106  Bq   Isotropic =     9.3056   Anisotropy =    11.9089
   XX=    12.9073   YX=     3.3415   ZX=     1.7834
   XY=     3.2199   YY=    10.7338   ZY=     1.8451
   XZ=   -13.2236   YZ=    -2.5444   ZZ=     4.2756
   Eigenvalues:     1.2755     9.3963    17.2448
    107  Bq   Isotropic =    18.9364   Anisotropy =    22.1563
   XX=     4.3166   YX=   -10.6993   ZX=    -4.8953
   XY=   -10.0020   YY=    25.6881   ZY=     0.1558
   XZ=   -18.2238   YZ=    -1.8771   ZZ=    26.8046
   Eigenvalues:    -3.8919    26.9938    33.7073
    108  Bq   Isotropic =     7.6463   Anisotropy =    14.0370
   XX=    12.0240   YX=     4.0313   ZX=     0.7352
   XY=     3.7799   YY=     8.9692   ZY=     1.1172
   XZ=   -13.3083   YZ=    -3.1599   ZZ=     1.9456
   Eigenvalues:    -1.1369     7.0715    17.0043
    109  Bq   Isotropic =    19.2822   Anisotropy =    24.8861
   XX=     2.6649   YX=   -11.9745   ZX=   -11.2901
   XY=   -11.7896   YY=    28.2396   ZY=    -2.8210
   XZ=   -19.6159   YZ=    -3.3858   ZZ=    26.9422
   Eigenvalues:    -8.7791    30.7528    35.8730
    110  Bq   Isotropic =     6.2316   Anisotropy =    15.2991
   XX=    10.9513   YX=     4.3712   ZX=    -0.1765
   XY=     4.0206   YY=     7.4931   ZY=     0.4848
   XZ=   -13.2994   YZ=    -3.6128   ZZ=     0.2506
   Eigenvalues:    -3.0214     5.2853    16.4310
    111  Bq   Isotropic =    19.5479   Anisotropy =    25.1244
   XX=     3.2166   YX=   -11.3446   ZX=   -17.6276
   XY=   -12.0440   YY=    30.4417   ZY=    -5.9147
   XZ=   -19.2812   YZ=    -4.4859   ZZ=    24.9853
   Eigenvalues:   -11.2195    33.5657    36.2975
    112  Bq   Isotropic =    15.1734   Anisotropy =     8.4707
   XX=    12.1672   YX=    -1.9936   ZX=     3.8924
   XY=    -1.4880   YY=    17.6619   ZY=     3.6694
   XZ=   -13.5725   YZ=    -0.4005   ZZ=    15.6911
   Eigenvalues:     8.7499    15.9498    20.8205
    113  Bq   Isotropic =    13.3116   Anisotropy =     6.2850
   XX=    13.3034   YX=     0.6599   ZX=     4.3177
   XY=     1.5771   YY=    16.0018   ZY=     3.7398
   XZ=   -13.7274   YZ=     1.5401   ZZ=    10.6296
   Eigenvalues:     6.2766    16.1566    17.5016
    114  Bq   Isotropic =    15.9961   Anisotropy =    15.3552
   XX=     7.6704   YX=    -3.8055   ZX=     4.0923
   XY=    -2.3377   YY=    21.5415   ZY=     4.4289
   XZ=   -14.8265   YZ=     3.7347   ZZ=    18.7762
   Eigenvalues:     5.3816    16.3737    26.2328
    115  Bq   Isotropic =    11.5101   Anisotropy =     8.9517
   XX=    13.9879   YX=     2.1817   ZX=     3.1712
   XY=     2.8005   YY=    13.4622   ZY=     2.9367
   XZ=   -13.8502   YZ=     0.2197   ZZ=     7.0803
   Eigenvalues:     3.4981    13.5544    17.4779
    116  Bq   Isotropic =    16.3577   Anisotropy =    20.7366
   XX=     2.7480   YX=    -6.2270   ZX=     1.3316
   XY=    -4.7590   YY=    24.2593   ZY=     3.7945
   XZ=   -16.4677   YZ=     3.9592   ZZ=    22.0658
   Eigenvalues:    -0.5176    19.4086    30.1821
    117  Bq   Isotropic =     9.7187   Anisotropy =    12.2971
   XX=    13.7279   YX=     3.2033   ZX=     1.8633
   XY=     3.5715   YY=    11.2128   ZY=     2.0952
   XZ=   -14.0723   YZ=    -0.9518   ZZ=     4.2155
   Eigenvalues:     0.8285    10.4109    17.9168
    118  Bq   Isotropic =    15.9949   Anisotropy =    25.4583
   XX=    -2.4272   YX=    -8.0010   ZX=    -3.7983
   XY=    -6.9847   YY=    26.8084   ZY=     2.2878
   XZ=   -18.5402   YZ=     3.3173   ZZ=    23.6034
   Eigenvalues:    -7.6506    22.6681    32.9671
    119  Bq   Isotropic =     8.0711   Anisotropy =    14.5159
   XX=    12.8988   YX=     3.8137   ZX=     0.6439
   XY=     3.9817   YY=     9.2896   ZY=     1.3185
   XZ=   -14.2337   YZ=    -1.8915   ZZ=     2.0247
   Eigenvalues:    -1.4455     7.9103    17.7483
    120  Bq   Isotropic =    15.3127   Anisotropy =    28.3792
   XX=    -6.0674   YX=    -8.4022   ZX=   -10.7319
   XY=    -8.4579   YY=    29.1534   ZY=     0.0797
   XZ=   -20.0446   YZ=     2.0258   ZZ=    22.8522
   Eigenvalues:   -13.9780    25.6840    34.2322
    121  Bq   Isotropic =     6.6303   Anisotropy =    15.8110
   XX=    11.7849   YX=     4.1155   ZX=    -0.3788
   XY=     4.1248   YY=     7.6899   ZY=     0.6517
   XZ=   -14.2573   YZ=    -2.5878   ZZ=     0.4162
   Eigenvalues:    -3.2543     5.9743    17.1709
    122  Bq   Isotropic =    14.9728   Anisotropy =    28.8390
   XX=    -6.5066   YX=    -7.0471   ZX=   -17.7323
   XY=    -8.7460   YY=    31.1695   ZY=    -2.3032
   XZ=   -19.6722   YZ=     0.7081   ZZ=    20.2556
   Eigenvalues:   -17.2530    27.9727    34.1988
    123  Bq   Isotropic =    14.9018   Anisotropy =    10.3103
   XX=    11.2753   YX=    -1.3817   ZX=     4.8473
   XY=    -0.1516   YY=    18.7412   ZY=     4.3226
   XZ=   -13.9567   YZ=     2.8150   ZZ=    14.6888
   Eigenvalues:     7.9147    15.0153    21.7753
    124  Bq   Isotropic =    13.3038   Anisotropy =     7.4073
   XX=    13.8134   YX=     1.2589   ZX=     4.9715
   XY=     2.7311   YY=    16.5865   ZY=     3.8416
   XZ=   -13.6037   YZ=     3.7476   ZZ=     9.5114
   Eigenvalues:     5.2286    16.4407    18.2420
[...]
   150  Bq   0.000000
   151  Bq   0.000000
   152  Bq   0.000000
   153  Bq   0.000000
   154  Bq   0.000000
   155  Bq   0.000000
   156  Bq   0.000000
   157  Bq   0.000000
   158  Bq   0.000000
   159  Bq   0.000000
   160  Bq   0.000000
   161  Bq   0.000000
   162  Bq   0.000000
   163  Bq   0.000000
   164  Bq   0.000000
   165  Bq   0.000000
   166  Bq   0.000000
   167  Bq   0.000000
   168  Bq   0.000000
   169  Bq   0.000000
   170  Bq   0.000000
   171  Bq   0.000000
   172  Bq   0.000000
   173  Bq   0.000000
   174  Bq   0.000000
   175  Bq   0.000000
   176  Bq   0.000000
   177  Bq   0.000000
   178  Bq   0.000000
   179  Bq   0.000000
   180  Bq   0.000000
   181  Bq   0.000000
   182  Bq   0.000000
   183  Bq   0.000000
   184  Bq   0.000000
   185  Bq   0.000000
   186  Bq   0.000000
   187  Bq   0.000000
   188  Bq   0.000000
   189  Bq   0.000000
   190  Bq   0.000000
   191  Bq   0.000000
   192  Bq   0.000000
   193  Bq   0.000000
   194  Bq   0.000000
   195  Bq   0.000000
   196  Bq   0.000000
   197  Bq   0.000000
   198  Bq   0.000000
   199  Bq   0.000000
   200  Bq   0.000000
   201  Bq   0.000000
   202  Bq   0.000000
   203  Bq   0.000000
   204  Bq   0.000000
   205  Bq   0.000000
   206  Bq   0.000000
   207  Bq   0.000000
   208  Bq   0.000000
   209  Bq   0.000000
   210  Bq   0.000000
   211  Bq   0.000000
   212  Bq   0.000000
   213  Bq   0.000000
   214  Bq   0.000000
   215  Bq   0.000000
   216  Bq   0.000000
   217  Bq   0.000000
   218  Bq   0.000000
   219  Bq   0.000000
   220  Bq   0.000000
   221  Bq   0.000000
   222  Bq   0.000000
   223  Bq   0.000000
   224  Bq   0.000000
   225  Bq   0.000000
   226  Bq   0.000000
   227  Bq   0.000000
   228  Bq   0.000000
   229  Bq   0.000000
   230  Bq   0.000000
   231  Bq   0.000000
   232  Bq   0.000000
   233  Bq   0.000000
   234  Bq   0.000000
   235  Bq   0.000000
   236  Bq   0.000000
 Sum of Mulliken charges =   0.00000
 Mulliken charges with hydrogens summed into heavy atoms:
               1
     1  C   -0.255498
     3  C    0.169409
     5  C    0.448258
     6  C    0.064351
     7  C   -0.333926
     9  C   -0.139521
    11  C   -0.205988
    13  C   -0.119315
    15  C    0.653397
    16  C    0.034822
    17  C   -0.317410
    19  C   -0.316854
    21  C    0.651066
    22  C    0.037784
    23  C   -0.117289
    25  C   -0.205316
    27  C    0.448331
    28  C    0.061983
    29  C   -0.483043
    31  C   -0.261786
    33  C   -0.255977
    35  C    0.170579
    37  Bq   0.000000
    38  Bq   0.000000
    39  Bq   0.000000
    40  Bq   0.000000
    41  Bq   0.000000
    42  Bq   0.000000
    43  Bq   0.000000
    44  Bq   0.000000
    45  Bq   0.000000
    46  Bq   0.000000
    47  Bq   0.000000
    48  Bq   0.000000
    49  Bq   0.000000
    50  Bq   0.000000
    51  Bq   0.000000
    52  Bq   0.000000
    53  Bq   0.000000
    54  Bq   0.000000
    55  Bq   0.000000
    56  Bq   0.000000
    57  Bq   0.000000
    58  Bq   0.000000
    59  Bq   0.000000
    60  Bq   0.000000
    61  Bq   0.000000
    62  Bq   0.000000
    63  Bq   0.000000
    64  Bq   0.000000
    65  Bq   0.000000
    66  Bq   0.000000
    67  Bq   0.122281
    68  Bq   0.000000
    69  Bq   0.000000
    70  Bq   0.000000
    71  Bq   0.000000
    72  Bq   0.000000
    73  Bq   0.000000
    74  Bq   0.000000
    75  Bq   0.000000
    76  Bq   0.000000
    77  Bq   0.000000
    78  Bq   0.000000
    79  Bq   0.000000
    80  Bq   0.000000
    81  Bq   0.000000
    82  Bq   0.000000
    83  Bq   0.000000
    84  Bq   0.000000
    85  Bq   0.000000
    86  Bq   0.000000
    87  Bq   0.000000
    88  Bq   0.000000
    89  Bq   0.000000
    90  Bq   0.000000
    91  Bq   0.000000
    92  Bq   0.000000
    93  Bq   0.000000
    94  Bq   0.000000
    95  Bq   0.000000
    96  Bq   0.000000
    97  Bq   0.000000
    98  Bq   0.000000
    99  Bq   0.000000
   100  Bq   0.000000
   101  Bq   0.000000
   102  Bq   0.000000
   103  Bq   0.000000
   104  Bq   0.000000
   105  Bq   0.000000
   106  Bq   0.000000
   107  Bq   0.000000
   108  Bq   0.000000
   109  Bq   0.000000
   110  Bq   0.000000
   111  Bq   0.000000
   112  Bq   0.000000
   113  Bq   0.000000
   114  Bq   0.000000
   115  Bq   0.000000
   116  Bq   0.000000
   117  Bq   0.000000
   118  Bq   0.000000
   119  Bq   0.000000
   120  Bq   0.000000
   121  Bq   0.000000
   122  Bq   0.000000
   123  Bq   0.000000
   124  Bq   0.000000
   125  Bq   0.000000
   126  Bq   0.000000
   127  Bq   0.000000
   128  Bq   0.000000
   129  Bq   0.000000
   130  Bq   0.000000
   131  Bq   0.000000
   132  Bq   0.000000
   133  Bq   0.000000
   134  Bq   0.000000
   135  Bq   0.000000
   136  Bq   0.000000
   137  Bq   0.000000
   138  Bq   0.000000
   139  Bq   0.000000
   140  Bq   0.000000
   141  Bq   0.000000
   142  Bq   0.000000
   143  Bq   0.000000
   144  Bq   0.000000
   145  Bq   0.000000
   146  Bq   0.000000
   147  Bq   0.000000
   148  Bq   0.000000
   149  Bq   0.000000
   150  Bq   0.000000
   151  Bq   0.000000
   152  Bq   0.000000
   153  Bq   0.000000
   154  Bq   0.000000
   155  Bq   0.000000
   156  Bq   0.000000
   157  Bq   0.000000
   158  Bq   0.000000
   159  Bq   0.000000
   160  Bq   0.000000
   161  Bq   0.000000
   162  Bq   0.000000
   163  Bq   0.000000
   164  Bq   0.000000
   165  Bq   0.000000
   166  Bq   0.000000
   167  Bq   0.000000
   168  Bq   0.000000
   169  Bq   0.000000
   170  Bq   0.000000
   171  Bq   0.000000
   172  Bq   0.000000
   173  Bq   0.000000
   174  Bq   0.000000
   175  Bq   0.000000
   176  Bq   0.000000
   177  Bq   0.000000
   178  Bq   0.000000
   179  Bq   0.000000
   180  Bq   0.000000
   181  Bq   0.000000
   182  Bq   0.000000
   183  Bq   0.000000
   184  Bq   0.000000
   185  Bq   0.000000
   186  Bq   0.000000
   187  Bq   0.000000
   188  Bq   0.000000
   189  Bq   0.000000
   190  Bq   0.000000
   191  Bq   0.000000
   192  Bq   0.000000
   193  Bq   0.000000
   194  Bq   0.000000
   195  Bq   0.000000
   196  Bq   0.000000
   197  Bq   0.000000
   198  Bq   0.000000
   199  Bq   0.000000
   200  Bq   0.000000
   201  Bq   0.000000
   202  Bq   0.000000
   203  Bq   0.000000
   204  Bq   0.000000
   205  Bq   0.000000
   206  Bq   0.000000
   207  Bq   0.000000
   208  Bq   0.000000
   209  Bq   0.000000
   210  Bq   0.000000
   211  Bq   0.000000
   212  Bq   0.000000
   213  Bq   0.000000
   214  Bq   0.000000
   215  Bq   0.000000
   216  Bq   0.000000
   217  Bq   0.000000
   218  Bq   0.000000
   219  Bq   0.000000
   220  Bq   0.000000
   221  Bq   0.000000
   222  Bq   0.000000
   223  Bq   0.000000
   224  Bq   0.000000
   225  Bq   0.000000
   226  Bq   0.000000
   227  Bq   0.000000
   228  Bq   0.000000
   229  Bq   0.000000
   230  Bq   0.000000
   231  Bq   0.000000
   232  Bq   0.149662
   233  Bq   0.000000
   234  Bq   0.000000
   235  Bq   0.000000
   236  Bq   0.000000
 Electronic spatial extent (au):  <R**2>=           5736.9264
 Charge=              0.0000 electrons
 Dipole moment (field-independent basis, Debye):
    X=              0.0475    Y=              0.0856    Z=              0.0029  Tot=              0.0979
 Quadrupole moment (field-independent basis, Debye-Ang):
   XX=           -113.7056   YY=           -113.9456   ZZ=           -133.2669
   XY=             -0.3834   XZ=              3.2102   YZ=             -1.1839
 Traceless Quadrupole moment (field-independent basis, Debye-Ang):
   XX=              6.6005   YY=              6.3604   ZZ=            -12.9609
   XY=             -0.3834   XZ=              3.2102   YZ=             -1.1839
 Octapole moment (field-independent basis, Debye-Ang**2):
  XXX=            -16.4668  YYY=            -16.1860  ZZZ=             -1.7007  XYY=              2.5576
  XXY=             -6.5650  XXZ=             13.6547  XZZ=             -8.9478  YZZ=            -17.7168
  YYZ=            -13.2941  XYZ=              8.8036
 Hexadecapole moment (field-independent basis, Debye-Ang**3):
 XXXX=          -3951.1638 YYYY=          -3112.2161 ZZZZ=           -504.8311 XXXY=            340.6935
 XXXZ=            156.4968 YYYX=            335.5625 YYYZ=            -87.0893 ZZZX=            120.2262
 ZZZY=           -108.7373 XXYY=          -1176.4844 XXZZ=           -856.7291 YYZZ=           -665.7275
 XXYZ=            -68.9016 YYXZ=             48.1602 ZZXY=            153.0375
 N-N= 1.610917615562D+03 E-N=-5.186891130729D+03  KE= 8.436329774449D+02
 1\1\GINC-THARO\SP\RB3LYP\6-311+G(d,p)\C22H14\YANNICK\21-Aug-2020\0\\# 
 rb3lyp/6-311+g** NMR geom=connectivity\\Title\\0,1\C,0,-4.0500558,-0.5
 771862,0.8136712\H,0,-5.0263804,-1.0082727,1.002476\C,0,-3.9381552,0.6
 617804,0.2400876\H,0,-4.8252424,1.233889,-0.0111295\C,0,-2.676841,1.24
 33246,0.0057578\C,0,-1.4974121,0.5051527,0.2848253\C,0,-1.6508332,-0.7
 338728,0.9404026\H,0,-0.7713646,-1.2730967,1.2633753\C,0,-2.8898548,-1
 .2624035,1.1994307\H,0,-2.9683706,-2.2124563,1.7152676\C,0,-2.5773185,
 2.5963696,-0.419293\H,0,-3.4870728,3.1412239,-0.6474055\C,0,-1.3741895
 ,3.2147896,-0.436403\H,0,-1.2997315,4.2742019,-0.6578144\C,0,-0.171948
 8,2.499409,-0.1734588\C,0,-0.2043917,1.1018437,0.0192689\C,0,1.0513491
 ,3.204256,-0.0676222\H,0,1.0427344,4.2819499,-0.1896997\C,0,2.1942091,
 2.5487446,0.2579577\H,0,3.1168527,3.0912848,0.4334727\C,0,2.2216473,1.
 1336562,0.293499\C,0,1.0486931,0.3945528,0.0302412\C,0,3.4483363,0.461
 4633,0.5573939\H,0,4.3095794,1.0606054,0.8334846\C,0,3.5427346,-0.8855
 926,0.4749463\H,0,4.4731467,-1.3939704,0.7038822\C,0,2.4490052,-1.6474
 447,-0.0196319\C,0,1.2150704,-1.0057258,-0.3013573\C,0,0.2531113,-1.74
 3444,-1.0216591\H,0,-0.6541356,-1.2535051,-1.3462847\C,0,0.4494193,-3.
 0628597,-1.3413779\H,0,-0.3083162,-3.5944309,-1.905406\C,0,1.6251726,-
 3.7207967,-0.9552541\H,0,1.7670048,-4.7687404,-1.1927019\C,0,2.6109872
 ,-3.0144177,-0.318305\H,0,3.5525612,-3.4902813,-0.0646367\Bq,0,-0.1083
 864676,-3.9181387784,-1.3750449977\Bq,0,-0.2279717589,-3.9979857318,-1
 .1117508236\Bq,0,-0.0685247038,-3.8915231273,-1.4628097224\Bq,0,-0.267
 8335227,-4.0246013829,-1.0239860989\Bq,0,-0.02866294,-3.8649074762,-1.
 5505744471\Bq,0,-0.3076952865,-4.051217034,-0.9362213741\Bq,0,0.011198
 8238,-3.8382918251,-1.6383391718\Bq,0,-0.3475570503,-4.0778326851,-0.8
 484566494\Bq,0,0.0510605876,-3.811676174,-1.7261038966\Bq,0,-0.1482482
 314,-3.9447544296,-1.287280273\Bq,0,-0.1991164685,-3.8749770979,-1.175
 2822978\Bq,0,-0.1193929409,-3.8217457957,-1.3508117472\Bq,0,-0.2389782
 323,-3.9015927491,-1.0875175731\Bq,0,-0.0795311771,-3.7951301446,-1.43
 8576472\Bq,0,-0.2788399961,-3.9282084002,-0.9997528484\Bq,0,-0.0396694
 134,-3.7685144935,-1.5263411967\Bq,0,-0.3187017599,-3.9548240513,-0.91
 19881237\Bq,0,0.0001923504,-3.7418988424,-1.6141059214\Bq,0,-0.3585635
 237,-3.9814397024,-0.824223399\Bq,0,0.0400541142,-3.7152831913,-1.7018
 706461\Bq,0,-0.1592547047,-3.8483614468,-1.2630470225\Bq,0,-0.21012294
 19,-3.7785841152,-1.1510490474\Bq,0,-0.1303994143,-3.725352813,-1.3265
 784968\Bq,0,-0.2499847057,-3.8051997663,-1.0632843226\Bq,0,-0.09053765
 05,-3.6987371619,-1.4143432215\Bq,0,-0.2898464695,-3.8318154174,-0.975
 5195979\Bq,0,-0.0506758867,-3.6721215108,-1.5021079462\Bq,0,-0.3297082
 332,-3.8584310686,-0.8877548732\Bq,0,-0.0108141229,-3.6455058597,-1.58
 98726709\Bq,0,-0.369569997,-3.8850467197,-0.7999901485\Bq,0,0.02904764
 08,-3.6188902086,-1.6776373956\Bq,0,-0.1702611781,-3.7519684641,-1.238
 8137721\Bq,0,-0.2211294153,-3.6821911325,-1.1268157969\Bq,0,-0.1414058
 877,-3.6289598303,-1.3023452463\Bq,0,-0.260991179,-3.7088067836,-1.039
 0510722\Bq,0,-0.1015441239,-3.6023441792,-1.390109971\Bq,0,-0.30085294
 28,-3.7354224347,-0.9512863475\Bq,0,-0.0616823601,-3.5757285281,-1.477
 8746958\Bq,0,-0.3407147066,-3.7620380858,-0.8635216228\Bq,0,-0.0218205
 963,-3.549112877,-1.5656394205\Bq,0,-0.3805764704,-3.7886537369,-0.775
 7568981\Bq,0,0.0180411675,-3.5224972259,-1.6534041452\Bq,0,-0.18126765
 15,-3.6555754814,-1.2145805216\Bq,0,-0.2321358886,-3.5857981498,-1.102
 5825464\Bq,0,-0.1524123611,-3.5325668476,-1.2781119959\Bq,0,-0.2719976
 524,-3.6124138009,-1.0148178217\Bq,0,-0.1125505973,-3.5059511965,-1.36
 58767206\Bq,0,-0.3118594162,-3.639029452,-0.927053097\Bq,0,-0.07268883
 35,-3.4793355454,-1.4536414453\Bq,0,-0.35172118,-3.6656451031,-0.83928
 83723\Bq,0,-0.0328270697,-3.4527198943,-1.54140617\Bq,0,-0.3915829438,
 -3.6922607542,-0.7515236476\Bq,0,0.0070346941,-3.4261042432,-1.6291708
 947\Bq,0,-0.1922741248,-3.5591824987,-1.1903472712\Bq,0,-0.243142362,-
 3.4894051671,-1.078349296\Bq,0,-0.1634188344,-3.4361738649,-1.25387874
 54\Bq,0,-0.2830041258,-3.5160208182,-0.9905845713\Bq,0,-0.1235570706,-
 3.4095582138,-1.3416434701\Bq,0,-0.3228658896,-3.5426364693,-0.9028198
 466\Bq,0,-0.0836953069,-3.3829425627,-1.4294081948\Bq,0,-0.3627276534,
 -3.5692521204,-0.8150551218\Bq,0,-0.0438335431,-3.3563269116,-1.517172
 9195\Bq,0,-0.4025894172,-3.5958677715,-0.7272903971\Bq,0,-0.0039717793
 ,-3.3297112605,-1.6049376443\Bq,0,-0.2032805982,-3.462789516,-1.166114
 0207\Bq,0,-0.2541488354,-3.3930121844,-1.0541160455\Bq,0,-0.1744253078
 ,-3.3397808822,-1.229645495\Bq,0,-0.2940105992,-3.4196278355,-0.966351
 3208\Bq,0,-0.134563544,-3.3131652311,-1.3174102197\Bq,0,-0.3338723629,
 -3.4462434866,-0.8785865961\Bq,0,-0.0947017802,-3.28654958,-1.40517494
 44\Bq,0,-0.3737341267,-3.4728591377,-0.7908218714\Bq,0,-0.0548400164,-
 3.2599339288,-1.4929396691\Bq,0,-0.4135958905,-3.4994747888,-0.7030571
 467\Bq,0,-0.0149782526,-3.2333182777,-1.5807043938\Bq,0,-0.2142870716,
 -3.3663965333,-1.1418807702\Bq,0,-0.2651553087,-3.2966192017,-1.029882
 7951\Bq,0,-0.1854317812,-3.2433878995,-1.2054122445\Bq,0,-0.3050170725
 ,-3.3232348528,-0.9421180704\Bq,0,-0.1455700174,-3.2167722484,-1.29317
 69692\Bq,0,-0.3448788363,-3.3498505039,-0.8543533456\Bq,0,-0.105708253
 6,-3.1901565972,-1.3809416939\Bq,0,-0.3847406001,-3.376466155,-0.76658
 86209\Bq,0,-0.0658464898,-3.1635409461,-1.4687064186\Bq,0,-0.424602363
 9,-3.4030818061,-0.6788238962\Bq,0,-0.025984726,-3.136925295,-1.556471
 1433\Bq,0,-0.225293545,-3.2700035506,-1.1176475198\Bq,0,-0.2761617821,
 -3.200226219,-1.0056495446\Bq,0,-0.1964382545,-3.1469949167,-1.1811789
 94\Bq,0,-0.3160235459,-3.2268418701,-0.9178848199\Bq,0,-0.1565764908,-
 3.1203792656,-1.2689437187\Bq,0,-0.3558853097,-3.2534575212,-0.8301200
 952\Bq,0,-0.116714727,-3.0937636145,-1.3567084435\Bq,0,-0.3957470735,-
 3.2800731723,-0.7423553705\Bq,0,-0.0768529632,-3.0671479634,-1.4444731
 682\Bq,0,-0.4356088373,-3.3066888234,-0.6545906458\Bq,0,-0.0369911994,
 -3.0405323123,-1.5322378929\Bq,0,-0.2363000183,-3.1736105679,-1.093414
 2693\Bq,0,-0.2871682555,-3.1038332362,-0.9814162942\Bq,0,-0.2074447279
 ,-3.050601934,-1.1569457436\Bq,0,-0.3270300193,-3.1304488874,-0.893651
 5694\Bq,0,-0.1675829641,-3.0239862829,-1.2447104683\Bq,0,-0.3668917831
 ,-3.1570645385,-0.8058868447\Bq,0,-0.1277212003,-2.9973706318,-1.33247
 5193\Bq,0,-0.4067535469,-3.1836801896,-0.71812212\Bq,0,-0.0878594366,-
 2.9707549807,-1.4202399177\Bq,0,-0.4466153106,-3.2102958407,-0.6303573
 953\Bq,0,-0.0479976728,-2.9441393296,-1.5080046424\Bq,0,-0.2473064917,
 -3.0772175851,-1.0691810189\Bq,0,-0.2981747289,-3.0074402535,-0.957183
 0437\Bq,0,-0.2184512013,-2.9542089513,-1.1327124931\Bq,0,-0.3380364926
 ,-3.0340559046,-0.869418319\Bq,0,-0.1785894375,-2.9275933002,-1.220477
 2178\Bq,0,-0.3778982564,-3.0606715558,-0.7816535943\Bq,0,-0.1387276737
 ,-2.9009776491,-1.3082419425\Bq,0,-0.4177600202,-3.0872872069,-0.69388
 88696\Bq,0,-0.0988659099,-2.874361998,-1.3960066673\Bq,0,-0.457621784,
 -3.113902858,-0.6061241448\Bq,0,-0.0590041461,-2.8477463469,-1.4837713
 92\Bq,0,-0.2583129651,-2.9808246024,-1.0449477684\Bq,0,-0.3091812022,-
 2.9110472708,-0.9329497932\Bq,0,-0.2294576747,-2.8578159686,-1.1084792
 427\Bq,0,-0.349042966,-2.9376629219,-0.8451850685\Bq,0,-0.1895959109,-
 2.8312003175,-1.1962439674\Bq,0,-0.3889047298,-2.964278573,-0.75742034
 38\Bq,0,-0.1497341471,-2.8045846664,-1.2840086921\Bq,0,-0.4287664936,-
 2.9908942241,-0.6696556191\Bq,0,-0.1098723833,-2.7779690153,-1.3717734
 168\Bq,0,-0.4686282574,-3.0175098753,-0.5818908944\Bq,0,-0.0700106195,
 -2.7513533642,-1.4595381415\Bq,0,-0.2693194384,-2.8844316197,-1.020714
 518\Bq,0,-0.3201876756,-2.8146542881,-0.9087165428\Bq,0,-0.240464148,-
 2.7614229859,-1.0842459922\Bq,0,-0.3600494394,-2.8412699392,-0.8209518
 181\Bq,0,-0.2006023842,-2.7348073348,-1.1720107169\Bq,0,-0.3999112032,
 -2.8678855903,-0.7331870934\Bq,0,-0.1607406205,-2.7081916837,-1.259775
 4416\Bq,0,-0.439772967,-2.8945012414,-0.6454223686\Bq,0,-0.1208788567,
 -2.6815760326,-1.3475401663\Bq,0,-0.4796347308,-2.9211168925,-0.557657
 6439\Bq,0,-0.0810170929,-2.6549603815,-1.4353048911\Bq,0,-0.2803259118
 ,-2.788038637,-0.9964812675\Bq,0,-0.331194149,-2.7182613054,-0.8844832
 923\Bq,0,-0.2514706214,-2.6650300032,-1.0600127417\Bq,0,-0.3710559128,
 -2.7448769565,-0.7967185676\Bq,0,-0.2116088576,-2.6384143521,-1.147777
 4665\Bq,0,-0.4109176766,-2.7714926076,-0.7089538429\Bq,0,-0.1717470938
 ,-2.611798701,-1.2355421912\Bq,0,-0.4507794403,-2.7981082587,-0.621189
 1182\Bq,0,-0.13188533,-2.5851830499,-1.3233069159\Bq,0,-0.4906412041,-
 2.8247239098,-0.5334243935\Bq,0,-0.0920235663,-2.5585673988,-1.4110716
 406\Bq,0,-0.2913323852,-2.6916456543,-0.972248017\Bq,0,-0.3422006223,-
 2.6218683227,-0.8602500419\Bq,0,-0.2624770948,-2.5686370205,-1.0357794
 913\Bq,0,-0.3820623861,-2.6484839738,-0.7724853172\Bq,0,-0.222615331,-
 2.5420213694,-1.123544216\Bq,0,-0.4219241499,-2.6750996249,-0.68472059
 24\Bq,0,-0.1827535672,-2.5154057183,-1.2113089407\Bq,0,-0.4617859137,-
 2.701715276,-0.5969558677\Bq,0,-0.1428918034,-2.4887900672,-1.29907366
 54\Bq,0,-0.5016476775,-2.7283309271,-0.509191143\Bq,0,-0.1030300396,-2
 .462174416,-1.3868383901\Bq,0,-0.3023388586,-2.5952526716,-0.948014766
 6\Bq,0,-0.3532070957,-2.52547534,-0.8360167914\Bq,0,-0.2734835681,-2.4
 722440378,-1.0115462408\Bq,0,-0.3930688595,-2.5520909911,-0.7482520667
 \Bq,0,-0.2336218044,-2.4456283867,-1.0993109655\Bq,0,-0.4329306233,-2.
 5787066422,-0.660487342\Bq,0,-0.1937600406,-2.4190127355,-1.1870756903
 \Bq,0,-0.4727923871,-2.6053222933,-0.5727226173\Bq,0,-0.1538982768,-2.
 3923970844,-1.274840415\Bq,0,-0.5126541509,-2.6319379444,-0.4849578926
 \Bq,0,-0.114036513,-2.3657814333,-1.3626051397\Bq,0,-0.3133453319,-2.4
 988596889,-0.9237815161\Bq,0,-0.3642135691,-2.4290823573,-0.8117835409
 \Bq,0,-0.2844900415,-2.375851055,-0.9873129904\Bq,0,-0.4040753329,-2.4
 556980084,-0.7240188162\Bq,0,-0.2446282777,-2.3492354039,-1.0750777151
 \Bq,0,-0.4439370967,-2.4823136595,-0.6362540915\Bq,0,-0.2047665139,-2.
 3226197528,-1.1628424398\Bq,0,-0.4837988605,-2.5089293106,-0.548489366
 8\Bq,0,-0.1649047502,-2.2960041017,-1.2506071645\Bq,0,-0.5236606242,-2
 .5355449617,-0.4607246421\Bq,0,-0.1250429864,-2.2693884506,-1.33837188
 92\Bq,0,-0.3243518053,-2.4024667062,-0.8995482657\Bq,0,-0.3752200425,-
 2.3326893746,-0.7875502905\Bq,0,-0.2954965149,-2.2794580723,-0.9630797
 399\Bq,0,-0.4150818063,-2.3593050257,-0.6997855658\Bq,0,-0.2556347511,
 -2.2528424212,-1.0508444646\Bq,0,-0.45494357,-2.3859206768,-0.61202084
 11\Bq,0,-0.2157729873,-2.2262267701,-1.1386091893\Bq,0,-0.4948053338,-
 2.4125363279,-0.5242561164\Bq,0,-0.1759112235,-2.199611119,-1.22637391
 41\Bq,0,-0.5346670976,-2.439151979,-0.4364913916\Bq,0,-0.1360494597,-2
 .1729954679,-1.3141386388\Bq,0,-0.3353582787,-2.3060737234,-0.87531501
 52\Bq,0,-0.3862265158,-2.2362963918,-0.76331704\Bq,0,-0.3065029883,-2.
 1830650896,-0.9388464895\Bq,0,-0.4260882796,-2.2629120429,-0.675552315
 3\\Version=ES64L-G09RevD.01\HF=-847.0032898\RMSD=7.508e-09\Dipole=0.01
 86808,0.0336671,0.0011595\Quadrupole=4.9072795,4.7288219,-9.6361014,-0
 .2850201,2.3867064,-0.880172\PG=C01 [X(C22H14)]\\@


 WAR ES EIN GOTT DER DIESE ZEICHEN SCHRIEB?
          - LUDWIG BOLTZMANN, QUOTING GOETHE, ABOUT MAXWELL'S EQUATIONS.
 Job cpu time:       0 days  2 hours 42 minutes 58.6 seconds.
 File lengths (MBytes):  RWF=    184 Int=      0 D2E=      0 Chk=     19 Scr=      1
 Normal termination of Gaussian 09 at Fri Aug 21 12:10:04 2020.
