 Entering Gaussian System, Link 0=g09
 Input=input_cycle_02_batch_00200.com
 Output=input_cycle_02_batch_00200.log
 Initial command:
 /share/programs/GAUSSIAN/64/g09/l1.exe "/scratch/yannick.30037/Gau-2235738.inp" -scrdir="/scratch/yannick.30037/"
 Entering Link 1 = /share/programs/GAUSSIAN/64/g09/l1.exe PID=   2235739.
  
 Copyright (c) 1988,1990,1992,1993,1995,1998,2003,2009,2013,
            Gaussian, Inc.  All Rights Reserved.
  
 This is part of the Gaussian(R) 09 program.  It is based on
 the Gaussian(R) 03 system (copyright 2003, Gaussian, Inc.),
 the Gaussian(R) 98 system (copyright 1998, Gaussian, Inc.),
 the Gaussian(R) 94 system (copyright 1995, Gaussian, Inc.),
 the Gaussian 92(TM) system (copyright 1992, Gaussian, Inc.),
 the Gaussian 90(TM) system (copyright 1990, Gaussian, Inc.),
 the Gaussian 88(TM) system (copyright 1988, Gaussian, Inc.),
 the Gaussian 86(TM) system (copyright 1986, Carnegie Mellon
 University), and the Gaussian 82(TM) system (copyright 1983,
 Carnegie Mellon University). Gaussian is a federally registered
 trademark of Gaussian, Inc.
  
 This software contains proprietary and confidential information,
 including trade secrets, belonging to Gaussian, Inc.
  
 This software is provided under written license and may be
 used, copied, transmitted, or stored only in accord with that
 written license.
  
 The following legend is applicable only to US Government
 contracts under FAR:
  
                    RESTRICTED RIGHTS LEGEND
  
 Use, reproduction and disclosure by the US Government is
 subject to restrictions as set forth in subparagraphs (a)
 and (c) of the Commercial Computer Software - Restricted
 Rights clause in FAR 52.227-19.
  
 Gaussian, Inc.
 340 Quinnipiac St., Bldg. 40, Wallingford CT 06492
  
  
 ---------------------------------------------------------------
 Warning -- This program may not be used in any manner that
 competes with the business of Gaussian, Inc. or will provide
 assistance to any competitor of Gaussian, Inc.  The licensee
 of this program is prohibited from giving any competitor of
 Gaussian, Inc. access to this program.  By using this program,
 the user acknowledges that Gaussian, Inc. is engaged in the
 business of creating and licensing software in the field of
 computational chemistry and represents and warrants to the
 licensee that it is not a competitor of Gaussian, Inc. and that
 it will not use this program in any manner prohibited above.
 ---------------------------------------------------------------
  

 Cite this work as:
 Gaussian 09, Revision D.01,
 M. J. Frisch, G. W. Trucks, H. B. Schlegel, G. E. Scuseria, 
 M. A. Robb, J. R. Cheeseman, G. Scalmani, V. Barone, B. Mennucci, 
 G. A. Petersson, H. Nakatsuji, M. Caricato, X. Li, H. P. Hratchian, 
 A. F. Izmaylov, J. Bloino, G. Zheng, J. L. Sonnenberg, M. Hada, 
 M. Ehara, K. Toyota, R. Fukuda, J. Hasegawa, M. Ishida, T. Nakajima, 
 Y. Honda, O. Kitao, H. Nakai, T. Vreven, J. A. Montgomery, Jr., 
 J. E. Peralta, F. Ogliaro, M. Bearpark, J. J. Heyd, E. Brothers, 
 K. N. Kudin, V. N. Staroverov, T. Keith, R. Kobayashi, J. Normand, 
 K. Raghavachari, A. Rendell, J. C. Burant, S. S. Iyengar, J. Tomasi, 
 M. Cossi, N. Rega, J. M. Millam, M. Klene, J. E. Knox, J. B. Cross, 
 V. Bakken, C. Adamo, J. Jaramillo, R. Gomperts, R. E. Stratmann, 
 O. Yazyev, A. J. Austin, R. Cammi, C. Pomelli, J. W. Ochterski, 
 R. L. Martin, K. Morokuma, V. G. Zakrzewski, G. A. Voth, 
 P. Salvador, J. J. Dannenberg, S. Dapprich, A. D. Daniels, 
 O. Farkas, J. B. Foresman, J. V. Ortiz, J. Cioslowski, 
 and D. J. Fox, Gaussian, Inc., Wallingford CT, 2013.
 
 ******************************************
 Gaussian 09:  ES64L-G09RevD.01 24-Apr-2013
                21-Aug-2020 
 ******************************************
 %nproc=8
 Will use up to    8 processors via shared memory.
 %mem=1000MB
 ----------------------------------------
 # rb3lyp/6-311+g** NMR geom=connectivity
 ----------------------------------------
 1/38=1,57=2/1;
 2/12=2,17=6,18=5,40=1/2;
 3/5=4,6=6,7=111,11=2,16=1,25=1,30=1,74=-5,116=1/1,2,8,3;
 4//1;
 5/5=2,38=5/2;
 8/6=1,10=90,11=11/1;
 10/13=100,45=16/2;
 6/7=2,8=2,9=2,10=2,28=1/1;
 99/9=1/99;
 -----
 Title
 -----
 Symbolic Z-matrix:
 Charge =  0 Multiplicity = 1
 C                    -4.05006  -0.57719   0.81367 
 H                    -5.02638  -1.00827   1.00248 
 C                    -3.93816   0.66178   0.24009 
 H                    -4.82524   1.23389  -0.01113 
 C                    -2.67684   1.24332   0.00576 
 C                    -1.49741   0.50515   0.28483 
 C                    -1.65083  -0.73387   0.9404 
 H                    -0.77136  -1.2731    1.26338 
 C                    -2.88985  -1.2624    1.19943 
 H                    -2.96837  -2.21246   1.71527 
 C                    -2.57732   2.59637  -0.41929 
 H                    -3.48707   3.14122  -0.64741 
 C                    -1.37419   3.21479  -0.4364 
 H                    -1.29973   4.2742   -0.65781 
 C                    -0.17195   2.49941  -0.17346 
 C                    -0.20439   1.10184   0.01927 
 C                     1.05135   3.20426  -0.06762 
 H                     1.04273   4.28195  -0.1897 
 C                     2.19421   2.54874   0.25796 
 H                     3.11685   3.09128   0.43347 
 C                     2.22165   1.13366   0.2935 
 C                     1.04869   0.39455   0.03024 
 C                     3.44834   0.46146   0.55739 
 H                     4.30958   1.06061   0.83348 
 C                     3.54273  -0.88559   0.47495 
 H                     4.47315  -1.39397   0.70388 
 C                     2.44901  -1.64744  -0.01963 
 C                     1.21507  -1.00573  -0.30136 
 C                     0.25311  -1.74344  -1.02166 
 H                    -0.65414  -1.25351  -1.34628 
 C                     0.44942  -3.06286  -1.34138 
 H                    -0.30832  -3.59443  -1.90541 
 C                     1.62517  -3.7208   -0.95525 
 H                     1.767    -4.76874  -1.1927 
 C                     2.61099  -3.01442  -0.31831 
 H                     3.55256  -3.49028  -0.06464 
 Bq                   -3.93723   1.27977   0.3402 
 Bq                   -3.94876   1.35341   0.63079 
 Bq                   -3.93339   1.25522   0.24334 
 Bq                   -3.9526    1.37796   0.72765 
 Bq                   -3.92955   1.23067   0.14647 
 Bq                   -3.95644   1.40251   0.82452 
 Bq                   -3.92571   1.20612   0.04961 
 Bq                   -3.96028   1.42706   0.92138 
 Bq                   -3.92186   1.18157  -0.04726 
 Bq                   -3.94107   1.30432   0.43706 
 Bq                   -3.94394   1.42581   0.5094 
 Bq                   -3.93626   1.37671   0.31567 
 Bq                   -3.94778   1.45035   0.60626 
 Bq                   -3.93242   1.35216   0.21881 
 Bq                   -3.95163   1.4749    0.70312 
 Bq                   -3.92857   1.32761   0.12194 
 Bq                   -3.95547   1.49945   0.79999 
 Bq                   -3.92473   1.30306   0.02508 
 Bq                   -3.95931   1.524     0.89685 
 Bq                   -3.92089   1.27851  -0.07179 
 Bq                   -3.9401    1.40126   0.41253 
 Bq                   -3.94297   1.52274   0.48487 
 Bq                   -3.93529   1.47365   0.29114 
 Bq                   -3.94681   1.54729   0.58173 
 Bq                   -3.93144   1.4491    0.19428 
 Bq                   -3.95065   1.57184   0.67859 
 Bq                   -3.9276    1.42455   0.09741 
 Bq                   -3.9545    1.59639   0.77546 
 Bq                   -3.92376   1.4       0.00055 
 Bq                   -3.95834   1.62094   0.87232 
 Bq                   -3.91992   1.37545  -0.09632 
 Bq                   -3.93913   1.4982    0.388 
 Bq                   -3.942     1.61968   0.46034 
 Bq                   -3.93431   1.57059   0.26661 
 Bq                   -3.94584   1.64423   0.5572 
 Bq                   -3.93047   1.54604   0.16975 
 Bq                   -3.94968   1.66878   0.65406 
 Bq                   -3.92663   1.52149   0.07288 
 Bq                   -3.95352   1.69333   0.75093 
 Bq                   -3.92279   1.49694  -0.02398 
 Bq                   -3.95736   1.71788   0.84779 
 Bq                   -3.91894   1.47239  -0.12085 
 Bq                   -3.93815   1.59514   0.36347 
 Bq                   -3.94102   1.71662   0.43581 
 Bq                   -3.93334   1.66753   0.24208 
 Bq                   -3.94487   1.74117   0.53267 
 Bq                   -3.9295    1.64298   0.14522 
 Bq                   -3.94871   1.76572   0.62953 
 Bq                   -3.92566   1.61843   0.04835 
 Bq                   -3.95255   1.79027   0.7264 
 Bq                   -3.92181   1.59388  -0.04851 
 Bq                   -3.95639   1.81482   0.82326 
 Bq                   -3.91797   1.56933  -0.14538 
 Bq                   -3.93718   1.69208   0.33894 
 Bq                   -3.94005   1.81356   0.41128 
 Bq                   -3.93237   1.76447   0.21755 
 Bq                   -3.94389   1.83811   0.50814 
 Bq                   -3.92852   1.73992   0.12069 
 Bq                   -3.94773   1.86266   0.605 
 Bq                   -3.92468   1.71537   0.02382 
 Bq                   -3.95158   1.88721   0.70187 
 Bq                   -3.92084   1.69082  -0.07304 
 Bq                   -3.95542   1.91176   0.79873 
 Bq                   -3.917     1.66627  -0.16991 
 Bq                   -3.93621   1.78902   0.31441 
 Bq                   -3.93908   1.9105    0.38675 
 Bq                   -3.93139   1.86141   0.19302 
 Bq                   -3.94292   1.93505   0.48361 
 Bq                   -3.92755   1.83686   0.09616 
 Bq                   -3.94676   1.9596    0.58047 
 Bq                   -3.92371   1.81231  -0.00071 
 Bq                   -3.9506    1.98415   0.67734 
 Bq                   -3.91987   1.78776  -0.09757 
 Bq                   -3.95445   2.0087    0.7742 
 Bq                   -3.91603   1.76321  -0.19444 
 Bq                   -3.93524   1.88595   0.28988 
 Bq                   -3.9381    2.00744   0.36222 
 Bq                   -3.93042   1.95835   0.16849 
 Bq                   -3.94195   2.03199   0.45908 
 Bq                   -3.92658   1.9338    0.07163 
 Bq                   -3.94579   2.05654   0.55594 
 Bq                   -3.92274   1.90925  -0.02524 
 Bq                   -3.94963   2.08109   0.65281 
 Bq                   -3.91889   1.8847   -0.1221 
 Bq                   -3.95347   2.10564   0.74967 
 Bq                   -3.91505   1.86015  -0.21897 
 Bq                   -3.93426   1.98289   0.26535 
 Bq                   -3.93713   2.10438   0.33769 
 Bq                   -3.92945   2.05529   0.14396 
 Bq                   -3.94097   2.12893   0.43455 
 Bq                   -3.92561   2.03074   0.0471 
 Bq                   -3.94482   2.15348   0.53141 
 Bq                   -3.92176   2.00619  -0.04977 
 Bq                   -3.94866   2.17803   0.62828 
 Bq                   -3.91792   1.98164  -0.14663 
 Bq                   -3.9525    2.20258   0.72514 
 Bq                   -3.91408   1.95709  -0.2435 
 Bq                   -3.93329   2.07983   0.24082 
 Bq                   -3.93616   2.20132   0.31316 
 Bq                   -3.92847   2.15223   0.11943 
 Bq                   -3.94      2.22587   0.41002 
 Bq                   -3.92463   2.12768   0.02257 
 Bq                   -3.94384   2.25042   0.50688 
 Bq                   -3.92079   2.10313  -0.0743 
 Bq                   -3.94768   2.27497   0.60375 
 Bq                   -3.91695   2.07858  -0.17116 
 Bq                   -3.95153   2.29952   0.70061 
 Bq                   -3.91311   2.05403  -0.26803 
 Bq                   -3.93232   2.17677   0.21629 
 Bq                   -3.93519   2.29826   0.28863 
 Bq                   -3.9275    2.24916   0.0949 
 Bq                   -3.93903   2.32281   0.38549 
 Bq                   -3.92366   2.22462  -0.00196 
 Bq                   -3.94287   2.34736   0.48235 
 Bq                   -3.91982   2.20007  -0.09883 
 Bq                   -3.94671   2.37191   0.57922 
 Bq                   -3.91598   2.17552  -0.19569 
 Bq                   -3.95055   2.39646   0.67608 
 Bq                   -3.91213   2.15097  -0.29256 
 Bq                   -3.93134   2.27371   0.19176 
 Bq                   -3.93421   2.3952    0.2641 
 Bq                   -3.92653   2.3461    0.07037 
 Bq                   -3.93805   2.41975   0.36096 
 Bq                   -3.92269   2.32156  -0.02649 
 Bq                   -3.9419    2.4443    0.45782 
 Bq                   -3.91884   2.29701  -0.12336 
 Bq                   -3.94574   2.46885   0.55469 
 Bq                   -3.915     2.27246  -0.22022 
 Bq                   -3.94958   2.4934    0.65155 
 Bq                   -3.91116   2.24791  -0.31709 
 Bq                   -3.93037   2.37065   0.16723 
 Bq                   -3.93324   2.49214   0.23957 
 Bq                   -3.92556   2.44304   0.04584 
 Bq                   -3.93708   2.51669   0.33643 
 Bq                   -3.92171   2.4185   -0.05102 
 Bq                   -3.94092   2.54124   0.43329 
 Bq                   -3.91787   2.39395  -0.14789 
 Bq                   -3.94477   2.56579   0.53016 
 Bq                   -3.91403   2.3694   -0.24475 
 Bq                   -3.94861   2.59034   0.62702 
 Bq                   -3.91019   2.34485  -0.34162 
 Bq                   -3.9294    2.46759   0.1427 
 Bq                   -3.93227   2.58908   0.21504 
 Bq                   -3.92458   2.53998   0.02131 
 Bq                   -3.93611   2.61363   0.3119 
 Bq                   -3.92074   2.51544  -0.07555 
 Bq                   -3.93995   2.63818   0.40876 
 Bq                   -3.9169    2.49089  -0.17242 
 Bq                   -3.94379   2.66273   0.50563 
 Bq                   -3.91306   2.46634  -0.26928 
 Bq                   -3.94763   2.68728   0.60249 
 Bq                   -3.90922   2.44179  -0.36615 
 Bq                   -3.92842   2.56453   0.11817 
 Bq                   -3.93129   2.68602   0.19051 
 Bq                   -3.92361   2.63692  -0.00322 
 Bq                   -3.93514   2.71057   0.28737 
 Bq                   -3.91977   2.61237  -0.10008 
 Bq                   -3.93898   2.73512   0.38423 
 Bq                   -3.91593   2.58783  -0.19695 
 Bq                   -3.94282   2.75967   0.4811 
 Bq                   -3.91208   2.56328  -0.29381 
 Bq                   -3.94666   2.78422   0.57796 
 Bq                   -3.90824   2.53873  -0.39068 
 Bq                   -3.92745   2.66147   0.09364 
 Bq                   -3.93032   2.78296   0.16598 
 Bq                   -3.92264   2.73386  -0.02775 
 Bq                   -3.93416   2.80751   0.26284 
 Bq                   -3.9188    2.70931  -0.12461 
 Bq                   -3.938     2.83206   0.3597 
 Bq                   -3.91495   2.68477  -0.22148 
 Bq                   -3.94185   2.85661   0.45657 
 Bq                   -3.91111   2.66022  -0.31834 
 Bq                   -3.94569   2.88116   0.55343 
 Bq                   -3.90727   2.63567  -0.41521 
 Bq                   -3.92648   2.75841   0.06911 
 Bq                   -3.92935   2.8799    0.14145 
 Bq                   -3.92166   2.8308   -0.05228 
 Bq                   -3.93319   2.90445   0.23831 
 Bq                   -3.91782   2.80625  -0.14914 
 Bq                   -3.93703   2.929     0.33517 
 Bq                   -3.91398   2.78171  -0.24601 
 Bq                   -3.94087   2.95355   0.43204 
 Bq                   -3.91014   2.75716  -0.34287 
 Bq                   -3.94472   2.9781    0.5289 
 Bq                   -3.9063    2.73261  -0.43974 
 Bq                   -3.92551   2.85535   0.04458 
 Bq                   -3.92838   2.97684   0.11692 
 Bq                   -3.92069   2.92774  -0.07681 
 Bq                   -3.93222   3.00139   0.21378 
 Bq                   -3.91685   2.90319  -0.17367 
 Bq                   -3.93606   3.02594   0.31064 
 Bq                   -3.91301   2.87865  -0.27054 
 Bq                   -3.9399    3.05049   0.40751 
 Bq                   -3.90917   2.8541   -0.3674 
 Bq                   -3.94374   3.07504   0.50437 
 Bq                   -3.90532   2.82955  -0.46427 
 Bq                   -3.92453   2.95229   0.02005 
 Bq                   -3.9274    3.07378   0.09239 
 Bq                   -3.91972   3.02468  -0.10134 
 Bq                   -3.93124   3.09833   0.18925 
 
 Symmetry turned off:
 Cannot cope with ghost atoms or with translation vectors.
 Stoichiometry    C22H14
 Framework group  C1[X(C22H14)]
 NUMDOF-- NAT=    36 NAtoms=   236
 Deg. of freedom     0
 Full point group                 C1      NOp   1
                          Input orientation:                          
 ---------------------------------------------------------------------
 Center     Atomic      Atomic             Coordinates (Angstroms)
 Number     Number       Type             X           Y           Z
 ---------------------------------------------------------------------
      1          6           0       -4.050056   -0.577186    0.813671
      2          1           0       -5.026380   -1.008273    1.002476
      3          6           0       -3.938155    0.661780    0.240088
      4          1           0       -4.825242    1.233889   -0.011130
      5          6           0       -2.676841    1.243325    0.005758
      6          6           0       -1.497412    0.505153    0.284825
      7          6           0       -1.650833   -0.733873    0.940403
      8          1           0       -0.771365   -1.273097    1.263375
      9          6           0       -2.889855   -1.262404    1.199431
     10          1           0       -2.968371   -2.212456    1.715268
     11          6           0       -2.577319    2.596370   -0.419293
     12          1           0       -3.487073    3.141224   -0.647406
     13          6           0       -1.374190    3.214790   -0.436403
     14          1           0       -1.299732    4.274202   -0.657814
     15          6           0       -0.171949    2.499409   -0.173459
     16          6           0       -0.204392    1.101844    0.019269
     17          6           0        1.051349    3.204256   -0.067622
     18          1           0        1.042734    4.281950   -0.189700
     19          6           0        2.194209    2.548745    0.257958
     20          1           0        3.116853    3.091285    0.433473
     21          6           0        2.221647    1.133656    0.293499
     22          6           0        1.048693    0.394553    0.030241
     23          6           0        3.448336    0.461463    0.557394
     24          1           0        4.309579    1.060605    0.833485
     25          6           0        3.542735   -0.885593    0.474946
     26          1           0        4.473147   -1.393970    0.703882
     27          6           0        2.449005   -1.647445   -0.019632
     28          6           0        1.215070   -1.005726   -0.301357
     29          6           0        0.253111   -1.743444   -1.021659
     30          1           0       -0.654136   -1.253505   -1.346285
     31          6           0        0.449419   -3.062860   -1.341378
     32          1           0       -0.308316   -3.594431   -1.905406
     33          6           0        1.625173   -3.720797   -0.955254
     34          1           0        1.767005   -4.768740   -1.192702
     35          6           0        2.610987   -3.014418   -0.318305
     36          1           0        3.552561   -3.490281   -0.064637
     37          0           0       -3.937231    1.279767    0.340199
     38          0           0       -3.948757    1.353415    0.630790
     39          0           0       -3.933389    1.255217    0.243336
     40          0           0       -3.952599    1.377964    0.727654
     41          0           0       -3.929547    1.230668    0.146472
     42          0           0       -3.956441    1.402513    0.824518
     43          0           0       -3.925705    1.206119    0.049608
     44          0           0       -3.960283    1.427063    0.921381
     45          0           0       -3.921863    1.181569   -0.047255
     46          0           0       -3.941073    1.304316    0.437063
     47          0           0       -3.943942    1.425805    0.509397
     48          0           0       -3.936258    1.376706    0.315669
     49          0           0       -3.947784    1.450354    0.606260
     50          0           0       -3.932416    1.352157    0.218806
     51          0           0       -3.951626    1.474904    0.703124
     52          0           0       -3.928574    1.327608    0.121942
     53          0           0       -3.955468    1.499453    0.799988
     54          0           0       -3.924732    1.303059    0.025078
     55          0           0       -3.959310    1.524002    0.896851
     56          0           0       -3.920890    1.278509   -0.071785
     57          0           0       -3.940100    1.401256    0.412533
     58          0           0       -3.942969    1.522745    0.484867
     59          0           0       -3.935285    1.473646    0.291139
     60          0           0       -3.946811    1.547294    0.581730
     61          0           0       -3.931443    1.449097    0.194276
     62          0           0       -3.950653    1.571844    0.678594
     63          0           0       -3.927601    1.424548    0.097412
     64          0           0       -3.954495    1.596393    0.775458
     65          0           0       -3.923759    1.399998    0.000548
     66          0           0       -3.958337    1.620942    0.872321
     67          0           0       -3.919918    1.375449   -0.096315
     68          0           0       -3.939127    1.498196    0.388003
     69          0           0       -3.941996    1.619685    0.460337
     70          0           0       -3.934312    1.570586    0.266609
     71          0           0       -3.945838    1.644234    0.557200
     72          0           0       -3.930470    1.546037    0.169746
     73          0           0       -3.949680    1.668783    0.654064
     74          0           0       -3.926629    1.521488    0.072882
     75          0           0       -3.953522    1.693333    0.750928
     76          0           0       -3.922787    1.496938   -0.023982
     77          0           0       -3.957364    1.717882    0.847791
     78          0           0       -3.918945    1.472389   -0.120845
     79          0           0       -3.938154    1.595135    0.363473
     80          0           0       -3.941023    1.716625    0.435807
     81          0           0       -3.933340    1.667526    0.242079
     82          0           0       -3.944865    1.741174    0.532670
     83          0           0       -3.929498    1.642977    0.145216
     84          0           0       -3.948707    1.765723    0.629534
     85          0           0       -3.925656    1.618427    0.048352
     86          0           0       -3.952549    1.790273    0.726398
     87          0           0       -3.921814    1.593878   -0.048512
     88          0           0       -3.956391    1.814822    0.823261
     89          0           0       -3.917972    1.569329   -0.145375
     90          0           0       -3.937181    1.692075    0.338943
     91          0           0       -3.940051    1.813564    0.411277
     92          0           0       -3.932367    1.764466    0.217549
     93          0           0       -3.943893    1.838114    0.508140
     94          0           0       -3.928525    1.739916    0.120686
     95          0           0       -3.947734    1.862663    0.605004
     96          0           0       -3.924683    1.715367    0.023822
     97          0           0       -3.951576    1.887212    0.701868
     98          0           0       -3.920841    1.690818   -0.073042
     99          0           0       -3.955418    1.911762    0.798731
    100          0           0       -3.916999    1.666269   -0.169905
    101          0           0       -3.936209    1.789015    0.314413
    102          0           0       -3.939078    1.910504    0.386747
    103          0           0       -3.931394    1.861406    0.193019
    104          0           0       -3.942920    1.935054    0.483610
    105          0           0       -3.927552    1.836856    0.096156
    106          0           0       -3.946762    1.959603    0.580474
    107          0           0       -3.923710    1.812307   -0.000708
    108          0           0       -3.950604    1.984152    0.677338
    109          0           0       -3.919868    1.787758   -0.097572
    110          0           0       -3.954445    2.008702    0.774201
    111          0           0       -3.916026    1.763208   -0.194435
    112          0           0       -3.935236    1.885955    0.289883
    113          0           0       -3.938105    2.007444    0.362217
    114          0           0       -3.930421    1.958345    0.168489
    115          0           0       -3.941947    2.031993    0.459080
    116          0           0       -3.926579    1.933796    0.071626
    117          0           0       -3.945789    2.056543    0.555944
    118          0           0       -3.922737    1.909247   -0.025238
    119          0           0       -3.949631    2.081092    0.652808
    120          0           0       -3.918895    1.884698   -0.122102
    121          0           0       -3.953473    2.105641    0.749671
    122          0           0       -3.915053    1.860148   -0.218965
    123          0           0       -3.934263    1.982895    0.265353
    124          0           0       -3.937132    2.104384    0.337687
    125          0           0       -3.929448    2.055285    0.143959
    126          0           0       -3.940974    2.128933    0.434550
    127          0           0       -3.925606    2.030736    0.047096
    128          0           0       -3.944816    2.153483    0.531414
    129          0           0       -3.921764    2.006187   -0.049768
    130          0           0       -3.948658    2.178032    0.628278
    131          0           0       -3.917922    1.981637   -0.146632
    132          0           0       -3.952500    2.202581    0.725141
    133          0           0       -3.914080    1.957088   -0.243495
    134          0           0       -3.933290    2.079835    0.240823
    135          0           0       -3.936159    2.201324    0.313157
    136          0           0       -3.928475    2.152225    0.119429
    137          0           0       -3.940001    2.225873    0.410020
    138          0           0       -3.924633    2.127676    0.022566
    139          0           0       -3.943843    2.250422    0.506884
    140          0           0       -3.920791    2.103126   -0.074298
    141          0           0       -3.947685    2.274972    0.603748
    142          0           0       -3.916949    2.078577   -0.171162
    143          0           0       -3.951527    2.299521    0.700611
    144          0           0       -3.913107    2.054028   -0.268025
    145          0           0       -3.932317    2.176774    0.216293
    146          0           0       -3.935186    2.298264    0.288627
    147          0           0       -3.927502    2.249165    0.094899
    148          0           0       -3.939028    2.322813    0.385490
    149          0           0       -3.923660    2.224616   -0.001964
    150          0           0       -3.942870    2.347362    0.482354
    151          0           0       -3.919818    2.200066   -0.098828
    152          0           0       -3.946712    2.371912    0.579218
    153          0           0       -3.915976    2.175517   -0.195692
    154          0           0       -3.950554    2.396461    0.676081
    155          0           0       -3.912134    2.150968   -0.292555
    156          0           0       -3.931344    2.273714    0.191763
    157          0           0       -3.934213    2.395203    0.264096
    158          0           0       -3.926529    2.346105    0.070369
    159          0           0       -3.938055    2.419753    0.360960
    160          0           0       -3.922687    2.321555   -0.026495
    161          0           0       -3.941897    2.444302    0.457824
    162          0           0       -3.918845    2.297006   -0.123358
    163          0           0       -3.945739    2.468851    0.554687
    164          0           0       -3.915003    2.272457   -0.220222
    165          0           0       -3.949581    2.493401    0.651551
    166          0           0       -3.911161    2.247908   -0.317086
    167          0           0       -3.930371    2.370654    0.167233
    168          0           0       -3.933240    2.492143    0.239566
    169          0           0       -3.925556    2.443045    0.045839
    170          0           0       -3.937082    2.516693    0.336430
    171          0           0       -3.921714    2.418495   -0.051025
    172          0           0       -3.940924    2.541242    0.433294
    173          0           0       -3.917872    2.393946   -0.147888
    174          0           0       -3.944766    2.565791    0.530157
    175          0           0       -3.914030    2.369397   -0.244752
    176          0           0       -3.948608    2.590341    0.627021
    177          0           0       -3.910188    2.344847   -0.341616
    178          0           0       -3.929398    2.467594    0.142703
    179          0           0       -3.932267    2.589083    0.215036
    180          0           0       -3.924583    2.539984    0.021309
    181          0           0       -3.936109    2.613632    0.311900
    182          0           0       -3.920741    2.515435   -0.075555
    183          0           0       -3.939951    2.638182    0.408764
    184          0           0       -3.916899    2.490886   -0.172418
    185          0           0       -3.943793    2.662731    0.505627
    186          0           0       -3.913057    2.466337   -0.269282
    187          0           0       -3.947635    2.687280    0.602491
    188          0           0       -3.909215    2.441787   -0.366146
    189          0           0       -3.928425    2.564534    0.118173
    190          0           0       -3.931294    2.686023    0.190506
    191          0           0       -3.923610    2.636924   -0.003221
    192          0           0       -3.935136    2.710572    0.287370
    193          0           0       -3.919768    2.612375   -0.100085
    194          0           0       -3.938978    2.735122    0.384234
    195          0           0       -3.915926    2.587826   -0.196948
    196          0           0       -3.942820    2.759671    0.481097
    197          0           0       -3.912084    2.563276   -0.293812
    198          0           0       -3.946662    2.784220    0.577961
    199          0           0       -3.908242    2.538727   -0.390676
    200          0           0       -3.927452    2.661474    0.093643
    201          0           0       -3.930321    2.782963    0.165976
    202          0           0       -3.922637    2.733864   -0.027751
    203          0           0       -3.934163    2.807512    0.262840
    204          0           0       -3.918795    2.709315   -0.124615
    205          0           0       -3.938005    2.832061    0.359704
    206          0           0       -3.914953    2.684765   -0.221478
    207          0           0       -3.941847    2.856611    0.456567
    208          0           0       -3.911111    2.660216   -0.318342
    209          0           0       -3.945689    2.881160    0.553431
    210          0           0       -3.907269    2.635667   -0.415206
    211          0           0       -3.926479    2.758413    0.069113
    212          0           0       -3.929348    2.879903    0.141446
    213          0           0       -3.921664    2.830804   -0.052281
    214          0           0       -3.933190    2.904452    0.238310
    215          0           0       -3.917822    2.806255   -0.149145
    216          0           0       -3.937032    2.929001    0.335174
    217          0           0       -3.913980    2.781705   -0.246008
    218          0           0       -3.940874    2.953551    0.432037
    219          0           0       -3.910138    2.757156   -0.342872
    220          0           0       -3.944716    2.978100    0.528901
    221          0           0       -3.906296    2.732607   -0.439736
    222          0           0       -3.925506    2.855353    0.044583
    223          0           0       -3.928375    2.976842    0.116916
    224          0           0       -3.920691    2.927744   -0.076811
    225          0           0       -3.932217    3.001392    0.213780
    226          0           0       -3.916849    2.903194   -0.173675
    227          0           0       -3.936059    3.025941    0.310644
    228          0           0       -3.913007    2.878645   -0.270538
    229          0           0       -3.939901    3.050490    0.407507
    230          0           0       -3.909165    2.854096   -0.367402
    231          0           0       -3.943743    3.075040    0.504371
    232          0           0       -3.905323    2.829547   -0.464266
    233          0           0       -3.924533    2.952293    0.020053
    234          0           0       -3.927402    3.073782    0.092386
    235          0           0       -3.919718    3.024684   -0.101341
    236          0           0       -3.931244    3.098332    0.189250
 ---------------------------------------------------------------------
 Rotational constants (GHZ):      0.4529074      0.2836956      0.1879557
 Standard basis: 6-311+G(d,p) (5D, 7F)
 Warning:  center  37 has no basis functions!
 Warning:  center  38 has no basis functions!
 Warning:  center  39 has no basis functions!
 Warning:  center  40 has no basis functions!
 Warning:  center  41 has no basis functions!
 Warning:  center  42 has no basis functions!
 Warning:  center  43 has no basis functions!
 Warning:  center  44 has no basis functions!
 Warning:  center  45 has no basis functions!
 Warning:  center  46 has no basis functions!
 Warning:  center  47 has no basis functions!
 Warning:  center  48 has no basis functions!
 Warning:  center  49 has no basis functions!
 Warning:  center  50 has no basis functions!
 Warning:  center  51 has no basis functions!
 Warning:  center  52 has no basis functions!
 Warning:  center  53 has no basis functions!
 Warning:  center  54 has no basis functions!
 Warning:  center  55 has no basis functions!
 Warning:  center  56 has no basis functions!
 Warning:  center  57 has no basis functions!
 Warning:  center  58 has no basis functions!
 Warning:  center  59 has no basis functions!
 Warning:  center  60 has no basis functions!
 Warning:  center  61 has no basis functions!
 Warning:  center  62 has no basis functions!
 Warning:  center  63 has no basis functions!
 Warning:  center  64 has no basis functions!
 Warning:  center  65 has no basis functions!
 Warning:  center  66 has no basis functions!
 Warning:  center  67 has no basis functions!
 Warning:  center  68 has no basis functions!
 Warning:  center  69 has no basis functions!
 Warning:  center  70 has no basis functions!
 Warning:  center  71 has no basis functions!
 Warning:  center  72 has no basis functions!
 Warning:  center  73 has no basis functions!
 Warning:  center  74 has no basis functions!
 Warning:  center  75 has no basis functions!
 Warning:  center  76 has no basis functions!
 Warning:  center  77 has no basis functions!
 Warning:  center  78 has no basis functions!
 Warning:  center  79 has no basis functions!
 Warning:  center  80 has no basis functions!
 Warning:  center  81 has no basis functions!
 Warning:  center  82 has no basis functions!
 Warning:  center  83 has no basis functions!
 Warning:  center  84 has no basis functions!
 Warning:  center  85 has no basis functions!
 Warning:  center  86 has no basis functions!
 Warning:  center  87 has no basis functions!
 Warning:  center  88 has no basis functions!
 Warning:  center  89 has no basis functions!
 Warning:  center  90 has no basis functions!
 Warning:  center  91 has no basis functions!
 Warning:  center  92 has no basis functions!
 Warning:  center  93 has no basis functions!
 Warning:  center  94 has no basis functions!
 Warning:  center  95 has no basis functions!
 Warning:  center  96 has no basis functions!
 Warning:  center  97 has no basis functions!
 Warning:  center  98 has no basis functions!
 Warning:  center  99 has no basis functions!
 Warning:  center 100 has no basis functions!
 Warning:  center 101 has no basis functions!
 Warning:  center 102 has no basis functions!
 Warning:  center 103 has no basis functions!
 Warning:  center 104 has no basis functions!
 Warning:  center 105 has no basis functions!
 Warning:  center 106 has no basis functions!
 Warning:  center 107 has no basis functions!
 Warning:  center 108 has no basis functions!
 Warning:  center 109 has no basis functions!
 Warning:  center 110 has no basis functions!
 Warning:  center 111 has no basis functions!
 Warning:  center 112 has no basis functions!
 Warning:  center 113 has no basis functions!
 Warning:  center 114 has no basis functions!
 Warning:  center 115 has no basis functions!
 Warning:  center 116 has no basis functions!
 Warning:  center 117 has no basis functions!
 Warning:  center 118 has no basis functions!
 Warning:  center 119 has no basis functions!
 Warning:  center 120 has no basis functions!
 Warning:  center 121 has no basis functions!
 Warning:  center 122 has no basis functions!
 Warning:  center 123 has no basis functions!
 Warning:  center 124 has no basis functions!
 Warning:  center 125 has no basis functions!
 Warning:  center 126 has no basis functions!
 Warning:  center 127 has no basis functions!
 Warning:  center 128 has no basis functions!
 Warning:  center 129 has no basis functions!
 Warning:  center 130 has no basis functions!
 Warning:  center 131 has no basis functions!
 Warning:  center 132 has no basis functions!
 Warning:  center 133 has no basis functions!
 Warning:  center 134 has no basis functions!
 Warning:  center 135 has no basis functions!
 Warning:  center 136 has no basis functions!
 Warning:  center 137 has no basis functions!
 Warning:  center 138 has no basis functions!
 Warning:  center 139 has no basis functions!
 Warning:  center 140 has no basis functions!
 Warning:  center 141 has no basis functions!
 Warning:  center 142 has no basis functions!
 Warning:  center 143 has no basis functions!
 Warning:  center 144 has no basis functions!
 Warning:  center 145 has no basis functions!
 Warning:  center 146 has no basis functions!
 Warning:  center 147 has no basis functions!
 Warning:  center 148 has no basis functions!
 Warning:  center 149 has no basis functions!
 Warning:  center 150 has no basis functions!
 Warning:  center 151 has no basis functions!
 Warning:  center 152 has no basis functions!
 Warning:  center 153 has no basis functions!
 Warning:  center 154 has no basis functions!
 Warning:  center 155 has no basis functions!
 Warning:  center 156 has no basis functions!
 Warning:  center 157 has no basis functions!
 Warning:  center 158 has no basis functions!
 Warning:  center 159 has no basis functions!
 Warning:  center 160 has no basis functions!
 Warning:  center 161 has no basis functions!
 Warning:  center 162 has no basis functions!
 Warning:  center 163 has no basis functions!
 Warning:  center 164 has no basis functions!
 Warning:  center 165 has no basis functions!
 Warning:  center 166 has no basis functions!
 Warning:  center 167 has no basis functions!
 Warning:  center 168 has no basis functions!
 Warning:  center 169 has no basis functions!
 Warning:  center 170 has no basis functions!
 Warning:  center 171 has no basis functions!
 Warning:  center 172 has no basis functions!
 Warning:  center 173 has no basis functions!
 Warning:  center 174 has no basis functions!
 Warning:  center 175 has no basis functions!
 Warning:  center 176 has no basis functions!
 Warning:  center 177 has no basis functions!
 Warning:  center 178 has no basis functions!
 Warning:  center 179 has no basis functions!
 Warning:  center 180 has no basis functions!
 Warning:  center 181 has no basis functions!
 Warning:  center 182 has no basis functions!
 Warning:  center 183 has no basis functions!
 Warning:  center 184 has no basis functions!
 Warning:  center 185 has no basis functions!
 Warning:  center 186 has no basis functions!
 Warning:  center 187 has no basis functions!
 Warning:  center 188 has no basis functions!
 Warning:  center 189 has no basis functions!
 Warning:  center 190 has no basis functions!
 Warning:  center 191 has no basis functions!
 Warning:  center 192 has no basis functions!
 Warning:  center 193 has no basis functions!
 Warning:  center 194 has no basis functions!
 Warning:  center 195 has no basis functions!
 Warning:  center 196 has no basis functions!
 Warning:  center 197 has no basis functions!
 Warning:  center 198 has no basis functions!
 Warning:  center 199 has no basis functions!
 Warning:  center 200 has no basis functions!
 Warning:  center 201 has no basis functions!
 Warning:  center 202 has no basis functions!
 Warning:  center 203 has no basis functions!
 Warning:  center 204 has no basis functions!
 Warning:  center 205 has no basis functions!
 Warning:  center 206 has no basis functions!
 Warning:  center 207 has no basis functions!
 Warning:  center 208 has no basis functions!
 Warning:  center 209 has no basis functions!
 Warning:  center 210 has no basis functions!
 Warning:  center 211 has no basis functions!
 Warning:  center 212 has no basis functions!
 Warning:  center 213 has no basis functions!
 Warning:  center 214 has no basis functions!
 Warning:  center 215 has no basis functions!
 Warning:  center 216 has no basis functions!
 Warning:  center 217 has no basis functions!
 Warning:  center 218 has no basis functions!
 Warning:  center 219 has no basis functions!
 Warning:  center 220 has no basis functions!
 Warning:  center 221 has no basis functions!
 Warning:  center 222 has no basis functions!
 Warning:  center 223 has no basis functions!
 Warning:  center 224 has no basis functions!
 Warning:  center 225 has no basis functions!
 Warning:  center 226 has no basis functions!
 Warning:  center 227 has no basis functions!
 Warning:  center 228 has no basis functions!
 Warning:  center 229 has no basis functions!
 Warning:  center 230 has no basis functions!
 Warning:  center 231 has no basis functions!
 Warning:  center 232 has no basis functions!
 Warning:  center 233 has no basis functions!
 Warning:  center 234 has no basis functions!
 Warning:  center 235 has no basis functions!
 Warning:  center 236 has no basis functions!
   568 basis functions,   904 primitive gaussians,   590 cartesian basis functions
    73 alpha electrons       73 beta electrons
       nuclear repulsion energy      1610.9176155625 Hartrees.
 NAtoms=  236 NActive=  236 NUniq=  236 SFac= 1.00D+00 NAtFMM=   60 NAOKFM=T Big=T
 Integral buffers will be    131072 words long.
 Raffenetti 2 integral format.
 Two-electron integral symmetry is turned off.
 One-electron integrals computed using PRISM.
 NBasis=   568 RedAO= T EigKep=  1.78D-06  NBF=   568
 NBsUse=   556 1.00D-06 EigRej=  9.09D-07 NBFU=   556
 ExpMin= 4.38D-02 ExpMax= 4.56D+03 ExpMxC= 6.82D+02 IAcc=2 IRadAn=         4 AccDes= 0.00D+00
 Harris functional with IExCor=  402 and IRadAn=       4 diagonalized for initial guess.
 HarFok:  IExCor=  402 AccDes= 0.00D+00 IRadAn=         4 IDoV= 1 UseB2=F ITyADJ=14
 ICtDFT=  3500011 ScaDFX=  1.000000  1.000000  1.000000  1.000000
 FoFCou: FMM=F IPFlag=           0 FMFlag=      100000 FMFlg1=        2001
         NFxFlg=           0 DoJE=T BraDBF=F KetDBF=T FulRan=T
         wScrn=  0.000000 ICntrl=     500 IOpCl=  0 I1Cent=   200000004 NGrid=           0
         NMat0=    1 NMatS0=      1 NMatT0=    0 NMatD0=    1 NMtDS0=    0 NMtDT0=    0
 Symmetry not used in FoFCou.
 Requested convergence on RMS density matrix=1.00D-08 within 128 cycles.
 Requested convergence on MAX density matrix=1.00D-06.
 Requested convergence on             energy=1.00D-06.
 No special actions if energy rises.
 SCF Done:  E(RB3LYP) =  -847.003289847     A.U. after   15 cycles
            NFock= 15  Conv=0.76D-08     -V/T= 2.0040
 DoSCS=F DFT=T ScalE2(SS,OS)=  1.000000  1.000000
 Range of M.O.s used for correlation:     1   556
 NBasis=   568 NAE=    73 NBE=    73 NFC=     0 NFV=     0
 NROrb=    556 NOA=    73 NOB=    73 NVA=   483 NVB=   483

 **** Warning!!: The largest alpha MO coefficient is  0.10971037D+03

          Differentiating once with respect to magnetic field using GIAOs.
          Electric field/nuclear overlap derivatives assumed to be zero.
 FoFCou: FMM=F IPFlag=           0 FMFlag=      100000 FMFlg1=        2001
         NFxFlg=           0 DoJE=F BraDBF=F KetDBF=T FulRan=T
         wScrn=  0.000000 ICntrl=    6100 IOpCl=  0 I1Cent=           7 NGrid=         236
         NMat0=    1 NMatS0=      1 NMatT0=    0 NMatD0=    1 NMtDS0=    0 NMtDT0=    0
 Symmetry not used in FoFCou.
 FoFJK:  IHMeth= 1 ICntrl=    6127 DoSepK=F KAlg= 0 I1Cent=   0 FoldK=F
 IRaf=         1 NMat=   1 IRICut=       1 DoRegI=T DoRafI=F ISym2E= 0.
          There are     3 degrees of freedom in the 1st order CPHF.  IDoFFX=0 NUNeed=     3.
      3 vectors produced by pass  0 Test12= 1.18D-12 3.33D-08 XBig12= 2.07D+03 9.18D+00.
 AX will form     3 AO Fock derivatives at one time.
      3 vectors produced by pass  1 Test12= 1.18D-12 3.33D-08 XBig12= 3.56D+00 8.03D-01.
      3 vectors produced by pass  2 Test12= 1.18D-12 3.33D-08 XBig12= 2.10D-02 6.92D-02.
      3 vectors produced by pass  3 Test12= 1.18D-12 3.33D-08 XBig12= 5.45D-05 1.89D-03.
      3 vectors produced by pass  4 Test12= 1.18D-12 3.33D-08 XBig12= 1.20D-07 7.79D-05.
      3 vectors produced by pass  5 Test12= 1.18D-12 3.33D-08 XBig12= 4.02D-10 4.73D-06.
      3 vectors produced by pass  6 Test12= 1.18D-12 3.33D-08 XBig12= 1.32D-12 2.61D-07.
 InvSVY:  IOpt=1 It=  1 EMax= 2.84D-14
 Solved reduced A of dimension    21 with     3 vectors.
 Calculating GIAO nuclear magnetic shielding tensors.
 SCF GIAO Magnetic shielding tensor (ppm):
      1  C    Isotropic =    53.8139   Anisotropy =   178.0260
   XX=   -41.4327   YX=   -32.3458   ZX=    10.0287
   XY=   -28.3572   YY=    59.0527   ZY=    55.1899
   XZ=    13.1759   YZ=    58.7550   ZZ=   143.8218
   Eigenvalues:   -53.8775    42.8214   172.4979
      2  H    Isotropic =    24.3095   Anisotropy =     4.8536
   XX=    25.5771   YX=    -1.0289   ZX=     0.5661
   XY=    -0.7431   YY=    26.1829   ZY=    -2.3306
   XZ=    -0.1707   YZ=    -2.4411   ZZ=    21.1687
   Eigenvalues:    20.2108    25.1725    27.5453
      3  C    Isotropic =    51.4055   Anisotropy =   157.8639
   XX=   -31.5399   YX=    38.5015   ZX=   -17.9316
   XY=    34.3519   YY=    49.9437   ZY=    49.6392
   XZ=    -9.8383   YZ=    44.6006   ZZ=   135.8127
   Eigenvalues:   -50.5747    48.1432   156.6481
      4  H    Isotropic =    23.8290   Anisotropy =     7.1838
   XX=    25.3635   YX=     1.8486   ZX=    -0.3559
   XY=     1.9656   YY=    26.4581   ZY=    -2.4103
   XZ=    -1.2941   YZ=    -2.6614   ZZ=    19.6654
   Eigenvalues:    18.8176    24.0511    28.6182
      5  C    Isotropic =    46.0697   Anisotropy =   207.6751
   XX=   -19.2123   YX=    -4.8852   ZX=    -1.6475
   XY=     2.8938   YY=    -2.9860   ZY=    66.5656
   XZ=     2.5356   YZ=    67.9144   ZZ=   160.4073
   Eigenvalues:   -27.2455   -19.0652   184.5197
      6  C    Isotropic =    47.5218   Anisotropy =   196.9389
   XX=   -28.1552   YX=    -2.7889   ZX=    12.0660
   XY=   -14.3886   YY=    21.2063   ZY=    74.2521
   XZ=   -18.6356   YZ=    61.1113   ZZ=   149.5144
   Eigenvalues:   -30.2925    -5.9564   178.8144
      7  C    Isotropic =    49.3915   Anisotropy =   179.8333
   XX=   -12.5211   YX=    28.7048   ZX=   -24.6745
   XY=    31.5123   YY=    29.7000   ZY=    77.7459
   XZ=   -40.0095   YZ=    65.3072   ZZ=   130.9956
   Eigenvalues:   -52.1299    31.0240   169.2804
      8  H    Isotropic =    23.1586   Anisotropy =    13.5525
   XX=    28.5711   YX=     1.5482   ZX=    -3.6986
   XY=     3.2466   YY=    22.7592   ZY=    -2.1157
   XZ=    -8.3753   YZ=    -1.0821   ZZ=    18.1456
   Eigenvalues:    15.3521    21.9301    32.1936
      9  C    Isotropic =    55.1460   Anisotropy =   174.7426
   XX=    46.7071   YX=    -2.6162   ZX=    -2.8420
   XY=     0.6223   YY=    -1.6258   ZY=    92.8272
   XZ=     0.5159   YZ=    95.6598   ZZ=   120.3568
   Eigenvalues:   -52.8932    46.6901   171.6411
     10  H    Isotropic =    24.6278   Anisotropy =     7.1815
   XX=    29.1040   YX=     0.1399   ZX=    -0.3694
   XY=     0.3642   YY=    23.4778   ZY=    -1.0805
   XZ=    -2.4493   YZ=    -2.9465   ZZ=    21.3016
   Eigenvalues:    19.9703    24.4977    29.4155
     11  C    Isotropic =    51.5607   Anisotropy =   151.2142
   XX=     2.1639   YX=    40.9287   ZX=   -26.0048
   XY=    49.9131   YY=    12.2331   ZY=    42.1342
   XZ=   -15.6145   YZ=    38.6614   ZZ=   140.2851
   Eigenvalues:   -48.1951    50.5071   152.3701
     12  H    Isotropic =    23.8537   Anisotropy =     7.3815
   XX=    25.9672   YX=     2.3738   ZX=    -0.2390
   XY=     2.4320   YY=    26.3975   ZY=    -1.8291
   XZ=     0.3529   YZ=    -1.7731   ZZ=    19.1964
   Eigenvalues:    18.7149    24.0714    28.7747
     13  C    Isotropic =    52.8653   Anisotropy =   147.4265
   XX=    51.2944   YX=    19.9221   ZX=   -13.4678
   XY=    11.5478   YY=   -34.0176   ZY=    42.5079
   XZ=    -9.2241   YZ=    40.0716   ZZ=   141.3192
   Eigenvalues:   -46.5152    53.9616   151.1497
     14  H    Isotropic =    24.0156   Anisotropy =     7.3485
   XX=    28.6644   YX=     0.6281   ZX=     1.0808
   XY=     0.5926   YY=    24.4325   ZY=    -1.0823
   XZ=     1.6846   YZ=    -0.3842   ZZ=    18.9500
   Eigenvalues:    18.6430    24.4892    28.9146
     15  C    Isotropic =    46.2221   Anisotropy =   203.9048
   XX=   -27.2215   YX=    -0.0442   ZX=   -28.9124
   XY=     4.6427   YY=   -10.5571   ZY=    28.3830
   XZ=   -10.2704   YZ=    26.7376   ZZ=   176.4448
   Eigenvalues:   -30.5512   -12.9411   182.1586
     16  C    Isotropic =    51.9375   Anisotropy =   188.2004
   XX=   -19.4441   YX=     5.5046   ZX=    15.7858
   XY=    -8.3874   YY=     2.4863   ZY=    22.9264
   XZ=   -50.6243   YZ=    23.3340   ZZ=   172.7704
   Eigenvalues:   -21.0294    -0.5625   177.4045
     17  C    Isotropic =    51.9482   Anisotropy =   149.1264
   XX=    50.7296   YX=   -23.9353   ZX=   -18.4207
   XY=   -16.7271   YY=   -41.8764   ZY=    17.8662
   XZ=   -14.3278   YZ=    11.4871   ZZ=   146.9915
   Eigenvalues:   -46.7796    51.2584   151.3658
     18  H    Isotropic =    24.0122   Anisotropy =     7.5163
   XX=    28.5811   YX=    -0.0866   ZX=     1.5071
   XY=    -0.2466   YY=    24.3342   ZY=    -0.7657
   XZ=     2.5088   YZ=    -1.5208   ZZ=    19.1214
   Eigenvalues:    18.5094    24.5041    29.0231
     19  C    Isotropic =    51.7356   Anisotropy =   148.5924
   XX=     2.4559   YX=   -45.6913   ZX=   -31.2531
   XY=   -53.4448   YY=     7.4698   ZY=    -1.8888
   XZ=   -23.5601   YZ=    -1.2765   ZZ=   145.2810
   Eigenvalues:   -46.9894    51.3989   150.7972
     20  H    Isotropic =    23.9071   Anisotropy =     7.6651
   XX=    25.5796   YX=    -2.0226   ZX=     1.4905
   XY=    -1.9998   YY=    27.3706   ZY=    -0.5164
   XZ=     2.7276   YZ=    -1.1179   ZZ=    18.7711
   Eigenvalues:    18.1643    24.5398    29.0172
     21  C    Isotropic =    45.9767   Anisotropy =   203.9316
   XX=   -16.2108   YX=    13.1802   ZX=   -44.5913
   XY=     6.5714   YY=   -20.6329   ZY=     0.0949
   XZ=   -28.8984   YZ=   -13.0883   ZZ=   174.7736
   Eigenvalues:   -30.5796   -13.4215   181.9311
     22  C    Isotropic =    52.0450   Anisotropy =   188.1157
   XX=    -0.0787   YX=     2.5023   ZX=   -16.3451
   XY=    18.9327   YY=   -14.4798   ZY=   -34.4335
   XZ=   -50.6032   YZ=    19.9104   ZZ=   170.6934
   Eigenvalues:   -20.7705    -0.5500   177.4554
     23  C    Isotropic =    53.2392   Anisotropy =   146.7412
   XX=   -22.0674   YX=   -32.0012   ZX=   -49.4857
   XY=   -23.2043   YY=    44.3661   ZY=   -15.6400
   XZ=   -43.8090   YZ=   -20.2525   ZZ=   137.4189
   Eigenvalues:   -45.6776    54.3286   151.0667
     24  H    Isotropic =    23.8249   Anisotropy =     7.5289
   XX=    25.1073   YX=    -1.7330   ZX=     1.5380
   XY=    -1.5944   YY=    28.0047   ZY=     0.0879
   XZ=     1.2557   YZ=    -0.8283   ZZ=    18.3628
   Eigenvalues:    18.0848    24.5458    28.8442
     25  C    Isotropic =    51.4969   Anisotropy =   150.1066
   XX=   -28.4915   YX=    33.9684   ZX=   -52.3137
   XY=    22.0311   YY=    46.6072   ZY=    -3.8075
   XZ=   -44.5594   YZ=   -10.6355   ZZ=   136.3748
   Eigenvalues:   -48.3857    51.3083   151.5679
     26  H    Isotropic =    23.7431   Anisotropy =     7.4052
   XX=    24.0663   YX=     1.1141   ZX=     1.9989
   XY=     0.9693   YY=    28.1000   ZY=     1.6568
   XZ=     2.0795   YZ=     0.8886   ZZ=    19.0630
   Eigenvalues:    18.2615    24.2880    28.6799
     27  C    Isotropic =    45.8108   Anisotropy =   207.2710
   XX=    -2.7702   YX=    13.7697   ZX=   -61.4651
   XY=     6.5593   YY=   -12.0335   ZY=   -41.6456
   XZ=   -62.6381   YZ=   -44.9232   ZZ=   152.2361
   Eigenvalues:   -28.0803   -18.4787   183.9915
     28  C    Isotropic =    47.8398   Anisotropy =   197.2870
   XX=    19.6900   YX=    14.4398   ZX=   -60.5682
   XY=    28.5650   YY=   -19.3566   ZY=   -56.7015
   XZ=   -63.1331   YZ=   -24.4782   ZZ=   143.1859
   Eigenvalues:   -30.5979    -5.2472   179.3644
     29  C    Isotropic =    49.3441   Anisotropy =   179.7793
   XX=    -3.4110   YX=    38.3775   ZX=   -80.8875
   XY=    36.1252   YY=    25.9805   ZY=   -23.7573
   XZ=   -78.1065   YZ=    -3.9802   ZZ=   125.4627
   Eigenvalues:   -51.6645    30.4997   169.1970
     30  H    Isotropic =    23.1387   Anisotropy =    13.3222
   XX=    22.4354   YX=    -0.7013   ZX=    -0.2375
   XY=    -2.1539   YY=    28.3546   ZY=     4.5555
   XZ=    -3.4181   YZ=     8.3231   ZZ=    18.6259
   Eigenvalues:    15.2751    22.1208    32.0201
     31  C    Isotropic =    55.4410   Anisotropy =   174.9390
   XX=    17.1871   YX=   -14.0890   ZX=   -84.0024
   XY=   -17.9030   YY=    37.4745   ZY=   -50.3662
   XZ=   -84.6557   YZ=   -54.8325   ZZ=   111.6615
   Eigenvalues:   -51.9248    46.1808   172.0670
     32  H    Isotropic =    24.5337   Anisotropy =     7.2554
   XX=    24.6185   YX=    -2.5264   ZX=     0.7632
   XY=    -2.7385   YY=    27.4630   ZY=     1.0335
   XZ=     1.1913   YZ=     3.7573   ZZ=    21.5194
   Eigenvalues:    19.8987    24.3316    29.3706
     33  C    Isotropic =    53.1814   Anisotropy =   179.0596
   XX=    60.9231   YX=    35.2256   ZX=   -42.9515
   XY=    32.0226   YY=   -38.1801   ZY=   -45.5652
   XZ=   -44.2248   YZ=   -50.7831   ZZ=   136.8014
   Eigenvalues:   -55.1197    42.1095   172.5545
     34  H    Isotropic =    24.2825   Anisotropy =     5.1861
   XX=    26.7643   YX=    -0.0934   ZX=     2.5955
   XY=    -0.2993   YY=    24.8157   ZY=     0.8589
   XZ=     2.3715   YZ=     1.4580   ZZ=    21.2676
   Eigenvalues:    20.0339    25.0737    27.7399
     35  C    Isotropic =    51.5295   Anisotropy =   155.1748
   XX=    -0.5131   YX=    52.5760   ZX=   -52.1551
   XY=    55.6135   YY=    25.1843   ZY=   -14.2643
   XZ=   -45.7255   YZ=   -17.1625   ZZ=   129.9171
   Eigenvalues:   -48.3147    47.9237   154.9793
     36  H    Isotropic =    23.8384   Anisotropy =     7.3073
   XX=    24.2302   YX=     1.4459   ZX=     2.1759
   XY=     1.2147   YY=    27.1572   ZY=     2.0665
   XZ=     1.6853   YZ=     2.7775   ZZ=    20.1277
   Eigenvalues:    18.9464    23.8588    28.7099
     37  Bq   Isotropic =    12.1896   Anisotropy =    20.0368
   XX=    24.9276   YX=     5.8221   ZX=     1.5067
   XY=     0.9595   YY=     5.0471   ZY=    -5.1120
   XZ=    -4.3249   YZ=     9.4350   ZZ=     6.5942
   Eigenvalues:     2.9375     8.0838    25.5475
     38  Bq   Isotropic =    12.8078   Anisotropy =    10.6380
   XX=    17.2680   YX=     1.6316   ZX=     1.3937
   XY=    -2.8807   YY=    15.3537   ZY=    -3.5960
   XZ=   -11.0040   YZ=    10.9939   ZZ=     5.8018
   Eigenvalues:     3.1652    15.3585    19.8998
     39  Bq   Isotropic =    10.9092   Anisotropy =    24.6153
   XX=    26.5159   YX=     7.1112   ZX=     0.6097
   XY=     2.1098   YY=     0.4097   ZY=    -2.7081
   XZ=    -2.8247   YZ=     9.3980   ZZ=     5.8020
   Eigenvalues:    -1.9486     7.3569    27.3194
     40  Bq   Isotropic =    11.8646   Anisotropy =    13.0637
   XX=    14.3131   YX=     0.7333   ZX=     0.8630
   XY=    -3.6476   YY=    15.9059   ZY=    -1.7829
   XZ=   -12.8298   YZ=    11.8097   ZZ=     5.3748
   Eigenvalues:     1.3137    13.7064    20.5737
     41  Bq   Isotropic =     9.7702   Anisotropy =    28.0992
   XX=    27.6184   YX=     7.7593   ZX=    -0.6724
   XY=     2.6589   YY=    -2.6301   ZY=     0.9171
   XZ=    -2.0853   YZ=     8.9740   ZZ=     4.3222
   Eigenvalues:    -6.0235     6.8310    28.5030
     42  Bq   Isotropic =    10.6731   Anisotropy =    15.6609
   XX=    11.5296   YX=     0.0991   ZX=     0.3181
   XY=    -4.1278   YY=    15.3867   ZY=    -0.0786
   XZ=   -14.1627   YZ=    12.4526   ZZ=     5.1031
   Eigenvalues:    -0.5044    11.4100    21.1138
     43  Bq   Isotropic =     9.2615   Anisotropy =    29.7049
   XX=    28.2475   YX=     7.5221   ZX=    -1.9981
   XY=     2.4745   YY=    -3.0440   ZY=     4.6086
   XZ=    -1.8864   YZ=     7.5501   ZZ=     2.5809
   Eigenvalues:    -7.7005     6.4202    29.0647
     44  Bq   Isotropic =     9.4188   Anisotropy =    17.5632
   XX=     9.0500   YX=    -0.3314   ZX=    -0.1708
   XY=    -4.3847   YY=    14.2191   ZY=     1.3335
   XZ=   -15.0099   YZ=    12.8275   ZZ=     4.9873
   Eigenvalues:    -2.0831     9.2119    21.1276
     45  Bq   Isotropic =     9.4693   Anisotropy =    29.1625
   XX=    28.2540   YX=     6.4834   ZX=    -2.9812
   XY=     1.7707   YY=    -1.0389   ZY=     7.0973
   XZ=    -1.7285   YZ=     4.8810   ZZ=     1.1927
   Eigenvalues:    -6.6436     6.1406    28.9109
     46  Bq   Isotropic =    13.0733   Anisotropy =    15.3631
   XX=    22.7979   YX=     4.2844   ZX=     1.8793
   XY=    -0.4519   YY=     9.7497   ZY=    -5.8386
   XZ=    -6.4362   YZ=     9.6340   ZZ=     6.6723
   Eigenvalues:     5.2908    10.6137    23.3153
     47  Bq   Isotropic =    10.5829   Anisotropy =    11.8276
   XX=    17.7994   YX=     2.8179   ZX=     1.6002
   XY=    -1.7918   YY=    13.1666   ZY=    -4.8650
   XZ=    -8.4716   YZ=     9.3519   ZZ=     0.7827
   Eigenvalues:    -0.2783    13.5590    18.4680
     48  Bq   Isotropic =    10.4130   Anisotropy =    19.2672
   XX=    22.6840   YX=     5.1679   ZX=     1.3901
   XY=     0.2557   YY=     8.1742   ZY=    -5.4890
   XZ=    -4.5270   YZ=     7.3252   ZZ=     0.3808
   Eigenvalues:     0.1135     7.8677    23.2579
     49  Bq   Isotropic =    10.1066   Anisotropy =    10.7445
   XX=    15.0935   YX=     1.7884   ZX=     1.2618
   XY=    -2.6625   YY=    14.3555   ZY=    -3.5213
   XZ=   -10.4558   YZ=    10.3703   ZZ=     0.8708
   Eigenvalues:    -1.1352    14.1853    17.2696
     50  Bq   Isotropic =     9.8721   Anisotropy =    22.9683
   XX=    24.4893   YX=     6.1157   ZX=     0.6967
   XY=     1.0804   YY=     5.3527   ZY=    -4.3129
   XZ=    -3.1233   YZ=     6.2768   ZZ=    -0.2256
   Eigenvalues:    -0.5335     4.9655    25.1844
     51  Bq   Isotropic =     9.3615   Anisotropy =    12.8813
   XX=    12.4614   YX=     0.9630   ZX=     0.7929
   XY=    -3.3190   YY=    14.5842   ZY=    -1.9684
   XZ=   -12.1366   YZ=    11.2604   ZZ=     1.0390
   Eigenvalues:    -2.2060    12.3416    17.9491
     52  Bq   Isotropic =     9.2879   Anisotropy =    25.7118
   XX=    25.6746   YX=     6.5962   ZX=    -0.2981
   XY=     1.5208   YY=     3.3288   ZY=    -2.3835
   XZ=    -2.2852   YZ=     4.9282   ZZ=    -1.1396
   Eigenvalues:    -1.6862     3.1209    26.4292
     53  Bq   Isotropic =     8.4739   Anisotropy =    15.0520
   XX=    10.0384   YX=     0.3398   ZX=     0.2961
   XY=    -3.7619   YY=    14.0620   ZY=    -0.4777
   XZ=   -13.4086   YZ=    11.9244   ZZ=     1.3213
   Eigenvalues:    -3.2937    10.2068    18.5085
     54  Bq   Isotropic =     8.8636   Anisotropy =    26.9872
   XX=    26.1288   YX=     6.4699   ZX=    -1.3644
   XY=     1.5275   YY=     2.6108   ZY=    -0.3310
   XZ=    -1.8590   YZ=     3.0156   ZZ=    -2.1486
   Eigenvalues:    -2.7485     2.4843    26.8551
     55  Bq   Isotropic =     7.5531   Anisotropy =    16.6564
   XX=     7.9023   YX=    -0.1122   ZX=    -0.1633
   XY=    -4.0243   YY=    13.0525   ZY=     0.8009
   XZ=   -14.2564   YZ=    12.3143   ZZ=     1.7046
   Eigenvalues:    -4.2495     8.2515    18.6574
     56  Bq   Isotropic =     8.6537   Anisotropy =    26.6127
   XX=    25.7627   YX=     5.7832   ZX=    -2.2335
   XY=     1.2343   YY=     3.1110   ZY=     1.1610
   XZ=    -1.5009   YZ=     0.4573   ZZ=    -2.9126
   Eigenvalues:    -3.2146     2.7802    26.3955
     57  Bq   Isotropic =    10.6895   Anisotropy =    15.2961
   XX=    20.3957   YX=     3.9930   ZX=     1.6804
   XY=    -0.7704   YY=    11.0009   ZY=    -5.6345
   XZ=    -6.3982   YZ=     8.3191   ZZ=     0.6720
   Eigenvalues:     0.1778    11.0038    20.8869
     58  Bq   Isotropic =     7.9186   Anisotropy =    11.7514
   XX=    15.0982   YX=     2.8205   ZX=     1.3045
   XY=    -1.6120   YY=    12.8424   ZY=    -4.8198
   XZ=    -8.3270   YZ=     8.0754   ZZ=    -4.1848
   Eigenvalues:    -4.9681    12.9710    15.7528
     59  Bq   Isotropic =     7.9711   Anisotropy =    18.0981
   XX=    19.3131   YX=     4.7570   ZX=     1.1556
   XY=     0.0693   YY=     9.9062   ZY=    -6.0178
   XZ=    -4.8360   YZ=     5.1799   ZZ=    -5.3060
   Eigenvalues:    -5.4465     9.3233    20.0365
     60  Bq   Isotropic =     7.5663   Anisotropy =    10.9152
   XX=    12.8149   YX=     1.9153   ZX=     1.0192
   XY=    -2.3584   YY=    13.4563   ZY=    -3.5753
   XZ=   -10.0819   YZ=     9.3079   ZZ=    -3.5723
   Eigenvalues:    -5.1406    12.9964    14.8431
     61  Bq   Isotropic =     7.7035   Anisotropy =    21.0283
   XX=    20.8941   YX=     5.5118   ZX=     0.6241
   XY=     0.7649   YY=     8.1300   ZY=    -5.7051
   XZ=    -3.5031   YZ=     3.5359   ZZ=    -5.9137
   Eigenvalues:    -6.0514     7.4395    21.7223
     62  Bq   Isotropic =     7.0568   Anisotropy =    12.8627
   XX=    10.6135   YX=     1.1511   ZX=     0.6163
   XY=    -2.9506   YY=    13.4327   ZY=    -2.1957
   XZ=   -11.5979   YZ=    10.3215   ZZ=    -2.8756
   Eigenvalues:    -5.4947    11.0332    15.6320
     63  Bq   Isotropic =     7.3452   Anisotropy =    23.1712
   XX=    21.9048   YX=     5.9135   ZX=    -0.1448
   XY=     1.2096   YY=     6.6741   ZY=    -4.9038
   XZ=    -2.5735   YZ=     1.6783   ZZ=    -6.5434
   Eigenvalues:    -6.7682     6.0111    22.7927
     64  Bq   Isotropic =     6.4612   Anisotropy =    14.5716
   XX=     8.5930   YX=     0.5429   ZX=     0.1788
   XY=    -3.3770   YY=    12.8883   ZY=    -0.8651
   XZ=   -12.7774   YZ=    11.0668   ZZ=    -2.0977
   Eigenvalues:    -5.9115     9.1195    16.1756
     65  Bq   Isotropic =     6.9840   Anisotropy =    24.1909
   XX=    22.2283   YX=     5.8721   ZX=    -0.9906
   XY=     1.3760   YY=     5.8002   ZY=    -3.9332
   XZ=    -1.9437   YZ=    -0.4656   ZZ=    -7.0766
   Eigenvalues:    -7.4673     5.3080    23.1112
     66  Bq   Isotropic =     5.8439   Anisotropy =    15.8457
   XX=     6.8094   YX=     0.0783   ZX=    -0.2356
   XY=    -3.6537   YY=    11.9885   ZY=     0.3024
   XZ=   -13.5926   YZ=    11.5260   ZZ=    -1.2661
   Eigenvalues:    -6.2866     7.4106    16.4077
     67  Bq   Isotropic =     6.6557   Anisotropy =    23.9652
   XX=    21.8113   YX=     5.4119   ZX=    -1.7187
   XY=     1.3415   YY=     5.4897   ZY=    -3.1446
   XZ=    -1.3814   YZ=    -2.8794   ZZ=    -7.3339
   Eigenvalues:    -8.0270     5.3616    22.6325
     68  Bq   Isotropic =     8.0580   Anisotropy =    14.8370
   XX=    17.3215   YX=     3.8066   ZX=     1.3762
   XY=    -0.7675   YY=    11.5964   ZY=    -5.7005
   XZ=    -6.5062   YZ=     6.6865   ZZ=    -4.7440
   Eigenvalues:    -5.0648    11.2894    17.9493
     69  Bq   Isotropic =     5.4994   Anisotropy =    11.8997
   XX=    12.4950   YX=     2.8076   ZX=     0.9491
   XY=    -1.3419   YY=    12.2831   ZY=    -4.9635
   XZ=    -8.2916   YZ=     6.5893   ZZ=    -8.2799
   Eigenvalues:    -8.9499    12.0156    13.4325
     70  Bq   Isotropic =     5.4826   Anisotropy =    17.2240
   XX=    15.8410   YX=     4.4664   ZX=     0.8569
   XY=     0.1568   YY=    10.5676   ZY=    -6.5756
   XZ=    -5.1636   YZ=     3.1833   ZZ=    -9.9609
   Eigenvalues:   -10.2486     9.7310    16.9652
     71  Bq   Isotropic =     5.3137   Anisotropy =    11.4521
   XX=    10.6720   YX=     1.9973   ZX=     0.7093
   XY=    -2.0194   YY=    12.5362   ZY=    -3.7644
   XZ=    -9.8422   YZ=     7.9893   ZZ=    -7.2672
   Eigenvalues:    -8.5623    11.5549    12.9484
     72  Bq   Isotropic =     5.2876   Anisotropy =    19.5359
   XX=    17.0848   YX=     5.1049   ZX=     0.4592
   XY=     0.8088   YY=     9.3921   ZY=    -6.8101
   XZ=    -3.8768   YZ=     1.2507   ZZ=   -10.6140
   Eigenvalues:   -11.0535     8.6049    18.3116
     73  Bq   Isotropic =     5.0325   Anisotropy =    12.9201
   XX=     8.9049   YX=     1.2866   ZX=     0.3688
   XY=    -2.5770   YY=    12.3513   ZY=    -2.4918
   XZ=   -11.1960   YZ=     9.1278   ZZ=    -6.1587
   Eigenvalues:    -8.3291     9.7806    13.6459
     74  Bq   Isotropic =     5.0129   Anisotropy =    21.2186
   XX=    17.8653   YX=     5.4666   ZX=    -0.1224
   XY=     1.2908   YY=     8.2763   ZY=    -6.7014
   XZ=    -2.8655   YZ=    -0.8121   ZZ=   -11.1029
   Eigenvalues:   -11.8304     7.7104    19.1586
     75  Bq   Isotropic =     4.6951   Anisotropy =    14.1427
   XX=     7.2714   YX=     0.6978   ZX=    -0.0069
   XY=    -2.9996   YY=    11.8007   ZY=    -1.2708
   XZ=   -12.2689   YZ=     9.9769   ZZ=    -4.9870
   Eigenvalues:    -8.1868     8.1485    14.1235
     76  Bq   Isotropic =     4.6996   Anisotropy =    22.0502
   XX=    18.0926   YX=     5.4876   ZX=    -0.7728
   XY=     1.5789   YY=     7.3622   ZY=    -6.3956
   XZ=    -2.0636   YZ=    -2.9848   ZZ=   -11.3559
   Eigenvalues:   -12.4762     7.1753    19.3998
     77  Bq   Isotropic =     4.3382   Anisotropy =    15.0888
   XX=     5.8174   YX=     0.2295   ZX=    -0.3691
   XY=    -3.2940   YY=    10.9924   ZY=    -0.1847
   XZ=   -13.0294   YZ=    10.5338   ZZ=    -3.7951
   Eigenvalues:    -8.0685     6.6857    14.3974
     78  Bq   Isotropic =     4.3725   Anisotropy =    21.9462
   XX=    17.7360   YX=     5.1790   ZX=    -1.3490
   XY=     1.7130   YY=     6.6641   ZY=    -6.0628
   XZ=    -1.3181   YZ=    -5.2069   ZZ=   -11.2824
   Eigenvalues:   -12.9085     7.0228    19.0033
     79  Bq   Isotropic =     5.5590   Anisotropy =    14.5812
   XX=    14.2631   YX=     3.6616   ZX=     1.0167
   XY=    -0.5908   YY=    11.5934   ZY=    -5.9426
   XZ=    -6.6791   YZ=     4.9725   ZZ=    -9.1796
   Eigenvalues:    -9.5210    10.9181    15.2798
     80  Bq   Isotropic =     3.4452   Anisotropy =    12.9865
   XX=    10.2158   YX=     2.7514   ZX=     0.5709
   XY=    -1.0511   YY=    11.5086   ZY=    -5.2066
   XZ=    -8.3177   YZ=     5.0726   ZZ=   -11.3888
   Eigenvalues:   -12.0626    10.2952    12.1029
     81  Bq   Isotropic =     3.2689   Anisotropy =    17.0473
   XX=    12.7629   YX=     4.2049   ZX=     0.5376
   XY=     0.3536   YY=    10.4963   ZY=    -7.0652
   XZ=    -5.4653   YZ=     1.4418   ZZ=   -13.4526
   Eigenvalues:   -13.9588     9.1316    14.6337
     82  Bq   Isotropic =     3.4196   Anisotropy =    12.3263
   XX=     8.8050   YX=     2.0200   ZX=     0.3667
   XY=    -1.6894   YY=    11.5565   ZY=    -4.0351
   XZ=    -9.6974   YZ=     6.5771   ZZ=   -10.1027
   Eigenvalues:   -11.2624     9.8841    11.6372
     83  Bq   Isotropic =     3.0716   Anisotropy =    18.8755
   XX=    13.6933   YX=     4.7637   ZX=     0.2561
   XY=     0.9941   YY=     9.6749   ZY=    -7.6130
   XZ=    -4.2043   YZ=    -0.5733   ZZ=   -14.1533
   Eigenvalues:   -14.9137     8.4733    15.6553
     84  Bq   Isotropic =     3.3344   Anisotropy =    12.9488
   XX=     7.4211   YX=     1.3602   ZX=     0.0808
   XY=    -2.2282   YY=    11.2899   ZY=    -2.8324
   XZ=   -10.9040   YZ=     7.8141   ZZ=    -8.7078
   Eigenvalues:   -10.5887     8.6250    11.9669
     85  Bq   Isotropic =     2.8242   Anisotropy =    20.2148
   XX=    14.2686   YX=     5.0994   ZX=    -0.1637
   XY=     1.5142   YY=     8.7843   ZY=    -7.8954
   XZ=    -3.1219   YZ=    -2.6465   ZZ=   -14.5802
   Eigenvalues:   -15.7424     7.9142    16.3008
     86  Bq   Isotropic =     3.2091   Anisotropy =    13.6941
   XX=     6.1261   YX=     0.7964   ZX=    -0.2362
   XY=    -2.6522   YY=    10.7595   ZY=    -1.6863
   XZ=   -11.8690   YZ=     8.7623   ZZ=    -7.2584
   Eigenvalues:   -10.0186     7.3074    12.3384
     87  Bq   Isotropic =     2.5493   Anisotropy =    20.9056
   XX=    14.4279   YX=     5.1638   ZX=    -0.6384
   XY=     1.8892   YY=     7.9069   ZY=    -7.9673
   XZ=    -2.1794   YZ=    -4.7177   ZZ=   -14.6869
   Eigenvalues:   -16.3529     7.5144    16.4864
     88  Bq   Isotropic =     3.0627   Anisotropy =    14.3468
   XX=     4.9587   YX=     0.3338   ZX=    -0.5446
   XY=    -2.9635   YY=    10.0394   ZY=    -0.6580
   XZ=   -12.5633   YZ=     9.4238   ZZ=    -5.8100
   Eigenvalues:    -9.5157     6.0765    12.6272
     89  Bq   Isotropic =     2.2647   Anisotropy =    20.8813
   XX=    14.1540   YX=     4.9601   ZX=    -1.0629
   XY=     2.1348   YY=     7.0690   ZY=    -7.9028
   XZ=    -1.2791   YZ=    -6.7136   ZZ=   -14.4291
   Eigenvalues:   -16.6784     7.2868    16.1855
     90  Bq   Isotropic =     3.3963   Anisotropy =    14.9610
   XX=    11.5687   YX=     3.5045   ZX=     0.6407
   XY=    -0.3506   YY=    11.1391   ZY=    -6.2464
   XZ=    -6.8681   YZ=     3.3428   ZZ=   -12.5188
   Eigenvalues:   -12.9790     9.7977    13.3703
     91  Bq   Isotropic =     1.8044   Anisotropy =    14.0362
   XX=     8.3496   YX=     2.6364   ZX=     0.1978
   XY=    -0.7869   YY=    10.5865   ZY=    -5.4655
   XZ=    -8.3769   YZ=     3.6452   ZZ=   -13.5229
   Eigenvalues:   -14.2840     8.5354    11.1619
     92  Bq   Isotropic =     1.4714   Anisotropy =    17.4154
   XX=    10.2546   YX=     3.9210   ZX=     0.2289
   XY=     0.5622   YY=     9.9784   ZY=    -7.4282
   XZ=    -5.7286   YZ=    -0.0047   ZZ=   -15.8188
   Eigenvalues:   -16.5621     7.8946    13.0816
     93  Bq   Isotropic =     1.9091   Anisotropy =    12.9685
   XX=     7.2725   YX=     1.9764   ZX=     0.0187
   XY=    -1.4000   YY=    10.5294   ZY=    -4.3249
   XZ=    -9.6177   YZ=     5.1940   ZZ=   -12.0746
   Eigenvalues:   -13.2099     8.3824    10.5547
     94  Bq   Isotropic =     1.2525   Anisotropy =    18.9175
   XX=    10.9367   YX=     4.4166   ZX=     0.0516
   XY=     1.1997   YY=     9.3797   ZY=    -8.1292
   XZ=    -4.4791   YZ=    -1.9737   ZZ=   -16.5589
   Eigenvalues:   -17.6054     7.4988    13.8642
     95  Bq   Isotropic =     1.9758   Anisotropy =    12.8464
   XX=     6.2000   YX=     1.3680   ZX=    -0.2222
   XY=    -1.9262   YY=    10.2375   ZY=    -3.1770
   XZ=   -10.6963   YZ=     6.4938   ZZ=   -10.5100
   Eigenvalues:   -12.2370     7.6243    10.5401
     96  Bq   Isotropic =     1.0146   Anisotropy =    20.0212
   XX=    11.3534   YX=     4.7294   ZX=    -0.2256
   XY=     1.7487   YY=     8.6591   ZY=    -8.6061
   XZ=    -3.3352   YZ=    -3.9421   ZZ=   -16.9688
   Eigenvalues:   -18.4566     7.1383    14.3621
     97  Bq   Isotropic =     2.0116   Anisotropy =    13.1740
   XX=     5.1810   YX=     0.8355   ZX=    -0.4868
   XY=    -2.3515   YY=     9.7493   ZY=    -2.0871
   XZ=   -11.5594   YZ=     7.5223   ZZ=    -8.8956
   Eigenvalues:   -11.3702     6.6107    10.7942
     98  Bq   Isotropic =     0.7727   Anisotropy =    20.6041
   XX=    11.4661   YX=     4.8218   ZX=    -0.5427
   XY=     2.1828   YY=     7.8671   ZY=    -8.8678
   XZ=    -2.2783   YZ=    -5.8375   ZZ=   -17.0153
   Eigenvalues:   -19.0319     6.8411    14.5087
     99  Bq   Isotropic =     2.0239   Anisotropy =    13.5941
   XX=     4.2479   YX=     0.3876   ZX=    -0.7443
   XY=    -2.6754   YY=     9.1180   ZY=    -1.1022
   XZ=   -12.1832   YZ=     8.2799   ZZ=    -7.2944
   Eigenvalues:   -10.5957     5.5808    11.0866
    100  Bq   Isotropic =     0.5402   Anisotropy =    20.6081
   XX=    11.2661   YX=     4.6929   ZX=    -0.8233
   XY=     2.5031   YY=     7.0314   ZY=    -8.9396
   XZ=    -1.2498   YZ=    -7.5887   ZZ=   -16.6769
   Eigenvalues:   -19.2736     6.6152    14.2789
    101  Bq   Isotropic =     1.6580   Anisotropy =    15.6961
   XX=     9.3679   YX=     3.3047   ZX=     0.2768
   XY=    -0.1176   YY=    10.3963   ZY=    -6.5235
   XZ=    -7.0517   YZ=     1.8918   ZZ=   -14.7903
   Eigenvalues:   -15.4243     8.2762    12.1221
    102  Bq   Isotropic =     0.5754   Anisotropy =    14.5517
   XX=     6.9008   YX=     2.4619   ZX=    -0.1508
   XY=    -0.5749   YY=     9.5960   ZY=    -5.6834
   XZ=    -8.4554   YZ=     2.3779   ZZ=   -14.7707
   Eigenvalues:   -15.6768     7.1264    10.2765
    103  Bq   Isotropic =     0.1281   Anisotropy =    17.7509
   XX=     8.3265   YX=     3.5984   ZX=    -0.0507
   XY=     0.7341   YY=     9.2332   ZY=    -7.6432
   XZ=    -5.9594   YZ=    -1.1576   ZZ=   -17.1755
   Eigenvalues:   -18.1510     6.5732    11.9620
    104  Bq   Isotropic =     0.7712   Anisotropy =    13.1963
   XX=     6.0763   YX=     1.8691   ZX=    -0.3144
   XY=    -1.1682   YY=     9.4903   ZY=    -4.5850
   XZ=    -9.5835   YZ=     3.9237   ZZ=   -13.2530
   Eigenvalues:   -14.4489     7.1937     9.5687
    105  Bq   Isotropic =    -0.1078   Anisotropy =    19.0935
   XX=     8.8268   YX=     4.0393   ZX=    -0.1341
   XY=     1.3694   YY=     8.7925   ZY=    -8.3938
   XZ=    -4.7126   YZ=    -3.0071   ZZ=   -17.9426
   Eigenvalues:   -19.2285     6.2840    12.6213
    106  Bq   Isotropic =     0.9430   Anisotropy =    12.5503
   XX=     5.2418   YX=     1.3132   ZX=    -0.5204
   XY=    -1.6829   YY=     9.2055   ZY=    -3.4890
   XZ=   -10.5521   YZ=     5.2523   ZZ=   -11.6184
   Eigenvalues:   -13.3017     6.8207     9.3098
    107  Bq   Isotropic =    -0.3372   Anisotropy =    20.0687
   XX=     9.1294   YX=     4.3293   ZX=    -0.2858
   XY=     1.9377   YY=     8.2184   ZY=    -8.9422
   XZ=    -3.5153   YZ=    -4.8094   ZZ=   -18.3595
   Eigenvalues:   -20.0754     6.0218    13.0419
    108  Bq   Isotropic =     1.0897   Anisotropy =    12.5583
   XX=     4.4354   YX=     0.8173   ZX=    -0.7409
   XY=    -2.1065   YY=     8.7717   ZY=    -2.4477
   XZ=   -11.3216   YZ=     6.3374   ZZ=    -9.9381
   Eigenvalues:   -12.2568     6.0640     9.4619
    109  Bq   Isotropic =    -0.5486   Anisotropy =    20.5822
   XX=     9.2108   YX=     4.4386   ZX=    -0.4633
   XY=     2.4118   YY=     7.5425   ZY=    -9.2753
   XZ=    -2.3643   YZ=    -6.4928   ZZ=   -18.3991
   Eigenvalues:   -20.6138     5.7951    13.1729
    110  Bq   Isotropic =     1.2118   Anisotropy =    12.8245
   XX=     3.6842   YX=     0.3918   ZX=    -0.9529
   XY=    -2.4373   YY=     8.2280   ZY=    -1.4994
   XZ=   -11.8748   YZ=     7.1742   ZZ=    -8.2767
   Eigenvalues:   -11.3151     5.1891     9.7615
    111  Bq   Isotropic =    -0.7314   Anisotropy =    20.5847
   XX=     9.0673   YX=     4.3645   ZX=    -0.6126
   XY=     2.7836   YY=     6.7882   ZY=    -9.3959
   XZ=    -1.2282   YZ=    -7.9950   ZZ=   -18.0498
   Eigenvalues:   -20.7926     5.6067    12.9917
    112  Bq   Isotropic =     0.3589   Anisotropy =    16.1750
   XX=     7.6681   YX=     3.0546   ZX=    -0.0567
   XY=     0.0716   YY=     9.5085   ZY=    -6.7230
   XZ=    -7.2256   YZ=     0.6624   ZZ=   -16.1000
   Eigenvalues:   -16.9362     6.8706    11.1422
    113  Bq   Isotropic =    -0.2777   Anisotropy =    14.5760
   XX=     5.8268   YX=     2.2394   ZX=    -0.4646
   XY=    -0.4222   YY=     8.6068   ZY=    -5.8319
   XZ=    -8.5479   YZ=     1.3062   ZZ=   -15.2667
   Eigenvalues:   -16.3554     6.0827     9.4396
    114  Bq   Isotropic =    -0.7837   Anisotropy =    17.7377
   XX=     6.9137   YX=     3.2461   ZX=    -0.2947
   XY=     0.8554   YY=     8.4165   ZY=    -7.7186
   XZ=    -6.1709   YZ=    -2.0409   ZZ=   -17.6812
   Eigenvalues:   -18.8742     5.4817    11.0415
    115  Bq   Isotropic =    -0.0303   Anisotropy =    13.0445
   XX=     5.1839   YX=     1.7089   ZX=    -0.6207
   XY=    -0.9985   YY=     8.4783   ZY=    -4.7862
   XZ=    -9.5823   YZ=     2.8172   ZZ=   -13.7530
   Eigenvalues:   -15.0719     6.3149     8.6661
    116  Bq   Isotropic =    -1.0224   Anisotropy =    19.0107
   XX=     7.2874   YX=     3.6398   ZX=    -0.2947
   XY=     1.4890   YY=     8.1060   ZY=    -8.4559
   XZ=    -4.9229   YZ=    -3.7362   ZZ=   -18.4607
   Eigenvalues:   -19.9415     5.2229    11.6513
    117  Bq   Isotropic =     0.2026   Anisotropy =    12.0490
   XX=     4.5221   YX=     1.2049   ZX=    -0.8009
   XY=    -1.5012   YY=     8.2140   ZY=    -3.7435
   XZ=   -10.4552   YZ=     4.1473   ZZ=   -12.1282
   Eigenvalues:   -13.8531     6.2257     8.2353
    118  Bq   Isotropic =    -1.2374   Anisotropy =    19.9257
   XX=     7.5114   YX=     3.9086   ZX=    -0.3374
   XY=     2.0711   YY=     7.6716   ZY=    -9.0024
   XZ=    -3.6798   YZ=    -5.3473   ZZ=   -18.8952
   Eigenvalues:   -20.7620     5.0033    12.0464
    119  Bq   Isotropic =     0.4155   Anisotropy =    11.8514
   XX=     3.8716   YX=     0.7486   ZX=    -0.9858
   XY=    -1.9194   YY=     7.8367   ZY=    -2.7486
   XZ=   -11.1390   YZ=     5.2658   ZZ=   -10.4618
   Eigenvalues:   -12.7289     5.6589     8.3164
    120  Bq   Isotropic =    -1.4187   Anisotropy =    20.4058
   XX=     7.5720   YX=     4.0288   ZX=    -0.3941
   XY=     2.5743   YY=     7.1312   ZY=    -9.3361
   XZ=    -2.4494   YZ=    -6.8089   ZZ=   -18.9594
   Eigenvalues:   -21.2627     4.8214    12.1851
    121  Bq   Isotropic =     0.6047   Anisotropy =    12.0531
   XX=     3.2550   YX=     0.3509   ZX=    -1.1590
   XY=    -2.2514   YY=     7.3749   ZY=    -1.8349
   XZ=   -11.6235   YZ=     6.1618   ZZ=    -8.8159
   Eigenvalues:   -11.7082     4.8821     8.6401
    122  Bq   Isotropic =    -1.5584   Anisotropy =    20.4083
   XX=     7.4680   YX=     3.9967   ZX=    -0.4278
   XY=     2.9843   YY=     6.5006   ZY=    -9.4501
   XZ=    -1.2205   YZ=    -8.0697   ZZ=   -18.6440
   Eigenvalues:   -21.3972     4.6748    12.0471
    123  Bq   Isotropic =    -0.5319   Anisotropy =    16.2133
   XX=     6.4157   YX=     2.7651   ZX=    -0.3517
   XY=     0.2061   YY=     8.5866   ZY=    -6.8276
   XZ=    -7.3943   YZ=    -0.3353   ZZ=   -16.5981
   Eigenvalues:   -17.6487     5.7760    10.2769
    124  Bq   Isotropic =    -0.8088   Anisotropy =    14.2342
   XX=     5.0669   YX=     1.9878   ZX=    -0.7425
   XY=    -0.3238   YY=     7.6695   ZY=    -5.9036
   XZ=    -8.6540   YZ=     0.4419   ZZ=   -15.1628
   Eigenvalues:   -16.4580     5.3509     8.6807
    125  Bq   Isotropic =    -1.3186   Anisotropy =    17.3714
[...]
   136  Bq   0.000000
   137  Bq   0.000000
   138  Bq   0.000000
   139  Bq   0.000000
   140  Bq   0.000000
   141  Bq   0.000000
   142  Bq   0.000000
   143  Bq   0.000000
   144  Bq   0.000000
   145  Bq   0.000000
   146  Bq   0.000000
   147  Bq   0.000000
   148  Bq   0.000000
   149  Bq   0.000000
   150  Bq   0.000000
   151  Bq   0.000000
   152  Bq   0.000000
   153  Bq   0.000000
   154  Bq   0.000000
   155  Bq   0.000000
   156  Bq   0.000000
   157  Bq   0.000000
   158  Bq   0.000000
   159  Bq   0.000000
   160  Bq   0.000000
   161  Bq   0.000000
   162  Bq   0.000000
   163  Bq   0.000000
   164  Bq   0.000000
   165  Bq   0.000000
   166  Bq   0.000000
   167  Bq   0.000000
   168  Bq   0.000000
   169  Bq   0.000000
   170  Bq   0.000000
   171  Bq   0.000000
   172  Bq   0.000000
   173  Bq   0.000000
   174  Bq   0.000000
   175  Bq   0.000000
   176  Bq   0.000000
   177  Bq   0.000000
   178  Bq   0.000000
   179  Bq   0.000000
   180  Bq   0.000000
   181  Bq   0.000000
   182  Bq   0.000000
   183  Bq   0.000000
   184  Bq   0.000000
   185  Bq   0.000000
   186  Bq   0.000000
   187  Bq   0.000000
   188  Bq   0.000000
   189  Bq   0.000000
   190  Bq   0.000000
   191  Bq   0.000000
   192  Bq   0.000000
   193  Bq   0.000000
   194  Bq   0.000000
   195  Bq   0.000000
   196  Bq   0.000000
   197  Bq   0.000000
   198  Bq   0.000000
   199  Bq   0.000000
   200  Bq   0.000000
   201  Bq   0.000000
   202  Bq   0.000000
   203  Bq   0.000000
   204  Bq   0.000000
   205  Bq   0.000000
   206  Bq   0.000000
   207  Bq   0.000000
   208  Bq   0.000000
   209  Bq   0.000000
   210  Bq   0.000000
   211  Bq   0.000000
   212  Bq   0.000000
   213  Bq   0.000000
   214  Bq   0.000000
   215  Bq   0.000000
   216  Bq   0.000000
   217  Bq   0.000000
   218  Bq   0.000000
   219  Bq   0.000000
   220  Bq   0.000000
   221  Bq   0.000000
   222  Bq   0.000000
   223  Bq   0.000000
   224  Bq   0.000000
   225  Bq   0.000000
   226  Bq   0.000000
   227  Bq   0.000000
   228  Bq   0.000000
   229  Bq   0.000000
   230  Bq   0.000000
   231  Bq   0.000000
   232  Bq   0.000000
   233  Bq   0.000000
   234  Bq   0.000000
   235  Bq   0.000000
   236  Bq   0.000000
 Sum of Mulliken charges =   0.00000
 Mulliken charges with hydrogens summed into heavy atoms:
               1
     1  C   -0.255498
     3  C    0.053849
     5  C    0.448258
     6  C    0.064351
     7  C   -0.333926
     9  C   -0.139521
    11  C   -0.322216
    13  C   -0.119315
    15  C    0.653397
    16  C    0.034822
    17  C   -0.317410
    19  C   -0.316854
    21  C    0.651066
    22  C    0.037784
    23  C   -0.117289
    25  C   -0.205316
    27  C    0.448331
    28  C    0.061983
    29  C   -0.333381
    31  C   -0.139505
    33  C   -0.255977
    35  C    0.170579
    37  Bq   0.000000
    38  Bq   0.000000
    39  Bq   0.000000
    40  Bq   0.000000
    41  Bq   0.000000
    42  Bq   0.000000
    43  Bq   0.115559
    44  Bq   0.000000
    45  Bq   0.000000
    46  Bq   0.000000
    47  Bq   0.000000
    48  Bq   0.000000
    49  Bq   0.000000
    50  Bq   0.000000
    51  Bq   0.000000
    52  Bq   0.000000
    53  Bq   0.000000
    54  Bq   0.000000
    55  Bq   0.000000
    56  Bq   0.000000
    57  Bq   0.000000
    58  Bq   0.000000
    59  Bq   0.000000
    60  Bq   0.000000
    61  Bq   0.000000
    62  Bq   0.000000
    63  Bq   0.000000
    64  Bq   0.000000
    65  Bq   0.000000
    66  Bq   0.000000
    67  Bq   0.000000
    68  Bq   0.000000
    69  Bq   0.000000
    70  Bq   0.000000
    71  Bq   0.000000
    72  Bq   0.000000
    73  Bq   0.000000
    74  Bq   0.000000
    75  Bq   0.000000
    76  Bq   0.000000
    77  Bq   0.000000
    78  Bq   0.000000
    79  Bq   0.000000
    80  Bq   0.000000
    81  Bq   0.000000
    82  Bq   0.000000
    83  Bq   0.000000
    84  Bq   0.000000
    85  Bq   0.000000
    86  Bq   0.000000
    87  Bq   0.000000
    88  Bq   0.000000
    89  Bq   0.000000
    90  Bq   0.000000
    91  Bq   0.000000
    92  Bq   0.000000
    93  Bq   0.000000
    94  Bq   0.000000
    95  Bq   0.000000
    96  Bq   0.000000
    97  Bq   0.000000
    98  Bq   0.000000
    99  Bq   0.000000
   100  Bq   0.000000
   101  Bq   0.000000
   102  Bq   0.000000
   103  Bq   0.000000
   104  Bq   0.000000
   105  Bq   0.000000
   106  Bq   0.000000
   107  Bq   0.000000
   108  Bq   0.000000
   109  Bq   0.000000
   110  Bq   0.000000
   111  Bq   0.000000
   112  Bq   0.000000
   113  Bq   0.000000
   114  Bq   0.000000
   115  Bq   0.000000
   116  Bq   0.000000
   117  Bq   0.000000
   118  Bq   0.000000
   119  Bq   0.000000
   120  Bq   0.000000
   121  Bq   0.000000
   122  Bq   0.000000
   123  Bq   0.000000
   124  Bq   0.000000
   125  Bq   0.000000
   126  Bq   0.000000
   127  Bq   0.000000
   128  Bq   0.000000
   129  Bq   0.000000
   130  Bq   0.000000
   131  Bq   0.000000
   132  Bq   0.000000
   133  Bq   0.000000
   134  Bq   0.000000
   135  Bq   0.000000
   136  Bq   0.000000
   137  Bq   0.000000
   138  Bq   0.000000
   139  Bq   0.000000
   140  Bq   0.000000
   141  Bq   0.000000
   142  Bq   0.000000
   143  Bq   0.000000
   144  Bq   0.000000
   145  Bq   0.000000
   146  Bq   0.000000
   147  Bq   0.000000
   148  Bq   0.000000
   149  Bq   0.000000
   150  Bq   0.000000
   151  Bq   0.000000
   152  Bq   0.000000
   153  Bq   0.000000
   154  Bq   0.000000
   155  Bq   0.000000
   156  Bq   0.000000
   157  Bq   0.000000
   158  Bq   0.000000
   159  Bq   0.000000
   160  Bq   0.000000
   161  Bq   0.000000
   162  Bq   0.000000
   163  Bq   0.000000
   164  Bq   0.000000
   165  Bq   0.000000
   166  Bq   0.000000
   167  Bq   0.000000
   168  Bq   0.000000
   169  Bq   0.000000
   170  Bq   0.000000
   171  Bq   0.000000
   172  Bq   0.000000
   173  Bq   0.000000
   174  Bq   0.000000
   175  Bq   0.000000
   176  Bq   0.000000
   177  Bq   0.000000
   178  Bq   0.000000
   179  Bq   0.000000
   180  Bq   0.000000
   181  Bq   0.000000
   182  Bq   0.000000
   183  Bq   0.000000
   184  Bq   0.000000
   185  Bq   0.000000
   186  Bq   0.000000
   187  Bq   0.000000
   188  Bq   0.000000
   189  Bq   0.000000
   190  Bq   0.000000
   191  Bq   0.000000
   192  Bq   0.000000
   193  Bq   0.000000
   194  Bq   0.000000
   195  Bq   0.000000
   196  Bq   0.000000
   197  Bq   0.000000
   198  Bq   0.000000
   199  Bq   0.000000
   200  Bq   0.000000
   201  Bq   0.000000
   202  Bq   0.000000
   203  Bq   0.000000
   204  Bq   0.000000
   205  Bq   0.000000
   206  Bq   0.000000
   207  Bq   0.000000
   208  Bq   0.000000
   209  Bq   0.000000
   210  Bq   0.000000
   211  Bq   0.000000
   212  Bq   0.000000
   213  Bq   0.000000
   214  Bq   0.000000
   215  Bq   0.000000
   216  Bq   0.000000
   217  Bq   0.000000
   218  Bq   0.000000
   219  Bq   0.000000
   220  Bq   0.000000
   221  Bq   0.000000
   222  Bq   0.000000
   223  Bq   0.000000
   224  Bq   0.000000
   225  Bq   0.000000
   226  Bq   0.000000
   227  Bq   0.000000
   228  Bq   0.000000
   229  Bq   0.000000
   230  Bq   0.000000
   231  Bq   0.000000
   232  Bq   0.116228
   233  Bq   0.000000
   234  Bq   0.000000
   235  Bq   0.000000
   236  Bq   0.000000
 Electronic spatial extent (au):  <R**2>=           5736.9264
 Charge=              0.0000 electrons
 Dipole moment (field-independent basis, Debye):
    X=              0.0475    Y=              0.0856    Z=              0.0029  Tot=              0.0979
 Quadrupole moment (field-independent basis, Debye-Ang):
   XX=           -113.7056   YY=           -113.9456   ZZ=           -133.2669
   XY=             -0.3834   XZ=              3.2102   YZ=             -1.1839
 Traceless Quadrupole moment (field-independent basis, Debye-Ang):
   XX=              6.6005   YY=              6.3604   ZZ=            -12.9609
   XY=             -0.3834   XZ=              3.2102   YZ=             -1.1839
 Octapole moment (field-independent basis, Debye-Ang**2):
  XXX=            -16.4668  YYY=            -16.1860  ZZZ=             -1.7007  XYY=              2.5576
  XXY=             -6.5650  XXZ=             13.6547  XZZ=             -8.9478  YZZ=            -17.7168
  YYZ=            -13.2941  XYZ=              8.8036
 Hexadecapole moment (field-independent basis, Debye-Ang**3):
 XXXX=          -3951.1638 YYYY=          -3112.2161 ZZZZ=           -504.8311 XXXY=            340.6935
 XXXZ=            156.4968 YYYX=            335.5625 YYYZ=            -87.0893 ZZZX=            120.2262
 ZZZY=           -108.7373 XXYY=          -1176.4844 XXZZ=           -856.7291 YYZZ=           -665.7275
 XXYZ=            -68.9016 YYXZ=             48.1602 ZZXY=            153.0375
 N-N= 1.610917615562D+03 E-N=-5.186891130729D+03  KE= 8.436329774449D+02
 1\1\GINC-PLANA\SP\RB3LYP\6-311+G(d,p)\C22H14\YANNICK\21-Aug-2020\0\\# 
 rb3lyp/6-311+g** NMR geom=connectivity\\Title\\0,1\C,0,-4.0500558,-0.5
 771862,0.8136712\H,0,-5.0263804,-1.0082727,1.002476\C,0,-3.9381552,0.6
 617804,0.2400876\H,0,-4.8252424,1.233889,-0.0111295\C,0,-2.676841,1.24
 33246,0.0057578\C,0,-1.4974121,0.5051527,0.2848253\C,0,-1.6508332,-0.7
 338728,0.9404026\H,0,-0.7713646,-1.2730967,1.2633753\C,0,-2.8898548,-1
 .2624035,1.1994307\H,0,-2.9683706,-2.2124563,1.7152676\C,0,-2.5773185,
 2.5963696,-0.419293\H,0,-3.4870728,3.1412239,-0.6474055\C,0,-1.3741895
 ,3.2147896,-0.436403\H,0,-1.2997315,4.2742019,-0.6578144\C,0,-0.171948
 8,2.499409,-0.1734588\C,0,-0.2043917,1.1018437,0.0192689\C,0,1.0513491
 ,3.204256,-0.0676222\H,0,1.0427344,4.2819499,-0.1896997\C,0,2.1942091,
 2.5487446,0.2579577\H,0,3.1168527,3.0912848,0.4334727\C,0,2.2216473,1.
 1336562,0.293499\C,0,1.0486931,0.3945528,0.0302412\C,0,3.4483363,0.461
 4633,0.5573939\H,0,4.3095794,1.0606054,0.8334846\C,0,3.5427346,-0.8855
 926,0.4749463\H,0,4.4731467,-1.3939704,0.7038822\C,0,2.4490052,-1.6474
 447,-0.0196319\C,0,1.2150704,-1.0057258,-0.3013573\C,0,0.2531113,-1.74
 3444,-1.0216591\H,0,-0.6541356,-1.2535051,-1.3462847\C,0,0.4494193,-3.
 0628597,-1.3413779\H,0,-0.3083162,-3.5944309,-1.905406\C,0,1.6251726,-
 3.7207967,-0.9552541\H,0,1.7670048,-4.7687404,-1.1927019\C,0,2.6109872
 ,-3.0144177,-0.318305\H,0,3.5525612,-3.4902813,-0.0646367\Bq,0,-3.9372
 31334,1.2797666459,0.3401994817\Bq,0,-3.948757278,1.3534145981,0.63079
 0486\Bq,0,-3.9333893527,1.2552173286,0.2433358137\Bq,0,-3.9525992594,1
 .3779639154,0.7276541541\Bq,0,-3.9295473714,1.2306680112,0.1464721456\
 Bq,0,-3.9564412407,1.4025132328,0.8245178222\Bq,0,-3.9257053901,1.2061
 186938,0.0496084775\Bq,0,-3.960283222,1.4270625502,0.9213814903\Bq,0,-
 3.9218634087,1.1815693764,-0.0472551906\Bq,0,-3.9410733154,1.304315963
 3,0.4370631498\Bq,0,-3.9439423425,1.4258051126,0.5093967885\Bq,0,-3.93
 62583798,1.3767064779,0.3156694523\Bq,0,-3.9477843238,1.45035443,0.606
 2604566\Bq,0,-3.9324163985,1.3521571605,0.2188057842\Bq,0,-3.951626305
 1,1.4749037474,0.7031241247\Bq,0,-3.9285744172,1.3276078431,0.12194211
 61\Bq,0,-3.9554682865,1.4994530647,0.7999877928\Bq,0,-3.9247324358,1.3
 030585257,0.0250784481\Bq,0,-3.9593102678,1.5240023821,0.8968514609\Bq
 ,0,-3.9208904545,1.2785092084,-0.07178522\Bq,0,-3.9401003611,1.4012557
 952,0.4125331204\Bq,0,-3.9429693883,1.5227449446,0.4848667591\Bq,0,-3.
 9352854256,1.4736463098,0.2911394229\Bq,0,-3.9468113696,1.5472942619,0
 .5817304272\Bq,0,-3.9314434443,1.4490969924,0.1942757548\Bq,0,-3.95065
 33509,1.5718435793,0.6785940953\Bq,0,-3.9276014629,1.4245476751,0.0974
 120867\Bq,0,-3.9544953322,1.5963928967,0.7754577633\Bq,0,-3.9237594816
 ,1.3999983577,0.0005484186\Bq,0,-3.9583373136,1.6209422141,0.872321431
 4\Bq,0,-3.9199175003,1.3754490403,-0.0963152495\Bq,0,-3.9391274069,1.4
 981956272,0.388003091\Bq,0,-3.941996434,1.6196847765,0.4603367296\Bq,0
 ,-3.9343124714,1.5705861417,0.2666093935\Bq,0,-3.9458384154,1.64423409
 39,0.5572003977\Bq,0,-3.93047049,1.5460368244,0.1697457254\Bq,0,-3.949
 6803967,1.6687834113,0.6540640658\Bq,0,-3.9266285087,1.521487507,0.072
 8820573\Bq,0,-3.953522378,1.6933327286,0.7509277339\Bq,0,-3.9227865274
 ,1.4969381896,-0.0239816108\Bq,0,-3.9573643593,1.717882046,0.847791402
 \Bq,0,-3.9189445461,1.4723888722,-0.1208452789\Bq,0,-3.9381544527,1.59
 51354591,0.3634730616\Bq,0,-3.9410234798,1.7166246084,0.4358067002\Bq,
 0,-3.9333395171,1.6675259737,0.242079364\Bq,0,-3.9448654611,1.74117392
 58,0.5326703683\Bq,0,-3.9294975358,1.6429766563,0.1452156959\Bq,0,-3.9
 487074425,1.7657232432,0.6295340364\Bq,0,-3.9256555545,1.6184273389,0.
 0483520279\Bq,0,-3.9525494238,1.7902725606,0.7263977045\Bq,0,-3.921813
 5732,1.5938780216,-0.0485116402\Bq,0,-3.9563914051,1.8148218779,0.8232
 613726\Bq,0,-3.9179715918,1.5693287042,-0.1453753083\Bq,0,-3.937181498
 5,1.6920752911,0.3389430321\Bq,0,-3.9400505256,1.8135644404,0.41127667
 08\Bq,0,-3.9323665629,1.7644658056,0.2175493346\Bq,0,-3.9438925069,1.8
 381137578,0.5081403389\Bq,0,-3.9285245816,1.7399164882,0.1206856665\Bq
 ,0,-3.9477344882,1.8626630751,0.605004007\Bq,0,-3.9246826003,1.7153671
 709,0.0238219984\Bq,0,-3.9515764696,1.8872123925,0.7018676751\Bq,0,-3.
 9208406189,1.6908178535,-0.0730416697\Bq,0,-3.9554184509,1.9117617099,
 0.7987313432\Bq,0,-3.9169986376,1.6662685361,-0.1699053377\Bq,0,-3.936
 2085443,1.789015123,0.3144130027\Bq,0,-3.9390775714,1.9105042723,0.386
 7466414\Bq,0,-3.9313936087,1.8614056376,0.1930193052\Bq,0,-3.942919552
 7,1.9350535897,0.4836103095\Bq,0,-3.9275516274,1.8368563202,0.09615563
 71\Bq,0,-3.946761534,1.9596029071,0.5804739775\Bq,0,-3.923709646,1.812
 3070028,-0.000708031\Bq,0,-3.9506035153,1.9841522244,0.6773376456\Bq,0
 ,-3.9198676647,1.7877576854,-0.0975716991\Bq,0,-3.9544454967,2.0087015
 418,0.7742013137\Bq,0,-3.9160256834,1.7632083681,-0.1944353672\Bq,0,-3
 .93523559,1.8859549549,0.2898829733\Bq,0,-3.9381046171,2.0074441043,0.
 3622166119\Bq,0,-3.9304206545,1.9583454695,0.1684892758\Bq,0,-3.941946
 5985,2.0319934216,0.45908028\Bq,0,-3.9265786731,1.9337961521,0.0716256
 077\Bq,0,-3.9457885798,2.056542739,0.5559439481\Bq,0,-3.9227366918,1.9
 092468348,-0.0252380604\Bq,0,-3.9496305611,2.0810920564,0.6528076162\B
 q,0,-3.9188947105,1.8846975174,-0.1221017285\Bq,0,-3.9534725424,2.1056
 413738,0.7496712843\Bq,0,-3.9150527292,1.8601482,-0.2189653966\Bq,0,-3
 .9342626358,1.9828947869,0.2653529438\Bq,0,-3.9371316629,2.1043839362,
 0.3376865825\Bq,0,-3.9294477002,2.0552853014,0.1439592463\Bq,0,-3.9409
 736442,2.1289332536,0.4345502506\Bq,0,-3.9256057189,2.0307359841,0.047
 0955782\Bq,0,-3.9448156256,2.1534825709,0.5314139187\Bq,0,-3.921763737
 6,2.0061866667,-0.0497680898\Bq,0,-3.9486576069,2.1780318883,0.6282775
 868\Bq,0,-3.9179217563,1.9816373493,-0.1466317579\Bq,0,-3.9524995882,2
 .2025812057,0.7251412549\Bq,0,-3.9140797749,1.9570880319,-0.243495426\
 Bq,0,-3.9332896816,2.0798346188,0.2408229144\Bq,0,-3.9361587087,2.2013
 237681,0.3131565531\Bq,0,-3.928474746,2.1522251334,0.1194292169\Bq,0,-
 3.94000069,2.2258730855,0.4100202212\Bq,0,-3.9246327647,2.127675816,0.
 0225655488\Bq,0,-3.9438426713,2.2504224029,0.5068838893\Bq,0,-3.920790
 7834,2.1031264986,-0.0742981193\Bq,0,-3.9476846527,2.2749717203,0.6037
 475574\Bq,0,-3.916948802,2.0785771813,-0.1711617874\Bq,0,-3.951526634,
 2.2995210376,0.7006112254\Bq,0,-3.9131068207,2.0540278639,-0.268025455
 5\Bq,0,-3.9323167274,2.1767744508,0.216292885\Bq,0,-3.9351857545,2.298
 2636001,0.2886265237\Bq,0,-3.9275017918,2.2491649653,0.0948991875\Bq,0
 ,-3.9390277358,2.3228129174,0.3854901917\Bq,0,-3.9236598105,2.22461564
 79,-0.0019644806\Bq,0,-3.9428697171,2.3473622348,0.4823538598\Bq,0,-3.
 9198178291,2.2000663306,-0.0988281487\Bq,0,-3.9467116984,2.3719115522,
 0.5792175279\Bq,0,-3.9159758478,2.1755170132,-0.1956918168\Bq,0,-3.950
 5536798,2.3964608696,0.676081196\Bq,0,-3.9121338665,2.1509676958,-0.29
 25554849\Bq,0,-3.9313437731,2.2737142827,0.1917628556\Bq,0,-3.93421280
 02,2.395203432,0.2640964942\Bq,0,-3.9265288376,2.3461047973,0.07036915
 8\Bq,0,-3.9380547816,2.4197527494,0.3609601623\Bq,0,-3.9226868562,2.32
 15554799,-0.02649451\Bq,0,-3.9418967629,2.4443020668,0.4578238304\Bq,0
 ,-3.9188448749,2.2970061625,-0.1233581781\Bq,0,-3.9457387442,2.4688513
 841,0.5546874985\Bq,0,-3.9150028936,2.2724568451,-0.2202218462\Bq,0,-3
 .9495807256,2.4934007015,0.6515511666\Bq,0,-3.9111609123,2.2479075278,
 -0.3170855143\Bq,0,-3.9303708189,2.3706541146,0.1672328261\Bq,0,-3.933
 239846,2.492143264,0.2395664648\Bq,0,-3.9255558834,2.4430446292,0.0458
 391286\Bq,0,-3.9370818273,2.5166925813,0.3364301329\Bq,0,-3.921713902,
 2.4184953118,-0.0510245395\Bq,0,-3.9409238087,2.5412418987,0.433293801
 \Bq,0,-3.9178719207,2.3939459944,-0.1478882076\Bq,0,-3.94476579,2.5657
 912161,0.5301574691\Bq,0,-3.9140299394,2.3693966771,-0.2447518756\Bq,0
 ,-3.9486077713,2.5903405335,0.6270211372\Bq,0,-3.910187958,2.344847359
 7,-0.3416155437\Bq,0,-3.9293978647,2.4675939466,0.1427027967\Bq,0,-3.9
 322668918,2.5890830959,0.2150364354\Bq,0,-3.9245829291,2.5399844611,0.
 0213090992\Bq,0,-3.9361088731,2.6136324133,0.3119001035\Bq,0,-3.920740
 9478,2.5154351438,-0.0755545689\Bq,0,-3.9399508544,2.6381817306,0.4087
 637716\Bq,0,-3.9168989665,2.4908858264,-0.172418237\Bq,0,-3.9437928358
 ,2.662731048,0.5056274396\Bq,0,-3.9130569851,2.466336509,-0.2692819051
 \Bq,0,-3.9476348171,2.6872803654,0.6024911077\Bq,0,-3.9092150038,2.441
 7871916,-0.3661455732\Bq,0,-3.9284249105,2.5645337785,0.1181727673\Bq,
 0,-3.9312939376,2.6860229278,0.1905064059\Bq,0,-3.9236099749,2.6369242
 931,-0.0032209302\Bq,0,-3.9351359189,2.7105722452,0.287370074\Bq,0,-3.
 9197679936,2.6123749757,-0.1000845983\Bq,0,-3.9389779002,2.7351215626,
 0.3842337421\Bq,0,-3.9159260122,2.5878256583,-0.1969482664\Bq,0,-3.942
 8198815,2.75967088,0.4810974102\Bq,0,-3.9120840309,2.5632763409,-0.293
 8119345\Bq,0,-3.9466618629,2.7842201973,0.5779610783\Bq,0,-3.908242049
 6,2.5387270236,-0.3906756026\Bq,0,-3.9274519562,2.6614736105,0.0936427
 379\Bq,0,-3.9303209833,2.7829627598,0.1659763765\Bq,0,-3.9226370207,2.
 733864125,-0.0277509597\Bq,0,-3.9341629647,2.8075120771,0.2628400446\B
 q,0,-3.9187950393,2.7093148076,-0.1246146277\Bq,0,-3.938004946,2.83206
 13945,0.3597037127\Bq,0,-3.914953058,2.6847654903,-0.2214782958\Bq,0,-
 3.9418469273,2.8566107119,0.4565673808\Bq,0,-3.9111110767,2.6602161729
 ,-0.3183419639\Bq,0,-3.9456889087,2.8811600293,0.5534310489\Bq,0,-3.90
 72690954,2.6356668555,-0.415205632\Bq,0,-3.926479002,2.7584134424,0.06
 91127084\Bq,0,-3.9293480291,2.8799025917,0.1414463471\Bq,0,-3.92166406
 65,2.830803957,-0.0522809891\Bq,0,-3.9331900104,2.9044519091,0.2383100
 152\Bq,0,-3.9178220851,2.8062546396,-0.1491446572\Bq,0,-3.9370319918,2
 .9290012265,0.3351736833\Bq,0,-3.9139801038,2.7817053222,-0.2460083253
 \Bq,0,-3.9408739731,2.9535505438,0.4320373514\Bq,0,-3.9101381225,2.757
 1560048,-0.3428719934\Bq,0,-3.9447159544,2.9780998612,0.5289010195\Bq,
 0,-3.9062961411,2.7326066875,-0.4397356614\Bq,0,-3.9255060478,2.855353
 2743,0.044582679\Bq,0,-3.9283750749,2.9768424236,0.1169163177\Bq,0,-3.
 9206911122,2.9277437889,-0.0768110185\Bq,0,-3.9322170562,3.001391741,0
 .2137799858\Bq,0,-3.9168491309,2.9031944715,-0.1736746866\Bq,0,-3.9360
 590375,3.0259410584,0.3106436538\Bq,0,-3.9130071496,2.8786451541,-0.27
 05383547\Bq,0,-3.9399010189,3.0504903758,0.4075073219\Bq,0,-3.90916516
 82,2.8540958368,-0.3674020228\Bq,0,-3.9437430002,3.0750396931,0.504370
 99\Bq,0,-3.9053231869,2.8295465194,-0.4642656909\Bq,0,-3.9245330936,2.
 9522931063,0.0200526496\Bq,0,-3.9274021207,3.0737822556,0.0923862882\B
 q,0,-3.919718158,3.0246836208,-0.1013410479\Bq,0,-3.931244102,3.098331
 573,0.1892499563\\Version=ES64L-G09RevD.01\HF=-847.0032898\RMSD=7.567e
 -09\Dipole=0.0186808,0.0336671,0.0011595\Quadrupole=4.9072795,4.728821
 9,-9.6361014,-0.2850201,2.3867064,-0.880172\PG=C01 [X(C22H14)]\\@


 A COMPLEXITY IS MERELY A DISARRANGEMENT OF SIMPLICITIES.

                                    -- G. O. ABELL IN "EXPLORATION OF THE UNIVERSE"
 Job cpu time:       0 days  3 hours 53 minutes  5.6 seconds.
 File lengths (MBytes):  RWF=    184 Int=      0 D2E=      0 Chk=     19 Scr=      1
 Normal termination of Gaussian 09 at Fri Aug 21 19:43:40 2020.
