 Entering Gaussian System, Link 0=g09
 Input=input_cycle_03_batch_08200.com
 Output=input_cycle_03_batch_08200.log
 Initial command:
 /share/programs/GAUSSIAN/64/g09/l1.exe "/scratch/yannick.30266/Gau-2470684.inp" -scrdir="/scratch/yannick.30266/"
 Entering Link 1 = /share/programs/GAUSSIAN/64/g09/l1.exe PID=   2470685.
  
 Copyright (c) 1988,1990,1992,1993,1995,1998,2003,2009,2013,
            Gaussian, Inc.  All Rights Reserved.
  
 This is part of the Gaussian(R) 09 program.  It is based on
 the Gaussian(R) 03 system (copyright 2003, Gaussian, Inc.),
 the Gaussian(R) 98 system (copyright 1998, Gaussian, Inc.),
 the Gaussian(R) 94 system (copyright 1995, Gaussian, Inc.),
 the Gaussian 92(TM) system (copyright 1992, Gaussian, Inc.),
 the Gaussian 90(TM) system (copyright 1990, Gaussian, Inc.),
 the Gaussian 88(TM) system (copyright 1988, Gaussian, Inc.),
 the Gaussian 86(TM) system (copyright 1986, Carnegie Mellon
 University), and the Gaussian 82(TM) system (copyright 1983,
 Carnegie Mellon University). Gaussian is a federally registered
 trademark of Gaussian, Inc.
  
 This software contains proprietary and confidential information,
 including trade secrets, belonging to Gaussian, Inc.
  
 This software is provided under written license and may be
 used, copied, transmitted, or stored only in accord with that
 written license.
  
 The following legend is applicable only to US Government
 contracts under FAR:
  
                    RESTRICTED RIGHTS LEGEND
  
 Use, reproduction and disclosure by the US Government is
 subject to restrictions as set forth in subparagraphs (a)
 and (c) of the Commercial Computer Software - Restricted
 Rights clause in FAR 52.227-19.
  
 Gaussian, Inc.
 340 Quinnipiac St., Bldg. 40, Wallingford CT 06492
  
  
 ---------------------------------------------------------------
 Warning -- This program may not be used in any manner that
 competes with the business of Gaussian, Inc. or will provide
 assistance to any competitor of Gaussian, Inc.  The licensee
 of this program is prohibited from giving any competitor of
 Gaussian, Inc. access to this program.  By using this program,
 the user acknowledges that Gaussian, Inc. is engaged in the
 business of creating and licensing software in the field of
 computational chemistry and represents and warrants to the
 licensee that it is not a competitor of Gaussian, Inc. and that
 it will not use this program in any manner prohibited above.
 ---------------------------------------------------------------
  

 Cite this work as:
 Gaussian 09, Revision D.01,
 M. J. Frisch, G. W. Trucks, H. B. Schlegel, G. E. Scuseria, 
 M. A. Robb, J. R. Cheeseman, G. Scalmani, V. Barone, B. Mennucci, 
 G. A. Petersson, H. Nakatsuji, M. Caricato, X. Li, H. P. Hratchian, 
 A. F. Izmaylov, J. Bloino, G. Zheng, J. L. Sonnenberg, M. Hada, 
 M. Ehara, K. Toyota, R. Fukuda, J. Hasegawa, M. Ishida, T. Nakajima, 
 Y. Honda, O. Kitao, H. Nakai, T. Vreven, J. A. Montgomery, Jr., 
 J. E. Peralta, F. Ogliaro, M. Bearpark, J. J. Heyd, E. Brothers, 
 K. N. Kudin, V. N. Staroverov, T. Keith, R. Kobayashi, J. Normand, 
 K. Raghavachari, A. Rendell, J. C. Burant, S. S. Iyengar, J. Tomasi, 
 M. Cossi, N. Rega, J. M. Millam, M. Klene, J. E. Knox, J. B. Cross, 
 V. Bakken, C. Adamo, J. Jaramillo, R. Gomperts, R. E. Stratmann, 
 O. Yazyev, A. J. Austin, R. Cammi, C. Pomelli, J. W. Ochterski, 
 R. L. Martin, K. Morokuma, V. G. Zakrzewski, G. A. Voth, 
 P. Salvador, J. J. Dannenberg, S. Dapprich, A. D. Daniels, 
 O. Farkas, J. B. Foresman, J. V. Ortiz, J. Cioslowski, 
 and D. J. Fox, Gaussian, Inc., Wallingford CT, 2013.
 
 ******************************************
 Gaussian 09:  ES64L-G09RevD.01 24-Apr-2013
                22-Aug-2020 
 ******************************************
 %nproc=8
 Will use up to    8 processors via shared memory.
 %mem=1000MB
 ----------------------------------------
 # rb3lyp/6-311+g** NMR geom=connectivity
 ----------------------------------------
 1/38=1,57=2/1;
 2/12=2,17=6,18=5,40=1/2;
 3/5=4,6=6,7=111,11=2,16=1,25=1,30=1,74=-5,116=1/1,2,8,3;
 4//1;
 5/5=2,38=5/2;
 8/6=1,10=90,11=11/1;
 10/13=100,45=16/2;
 6/7=2,8=2,9=2,10=2,28=1/1;
 99/9=1/99;
 -----
 Title
 -----
 Symbolic Z-matrix:
 Charge =  0 Multiplicity = 1
 C                    -4.05006  -0.57719   0.81367 
 H                    -5.02638  -1.00827   1.00248 
 C                    -3.93816   0.66178   0.24009 
 H                    -4.82524   1.23389  -0.01113 
 C                    -2.67684   1.24332   0.00576 
 C                    -1.49741   0.50515   0.28483 
 C                    -1.65083  -0.73387   0.9404 
 H                    -0.77136  -1.2731    1.26338 
 C                    -2.88985  -1.2624    1.19943 
 H                    -2.96837  -2.21246   1.71527 
 C                    -2.57732   2.59637  -0.41929 
 H                    -3.48707   3.14122  -0.64741 
 C                    -1.37419   3.21479  -0.4364 
 H                    -1.29973   4.2742   -0.65781 
 C                    -0.17195   2.49941  -0.17346 
 C                    -0.20439   1.10184   0.01927 
 C                     1.05135   3.20426  -0.06762 
 H                     1.04273   4.28195  -0.1897 
 C                     2.19421   2.54874   0.25796 
 H                     3.11685   3.09128   0.43347 
 C                     2.22165   1.13366   0.2935 
 C                     1.04869   0.39455   0.03024 
 C                     3.44834   0.46146   0.55739 
 H                     4.30958   1.06061   0.83348 
 C                     3.54273  -0.88559   0.47495 
 H                     4.47315  -1.39397   0.70388 
 C                     2.44901  -1.64744  -0.01963 
 C                     1.21507  -1.00573  -0.30136 
 C                     0.25311  -1.74344  -1.02166 
 H                    -0.65414  -1.25351  -1.34628 
 C                     0.44942  -3.06286  -1.34138 
 H                    -0.30832  -3.59443  -1.90541 
 C                     1.62517  -3.7208   -0.95525 
 H                     1.767    -4.76874  -1.1927 
 C                     2.61099  -3.01442  -0.31831 
 H                     3.55256  -3.49028  -0.06464 
 Bq                   -0.17666   2.45233   0.66198 
 Bq                   -0.0898    2.42285   0.06903 
 Bq                   -0.19114   2.45724   0.7608 
 Bq                   -0.07533   2.41793  -0.02979 
 Bq                   -0.20561   2.46215   0.85963 
 Bq                   -0.06085   2.41302  -0.12862 
 Bq                   -0.13323   2.43759   0.36551 
 Bq                   -0.147     2.54238   0.45947 
 Bq                   -0.11804   2.53255   0.26182 
 Bq                   -0.16147   2.54729   0.55829 
 Bq                   -0.10357   2.52764   0.163 
 Bq                   -0.17595   2.55221   0.65712 
 Bq                   -0.08909   2.52273   0.06417 
 Bq                   -0.19042   2.55712   0.75594 
 Bq                   -0.07462   2.51781  -0.03465 
 Bq                   -0.2049    2.56203   0.85477 
 Bq                   -0.06014   2.5129   -0.13348 
 Bq                   -0.13252   2.53747   0.36064 
 Bq                   -0.14628   2.64226   0.45461 
 Bq                   -0.11733   2.63243   0.25696 
 Bq                   -0.16076   2.64717   0.55343 
 Bq                   -0.10286   2.62752   0.15813 
 Bq                   -0.17524   2.65209   0.65226 
 Bq                   -0.08838   2.6226    0.05931 
 Bq                   -0.18971   2.657     0.75108 
 Bq                   -0.0739    2.61769  -0.03952 
 Bq                   -0.20419   2.66191   0.84991 
 Bq                   -0.05943   2.61278  -0.13834 
 Bq                   -0.13181   2.63734   0.35578 
 Bq                   -0.14557   2.74214   0.44975 
 Bq                   -0.11662   2.73231   0.2521 
 Bq                   -0.16005   2.74705   0.54857 
 Bq                   -0.10214   2.7274    0.15327 
 Bq                   -0.17452   2.75196   0.6474 
 Bq                   -0.08767   2.72248   0.05445 
 Bq                   -0.189     2.75688   0.74622 
 Bq                   -0.07319   2.71757  -0.04438 
 Bq                   -0.20348   2.76179   0.84504 
 Bq                   -0.05872   2.71266  -0.1432 
 Bq                   -0.1311    2.73722   0.35092 
 Bq                   -0.14486   2.84202   0.44488 
 Bq                   -0.11591   2.83219   0.24724 
 Bq                   -0.15934   2.84693   0.54371 
 Bq                   -0.10143   2.82728   0.14841 
 Bq                   -0.17381   2.85184   0.64253 
 Bq                   -0.08696   2.82236   0.04959 
 Bq                   -0.18829   2.85676   0.74136 
 Bq                   -0.07248   2.81745  -0.04924 
 Bq                   -0.20276   2.86167   0.84018 
 Bq                   -0.058     2.81254  -0.14806 
 Bq                   -0.13038   2.8371    0.34606 
 Bq                   -0.14415   2.9419    0.44002 
 Bq                   -0.1152    2.93207   0.24237 
 Bq                   -0.15862   2.94681   0.53885 
 Bq                   -0.10072   2.92716   0.14355 
 Bq                   -0.1731    2.95172   0.63767 
 Bq                   -0.08624   2.92224   0.04472 
 Bq                   -0.18758   2.95664   0.7365 
 Bq                   -0.07177   2.91733  -0.0541 
 Bq                   -0.20205   2.96155   0.83532 
 Bq                   -0.05729   2.91242  -0.15292 
 Bq                   -0.12967   2.93698   0.3412 
 Bq                   -0.14344   3.04178   0.43516 
 Bq                   -0.11448   3.03195   0.23751 
 Bq                   -0.15791   3.04669   0.53399 
 Bq                   -0.10001   3.02703   0.13869 
 Bq                   -0.17239   3.0516    0.63281 
 Bq                   -0.08553   3.02212   0.03986 
 Bq                   -0.18686   3.05652   0.73164 
 Bq                   -0.07106   3.01721  -0.05896 
 Bq                   -0.20134   3.06143   0.83046 
 Bq                   -0.05658   3.01229  -0.15779 
 Bq                   -0.12896   3.03686   0.33634 
 Bq                   -0.14272   3.14165   0.4303 
 Bq                   -0.11377   3.13183   0.23265 
 Bq                   -0.1572    3.14657   0.52912 
 Bq                   -0.0993    3.12691   0.13383 
 Bq                   -0.17168   3.15148   0.62795 
 Bq                   -0.08482   3.122     0.035 
 Bq                   -0.18615   3.15639   0.72677 
 Bq                   -0.07034   3.11709  -0.06382 
 Bq                   -0.20063   3.16131   0.8256 
 Bq                   -0.05587   3.11217  -0.16265 
 Bq                   -0.12825   3.13674   0.33148 
 Bq                   -0.14201   3.24153   0.42544 
 Bq                   -0.11306   3.23171   0.22779 
 Bq                   -0.15649   3.24645   0.52426 
 Bq                   -0.09858   3.22679   0.12896 
 Bq                   -0.17096   3.25136   0.62309 
 Bq                   -0.08411   3.22188   0.03014 
 Bq                   -0.18544   3.25627   0.72191 
 Bq                   -0.06963   3.21697  -0.06868 
 Bq                   -0.19992   3.26119   0.82074 
 Bq                   -0.05516   3.21205  -0.16751 
 Bq                   -0.12754   3.23662   0.32661 
 Bq                   -0.1413    3.34141   0.42058 
 Bq                   -0.11235   3.33159   0.22293 
 Bq                   -0.15578   3.34633   0.5194 
 Bq                   -0.09787   3.32667   0.1241 
 Bq                   -0.17025   3.35124   0.61823 
 Bq                   -0.0834    3.32176   0.02528 
 Bq                   -0.18473   3.35615   0.71705 
 Bq                   -0.06892   3.31685  -0.07355 
 Bq                   -0.1992    3.36107   0.81587 
 Bq                   -0.05444   3.31193  -0.17237 
 Bq                   -0.12682   3.3365    0.32175 
 Bq                   -0.14059   3.44129   0.41571 
 Bq                   -0.11164   3.43147   0.21807 
 Bq                   -0.15506   3.44621   0.51454 
 Bq                   -0.09716   3.42655   0.11924 
 Bq                   -0.16954   3.45112   0.61336 
 Bq                   -0.08268   3.42164   0.02042 
 Bq                   -0.18402   3.45603   0.71219 
 Bq                   -0.06821   3.41672  -0.07841 
 Bq                   -0.19849   3.46095   0.81101 
 Bq                   -0.05373   3.41181  -0.17723 
 Bq                   -0.12611   3.43638   0.31689 
 Bq                   -0.13988   3.54117   0.41085 
 Bq                   -0.11092   3.53134   0.2132 
 Bq                   -0.15435   3.54608   0.50968 
 Bq                   -0.09645   3.52643   0.11438 
 Bq                   -0.16883   3.551     0.6085 
 Bq                   -0.08197   3.52152   0.01555 
 Bq                   -0.1833    3.55591   0.70733 
 Bq                   -0.0675    3.5166   -0.08327 
 Bq                   -0.19778   3.56083   0.80615 
 Bq                   -0.05302   3.51169  -0.18209 
 Bq                   -0.1254    3.53626   0.31203 
 Bq                   -0.13916   3.64105   0.40599 
 Bq                   -0.11021   3.63122   0.20834 
 Bq                   -0.15364   3.64596   0.50482 
 Bq                   -0.09574   3.62631   0.10952 
 Bq                   -0.16811   3.65088   0.60364 
 Bq                   -0.08126   3.6214    0.01069 
 Bq                   -0.18259   3.65579   0.70247 
 Bq                   -0.06678   3.61648  -0.08813 
 Bq                   -0.19707   3.6607    0.80129 
 Bq                   -0.05231   3.61157  -0.18696 
 Bq                   -0.12469   3.63614   0.30717 
 Bq                   -0.13845   3.74093   0.40113 
 Bq                   -0.1095    3.7311    0.20348 
 Bq                   -0.15293   3.74584   0.49995 
 Bq                   -0.09502   3.72619   0.10466 
 Bq                   -0.1674    3.75076   0.59878 
 Bq                   -0.08055   3.72128   0.00583 
 Bq                   -0.18188   3.75567   0.6976 
 Bq                   -0.06607   3.71636  -0.09299 
 Bq                   -0.19635   3.76058   0.79643 
 Bq                   -0.0516    3.71145  -0.19182 
 Bq                   -0.12397   3.73602   0.30231 
 Bq                   -0.13774   3.84081   0.39627 
 Bq                   -0.10879   3.83098   0.19862 
 Bq                   -0.15221   3.84572   0.49509 
 Bq                   -0.09431   3.82607   0.09979 
 Bq                   -0.16669   3.85064   0.59392 
 Bq                   -0.07983   3.82115   0.00097 
 Bq                   -0.18117   3.85555   0.69274 
 Bq                   -0.06536   3.81624  -0.09785 
 Bq                   -0.19564   3.86046   0.79157 
 Bq                   -0.05088   3.81133  -0.19668 
 Bq                   -0.12326   3.8359    0.29744 
 Bq                   -0.13703   3.94069   0.39141 
 Bq                   -0.10807   3.93086   0.19376 
 Bq                   -0.1515    3.9456    0.49023 
 Bq                   -0.0936    3.92595   0.09493 
 Bq                   -0.16598   3.95052   0.58906 
 Bq                   -0.07912   3.92103  -0.00389 
 Bq                   -0.18045   3.95543   0.68788 
 Bq                   -0.06465   3.91612  -0.10272 
 Bq                   -0.19493   3.96034   0.78671 
 Bq                   -0.05017   3.91121  -0.20154 
 Bq                   -0.12255   3.93577   0.29258 
 Bq                   -0.13631   4.04057   0.38655 
 Bq                   -0.10736   4.03074   0.1889 
 Bq                   -0.15079   4.04548   0.48537 
 Bq                   -0.09289   4.02583   0.09007 
 Bq                   -0.16527   4.05039   0.58419 
 Bq                   -0.07841   4.02091  -0.00875 
 Bq                   -0.17974   4.05531   0.68302 
 Bq                   -0.06393   4.016    -0.10758 
 Bq                   -0.19422   4.06022   0.78184 
 Bq                   -0.04946   4.01109  -0.2064 
 Bq                   -0.12184   4.03565   0.28772 
 Bq                   -0.1356    4.14045   0.38168 
 Bq                   -0.10665   4.13062   0.18403 
 Bq                   -0.15008   4.14536   0.48051 
 Bq                   -0.09217   4.12571   0.08521 
 Bq                   -0.16455   4.15027   0.57933 
 Bq                   -0.0777    4.12079  -0.01361 
 Bq                   -0.17903   4.15519   0.67816 
 Bq                   -0.06322   4.11588  -0.11244 
 Bq                   -0.19351   4.1601    0.77698 
 Bq                   -0.04875   4.11097  -0.21126 
 Bq                   -0.12113   4.13553   0.28286 
 Bq                   -0.13489   4.24033   0.37682 
 Bq                   -0.10594   4.2305    0.17917 
 Bq                   -0.14937   4.24524   0.47565 
 Bq                   -0.09146   4.22559   0.08035 
 Bq                   -0.16384   4.25015   0.57447 
 Bq                   -0.07699   4.22067  -0.01848 
 
 Symmetry turned off:
 Cannot cope with ghost atoms or with translation vectors.
 Stoichiometry    C22H14
 Framework group  C1[X(C22H14)]
 NUMDOF-- NAT=    36 NAtoms=   236
 Deg. of freedom     0
 Full point group                 C1      NOp   1
                          Input orientation:                          
 ---------------------------------------------------------------------
 Center     Atomic      Atomic             Coordinates (Angstroms)
 Number     Number       Type             X           Y           Z
 ---------------------------------------------------------------------
      1          6           0       -4.050056   -0.577186    0.813671
      2          1           0       -5.026380   -1.008273    1.002476
      3          6           0       -3.938155    0.661780    0.240088
      4          1           0       -4.825242    1.233889   -0.011130
      5          6           0       -2.676841    1.243325    0.005758
      6          6           0       -1.497412    0.505153    0.284825
      7          6           0       -1.650833   -0.733873    0.940403
      8          1           0       -0.771365   -1.273097    1.263375
      9          6           0       -2.889855   -1.262404    1.199431
     10          1           0       -2.968371   -2.212456    1.715268
     11          6           0       -2.577319    2.596370   -0.419293
     12          1           0       -3.487073    3.141224   -0.647406
     13          6           0       -1.374190    3.214790   -0.436403
     14          1           0       -1.299732    4.274202   -0.657814
     15          6           0       -0.171949    2.499409   -0.173459
     16          6           0       -0.204392    1.101844    0.019269
     17          6           0        1.051349    3.204256   -0.067622
     18          1           0        1.042734    4.281950   -0.189700
     19          6           0        2.194209    2.548745    0.257958
     20          1           0        3.116853    3.091285    0.433473
     21          6           0        2.221647    1.133656    0.293499
     22          6           0        1.048693    0.394553    0.030241
     23          6           0        3.448336    0.461463    0.557394
     24          1           0        4.309579    1.060605    0.833485
     25          6           0        3.542735   -0.885593    0.474946
     26          1           0        4.473147   -1.393970    0.703882
     27          6           0        2.449005   -1.647445   -0.019632
     28          6           0        1.215070   -1.005726   -0.301357
     29          6           0        0.253111   -1.743444   -1.021659
     30          1           0       -0.654136   -1.253505   -1.346285
     31          6           0        0.449419   -3.062860   -1.341378
     32          1           0       -0.308316   -3.594431   -1.905406
     33          6           0        1.625173   -3.720797   -0.955254
     34          1           0        1.767005   -4.768740   -1.192702
     35          6           0        2.610987   -3.014418   -0.318305
     36          1           0        3.552561   -3.490281   -0.064637
     37          0           0       -0.176661    2.452327    0.661980
     38          0           0       -0.089805    2.422846    0.069033
     39          0           0       -0.191136    2.457240    0.760805
     40          0           0       -0.075329    2.417932   -0.029792
     41          0           0       -0.205612    2.462154    0.859629
     42          0           0       -0.060853    2.413019   -0.128617
     43          0           0       -0.133233    2.437586    0.365506
     44          0           0       -0.146996    2.542379    0.459469
     45          0           0       -0.118045    2.532552    0.261820
     46          0           0       -0.161472    2.547293    0.558294
     47          0           0       -0.103569    2.527639    0.162996
     48          0           0       -0.175948    2.552206    0.657119
     49          0           0       -0.089093    2.522725    0.064171
     50          0           0       -0.190424    2.557120    0.755943
     51          0           0       -0.074617    2.517812   -0.034654
     52          0           0       -0.204900    2.562033    0.854768
     53          0           0       -0.060141    2.512898   -0.133478
     54          0           0       -0.132521    2.537466    0.360645
     55          0           0       -0.146284    2.642258    0.454608
     56          0           0       -0.117332    2.632431    0.256959
     57          0           0       -0.160760    2.647172    0.553432
     58          0           0       -0.102856    2.627518    0.158134
     59          0           0       -0.175236    2.652085    0.652257
     60          0           0       -0.088381    2.622604    0.059309
     61          0           0       -0.189712    2.656999    0.751082
     62          0           0       -0.073905    2.617691   -0.039515
     63          0           0       -0.204188    2.661912    0.849906
     64          0           0       -0.059429    2.612777   -0.138340
     65          0           0       -0.131808    2.637345    0.355783
     66          0           0       -0.145572    2.742138    0.449746
     67          0           0       -0.116620    2.732311    0.252097
     68          0           0       -0.160048    2.747051    0.548571
     69          0           0       -0.102144    2.727397    0.153272
     70          0           0       -0.174524    2.751965    0.647395
     71          0           0       -0.087668    2.722484    0.054448
     72          0           0       -0.189000    2.756878    0.746220
     73          0           0       -0.073192    2.717570   -0.044377
     74          0           0       -0.203476    2.761792    0.845045
     75          0           0       -0.058716    2.712657   -0.143202
     76          0           0       -0.131096    2.737224    0.350922
     77          0           0       -0.144860    2.842017    0.444885
     78          0           0       -0.115908    2.832190    0.247235
     79          0           0       -0.159336    2.846930    0.543709
     80          0           0       -0.101432    2.827276    0.148411
     81          0           0       -0.173812    2.851844    0.642534
     82          0           0       -0.086956    2.822363    0.049586
     83          0           0       -0.188288    2.856757    0.741358
     84          0           0       -0.072480    2.817449   -0.049239
     85          0           0       -0.202764    2.861671    0.840183
     86          0           0       -0.058004    2.812536   -0.148063
     87          0           0       -0.130384    2.837103    0.346060
     88          0           0       -0.144148    2.941896    0.440023
     89          0           0       -0.115196    2.932069    0.242374
     90          0           0       -0.158624    2.946809    0.538848
     91          0           0       -0.100720    2.927156    0.143549
     92          0           0       -0.173100    2.951723    0.637672
     93          0           0       -0.086244    2.922242    0.044724
     94          0           0       -0.187576    2.956636    0.736497
     95          0           0       -0.071768    2.917329   -0.054100
     96          0           0       -0.202052    2.961550    0.835321
     97          0           0       -0.057292    2.912415   -0.152925
     98          0           0       -0.129672    2.936983    0.341198
     99          0           0       -0.143436    3.041775    0.435161
    100          0           0       -0.114484    3.031948    0.237512
    101          0           0       -0.157912    3.046689    0.533986
    102          0           0       -0.100008    3.027035    0.138688
    103          0           0       -0.172388    3.051602    0.632811
    104          0           0       -0.085532    3.022121    0.039863
    105          0           0       -0.186864    3.056516    0.731635
    106          0           0       -0.071056    3.017208   -0.058962
    107          0           0       -0.201340    3.061429    0.830460
    108          0           0       -0.056580    3.012294   -0.157786
    109          0           0       -0.128960    3.036862    0.336337
    110          0           0       -0.142724    3.141654    0.430300
    111          0           0       -0.113772    3.131827    0.232651
    112          0           0       -0.157200    3.146568    0.529124
    113          0           0       -0.099296    3.126914    0.133826
    114          0           0       -0.171676    3.151481    0.627949
    115          0           0       -0.084820    3.122000    0.035001
    116          0           0       -0.186152    3.156395    0.726774
    117          0           0       -0.070344    3.117087   -0.063823
    118          0           0       -0.200627    3.161308    0.825598
    119          0           0       -0.055868    3.112174   -0.162648
    120          0           0       -0.128248    3.136741    0.331475
    121          0           0       -0.142012    3.241534    0.425438
    122          0           0       -0.113060    3.231707    0.227789
    123          0           0       -0.156487    3.246447    0.524263
    124          0           0       -0.098584    3.226793    0.128964
    125          0           0       -0.170963    3.251361    0.623087
    126          0           0       -0.084108    3.221880    0.030140
    127          0           0       -0.185439    3.256274    0.721912
    128          0           0       -0.069632    3.216966   -0.068685
    129          0           0       -0.199915    3.261188    0.820737
    130          0           0       -0.055156    3.212053   -0.167510
    131          0           0       -0.127536    3.236620    0.326614
    132          0           0       -0.141299    3.341413    0.420577
    133          0           0       -0.112347    3.331586    0.222927
    134          0           0       -0.155775    3.346326    0.519401
    135          0           0       -0.097872    3.326672    0.124103
    136          0           0       -0.170251    3.351240    0.618226
    137          0           0       -0.083396    3.321759    0.025278
    138          0           0       -0.184727    3.356153    0.717050
    139          0           0       -0.068920    3.316845   -0.073547
    140          0           0       -0.199203    3.361067    0.815875
    141          0           0       -0.054444    3.311932   -0.172371
    142          0           0       -0.126823    3.336499    0.321752
    143          0           0       -0.140587    3.441292    0.415715
    144          0           0       -0.111635    3.431465    0.218066
    145          0           0       -0.155063    3.446206    0.514540
    146          0           0       -0.097159    3.426552    0.119241
    147          0           0       -0.169539    3.451119    0.613364
    148          0           0       -0.082683    3.421638    0.020416
    149          0           0       -0.184015    3.456033    0.712189
    150          0           0       -0.068207    3.416725   -0.078408
    151          0           0       -0.198491    3.460946    0.811013
    152          0           0       -0.053732    3.411811   -0.177233
    153          0           0       -0.126111    3.436379    0.316890
    154          0           0       -0.139875    3.541171    0.410853
    155          0           0       -0.110923    3.531344    0.213204
    156          0           0       -0.154351    3.546085    0.509678
    157          0           0       -0.096447    3.526431    0.114379
    158          0           0       -0.168827    3.550998    0.608503
    159          0           0       -0.081971    3.521517    0.015555
    160          0           0       -0.183303    3.555912    0.707327
    161          0           0       -0.067495    3.516604   -0.083270
    162          0           0       -0.197779    3.560825    0.806152
    163          0           0       -0.053019    3.511690   -0.182094
    164          0           0       -0.125399    3.536258    0.312029
    165          0           0       -0.139163    3.641051    0.405992
    166          0           0       -0.110211    3.631224    0.208342
    167          0           0       -0.153639    3.645964    0.504816
    168          0           0       -0.095735    3.626310    0.109518
    169          0           0       -0.168115    3.650877    0.603641
    170          0           0       -0.081259    3.621397    0.010693
    171          0           0       -0.182591    3.655791    0.702466
    172          0           0       -0.066783    3.616483   -0.088131
    173          0           0       -0.197067    3.660704    0.801290
    174          0           0       -0.052307    3.611570   -0.186956
    175          0           0       -0.124687    3.636137    0.307167
    176          0           0       -0.138451    3.740930    0.401130
    177          0           0       -0.109499    3.731103    0.203481
    178          0           0       -0.152927    3.745843    0.499955
    179          0           0       -0.095023    3.726189    0.104656
    180          0           0       -0.167403    3.750757    0.598779
    181          0           0       -0.080547    3.721276    0.005832
    182          0           0       -0.181879    3.755670    0.697604
    183          0           0       -0.066071    3.716362   -0.092993
    184          0           0       -0.196355    3.760584    0.796429
    185          0           0       -0.051595    3.711449   -0.191818
    186          0           0       -0.123975    3.736016    0.302306
    187          0           0       -0.137739    3.840809    0.396269
    188          0           0       -0.108787    3.830982    0.198619
    189          0           0       -0.152215    3.845722    0.495093
    190          0           0       -0.094311    3.826068    0.099795
    191          0           0       -0.166691    3.850636    0.593918
    192          0           0       -0.079835    3.821155    0.000970
    193          0           0       -0.181167    3.855549    0.692742
    194          0           0       -0.065359    3.816242   -0.097855
    195          0           0       -0.195643    3.860463    0.791567
    196          0           0       -0.050883    3.811328   -0.196679
    197          0           0       -0.123263    3.835895    0.297444
    198          0           0       -0.137027    3.940688    0.391407
    199          0           0       -0.108075    3.930861    0.193758
    200          0           0       -0.151503    3.945602    0.490232
    201          0           0       -0.093599    3.925948    0.094933
    202          0           0       -0.165978    3.950515    0.589056
    203          0           0       -0.079123    3.921034   -0.003892
    204          0           0       -0.180454    3.955429    0.687881
    205          0           0       -0.064647    3.916121   -0.102716
    206          0           0       -0.194930    3.960342    0.786705
    207          0           0       -0.050171    3.911207   -0.201541
    208          0           0       -0.122551    3.935775    0.292582
    209          0           0       -0.136314    4.040567    0.386545
    210          0           0       -0.107363    4.030740    0.188896
    211          0           0       -0.150790    4.045481    0.485370
    212          0           0       -0.092887    4.025827    0.090071
    213          0           0       -0.165266    4.050394    0.584195
    214          0           0       -0.078411    4.020913   -0.008753
    215          0           0       -0.179742    4.055308    0.683019
    216          0           0       -0.063935    4.016000   -0.107578
    217          0           0       -0.194218    4.060221    0.781844
    218          0           0       -0.049459    4.011086   -0.206402
    219          0           0       -0.121838    4.035654    0.287721
    220          0           0       -0.135602    4.140447    0.381684
    221          0           0       -0.106650    4.130620    0.184034
    222          0           0       -0.150078    4.145360    0.480508
    223          0           0       -0.092174    4.125706    0.085210
    224          0           0       -0.164554    4.150274    0.579333
    225          0           0       -0.077699    4.120793   -0.013615
    226          0           0       -0.179030    4.155187    0.678158
    227          0           0       -0.063223    4.115879   -0.112439
    228          0           0       -0.193506    4.160101    0.776982
    229          0           0       -0.048747    4.110966   -0.211264
    230          0           0       -0.121126    4.135533    0.282859
    231          0           0       -0.134890    4.240326    0.376822
    232          0           0       -0.105938    4.230499    0.179173
    233          0           0       -0.149366    4.245239    0.475647
    234          0           0       -0.091462    4.225585    0.080348
    235          0           0       -0.163842    4.250153    0.574471
    236          0           0       -0.076986    4.220672   -0.018476
 ---------------------------------------------------------------------
 Rotational constants (GHZ):      0.4529074      0.2836956      0.1879557
 Standard basis: 6-311+G(d,p) (5D, 7F)
 Warning:  center  37 has no basis functions!
 Warning:  center  38 has no basis functions!
 Warning:  center  39 has no basis functions!
 Warning:  center  40 has no basis functions!
 Warning:  center  41 has no basis functions!
 Warning:  center  42 has no basis functions!
 Warning:  center  43 has no basis functions!
 Warning:  center  44 has no basis functions!
 Warning:  center  45 has no basis functions!
 Warning:  center  46 has no basis functions!
 Warning:  center  47 has no basis functions!
 Warning:  center  48 has no basis functions!
 Warning:  center  49 has no basis functions!
 Warning:  center  50 has no basis functions!
 Warning:  center  51 has no basis functions!
 Warning:  center  52 has no basis functions!
 Warning:  center  53 has no basis functions!
 Warning:  center  54 has no basis functions!
 Warning:  center  55 has no basis functions!
 Warning:  center  56 has no basis functions!
 Warning:  center  57 has no basis functions!
 Warning:  center  58 has no basis functions!
 Warning:  center  59 has no basis functions!
 Warning:  center  60 has no basis functions!
 Warning:  center  61 has no basis functions!
 Warning:  center  62 has no basis functions!
 Warning:  center  63 has no basis functions!
 Warning:  center  64 has no basis functions!
 Warning:  center  65 has no basis functions!
 Warning:  center  66 has no basis functions!
 Warning:  center  67 has no basis functions!
 Warning:  center  68 has no basis functions!
 Warning:  center  69 has no basis functions!
 Warning:  center  70 has no basis functions!
 Warning:  center  71 has no basis functions!
 Warning:  center  72 has no basis functions!
 Warning:  center  73 has no basis functions!
 Warning:  center  74 has no basis functions!
 Warning:  center  75 has no basis functions!
 Warning:  center  76 has no basis functions!
 Warning:  center  77 has no basis functions!
 Warning:  center  78 has no basis functions!
 Warning:  center  79 has no basis functions!
 Warning:  center  80 has no basis functions!
 Warning:  center  81 has no basis functions!
 Warning:  center  82 has no basis functions!
 Warning:  center  83 has no basis functions!
 Warning:  center  84 has no basis functions!
 Warning:  center  85 has no basis functions!
 Warning:  center  86 has no basis functions!
 Warning:  center  87 has no basis functions!
 Warning:  center  88 has no basis functions!
 Warning:  center  89 has no basis functions!
 Warning:  center  90 has no basis functions!
 Warning:  center  91 has no basis functions!
 Warning:  center  92 has no basis functions!
 Warning:  center  93 has no basis functions!
 Warning:  center  94 has no basis functions!
 Warning:  center  95 has no basis functions!
 Warning:  center  96 has no basis functions!
 Warning:  center  97 has no basis functions!
 Warning:  center  98 has no basis functions!
 Warning:  center  99 has no basis functions!
 Warning:  center 100 has no basis functions!
 Warning:  center 101 has no basis functions!
 Warning:  center 102 has no basis functions!
 Warning:  center 103 has no basis functions!
 Warning:  center 104 has no basis functions!
 Warning:  center 105 has no basis functions!
 Warning:  center 106 has no basis functions!
 Warning:  center 107 has no basis functions!
 Warning:  center 108 has no basis functions!
 Warning:  center 109 has no basis functions!
 Warning:  center 110 has no basis functions!
 Warning:  center 111 has no basis functions!
 Warning:  center 112 has no basis functions!
 Warning:  center 113 has no basis functions!
 Warning:  center 114 has no basis functions!
 Warning:  center 115 has no basis functions!
 Warning:  center 116 has no basis functions!
 Warning:  center 117 has no basis functions!
 Warning:  center 118 has no basis functions!
 Warning:  center 119 has no basis functions!
 Warning:  center 120 has no basis functions!
 Warning:  center 121 has no basis functions!
 Warning:  center 122 has no basis functions!
 Warning:  center 123 has no basis functions!
 Warning:  center 124 has no basis functions!
 Warning:  center 125 has no basis functions!
 Warning:  center 126 has no basis functions!
 Warning:  center 127 has no basis functions!
 Warning:  center 128 has no basis functions!
 Warning:  center 129 has no basis functions!
 Warning:  center 130 has no basis functions!
 Warning:  center 131 has no basis functions!
 Warning:  center 132 has no basis functions!
 Warning:  center 133 has no basis functions!
 Warning:  center 134 has no basis functions!
 Warning:  center 135 has no basis functions!
 Warning:  center 136 has no basis functions!
 Warning:  center 137 has no basis functions!
 Warning:  center 138 has no basis functions!
 Warning:  center 139 has no basis functions!
 Warning:  center 140 has no basis functions!
 Warning:  center 141 has no basis functions!
 Warning:  center 142 has no basis functions!
 Warning:  center 143 has no basis functions!
 Warning:  center 144 has no basis functions!
 Warning:  center 145 has no basis functions!
 Warning:  center 146 has no basis functions!
 Warning:  center 147 has no basis functions!
 Warning:  center 148 has no basis functions!
 Warning:  center 149 has no basis functions!
 Warning:  center 150 has no basis functions!
 Warning:  center 151 has no basis functions!
 Warning:  center 152 has no basis functions!
 Warning:  center 153 has no basis functions!
 Warning:  center 154 has no basis functions!
 Warning:  center 155 has no basis functions!
 Warning:  center 156 has no basis functions!
 Warning:  center 157 has no basis functions!
 Warning:  center 158 has no basis functions!
 Warning:  center 159 has no basis functions!
 Warning:  center 160 has no basis functions!
 Warning:  center 161 has no basis functions!
 Warning:  center 162 has no basis functions!
 Warning:  center 163 has no basis functions!
 Warning:  center 164 has no basis functions!
 Warning:  center 165 has no basis functions!
 Warning:  center 166 has no basis functions!
 Warning:  center 167 has no basis functions!
 Warning:  center 168 has no basis functions!
 Warning:  center 169 has no basis functions!
 Warning:  center 170 has no basis functions!
 Warning:  center 171 has no basis functions!
 Warning:  center 172 has no basis functions!
 Warning:  center 173 has no basis functions!
 Warning:  center 174 has no basis functions!
 Warning:  center 175 has no basis functions!
 Warning:  center 176 has no basis functions!
 Warning:  center 177 has no basis functions!
 Warning:  center 178 has no basis functions!
 Warning:  center 179 has no basis functions!
 Warning:  center 180 has no basis functions!
 Warning:  center 181 has no basis functions!
 Warning:  center 182 has no basis functions!
 Warning:  center 183 has no basis functions!
 Warning:  center 184 has no basis functions!
 Warning:  center 185 has no basis functions!
 Warning:  center 186 has no basis functions!
 Warning:  center 187 has no basis functions!
 Warning:  center 188 has no basis functions!
 Warning:  center 189 has no basis functions!
 Warning:  center 190 has no basis functions!
 Warning:  center 191 has no basis functions!
 Warning:  center 192 has no basis functions!
 Warning:  center 193 has no basis functions!
 Warning:  center 194 has no basis functions!
 Warning:  center 195 has no basis functions!
 Warning:  center 196 has no basis functions!
 Warning:  center 197 has no basis functions!
 Warning:  center 198 has no basis functions!
 Warning:  center 199 has no basis functions!
 Warning:  center 200 has no basis functions!
 Warning:  center 201 has no basis functions!
 Warning:  center 202 has no basis functions!
 Warning:  center 203 has no basis functions!
 Warning:  center 204 has no basis functions!
 Warning:  center 205 has no basis functions!
 Warning:  center 206 has no basis functions!
 Warning:  center 207 has no basis functions!
 Warning:  center 208 has no basis functions!
 Warning:  center 209 has no basis functions!
 Warning:  center 210 has no basis functions!
 Warning:  center 211 has no basis functions!
 Warning:  center 212 has no basis functions!
 Warning:  center 213 has no basis functions!
 Warning:  center 214 has no basis functions!
 Warning:  center 215 has no basis functions!
 Warning:  center 216 has no basis functions!
 Warning:  center 217 has no basis functions!
 Warning:  center 218 has no basis functions!
 Warning:  center 219 has no basis functions!
 Warning:  center 220 has no basis functions!
 Warning:  center 221 has no basis functions!
 Warning:  center 222 has no basis functions!
 Warning:  center 223 has no basis functions!
 Warning:  center 224 has no basis functions!
 Warning:  center 225 has no basis functions!
 Warning:  center 226 has no basis functions!
 Warning:  center 227 has no basis functions!
 Warning:  center 228 has no basis functions!
 Warning:  center 229 has no basis functions!
 Warning:  center 230 has no basis functions!
 Warning:  center 231 has no basis functions!
 Warning:  center 232 has no basis functions!
 Warning:  center 233 has no basis functions!
 Warning:  center 234 has no basis functions!
 Warning:  center 235 has no basis functions!
 Warning:  center 236 has no basis functions!
   568 basis functions,   904 primitive gaussians,   590 cartesian basis functions
    73 alpha electrons       73 beta electrons
       nuclear repulsion energy      1610.9176155625 Hartrees.
 NAtoms=  236 NActive=  236 NUniq=  236 SFac= 1.00D+00 NAtFMM=   60 NAOKFM=T Big=T
 Integral buffers will be    131072 words long.
 Raffenetti 2 integral format.
 Two-electron integral symmetry is turned off.
 One-electron integrals computed using PRISM.
 NBasis=   568 RedAO= T EigKep=  1.78D-06  NBF=   568
 NBsUse=   556 1.00D-06 EigRej=  9.09D-07 NBFU=   556
 ExpMin= 4.38D-02 ExpMax= 4.56D+03 ExpMxC= 6.82D+02 IAcc=2 IRadAn=         4 AccDes= 0.00D+00
 Harris functional with IExCor=  402 and IRadAn=       4 diagonalized for initial guess.
 HarFok:  IExCor=  402 AccDes= 0.00D+00 IRadAn=         4 IDoV= 1 UseB2=F ITyADJ=14
 ICtDFT=  3500011 ScaDFX=  1.000000  1.000000  1.000000  1.000000
 FoFCou: FMM=F IPFlag=           0 FMFlag=      100000 FMFlg1=        2001
         NFxFlg=           0 DoJE=T BraDBF=F KetDBF=T FulRan=T
         wScrn=  0.000000 ICntrl=     500 IOpCl=  0 I1Cent=   200000004 NGrid=           0
         NMat0=    1 NMatS0=      1 NMatT0=    0 NMatD0=    1 NMtDS0=    0 NMtDT0=    0
 Symmetry not used in FoFCou.
 Requested convergence on RMS density matrix=1.00D-08 within 128 cycles.
 Requested convergence on MAX density matrix=1.00D-06.
 Requested convergence on             energy=1.00D-06.
 No special actions if energy rises.
 SCF Done:  E(RB3LYP) =  -847.003289847     A.U. after   15 cycles
            NFock= 15  Conv=0.75D-08     -V/T= 2.0040
 DoSCS=F DFT=T ScalE2(SS,OS)=  1.000000  1.000000
 Range of M.O.s used for correlation:     1   556
 NBasis=   568 NAE=    73 NBE=    73 NFC=     0 NFV=     0
 NROrb=    556 NOA=    73 NOB=    73 NVA=   483 NVB=   483

 **** Warning!!: The largest alpha MO coefficient is  0.10971038D+03

          Differentiating once with respect to magnetic field using GIAOs.
          Electric field/nuclear overlap derivatives assumed to be zero.
 FoFCou: FMM=F IPFlag=           0 FMFlag=      100000 FMFlg1=        2001
         NFxFlg=           0 DoJE=F BraDBF=F KetDBF=T FulRan=T
         wScrn=  0.000000 ICntrl=    6100 IOpCl=  0 I1Cent=           7 NGrid=         236
         NMat0=    1 NMatS0=      1 NMatT0=    0 NMatD0=    1 NMtDS0=    0 NMtDT0=    0
 Symmetry not used in FoFCou.
 FoFJK:  IHMeth= 1 ICntrl=    6127 DoSepK=F KAlg= 0 I1Cent=   0 FoldK=F
 IRaf=         1 NMat=   1 IRICut=       1 DoRegI=T DoRafI=F ISym2E= 0.
          There are     3 degrees of freedom in the 1st order CPHF.  IDoFFX=0 NUNeed=     3.
      3 vectors produced by pass  0 Test12= 1.18D-12 3.33D-08 XBig12= 2.07D+03 9.18D+00.
 AX will form     3 AO Fock derivatives at one time.
      3 vectors produced by pass  1 Test12= 1.18D-12 3.33D-08 XBig12= 3.56D+00 8.03D-01.
      3 vectors produced by pass  2 Test12= 1.18D-12 3.33D-08 XBig12= 2.10D-02 6.92D-02.
      3 vectors produced by pass  3 Test12= 1.18D-12 3.33D-08 XBig12= 5.45D-05 1.89D-03.
      3 vectors produced by pass  4 Test12= 1.18D-12 3.33D-08 XBig12= 1.20D-07 7.79D-05.
      3 vectors produced by pass  5 Test12= 1.18D-12 3.33D-08 XBig12= 4.02D-10 4.73D-06.
      3 vectors produced by pass  6 Test12= 1.18D-12 3.33D-08 XBig12= 1.32D-12 2.61D-07.
 InvSVY:  IOpt=1 It=  1 EMax= 7.11D-15
 Solved reduced A of dimension    21 with     3 vectors.
 Calculating GIAO nuclear magnetic shielding tensors.
 SCF GIAO Magnetic shielding tensor (ppm):
      1  C    Isotropic =    53.8139   Anisotropy =   178.0260
   XX=   -41.4327   YX=   -32.3458   ZX=    10.0287
   XY=   -28.3572   YY=    59.0527   ZY=    55.1899
   XZ=    13.1759   YZ=    58.7550   ZZ=   143.8218
   Eigenvalues:   -53.8775    42.8214   172.4979
      2  H    Isotropic =    24.3095   Anisotropy =     4.8536
   XX=    25.5771   YX=    -1.0289   ZX=     0.5661
   XY=    -0.7431   YY=    26.1829   ZY=    -2.3306
   XZ=    -0.1707   YZ=    -2.4411   ZZ=    21.1687
   Eigenvalues:    20.2108    25.1725    27.5453
      3  C    Isotropic =    51.4055   Anisotropy =   157.8639
   XX=   -31.5399   YX=    38.5015   ZX=   -17.9316
   XY=    34.3519   YY=    49.9437   ZY=    49.6392
   XZ=    -9.8383   YZ=    44.6006   ZZ=   135.8127
   Eigenvalues:   -50.5747    48.1432   156.6481
      4  H    Isotropic =    23.8290   Anisotropy =     7.1838
   XX=    25.3635   YX=     1.8486   ZX=    -0.3559
   XY=     1.9656   YY=    26.4581   ZY=    -2.4103
   XZ=    -1.2941   YZ=    -2.6614   ZZ=    19.6654
   Eigenvalues:    18.8176    24.0511    28.6182
      5  C    Isotropic =    46.0697   Anisotropy =   207.6751
   XX=   -19.2123   YX=    -4.8852   ZX=    -1.6475
   XY=     2.8938   YY=    -2.9860   ZY=    66.5656
   XZ=     2.5356   YZ=    67.9144   ZZ=   160.4073
   Eigenvalues:   -27.2455   -19.0652   184.5197
      6  C    Isotropic =    47.5218   Anisotropy =   196.9389
   XX=   -28.1552   YX=    -2.7889   ZX=    12.0660
   XY=   -14.3886   YY=    21.2063   ZY=    74.2521
   XZ=   -18.6356   YZ=    61.1113   ZZ=   149.5144
   Eigenvalues:   -30.2925    -5.9564   178.8144
      7  C    Isotropic =    49.3915   Anisotropy =   179.8333
   XX=   -12.5211   YX=    28.7048   ZX=   -24.6745
   XY=    31.5123   YY=    29.7000   ZY=    77.7459
   XZ=   -40.0095   YZ=    65.3072   ZZ=   130.9956
   Eigenvalues:   -52.1299    31.0240   169.2804
      8  H    Isotropic =    23.1586   Anisotropy =    13.5525
   XX=    28.5711   YX=     1.5482   ZX=    -3.6986
   XY=     3.2466   YY=    22.7592   ZY=    -2.1157
   XZ=    -8.3753   YZ=    -1.0821   ZZ=    18.1456
   Eigenvalues:    15.3521    21.9301    32.1936
      9  C    Isotropic =    55.1460   Anisotropy =   174.7426
   XX=    46.7071   YX=    -2.6162   ZX=    -2.8420
   XY=     0.6223   YY=    -1.6258   ZY=    92.8272
   XZ=     0.5159   YZ=    95.6598   ZZ=   120.3568
   Eigenvalues:   -52.8932    46.6901   171.6411
     10  H    Isotropic =    24.6278   Anisotropy =     7.1815
   XX=    29.1040   YX=     0.1399   ZX=    -0.3694
   XY=     0.3642   YY=    23.4778   ZY=    -1.0805
   XZ=    -2.4493   YZ=    -2.9465   ZZ=    21.3016
   Eigenvalues:    19.9703    24.4977    29.4155
     11  C    Isotropic =    51.5607   Anisotropy =   151.2142
   XX=     2.1639   YX=    40.9287   ZX=   -26.0048
   XY=    49.9131   YY=    12.2331   ZY=    42.1342
   XZ=   -15.6145   YZ=    38.6614   ZZ=   140.2851
   Eigenvalues:   -48.1951    50.5071   152.3701
     12  H    Isotropic =    23.8537   Anisotropy =     7.3815
   XX=    25.9672   YX=     2.3738   ZX=    -0.2390
   XY=     2.4320   YY=    26.3975   ZY=    -1.8291
   XZ=     0.3529   YZ=    -1.7731   ZZ=    19.1964
   Eigenvalues:    18.7149    24.0714    28.7747
     13  C    Isotropic =    52.8653   Anisotropy =   147.4265
   XX=    51.2944   YX=    19.9221   ZX=   -13.4678
   XY=    11.5478   YY=   -34.0176   ZY=    42.5079
   XZ=    -9.2241   YZ=    40.0716   ZZ=   141.3192
   Eigenvalues:   -46.5152    53.9616   151.1497
     14  H    Isotropic =    24.0156   Anisotropy =     7.3485
   XX=    28.6644   YX=     0.6281   ZX=     1.0808
   XY=     0.5926   YY=    24.4325   ZY=    -1.0823
   XZ=     1.6846   YZ=    -0.3842   ZZ=    18.9500
   Eigenvalues:    18.6430    24.4892    28.9146
     15  C    Isotropic =    46.2221   Anisotropy =   203.9048
   XX=   -27.2215   YX=    -0.0442   ZX=   -28.9124
   XY=     4.6427   YY=   -10.5571   ZY=    28.3830
   XZ=   -10.2704   YZ=    26.7376   ZZ=   176.4448
   Eigenvalues:   -30.5512   -12.9411   182.1586
     16  C    Isotropic =    51.9375   Anisotropy =   188.2004
   XX=   -19.4441   YX=     5.5046   ZX=    15.7858
   XY=    -8.3874   YY=     2.4863   ZY=    22.9264
   XZ=   -50.6243   YZ=    23.3340   ZZ=   172.7704
   Eigenvalues:   -21.0294    -0.5625   177.4045
     17  C    Isotropic =    51.9482   Anisotropy =   149.1264
   XX=    50.7296   YX=   -23.9353   ZX=   -18.4207
   XY=   -16.7271   YY=   -41.8764   ZY=    17.8662
   XZ=   -14.3278   YZ=    11.4871   ZZ=   146.9915
   Eigenvalues:   -46.7796    51.2584   151.3658
     18  H    Isotropic =    24.0122   Anisotropy =     7.5163
   XX=    28.5811   YX=    -0.0866   ZX=     1.5071
   XY=    -0.2466   YY=    24.3342   ZY=    -0.7657
   XZ=     2.5088   YZ=    -1.5208   ZZ=    19.1214
   Eigenvalues:    18.5094    24.5041    29.0231
     19  C    Isotropic =    51.7356   Anisotropy =   148.5924
   XX=     2.4559   YX=   -45.6913   ZX=   -31.2531
   XY=   -53.4448   YY=     7.4698   ZY=    -1.8888
   XZ=   -23.5601   YZ=    -1.2765   ZZ=   145.2810
   Eigenvalues:   -46.9894    51.3989   150.7972
     20  H    Isotropic =    23.9071   Anisotropy =     7.6651
   XX=    25.5796   YX=    -2.0226   ZX=     1.4905
   XY=    -1.9998   YY=    27.3706   ZY=    -0.5164
   XZ=     2.7276   YZ=    -1.1179   ZZ=    18.7711
   Eigenvalues:    18.1643    24.5398    29.0172
     21  C    Isotropic =    45.9767   Anisotropy =   203.9316
   XX=   -16.2108   YX=    13.1802   ZX=   -44.5913
   XY=     6.5714   YY=   -20.6329   ZY=     0.0949
   XZ=   -28.8984   YZ=   -13.0883   ZZ=   174.7736
   Eigenvalues:   -30.5796   -13.4215   181.9311
     22  C    Isotropic =    52.0450   Anisotropy =   188.1157
   XX=    -0.0787   YX=     2.5023   ZX=   -16.3451
   XY=    18.9327   YY=   -14.4798   ZY=   -34.4335
   XZ=   -50.6032   YZ=    19.9104   ZZ=   170.6934
   Eigenvalues:   -20.7705    -0.5500   177.4554
     23  C    Isotropic =    53.2392   Anisotropy =   146.7412
   XX=   -22.0674   YX=   -32.0012   ZX=   -49.4857
   XY=   -23.2043   YY=    44.3661   ZY=   -15.6400
   XZ=   -43.8090   YZ=   -20.2525   ZZ=   137.4189
   Eigenvalues:   -45.6776    54.3286   151.0667
     24  H    Isotropic =    23.8249   Anisotropy =     7.5289
   XX=    25.1073   YX=    -1.7330   ZX=     1.5380
   XY=    -1.5944   YY=    28.0047   ZY=     0.0879
   XZ=     1.2557   YZ=    -0.8283   ZZ=    18.3628
   Eigenvalues:    18.0848    24.5458    28.8442
     25  C    Isotropic =    51.4969   Anisotropy =   150.1066
   XX=   -28.4915   YX=    33.9684   ZX=   -52.3137
   XY=    22.0311   YY=    46.6072   ZY=    -3.8075
   XZ=   -44.5594   YZ=   -10.6355   ZZ=   136.3748
   Eigenvalues:   -48.3857    51.3083   151.5679
     26  H    Isotropic =    23.7431   Anisotropy =     7.4052
   XX=    24.0663   YX=     1.1141   ZX=     1.9989
   XY=     0.9693   YY=    28.1000   ZY=     1.6568
   XZ=     2.0795   YZ=     0.8886   ZZ=    19.0630
   Eigenvalues:    18.2615    24.2880    28.6799
     27  C    Isotropic =    45.8108   Anisotropy =   207.2710
   XX=    -2.7702   YX=    13.7697   ZX=   -61.4651
   XY=     6.5593   YY=   -12.0335   ZY=   -41.6456
   XZ=   -62.6381   YZ=   -44.9232   ZZ=   152.2361
   Eigenvalues:   -28.0803   -18.4787   183.9915
     28  C    Isotropic =    47.8398   Anisotropy =   197.2870
   XX=    19.6900   YX=    14.4398   ZX=   -60.5682
   XY=    28.5650   YY=   -19.3566   ZY=   -56.7015
   XZ=   -63.1331   YZ=   -24.4782   ZZ=   143.1859
   Eigenvalues:   -30.5979    -5.2472   179.3644
     29  C    Isotropic =    49.3441   Anisotropy =   179.7793
   XX=    -3.4110   YX=    38.3775   ZX=   -80.8875
   XY=    36.1252   YY=    25.9805   ZY=   -23.7573
   XZ=   -78.1065   YZ=    -3.9802   ZZ=   125.4627
   Eigenvalues:   -51.6645    30.4997   169.1970
     30  H    Isotropic =    23.1387   Anisotropy =    13.3222
   XX=    22.4354   YX=    -0.7013   ZX=    -0.2375
   XY=    -2.1539   YY=    28.3546   ZY=     4.5555
   XZ=    -3.4181   YZ=     8.3231   ZZ=    18.6259
   Eigenvalues:    15.2751    22.1208    32.0201
     31  C    Isotropic =    55.4410   Anisotropy =   174.9390
   XX=    17.1871   YX=   -14.0890   ZX=   -84.0024
   XY=   -17.9030   YY=    37.4745   ZY=   -50.3662
   XZ=   -84.6557   YZ=   -54.8325   ZZ=   111.6615
   Eigenvalues:   -51.9248    46.1808   172.0670
     32  H    Isotropic =    24.5337   Anisotropy =     7.2554
   XX=    24.6185   YX=    -2.5264   ZX=     0.7632
   XY=    -2.7385   YY=    27.4630   ZY=     1.0335
   XZ=     1.1913   YZ=     3.7573   ZZ=    21.5194
   Eigenvalues:    19.8987    24.3316    29.3706
     33  C    Isotropic =    53.1814   Anisotropy =   179.0596
   XX=    60.9231   YX=    35.2256   ZX=   -42.9515
   XY=    32.0226   YY=   -38.1801   ZY=   -45.5652
   XZ=   -44.2248   YZ=   -50.7831   ZZ=   136.8014
   Eigenvalues:   -55.1197    42.1095   172.5545
     34  H    Isotropic =    24.2825   Anisotropy =     5.1861
   XX=    26.7643   YX=    -0.0934   ZX=     2.5955
   XY=    -0.2993   YY=    24.8157   ZY=     0.8589
   XZ=     2.3715   YZ=     1.4580   ZZ=    21.2676
   Eigenvalues:    20.0339    25.0737    27.7399
     35  C    Isotropic =    51.5295   Anisotropy =   155.1748
   XX=    -0.5131   YX=    52.5760   ZX=   -52.1551
   XY=    55.6135   YY=    25.1843   ZY=   -14.2643
   XZ=   -45.7255   YZ=   -17.1625   ZZ=   129.9171
   Eigenvalues:   -48.3147    47.9237   154.9793
     36  H    Isotropic =    23.8384   Anisotropy =     7.3073
   XX=    24.2302   YX=     1.4459   ZX=     2.1759
   XY=     1.2147   YY=    27.1572   ZY=     2.0665
   XZ=     1.6853   YZ=     2.7775   ZZ=    20.1277
   Eigenvalues:    18.9464    23.8588    28.7099
     37  Bq   Isotropic =    22.7561   Anisotropy =    27.9382
   XX=    16.3368   YX=     0.2305   ZX=    -5.2816
   XY=     4.4630   YY=    14.8733   ZY=     6.8361
   XZ=     0.5825   YZ=    14.3752   ZZ=    37.0583
   Eigenvalues:     9.2870    17.5998    41.3816
     38  Bq   Isotropic =   -15.9493   Anisotropy =    91.4694
   XX=   -47.9910   YX=     7.7394   ZX=   -29.4094
   XY=     7.3376   YY=   -39.7012   ZY=    25.7477
   XZ=     2.0752   YZ=     9.1686   ZZ=    39.8442
   Eigenvalues:   -56.9932   -35.8851    45.0303
     39  Bq   Isotropic =    19.6922   Anisotropy =    28.0216
   XX=    12.8287   YX=    -0.1013   ZX=    -4.3502
   XY=     4.3287   YY=    11.8585   ZY=     5.8915
   XZ=     0.4199   YZ=    14.5287   ZZ=    34.3895
   Eigenvalues:     6.7350    13.9684    38.3733
     40  Bq   Isotropic =   -42.2147   Anisotropy =   127.1664
   XX=   -90.7183   YX=     6.2731   ZX=   -27.2353
   XY=     7.9135   YY=   -75.4862   ZY=    23.6319
   XZ=     8.7356   YZ=    10.6851   ZZ=    39.5604
   Eigenvalues:   -95.2451   -73.9618    42.5629
     41  Bq   Isotropic =    16.8947   Anisotropy =    27.8794
   XX=     9.7045   YX=    -0.3318   ZX=    -3.7419
   XY=     4.1333   YY=     9.1970   ZY=     5.2421
   XZ=     0.2694   YZ=    14.3669   ZZ=    31.7825
   Eigenvalues:     4.4443    10.7588    35.4810
     42  Bq   Isotropic =   -53.7414   Anisotropy =   136.4437
   XX=  -106.8314   YX=    -1.4965   ZX=   -21.3217
   XY=     4.4653   YY=   -87.9686   ZY=    19.9942
   XZ=     6.5066   YZ=    20.5869   ZZ=    33.5758
   Eigenvalues:  -107.6085   -90.8367    37.2211
     43  Bq   Isotropic =    27.3514   Anisotropy =    31.9034
   XX=    20.4459   YX=     2.4941   ZX=   -12.6002
   XY=     4.5286   YY=    18.8238   ZY=    13.3172
   XZ=     0.5431   YZ=    11.2905   ZZ=    42.7845
   Eigenvalues:    10.3863    23.0476    48.6203
     44  Bq   Isotropic =    26.7441   Anisotropy =    24.1173
   XX=    22.0267   YX=     0.0278   ZX=    -8.4424
   XY=     4.1057   YY=    19.8743   ZY=     5.7619
   XZ=     0.5462   YZ=    13.4719   ZZ=    38.3312
   Eigenvalues:    14.1976    23.2124    42.8222
     45  Bq   Isotropic =    20.5054   Anisotropy =    34.2696
   XX=    11.3456   YX=     0.9653   ZX=   -17.2589
   XY=     3.4663   YY=    11.2183   ZY=     7.9193
   XZ=    -0.6741   YZ=     8.8609   ZZ=    38.9524
   Eigenvalues:     4.6715    13.4929    43.3519
     46  Bq   Isotropic =    24.7956   Anisotropy =    24.5542
   XX=    19.9524   YX=    -0.3340   ZX=    -6.2021
   XY=     4.2224   YY=    17.9029   ZY=     5.2823
   XZ=     0.6490   YZ=    15.0835   ZZ=    36.5314
   Eigenvalues:    12.3029    20.9188    41.1650
     47  Bq   Isotropic =     6.0041   Anisotropy =    54.4095
   XX=   -11.4631   YX=     1.2621   ZX=   -24.0226
   XY=     3.1359   YY=    -8.3015   ZY=    10.4755
   XZ=    -1.4230   YZ=     7.9022   ZZ=    37.7768
   Eigenvalues:   -17.0283    -7.2366    42.2771
     48  Bq   Isotropic =    21.9193   Anisotropy =    25.4955
   XX=    16.5712   YX=    -0.5869   ZX=    -4.8151
   XY=     4.2000   YY=    14.8990   ZY=     4.9522
   XZ=     0.5917   YZ=    15.9536   ZZ=    34.2879
   Eigenvalues:     9.4525    17.3892    38.9163
     49  Bq   Isotropic =   -19.2413   Anisotropy =    92.3335
   XX=   -52.1295   YX=     1.1016   ZX=   -29.1082
   XY=     3.3133   YY=   -43.8164   ZY=    15.0945
   XZ=     0.2475   YZ=    11.0733   ZZ=    38.2220
   Eigenvalues:   -56.0416   -43.9966    42.3144
     50  Bq   Isotropic =    18.9431   Anisotropy =    26.2009
   XX=    13.0628   YX=    -0.7554   ZX=    -3.9540
   XY=     4.0720   YY=    11.8582   ZY=     4.6985
   XZ=     0.4754   YZ=    16.2213   ZZ=    31.9082
   Eigenvalues:     6.6332    13.7857    36.4104
     51  Bq   Isotropic =   -44.6191   Anisotropy =   137.7207
   XX=   -93.9864   YX=     0.3375   ZX=   -25.0830
   XY=     5.1252   YY=   -83.1243   ZY=    21.7119
   XZ=     7.9038   YZ=    20.8270   ZZ=    43.2533
   Eigenvalues:   -96.1804   -84.8717    47.1946
     52  Bq   Isotropic =    16.2289   Anisotropy =    26.4822
   XX=     9.9302   YX=    -0.8662   ZX=    -3.4057
   XY=     3.8756   YY=     9.1822   ZY=     4.4879
   XZ=     0.3533   YZ=    16.0654   ZZ=    29.5743
   Eigenvalues:     4.2157    10.5873    33.8837
     53  Bq   Isotropic =   -50.4401   Anisotropy =   145.8238
   XX=   -95.7495   YX=    -0.7338   ZX=   -18.8106
   XY=     8.5175   YY=   -96.5576   ZY=    25.1854
   XZ=     3.1685   YZ=    30.6548   ZZ=    40.9869
   Eigenvalues:  -105.1299   -92.9661    46.7758
     54  Bq   Isotropic =    26.1865   Anisotropy =    26.1099
   XX=    20.4865   YX=     0.4898   ZX=   -11.9815
   XY=     3.8400   YY=    18.8130   ZY=     6.5418
   XZ=     0.1346   YZ=    11.2027   ZZ=    39.2599
   Eigenvalues:    12.9960    21.9703    43.5931
     55  Bq   Isotropic =    25.3729   Anisotropy =    19.2112
   XX=    22.8209   YX=    -1.3011   ZX=    -7.0938
   XY=     3.4660   YY=    18.7925   ZY=     1.1303
   XZ=     0.4994   YZ=    14.4741   ZZ=    34.5053
   Eigenvalues:    14.9069    23.0314    38.1804
     56  Bq   Isotropic =    20.2573   Anisotropy =    27.6421
   XX=    15.0721   YX=    -1.8744   ZX=   -14.5639
   XY=     1.7571   YY=     9.9574   ZY=    -1.9906
   XZ=    -1.0459   YZ=     8.4123   ZZ=    35.7424
   Eigenvalues:     9.3358    12.7507    38.6854
     57  Bq   Isotropic =    23.4445   Anisotropy =    20.8960
   XX=    20.3674   YX=    -1.3149   ZX=    -5.2049
   XY=     3.7547   YY=    17.1091   ZY=     2.2828
   XZ=     0.6681   YZ=    16.4888   ZZ=    32.8569
   Eigenvalues:    12.2037    20.7546    37.3751
     58  Bq   Isotropic =     7.8414   Anisotropy =    45.6976
   XX=    -3.3705   YX=    -3.0715   ZX=   -20.1989
   XY=     0.1211   YY=    -8.1890   ZY=    -2.4028
   XZ=    -2.4153   YZ=     6.9689   ZZ=    35.0838
   Eigenvalues:    -8.6417    -6.1404    38.3065
     59  Bq   Isotropic =    20.6971   Anisotropy =    22.8009
   XX=    16.8418   YX=    -1.3424   ZX=    -4.0571
   XY=     3.8168   YY=    14.3394   ZY=     3.0456
   XZ=     0.6546   YZ=    17.5579   ZZ=    30.9102
   Eigenvalues:     8.9676    17.2261    35.8978
     60  Bq   Isotropic =   -13.9228   Anisotropy =    76.6837
   XX=   -36.3791   YX=    -4.9116   ZX=   -24.5641
   XY=    -1.4915   YY=   -39.4117   ZY=     1.4133
   XZ=    -2.9632   YZ=    10.9675   ZZ=    34.0223
   Eigenvalues:   -41.5397   -37.4284    37.1996
     61  Bq   Isotropic =    17.8771   Anisotropy =    24.1682
   XX=    13.2834   YX=    -1.3563   ZX=    -3.3629
   XY=     3.7334   YY=    11.4695   ZY=     3.5004
   XZ=     0.5672   YZ=    17.8853   ZZ=    28.8784
   Eigenvalues:     6.0005    13.6417    33.9893
     62  Bq   Isotropic =   -38.2672   Anisotropy =   110.5108
   XX=   -73.1965   YX=    -5.2656   ZX=   -22.8927
   XY=    -0.4402   YY=   -72.8626   ZY=    11.7408
   XZ=    -1.8209   YZ=    22.0650   ZZ=    31.2576
   Eigenvalues:   -76.0854   -74.1228    35.4067
     63  Bq   Isotropic =    15.3125   Anisotropy =    24.9019
   XX=    10.1318   YX=    -1.3549   ZX=    -2.9338
   XY=     3.5641   YY=     8.9137   ZY=     3.7404
   XZ=     0.4633   YZ=    17.7029   ZZ=    26.8919
   Eigenvalues:     3.5577    10.4659    31.9137
     64  Bq   Isotropic =   -50.8082   Anisotropy =   119.5730
   XX=   -88.3812   YX=    -1.9638   ZX=   -17.8950
   XY=     4.4247   YY=   -87.2110   ZY=    19.4147
   XZ=    -7.6173   YZ=    25.8114   ZZ=    23.1676
   Eigenvalues:   -94.4521   -86.8797    28.9072
     65  Bq   Isotropic =    25.0717   Anisotropy =    20.1355
   XX=    22.1835   YX=    -1.4047   ZX=   -10.1018
   XY=     2.8451   YY=    17.4719   ZY=    -0.4006
   XZ=    -0.0191   YZ=    11.5561   ZZ=    35.5597
   Eigenvalues:    15.1753    21.5444    38.4953
     66  Bq   Isotropic =    23.5197   Anisotropy =    14.4568
   XX=    23.7463   YX=    -2.3315   ZX=    -5.2370
   XY=     2.7264   YY=    16.8904   ZY=    -2.4197
   XZ=     0.7075   YZ=    15.7434   ZZ=    29.9224
   Eigenvalues:    13.9701    23.4314    33.1575
     67  Bq   Isotropic =    20.3778   Anisotropy =    20.8873
   XX=    20.8455   YX=    -3.7546   ZX=   -10.5092
   XY=     0.2347   YY=     8.3032   ZY=    -8.9664
   XZ=    -0.6230   YZ=     8.7827   ZZ=    31.9848
   Eigenvalues:     8.0275    18.8033    34.3027
     68  Bq   Isotropic =    21.6137   Anisotropy =    17.2994
   XX=    20.7116   YX=    -2.1039   ZX=    -3.8903
   XY=     3.1859   YY=    15.6686   ZY=    -0.0912
   XZ=     0.8364   YZ=    17.9455   ZZ=    28.4610
   Eigenvalues:    10.9397    20.7549    33.1467
     69  Bq   Isotropic =    11.6022   Anisotropy =    34.9014
   XX=     9.5853   YX=    -5.6115   ZX=   -14.2769
   XY=    -2.2238   YY=    -6.9875   ZY=   -11.4018
   XZ=    -1.9976   YZ=     6.2456   ZZ=    32.2090
   Eigenvalues:    -8.3572     8.2941    34.8698
     70  Bq   Isotropic =    19.0672   Anisotropy =    20.0967
   XX=    16.9947   YX=    -1.9648   ZX=    -3.0931
   XY=     3.3519   YY=    13.3190   ZY=     1.5013
   XZ=     0.8075   YZ=    19.0944   ZZ=    26.8879
   Eigenvalues:     7.6295    17.1071    32.4650
     71  Bq   Isotropic =    -3.6336   Anisotropy =    55.7625
   XX=   -10.7802   YX=    -8.3531   ZX=   -17.1564
   XY=    -5.3437   YY=   -31.2539   ZY=    -9.8393
   XZ=    -3.4971   YZ=     7.3564   ZZ=    31.1334
   Eigenvalues:   -33.6204   -10.8217    33.5414
     72  Bq   Isotropic =    16.4861   Anisotropy =    22.0748
   XX=    13.3941   YX=    -1.8597   ZX=    -2.6321
   XY=     3.3354   YY=    10.7696   ZY=     2.5165
   XZ=     0.7151   YZ=    19.4248   ZZ=    25.2946
   Eigenvalues:     4.7346    13.5211    31.2026
     73  Bq   Isotropic =   -21.6980   Anisotropy =    76.7474
   XX=   -34.9831   YX=   -10.7090   ZX=   -16.5447
   XY=    -7.8203   YY=   -57.2646   ZY=    -1.8973
   XZ=    -4.8919   YZ=    12.2810   ZZ=    27.1537
   Eigenvalues:   -60.6320   -33.9289    29.4669
     74  Bq   Isotropic =    14.1439   Anisotropy =    23.2329
   XX=    10.2460   YX=    -1.7694   ZX=    -2.3631
   XY=     3.2124   YY=     8.4416   ZY=     3.1241
   XZ=     0.6097   YZ=    19.1926   ZZ=    23.7442
   Eigenvalues:     2.4230    10.3763    29.6325
     75  Bq   Isotropic =   -33.0995   Anisotropy =    86.4317
   XX=   -49.3326   YX=   -11.3417   ZX=   -11.8970
   XY=    -8.8592   YY=   -71.4943   ZY=     8.8785
   XZ=    -7.2177   YZ=    14.2923   ZZ=    21.5284
   Eigenvalues:   -75.9948   -47.8253    24.5216
     76  Bq   Isotropic =    23.6728   Anisotropy =    14.5099
   XX=    24.5815   YX=    -2.7872   ZX=    -7.3890
   XY=     1.8150   YY=    15.2888   ZY=    -5.5078
   XZ=     0.2743   YZ=    12.4881   ZZ=    31.1481
   Eigenvalues:    14.5476    23.1247    33.3461
     77  Bq   Isotropic =    21.1520   Anisotropy =    10.2088
   XX=    24.2452   YX=    -2.9664   ZX=    -3.2089
   XY=     2.0320   YY=    14.7545   ZY=    -4.3276
   XZ=     1.1669   YZ=    17.0840   ZZ=    24.4561
   Eigenvalues:    11.5920    23.9060    27.9578
     78  Bq   Isotropic =    19.9635   Anisotropy =    14.0501
   XX=    25.9212   YX=    -4.5197   ZX=    -6.2391
   XY=    -0.7480   YY=     7.1498   ZY=   -11.8371
   XZ=     0.4776   YZ=     9.8666   ZZ=    26.8195
   Eigenvalues:     6.6924    23.8679    29.3303
     79  Bq   Isotropic =    19.3409   Anisotropy =    14.1253
   XX=    20.7120   YX=    -2.6369   ZX=    -2.4507
   XY=     2.6064   YY=    13.9579   ZY=    -1.4851
   XZ=     1.1600   YZ=    19.2844   ZZ=    23.3530
   Eigenvalues:     8.5836    20.6813    28.7578
     80  Bq   Isotropic =    14.7567   Anisotropy =    22.9632
   XX=    21.0780   YX=    -6.2296   ZX=    -8.2563
   XY=    -3.3305   YY=    -4.7083   ZY=   -14.6388
   XZ=    -0.3592   YZ=     6.4609   ZZ=    27.9005
   Eigenvalues:    -6.2452    20.4499    30.0655
     81  Bq   Isotropic =    17.0780   Anisotropy =    17.6395
   XX=    16.8834   YX=    -2.4123   ZX=    -2.0381
   XY=     2.8614   YY=    12.0691   ZY=     0.5340
   XZ=     1.0568   YZ=    20.4199   ZZ=    22.2814
   Eigenvalues:     5.5024    16.8939    28.8376
     82  Bq   Isotropic =     5.9058   Anisotropy =    36.1915
   XX=    11.5245   YX=    -8.6903   ZX=    -9.5914
   XY=    -6.6982   YY=   -22.1203   ZY=   -13.9925
   XZ=    -1.3711   YZ=     5.0767   ZZ=    28.3132
   Eigenvalues:   -24.3809    12.0648    30.0335
     83  Bq   Isotropic =    14.8123   Anisotropy =    20.0878
   XX=    13.3085   YX=    -2.2377   ZX=    -1.8338
   XY=     2.9133   YY=     9.8992   ZY=     1.8724
   XZ=     0.9231   YZ=    20.7198   ZZ=    21.2291
   Eigenvalues:     2.9005    13.3322    28.2041
     84  Bq   Isotropic =    -4.3283   Anisotropy =    49.0894
   XX=    -0.0118   YX=   -11.2867   ZX=    -8.8682
   XY=   -10.2050   YY=   -40.2617   ZY=    -7.8356
   XZ=    -2.2424   YZ=     6.0685   ZZ=    27.2887
   Eigenvalues:   -43.0207     1.6380    28.3980
     85  Bq   Isotropic =    12.7572   Anisotropy =    21.5830
   XX=    10.2183   YX=    -2.0903   ZX=    -1.7413
   XY=     2.8431   YY=     7.8526   ZY=     2.7099
   XZ=     0.7938   YZ=    20.4352   ZZ=    20.2007
   Eigenvalues:     0.8758    10.2500    27.1458
     86  Bq   Isotropic =   -10.8614   Anisotropy =    55.9106
   XX=    -7.2770   YX=   -12.9564   ZX=    -5.4165
   XY=   -12.8850   YY=   -50.6219   ZY=     2.8516
   XZ=    -2.6192   YZ=     7.4204   ZZ=    25.3146
   Eigenvalues:   -54.3718    -4.6248    26.4123
     87  Bq   Isotropic =    21.7271   Anisotropy =     9.9633
   XX=    26.4704   YX=    -3.5212   ZX=    -4.4579
   XY=     0.9799   YY=    13.0957   ZY=    -7.9475
   XZ=     0.9761   YZ=    13.7914   ZZ=    25.6151
   Eigenvalues:    12.3933    24.4186    28.3692
     88  Bq   Isotropic =    18.3643   Anisotropy =     8.5547
   XX=    23.9533   YX=    -3.2282   ZX=    -1.3091
   XY=     1.4891   YY=    12.8802   ZY=    -4.7343
   XZ=     1.7838   YZ=    18.1995   ZZ=    18.2594
   Eigenvalues:     8.2734    22.7520    24.0674
     89  Bq   Isotropic =    18.5504   Anisotropy =    15.7025
   XX=    28.6500   YX=    -4.4696   ZX=    -2.5588
   XY=    -1.1422   YY=     6.9477   ZY=   -11.5492
   XZ=     1.8566   YZ=    11.1876   ZZ=    20.0534
   Eigenvalues:     6.5871    20.0453    29.0187
     90  Bq   Isotropic =    16.7479   Anisotropy =    11.7700
   XX=    20.1965   YX=    -2.9129   ZX=    -1.0676
   XY=     2.0972   YY=    12.3305   ZY=    -1.9315
   XZ=     1.5933   YZ=    20.2996   ZZ=    17.7166
   Eigenvalues:     5.4370    20.2121    24.5945
     91  Bq   Isotropic =    15.9369   Anisotropy =    19.0611
   XX=    27.9440   YX=    -5.6728   ZX=    -3.3614
   XY=    -3.3801   YY=    -1.4662   ZY=   -13.8139
   XZ=     1.6562   YZ=     7.4176   ZZ=    21.3328
   Eigenvalues:    -2.5993    21.7656    28.6442
     92  Bq   Isotropic =    14.8361   Anisotropy =    15.6701
   XX=    16.4190   YX=    -2.6771   ZX=    -1.0050
   XY=     2.4022   YY=    10.8217   ZY=     0.1463
   XZ=     1.3792   YZ=    21.3849   ZZ=    17.2675
   Eigenvalues:     2.8033    16.4221    25.2828
     93  Bq   Isotropic =    11.4428   Anisotropy =    21.9542
   XX=    24.8545   YX=    -7.3240   ZX=    -3.7128
   XY=    -6.1668   YY=   -13.0247   ZY=   -13.2274
   XZ=     1.3819   YZ=     4.7692   ZZ=    22.4986
   Eigenvalues:   -14.7024    22.9520    26.0790
     94  Bq   Isotropic =    12.9390   Anisotropy =    18.3610
   XX=    12.9751   YX=    -2.4817   ZX=    -1.0409
   XY=     2.5054   YY=     9.0049   ZY=     1.5766
   XZ=     1.1782   YZ=    21.6554   ZZ=    16.8370
   Eigenvalues:     0.6625    12.9748    25.1796
     95  Bq   Isotropic =     6.3920   Anisotropy =    25.3619
   XX=    20.6743   YX=    -9.0992   ZX=    -2.9517
   XY=    -9.0728   YY=   -24.5004   ZY=    -8.4822
   XZ=     1.2464   YZ=     3.7543   ZZ=    23.0020
   Eigenvalues:   -26.3842    22.2602    23.2999
     96  Bq   Isotropic =    11.2151   Anisotropy =    20.0538
   XX=    10.0153   YX=    -2.3102   ZX=    -1.1171
   XY=     2.4819   YY=     7.2390   ZY=     2.5029
   XZ=     1.0070   YZ=    21.3397   ZZ=    16.3909
   Eigenvalues:    -0.9553    10.0163    24.5843
     97  Bq   Isotropic =     3.1670   Anisotropy =    29.1951
   XX=    17.8922   YX=   -10.3502   ZX=    -0.7672
   XY=   -11.3748   YY=   -30.9620   ZY=    -0.1825
   XZ=     1.5073   YZ=     3.7552   ZZ=    22.5708
   Eigenvalues:   -33.3279    20.1986    22.6304
     98  Bq   Isotropic =    19.1811   Anisotropy =    12.0868
   XX=    27.0583   YX=    -3.7031   ZX=    -1.8067
   XY=     0.4532   YY=    11.4768   ZY=    -8.1277
   XZ=     1.8927   YZ=    15.0511   ZZ=    19.0083
   Eigenvalues:     9.9901    20.3143    27.2390
     99  Bq   Isotropic =    15.3425   Anisotropy =    11.4533
   XX=    22.8111   YX=    -3.2057   ZX=     0.2778
   XY=     1.1451   YY=    11.4797   ZY=    -4.1755
   XZ=     2.4358   YZ=    18.8455   ZZ=    11.7366
   Eigenvalues:     4.1200    18.9295    22.9780
    100  Bq   Isotropic =    16.1944   Anisotropy =    19.5643
   XX=    28.8018   YX=    -3.9827   ZX=     0.2256
   XY=    -1.0690   YY=     7.4945   ZY=    -9.7081
   XZ=     3.1610   YZ=    12.2111   ZZ=    12.2868
   Eigenvalues:     6.8130    12.5329    29.2372
    101  Bq   Isotropic =    14.0033   Anisotropy =    10.6030
   XX=    19.1444   YX=    -2.9733   ZX=     0.1323
   XY=     1.7094   YY=    10.9853   ZY=    -1.7159
   XZ=     2.0653   YZ=    20.8343   ZZ=    11.8803
   Eigenvalues:     1.7780    19.1601    21.0720
    102  Bq   Isotropic =    15.1063   Anisotropy =    23.6307
   XX=    30.1543   YX=    -4.6677   ZX=     0.1279
   XY=    -2.7963   YY=     2.0448   ZY=   -11.3623
   XZ=     3.4507   YZ=     8.3803   ZZ=    13.1198
   Eigenvalues:     1.4233    13.0355    30.8601
    103  Bq   Isotropic =    12.4783   Anisotropy =    14.3429
   XX=    15.5932   YX=    -2.7782   ZX=    -0.0808
   XY=     2.0169   YY=     9.7278   ZY=     0.1874
   XZ=     1.7335   YZ=    21.8822   ZZ=    12.1138
   Eigenvalues:    -0.2225    15.6171    22.0402
    104  Bq   Isotropic =    13.0511   Anisotropy =    27.2849
   XX=    30.1591   YX=    -5.5733   ZX=     0.2549
   XY=    -4.8267   YY=    -5.1019   ZY=   -10.8738
   XZ=     3.7049   YZ=     5.1301   ZZ=    14.0960
   Eigenvalues:    -6.1783    14.0905    31.2410
    105  Bq   Isotropic =    10.9716   Anisotropy =    16.9938
   XX=    12.3883   YX=    -2.6001   ZX=    -0.3138
   XY=     2.1437   YY=     8.1918   ZY=     1.5468
   XZ=     1.4555   YZ=    22.1520   ZZ=    12.3347
   Eigenvalues:    -1.7865    12.4005    22.3008
    106  Bq   Isotropic =    10.7158   Anisotropy =    30.2047
   XX=    29.3065   YX=    -6.5364   ZX=     0.8982
   XY=    -6.8652   YY=   -11.9306   ZY=    -7.5626
   XZ=     4.0040   YZ=     2.9290   ZZ=    14.7715
   Eigenvalues:   -13.1230    14.4182    30.8523
    107  Bq   Isotropic =     9.5970   Anisotropy =    18.7169
   XX=     9.6318   YX=    -2.4325   ZX=    -0.5334
   XY=     2.1515   YY=     6.6707   ZY=     2.4548
   XZ=     1.2337   YZ=    21.8434   ZZ=    12.4885
   Eigenvalues:    -2.9214     9.6375    22.0749
    108  Bq   Isotropic =     9.1582   Anisotropy =    32.0748
   XX=    28.5034   YX=    -7.2242   ZX=     2.1811
   XY=    -8.4746   YY=   -15.7574   ZY=    -1.9471
   XZ=     4.4462   YZ=     1.5874   ZZ=    14.7286
   Eigenvalues:   -17.1129    14.0461    30.5414
    109  Bq   Isotropic =    16.1912   Anisotropy =    15.4052
   XX=    26.2015   YX=    -3.5189   ZX=     0.3096
   XY=     0.2415   YY=    10.5442   ZY=    -7.0104
   XZ=     2.8143   YZ=    15.8901   ZZ=    11.8279
   Eigenvalues:     6.4412    15.6710    26.4613
    110  Bq   Isotropic =    12.2999   Anisotropy =    13.5303
   XX=    20.9999   YX=    -2.9993   ZX=     1.4841
   XY=     0.9938   YY=    10.5111   ZY=    -3.2197
   XZ=     3.0213   YZ=    18.9202   ZZ=     5.3886
   Eigenvalues:    -0.5775    16.1570    21.3201
    111  Bq   Isotropic =    13.2630   Anisotropy =    21.4915
   XX=    27.0116   YX=    -3.3290   ZX=     2.1359
   XY=    -0.6902   YY=     8.3102   ZY=    -7.5406
   XZ=     4.2010   YZ=    12.6522   ZZ=     4.4673
   Eigenvalues:     2.6196     9.5788    27.5907
    112  Bq   Isotropic =    11.2799   Anisotropy =    10.9365
   XX=    17.6617   YX=    -2.8762   ZX=     1.0858
   XY=     1.4583   YY=     9.9516   ZY=    -1.1840
   XZ=     2.5081   YZ=    20.8302   ZZ=     6.2265
   Eigenvalues:    -2.0800    17.3489    18.5709
    113  Bq   Isotropic =    12.9067   Anisotropy =    25.4506
   XX=    29.0559   YX=    -3.6100   ZX=     2.3993
   XY=    -1.9124   YY=     5.0931   ZY=    -8.7970
   XZ=     4.7971   YZ=     8.8901   ZZ=     4.5712
   Eigenvalues:     3.8509     4.9955    29.8738
    114  Bq   Isotropic =    10.1422   Anisotropy =    13.6502
   XX=    14.4696   YX=    -2.7490   ZX=     0.6823
   XY=     1.7260   YY=     8.8360   ZY=     0.4526
   XZ=     2.0752   YZ=    21.8747   ZZ=     7.1211
   Eigenvalues:    -3.3219    14.5063    19.2424
    115  Bq   Isotropic =    12.0346   Anisotropy =    28.9526
   XX=    30.2208   YX=    -3.9881   ZX=     2.7223
   XY=    -3.2815   YY=     0.9485   ZY=    -8.5794
   XZ=     5.3590   YZ=     5.3711   ZZ=     4.9343
   Eigenvalues:     0.2109     4.5564    31.3363
    116  Bq   Isotropic =     9.0177   Anisotropy =    15.9986
   XX=    11.5861   YX=    -2.6122   ZX=     0.3063
   XY=     1.8473   YY=     7.5049   ZY=     1.6613
   XZ=     1.7265   YZ=    22.1822   ZZ=     7.9622
   Eigenvalues:    -4.2516    11.6214    19.6835
    117  Bq   Isotropic =    10.9736   Anisotropy =    31.6473
   XX=    30.6243   YX=    -4.3949   ZX=     3.2226
   XY=    -4.6098   YY=    -2.9532   ZY=    -6.5601
   XZ=     5.8857   YZ=     2.4754   ZZ=     5.2498
   Eigenvalues:    -3.7902     4.6393    32.0719
    118  Bq   Isotropic =     7.9852   Anisotropy =    17.5955
   XX=     9.0891   YX=    -2.4685   ZX=    -0.0217
   XY=     1.8675   YY=     6.1823   ZY=     2.4917
   XZ=     1.4548   YZ=    21.9244   ZZ=     8.6841
   Eigenvalues:    -4.8742     9.1142    19.7155
    119  Bq   Isotropic =    10.1819   Anisotropy =    33.2291
   XX=    30.5576   YX=    -4.6749   ZX=     3.9526
   XY=    -5.6556   YY=    -5.2002   ZY=    -3.1206
   XZ=     6.3927   YZ=     0.1898   ZZ=     5.1882
   Eigenvalues:    -5.9820     4.1930    32.3346
    120  Bq   Isotropic =    13.0236   Anisotropy =    17.4161
   XX=    24.2255   YX=    -3.1384   ZX=     1.8404
   XY=     0.2860   YY=    10.0900   ZY=    -5.4735
   XZ=     3.5964   YZ=    16.1325   ZZ=     4.7553
   Eigenvalues:     1.0581    13.3784    24.6344
    121  Bq   Isotropic =     9.4240   Anisotropy =    14.7465
   XX=    18.8059   YX=    -2.6938   ZX=     2.3209
   XY=     0.9934   YY=     9.8082   ZY=    -2.2674
   XZ=     3.4798   YZ=    18.4610   ZZ=    -0.3421
   Eigenvalues:    -5.1857    14.2028    19.2550
    122  Bq   Isotropic =    10.1803   Anisotropy =    21.9698
   XX=    24.1539   YX=    -2.6595   ZX=     3.3318
   XY=    -0.1561   YY=     8.9802   ZY=    -5.6785
   XZ=     4.9227   YZ=    12.5090   ZZ=    -2.5930
   Eigenvalues:    -4.1941     9.9082    24.8269
    123  Bq   Isotropic =     8.7241   Anisotropy =    12.0070
   XX=    15.9200   YX=    -2.6786   ZX=     1.7806
   XY=     1.3289   YY=     9.1518   ZY=    -0.6095
   XZ=     2.8731   YZ=    20.3241   ZZ=     1.1004
   Eigenvalues:    -5.7674    15.2109    16.7288
    124  Bq   Isotropic =    10.0857   Anisotropy =    25.4426
   XX=    26.1755   YX=    -2.6591   ZX=     3.7570
   XY=    -0.9459   YY=     7.2734   ZY=    -6.7322
   XZ=     5.6811   YZ=     8.8778   ZZ=    -3.1919
   Eigenvalues:    -4.0905     7.3001    27.0474
    125  Bq   Isotropic =     7.9461   Anisotropy =    13.4210
[...]
   133  Bq   0.000000
   134  Bq   0.000000
   135  Bq   0.000000
   136  Bq   0.000000
   137  Bq   0.000000
   138  Bq   0.000000
   139  Bq   0.000000
   140  Bq   0.000000
   141  Bq   0.000000
   142  Bq   0.000000
   143  Bq   0.000000
   144  Bq   0.000000
   145  Bq   0.000000
   146  Bq   0.000000
   147  Bq   0.000000
   148  Bq   0.000000
   149  Bq   0.000000
   150  Bq   0.000000
   151  Bq   0.000000
   152  Bq   0.000000
   153  Bq   0.000000
   154  Bq   0.000000
   155  Bq   0.000000
   156  Bq   0.000000
   157  Bq   0.000000
   158  Bq   0.000000
   159  Bq   0.000000
   160  Bq   0.000000
   161  Bq   0.000000
   162  Bq   0.000000
   163  Bq   0.000000
   164  Bq   0.000000
   165  Bq   0.000000
   166  Bq   0.000000
   167  Bq   0.000000
   168  Bq   0.000000
   169  Bq   0.000000
   170  Bq   0.000000
   171  Bq   0.000000
   172  Bq   0.000000
   173  Bq   0.000000
   174  Bq   0.000000
   175  Bq   0.000000
   176  Bq   0.000000
   177  Bq   0.000000
   178  Bq   0.000000
   179  Bq   0.000000
   180  Bq   0.000000
   181  Bq   0.000000
   182  Bq   0.000000
   183  Bq   0.000000
   184  Bq   0.000000
   185  Bq   0.000000
   186  Bq   0.000000
   187  Bq   0.000000
   188  Bq   0.000000
   189  Bq   0.000000
   190  Bq   0.000000
   191  Bq   0.000000
   192  Bq   0.000000
   193  Bq   0.000000
   194  Bq   0.000000
   195  Bq   0.000000
   196  Bq   0.000000
   197  Bq   0.000000
   198  Bq   0.000000
   199  Bq   0.000000
   200  Bq   0.000000
   201  Bq   0.000000
   202  Bq   0.000000
   203  Bq   0.000000
   204  Bq   0.000000
   205  Bq   0.000000
   206  Bq   0.000000
   207  Bq   0.000000
   208  Bq   0.000000
   209  Bq   0.000000
   210  Bq   0.000000
   211  Bq   0.000000
   212  Bq   0.000000
   213  Bq   0.000000
   214  Bq   0.000000
   215  Bq   0.000000
   216  Bq   0.000000
   217  Bq   0.000000
   218  Bq   0.000000
   219  Bq   0.000000
   220  Bq   0.000000
   221  Bq   0.000000
   222  Bq   0.000000
   223  Bq   0.000000
   224  Bq   0.000000
   225  Bq   0.000000
   226  Bq   0.000000
   227  Bq   0.000000
   228  Bq   0.000000
   229  Bq   0.000000
   230  Bq   0.000000
   231  Bq   0.000000
   232  Bq   0.000000
   233  Bq   0.000000
   234  Bq   0.000000
   235  Bq   0.000000
   236  Bq   0.000000
 Sum of Mulliken charges =   0.00000
 Mulliken charges with hydrogens summed into heavy atoms:
               1
     1  C   -0.255498
     3  C    0.169409
     5  C    0.448258
     6  C    0.064351
     7  C   -0.333926
     9  C   -0.139521
    11  C   -0.205988
    13  C   -0.119315
    15  C    0.653397
    16  C    0.034822
    17  C   -0.317410
    19  C   -0.316854
    21  C    0.651066
    22  C    0.037784
    23  C   -0.117289
    25  C   -0.205316
    27  C    0.448331
    28  C    0.061983
    29  C   -0.333381
    31  C   -0.139505
    33  C   -0.255977
    35  C    0.170579
    37  Bq   0.000000
    38  Bq   0.000000
    39  Bq   0.000000
    40  Bq   0.000000
    41  Bq   0.000000
    42  Bq   0.000000
    43  Bq   0.000000
    44  Bq   0.000000
    45  Bq   0.000000
    46  Bq   0.000000
    47  Bq   0.000000
    48  Bq   0.000000
    49  Bq   0.000000
    50  Bq   0.000000
    51  Bq   0.000000
    52  Bq   0.000000
    53  Bq   0.000000
    54  Bq   0.000000
    55  Bq   0.000000
    56  Bq   0.000000
    57  Bq   0.000000
    58  Bq   0.000000
    59  Bq   0.000000
    60  Bq   0.000000
    61  Bq   0.000000
    62  Bq   0.000000
    63  Bq   0.000000
    64  Bq   0.000000
    65  Bq   0.000000
    66  Bq   0.000000
    67  Bq   0.000000
    68  Bq   0.000000
    69  Bq   0.000000
    70  Bq   0.000000
    71  Bq   0.000000
    72  Bq   0.000000
    73  Bq   0.000000
    74  Bq   0.000000
    75  Bq   0.000000
    76  Bq   0.000000
    77  Bq   0.000000
    78  Bq   0.000000
    79  Bq   0.000000
    80  Bq   0.000000
    81  Bq   0.000000
    82  Bq   0.000000
    83  Bq   0.000000
    84  Bq   0.000000
    85  Bq   0.000000
    86  Bq   0.000000
    87  Bq   0.000000
    88  Bq   0.000000
    89  Bq   0.000000
    90  Bq   0.000000
    91  Bq   0.000000
    92  Bq   0.000000
    93  Bq   0.000000
    94  Bq   0.000000
    95  Bq   0.000000
    96  Bq   0.000000
    97  Bq   0.000000
    98  Bq   0.000000
    99  Bq   0.000000
   100  Bq   0.000000
   101  Bq   0.000000
   102  Bq   0.000000
   103  Bq   0.000000
   104  Bq   0.000000
   105  Bq   0.000000
   106  Bq   0.000000
   107  Bq   0.000000
   108  Bq   0.000000
   109  Bq   0.000000
   110  Bq   0.000000
   111  Bq   0.000000
   112  Bq   0.000000
   113  Bq   0.000000
   114  Bq   0.000000
   115  Bq   0.000000
   116  Bq   0.000000
   117  Bq   0.000000
   118  Bq   0.000000
   119  Bq   0.000000
   120  Bq   0.000000
   121  Bq   0.000000
   122  Bq   0.000000
   123  Bq   0.000000
   124  Bq   0.000000
   125  Bq   0.000000
   126  Bq   0.000000
   127  Bq   0.000000
   128  Bq   0.000000
   129  Bq   0.000000
   130  Bq   0.000000
   131  Bq   0.000000
   132  Bq   0.000000
   133  Bq   0.000000
   134  Bq   0.000000
   135  Bq   0.000000
   136  Bq   0.000000
   137  Bq   0.000000
   138  Bq   0.000000
   139  Bq   0.000000
   140  Bq   0.000000
   141  Bq   0.000000
   142  Bq   0.000000
   143  Bq   0.000000
   144  Bq   0.000000
   145  Bq   0.000000
   146  Bq   0.000000
   147  Bq   0.000000
   148  Bq   0.000000
   149  Bq   0.000000
   150  Bq   0.000000
   151  Bq   0.000000
   152  Bq   0.000000
   153  Bq   0.000000
   154  Bq   0.000000
   155  Bq   0.000000
   156  Bq   0.000000
   157  Bq   0.000000
   158  Bq   0.000000
   159  Bq   0.000000
   160  Bq   0.000000
   161  Bq   0.000000
   162  Bq   0.000000
   163  Bq   0.000000
   164  Bq   0.000000
   165  Bq   0.000000
   166  Bq   0.000000
   167  Bq   0.000000
   168  Bq   0.000000
   169  Bq   0.000000
   170  Bq   0.000000
   171  Bq   0.000000
   172  Bq   0.000000
   173  Bq   0.000000
   174  Bq   0.000000
   175  Bq   0.000000
   176  Bq   0.000000
   177  Bq   0.000000
   178  Bq   0.000000
   179  Bq   0.000000
   180  Bq   0.000000
   181  Bq   0.000000
   182  Bq   0.000000
   183  Bq   0.000000
   184  Bq   0.000000
   185  Bq   0.000000
   186  Bq   0.000000
   187  Bq   0.000000
   188  Bq   0.000000
   189  Bq   0.000000
   190  Bq   0.000000
   191  Bq   0.000000
   192  Bq   0.000000
   193  Bq   0.000000
   194  Bq   0.000000
   195  Bq   0.000000
   196  Bq   0.000000
   197  Bq   0.000000
   198  Bq   0.000000
   199  Bq   0.000000
   200  Bq   0.000000
   201  Bq   0.000000
   202  Bq   0.000000
   203  Bq   0.000000
   204  Bq   0.000000
   205  Bq   0.000000
   206  Bq   0.000000
   207  Bq   0.000000
   208  Bq   0.000000
   209  Bq   0.000000
   210  Bq   0.000000
   211  Bq   0.000000
   212  Bq   0.000000
   213  Bq   0.000000
   214  Bq   0.000000
   215  Bq   0.000000
   216  Bq   0.000000
   217  Bq   0.000000
   218  Bq   0.000000
   219  Bq   0.000000
   220  Bq   0.000000
   221  Bq   0.000000
   222  Bq   0.000000
   223  Bq   0.000000
   224  Bq   0.000000
   225  Bq   0.000000
   226  Bq   0.000000
   227  Bq   0.000000
   228  Bq   0.000000
   229  Bq   0.000000
   230  Bq   0.000000
   231  Bq   0.000000
   232  Bq   0.000000
   233  Bq   0.000000
   234  Bq   0.000000
   235  Bq   0.000000
   236  Bq   0.000000
 Electronic spatial extent (au):  <R**2>=           5736.9264
 Charge=              0.0000 electrons
 Dipole moment (field-independent basis, Debye):
    X=              0.0475    Y=              0.0856    Z=              0.0029  Tot=              0.0979
 Quadrupole moment (field-independent basis, Debye-Ang):
   XX=           -113.7056   YY=           -113.9456   ZZ=           -133.2669
   XY=             -0.3834   XZ=              3.2102   YZ=             -1.1839
 Traceless Quadrupole moment (field-independent basis, Debye-Ang):
   XX=              6.6005   YY=              6.3604   ZZ=            -12.9609
   XY=             -0.3834   XZ=              3.2102   YZ=             -1.1839
 Octapole moment (field-independent basis, Debye-Ang**2):
  XXX=            -16.4668  YYY=            -16.1860  ZZZ=             -1.7007  XYY=              2.5576
  XXY=             -6.5650  XXZ=             13.6547  XZZ=             -8.9478  YZZ=            -17.7168
  YYZ=            -13.2941  XYZ=              8.8036
 Hexadecapole moment (field-independent basis, Debye-Ang**3):
 XXXX=          -3951.1638 YYYY=          -3112.2161 ZZZZ=           -504.8311 XXXY=            340.6935
 XXXZ=            156.4968 YYYX=            335.5625 YYYZ=            -87.0893 ZZZX=            120.2262
 ZZZY=           -108.7373 XXYY=          -1176.4844 XXZZ=           -856.7291 YYZZ=           -665.7275
 XXYZ=            -68.9016 YYXZ=             48.1602 ZZXY=            153.0375
 N-N= 1.610917615562D+03 E-N=-5.186891130729D+03  KE= 8.436329774449D+02
 1\1\GINC-PLANA\SP\RB3LYP\6-311+G(d,p)\C22H14\YANNICK\22-Aug-2020\0\\# 
 rb3lyp/6-311+g** NMR geom=connectivity\\Title\\0,1\C,0,-4.0500558,-0.5
 771862,0.8136712\H,0,-5.0263804,-1.0082727,1.002476\C,0,-3.9381552,0.6
 617804,0.2400876\H,0,-4.8252424,1.233889,-0.0111295\C,0,-2.676841,1.24
 33246,0.0057578\C,0,-1.4974121,0.5051527,0.2848253\C,0,-1.6508332,-0.7
 338728,0.9404026\H,0,-0.7713646,-1.2730967,1.2633753\C,0,-2.8898548,-1
 .2624035,1.1994307\H,0,-2.9683706,-2.2124563,1.7152676\C,0,-2.5773185,
 2.5963696,-0.419293\H,0,-3.4870728,3.1412239,-0.6474055\C,0,-1.3741895
 ,3.2147896,-0.436403\H,0,-1.2997315,4.2742019,-0.6578144\C,0,-0.171948
 8,2.499409,-0.1734588\C,0,-0.2043917,1.1018437,0.0192689\C,0,1.0513491
 ,3.204256,-0.0676222\H,0,1.0427344,4.2819499,-0.1896997\C,0,2.1942091,
 2.5487446,0.2579577\H,0,3.1168527,3.0912848,0.4334727\C,0,2.2216473,1.
 1336562,0.293499\C,0,1.0486931,0.3945528,0.0302412\C,0,3.4483363,0.461
 4633,0.5573939\H,0,4.3095794,1.0606054,0.8334846\C,0,3.5427346,-0.8855
 926,0.4749463\H,0,4.4731467,-1.3939704,0.7038822\C,0,2.4490052,-1.6474
 447,-0.0196319\C,0,1.2150704,-1.0057258,-0.3013573\C,0,0.2531113,-1.74
 3444,-1.0216591\H,0,-0.6541356,-1.2535051,-1.3462847\C,0,0.4494193,-3.
 0628597,-1.3413779\H,0,-0.3083162,-3.5944309,-1.905406\C,0,1.6251726,-
 3.7207967,-0.9552541\H,0,1.7670048,-4.7687404,-1.1927019\C,0,2.6109872
 ,-3.0144177,-0.318305\H,0,3.5525612,-3.4902813,-0.0646367\Bq,0,-0.1766
 605,2.4523268896,0.6619802067\Bq,0,-0.0898047817,2.4228459791,0.069032
 5192\Bq,0,-0.191136453,2.4572403747,0.7608048213\Bq,0,-0.0753288286,2.
 417932494,-0.0297920954\Bq,0,-0.205612406,2.4621538598,0.8596294359\Bq
 ,0,-0.0608528756,2.4130190089,-0.12861671\Bq,0,-0.1332326408,2.4375864
 343,0.3655063629\Bq,0,-0.1469964599,2.5423791348,0.4594693728\Bq,0,-0.
 1180445538,2.5325521646,0.2618201436\Bq,0,-0.161472413,2.5472926199,0.
 5582939873\Bq,0,-0.1035686008,2.5276386796,0.162995529\Bq,0,-0.1759483
 66,2.552206105,0.6571186019\Bq,0,-0.0890926478,2.5227251945,0.06417091
 44\Bq,0,-0.1904243191,2.55711959,0.7559432165\Bq,0,-0.0746166947,2.517
 8117094,-0.0346537002\Bq,0,-0.2049002721,2.5620330751,0.8547678311\Bq,
 0,-0.0601407417,2.5128982243,-0.1334783148\Bq,0,-0.1325205069,2.537465
 6497,0.3606447582\Bq,0,-0.146284326,2.6422583502,0.454607768\Bq,0,-0.1
 173324199,2.63243138,0.2569585388\Bq,0,-0.160760279,2.6471718353,0.553
 4323826\Bq,0,-0.1028564669,2.6275178949,0.1581339242\Bq,0,-0.175236232
 1,2.6520853203,0.6522569972\Bq,0,-0.0883805138,2.6226044098,0.05930930
 97\Bq,0,-0.1897121851,2.6569988054,0.7510816117\Bq,0,-0.0739045608,2.6
 176909248,-0.0395153049\Bq,0,-0.2041881382,2.6619122905,0.8499062263\B
 q,0,-0.0594286077,2.6127774397,-0.1383399195\Bq,0,-0.1318083729,2.6373
 448651,0.3557831534\Bq,0,-0.145572192,2.7421375656,0.4497461632\Bq,0,-
 0.116620286,2.7323105954,0.2520969341\Bq,0,-0.1600481451,2.7470510506,
 0.5485707778\Bq,0,-0.1021443329,2.7273971103,0.1532723195\Bq,0,-0.1745
 240981,2.7519645357,0.6473953924\Bq,0,-0.0876683799,2.7224836252,0.054
 4477049\Bq,0,-0.1890000512,2.7568780208,0.746220007\Bq,0,-0.0731924268
 ,2.7175701401,-0.0443769097\Bq,0,-0.2034760042,2.7617915059,0.84504462
 16\Bq,0,-0.0587164738,2.7126566551,-0.1432015243\Bq,0,-0.131096239,2.7
 372240805,0.3509215486\Bq,0,-0.1448600581,2.8420167809,0.4448845585\Bq
 ,0,-0.115908152,2.8321898108,0.2472353293\Bq,0,-0.1593360111,2.8469302
 66,0.543709173\Bq,0,-0.101432199,2.8272763257,0.1484107147\Bq,0,-0.173
 8119642,2.8518437511,0.6425337876\Bq,0,-0.0869562459,2.8223628406,0.04
 95861001\Bq,0,-0.1882879172,2.8567572362,0.7413584022\Bq,0,-0.07248029
 29,2.8174493555,-0.0492385145\Bq,0,-0.2027638703,2.8616707213,0.840183
 0168\Bq,0,-0.0580043398,2.8125358704,-0.1480631291\Bq,0,-0.1303841051,
 2.8371032959,0.3460599439\Bq,0,-0.1441479242,2.9418959963,0.4400229537
 \Bq,0,-0.1151960181,2.9320690261,0.2423737245\Bq,0,-0.1586238772,2.946
 8094814,0.5388475683\Bq,0,-0.100720065,2.9271555411,0.1435491099\Bq,0,
 -0.1730998302,2.9517229665,0.6376721829\Bq,0,-0.086244112,2.922242056,
 0.0447244954\Bq,0,-0.1875757833,2.9566364516,0.7364967974\Bq,0,-0.0717
 681589,2.9173285709,-0.0541001192\Bq,0,-0.2020517363,2.9615499366,0.83
 5321412\Bq,0,-0.0572922059,2.9124150858,-0.1529247338\Bq,0,-0.12967197
 11,2.9369825112,0.3411983391\Bq,0,-0.1434357902,3.0417752117,0.4351613
 489\Bq,0,-0.1144838841,3.0319482415,0.2375121198\Bq,0,-0.1579117433,3.
 0466886968,0.5339859635\Bq,0,-0.1000079311,3.0270347564,0.1386875052\B
 q,0,-0.1723876963,3.0516021819,0.6328105781\Bq,0,-0.085531978,3.022121
 2714,0.0398628906\Bq,0,-0.1868636494,3.0565156669,0.7316351927\Bq,0,-0
 .071056025,3.0172077863,-0.058961724\Bq,0,-0.2013396024,3.061429152,0.
 8304598073\Bq,0,-0.056580072,3.0122943012,-0.1577863386\Bq,0,-0.128959
 8372,3.0368617266,0.3363367343\Bq,0,-0.1427236563,3.1416544271,0.43029
 97442\Bq,0,-0.1137717502,3.1318274569,0.232650515\Bq,0,-0.1571996093,3
 .1465679121,0.5291243587\Bq,0,-0.0992957971,3.1269139718,0.1338259004\
 Bq,0,-0.1716755624,3.1514813972,0.6279489733\Bq,0,-0.0848198441,3.1220
 004867,0.0350012858\Bq,0,-0.1861515154,3.1563948823,0.7267735879\Bq,0,
 -0.0703438911,3.1170870017,-0.0638233288\Bq,0,-0.2006274685,3.16130836
 74,0.8255982025\Bq,0,-0.055867938,3.1121735166,-0.1626479434\Bq,0,-0.1
 282477032,3.136740942,0.3314751296\Bq,0,-0.1420115223,3.2415336424,0.4
 254381394\Bq,0,-0.1130596162,3.2317066723,0.2277889102\Bq,0,-0.1564874
 754,3.2464471275,0.524262754\Bq,0,-0.0985836632,3.2267931872,0.1289642
 956\Bq,0,-0.1709634284,3.2513606126,0.6230873686\Bq,0,-0.0841077102,3.
 2218797021,0.0301396811\Bq,0,-0.1854393815,3.2562740977,0.7219119831\B
 q,0,-0.0696317571,3.216966217,-0.0686849335\Bq,0,-0.1999153345,3.26118
 75828,0.8207365977\Bq,0,-0.0551558041,3.2120527319,-0.1675095481\Bq,0,
 -0.1275355693,3.2366201574,0.3266135248\Bq,0,-0.1412993884,3.341412857
 8,0.4205765346\Bq,0,-0.1123474823,3.3315858877,0.2229273055\Bq,0,-0.15
 57753414,3.3463263429,0.5194011492\Bq,0,-0.0978715293,3.3266724026,0.1
 241026909\Bq,0,-0.1702512945,3.351239828,0.6182257638\Bq,0,-0.08339557
 62,3.3217589175,0.0252780763\Bq,0,-0.1847272475,3.3561533131,0.7170503
 784\Bq,0,-0.0689196232,3.3168454324,-0.0735465383\Bq,0,-0.1992032006,3
 .3610667981,0.815874993\Bq,0,-0.0544436701,3.3119319473,-0.1723711529\
 Bq,0,-0.1268234353,3.3364993727,0.32175192\Bq,0,-0.1405872545,3.441292
 0732,0.4157149299\Bq,0,-0.1116353484,3.431465103,0.2180657007\Bq,0,-0.
 1550632075,3.4462055583,0.5145395444\Bq,0,-0.0971593953,3.4265516179,0
 .1192410861\Bq,0,-0.1695391605,3.4511190434,0.613364159\Bq,0,-0.082683
 4423,3.4216381329,0.0204164715\Bq,0,-0.1840151136,3.4560325284,0.71218
 87736\Bq,0,-0.0682074892,3.4167246478,-0.0784081431\Bq,0,-0.1984910666
 ,3.4609460135,0.8110133882\Bq,0,-0.0537315362,3.4118111627,-0.17723275
 77\Bq,0,-0.1261113014,3.4363785881,0.3168903153\Bq,0,-0.1398751205,3.5
 411712886,0.4108533251\Bq,0,-0.1109232144,3.5313443184,0.2132040959\Bq
 ,0,-0.1543510736,3.5460847737,0.5096779397\Bq,0,-0.0964472614,3.526430
 8333,0.1143794813\Bq,0,-0.1688270266,3.5509982587,0.6085025543\Bq,0,-0
 .0819713083,3.5215173482,0.0155548668\Bq,0,-0.1833029796,3.5559117438,
 0.7073271688\Bq,0,-0.0674953553,3.5166038632,-0.0832697478\Bq,0,-0.197
 7789327,3.5608252289,0.8061517834\Bq,0,-0.0530194022,3.5116903781,-0.1
 820943624\Bq,0,-0.1253991675,3.5362578035,0.3120287105\Bq,0,-0.1391629
 866,3.6410505039,0.4059917203\Bq,0,-0.1102110805,3.6312235338,0.208342
 4912\Bq,0,-0.1536389396,3.645963989,0.5048163349\Bq,0,-0.0957351274,3.
 6263100487,0.1095178766\Bq,0,-0.1681148927,3.6508774741,0.6036409495\B
 q,0,-0.0812591744,3.6213965636,0.010693262\Bq,0,-0.1825908457,3.655790
 9592,0.7024655641\Bq,0,-0.0667832213,3.6164830785,-0.0881313526\Bq,0,-
 0.1970667987,3.6607044443,0.8012901787\Bq,0,-0.0523072683,3.6115695935
 ,-0.1869559672\Bq,0,-0.1246870335,3.6361370189,0.3071671057\Bq,0,-0.13
 84508526,3.7409297193,0.4011301156\Bq,0,-0.1094989465,3.7311027492,0.2
 034808864\Bq,0,-0.1529268057,3.7458432044,0.4999547301\Bq,0,-0.0950229
 935,3.7261892641,0.1046562718\Bq,0,-0.1674027587,3.7507566895,0.598779
 3447\Bq,0,-0.0805470405,3.721275779,0.0058316572\Bq,0,-0.1818787118,3.
 7556701746,0.6976039593\Bq,0,-0.0660710874,3.7163622939,-0.0929929574\
 Bq,0,-0.1963546648,3.7605836597,0.7964285739\Bq,0,-0.0515951344,3.7114
 488088,-0.1918175719\Bq,0,-0.1239748996,3.7360162342,0.302305501\Bq,0,
 -0.1377387187,3.8408089347,0.3962685108\Bq,0,-0.1087868126,3.830981964
 5,0.1986192816\Bq,0,-0.1522146717,3.8457224198,0.4950931254\Bq,0,-0.09
 43108596,3.8260684795,0.099794667\Bq,0,-0.1666906248,3.8506359049,0.59
 391774\Bq,0,-0.0798349065,3.8211549944,0.0009700525\Bq,0,-0.1811665778
 ,3.85554939,0.6927423545\Bq,0,-0.0653589535,3.8162415093,-0.0978545621
 \Bq,0,-0.1956425309,3.860462875,0.7915669691\Bq,0,-0.0508830004,3.8113
 280242,-0.1966791767\Bq,0,-0.1232627656,3.8358954496,0.2974438962\Bq,0
 ,-0.1370265847,3.9406881501,0.391406906\Bq,0,-0.1080746787,3.930861179
 9,0.1937576769\Bq,0,-0.1515025378,3.9456016352,0.4902315206\Bq,0,-0.09
 35987256,3.9259476948,0.0949330623\Bq,0,-0.1659784908,3.9505151202,0.5
 890561352\Bq,0,-0.0791227726,3.9210342098,-0.0038915523\Bq,0,-0.180454
 4439,3.9554286053,0.6878807498\Bq,0,-0.0646468195,3.9161207247,-0.1027
 161669\Bq,0,-0.1949303969,3.9603420904,0.7867053644\Bq,0,-0.0501708665
 ,3.9112072396,-0.2015407815\Bq,0,-0.1225506317,3.935774665,0.292582291
 4\Bq,0,-0.1363144508,4.0405673655,0.3865453013\Bq,0,-0.1073625447,4.03
 07403953,0.1888960721\Bq,0,-0.1507904038,4.0454808505,0.4853699158\Bq,
 0,-0.0928865917,4.0258269102,0.0900714575\Bq,0,-0.1652663569,4.0503943
 356,0.5841945304\Bq,0,-0.0784106386,4.0209134251,-0.0087531571\Bq,0,-0
 .1797423099,4.0553078207,0.683019145\Bq,0,-0.0639346856,4.01599994,-0.
 1075777717\Bq,0,-0.194218263,4.0602213058,0.7818437596\Bq,0,-0.0494587
 325,4.011086455,-0.2064023862\Bq,0,-0.1218384978,4.0356538804,0.287720
 6867\Bq,0,-0.1356023169,4.1404465808,0.3816836965\Bq,0,-0.1066504108,4
 .1306196107,0.1840344673\Bq,0,-0.1500782699,4.1453600659,0.4805083111\
 Bq,0,-0.0921744577,4.1257061256,0.0852098527\Bq,0,-0.1645542229,4.1502
 73551,0.5793329257\Bq,0,-0.0776985047,4.1207926405,-0.0136147618\Bq,0,
 -0.179030176,4.1551870361,0.6781575402\Bq,0,-0.0632225516,4.1158791554
 ,-0.1124393764\Bq,0,-0.193506129,4.1601005212,0.7769821548\Bq,0,-0.048
 7465986,4.1109656703,-0.211263991\Bq,0,-0.1211263638,4.1355330958,0.28
 28590819\Bq,0,-0.1348901829,4.2403257962,0.3768220917\Bq,0,-0.10593827
 68,4.230498826,0.1791728626\Bq,0,-0.149366136,4.2452392813,0.475646706
 3\Bq,0,-0.0914623238,4.225585341,0.080348248\Bq,0,-0.163842089,4.25015
 27664,0.5744713209\Bq,0,-0.0769863707,4.2206718559,-0.0184763666\\Vers
 ion=ES64L-G09RevD.01\HF=-847.0032898\RMSD=7.532e-09\Dipole=0.0186808,0
 .0336671,0.0011595\Quadrupole=4.9072795,4.7288219,-9.6361014,-0.285020
 1,2.3867064,-0.880172\PG=C01 [X(C22H14)]\\@


 WE DON'T KNOW ONE MILLIONTH OF ONE PERCENT ABOUT
 ANYTHING.
                                     T. A. EDISON.
 Job cpu time:       0 days  3 hours 53 minutes  2.5 seconds.
 File lengths (MBytes):  RWF=    184 Int=      0 D2E=      0 Chk=     19 Scr=      1
 Normal termination of Gaussian 09 at Sat Aug 22 06:34:21 2020.
