 Entering Gaussian System, Link 0=g09
 Input=input_cycle_04_batch_21800.com
 Output=input_cycle_04_batch_21800.log
 Initial command:
 /share/programs/GAUSSIAN/64/g09/l1.exe "/scratch/yannick.30575/Gau-2770329.inp" -scrdir="/scratch/yannick.30575/"
 Entering Link 1 = /share/programs/GAUSSIAN/64/g09/l1.exe PID=   2770330.
  
 Copyright (c) 1988,1990,1992,1993,1995,1998,2003,2009,2013,
            Gaussian, Inc.  All Rights Reserved.
  
 This is part of the Gaussian(R) 09 program.  It is based on
 the Gaussian(R) 03 system (copyright 2003, Gaussian, Inc.),
 the Gaussian(R) 98 system (copyright 1998, Gaussian, Inc.),
 the Gaussian(R) 94 system (copyright 1995, Gaussian, Inc.),
 the Gaussian 92(TM) system (copyright 1992, Gaussian, Inc.),
 the Gaussian 90(TM) system (copyright 1990, Gaussian, Inc.),
 the Gaussian 88(TM) system (copyright 1988, Gaussian, Inc.),
 the Gaussian 86(TM) system (copyright 1986, Carnegie Mellon
 University), and the Gaussian 82(TM) system (copyright 1983,
 Carnegie Mellon University). Gaussian is a federally registered
 trademark of Gaussian, Inc.
  
 This software contains proprietary and confidential information,
 including trade secrets, belonging to Gaussian, Inc.
  
 This software is provided under written license and may be
 used, copied, transmitted, or stored only in accord with that
 written license.
  
 The following legend is applicable only to US Government
 contracts under FAR:
  
                    RESTRICTED RIGHTS LEGEND
  
 Use, reproduction and disclosure by the US Government is
 subject to restrictions as set forth in subparagraphs (a)
 and (c) of the Commercial Computer Software - Restricted
 Rights clause in FAR 52.227-19.
  
 Gaussian, Inc.
 340 Quinnipiac St., Bldg. 40, Wallingford CT 06492
  
  
 ---------------------------------------------------------------
 Warning -- This program may not be used in any manner that
 competes with the business of Gaussian, Inc. or will provide
 assistance to any competitor of Gaussian, Inc.  The licensee
 of this program is prohibited from giving any competitor of
 Gaussian, Inc. access to this program.  By using this program,
 the user acknowledges that Gaussian, Inc. is engaged in the
 business of creating and licensing software in the field of
 computational chemistry and represents and warrants to the
 licensee that it is not a competitor of Gaussian, Inc. and that
 it will not use this program in any manner prohibited above.
 ---------------------------------------------------------------
  

 Cite this work as:
 Gaussian 09, Revision D.01,
 M. J. Frisch, G. W. Trucks, H. B. Schlegel, G. E. Scuseria, 
 M. A. Robb, J. R. Cheeseman, G. Scalmani, V. Barone, B. Mennucci, 
 G. A. Petersson, H. Nakatsuji, M. Caricato, X. Li, H. P. Hratchian, 
 A. F. Izmaylov, J. Bloino, G. Zheng, J. L. Sonnenberg, M. Hada, 
 M. Ehara, K. Toyota, R. Fukuda, J. Hasegawa, M. Ishida, T. Nakajima, 
 Y. Honda, O. Kitao, H. Nakai, T. Vreven, J. A. Montgomery, Jr., 
 J. E. Peralta, F. Ogliaro, M. Bearpark, J. J. Heyd, E. Brothers, 
 K. N. Kudin, V. N. Staroverov, T. Keith, R. Kobayashi, J. Normand, 
 K. Raghavachari, A. Rendell, J. C. Burant, S. S. Iyengar, J. Tomasi, 
 M. Cossi, N. Rega, J. M. Millam, M. Klene, J. E. Knox, J. B. Cross, 
 V. Bakken, C. Adamo, J. Jaramillo, R. Gomperts, R. E. Stratmann, 
 O. Yazyev, A. J. Austin, R. Cammi, C. Pomelli, J. W. Ochterski, 
 R. L. Martin, K. Morokuma, V. G. Zakrzewski, G. A. Voth, 
 P. Salvador, J. J. Dannenberg, S. Dapprich, A. D. Daniels, 
 O. Farkas, J. B. Foresman, J. V. Ortiz, J. Cioslowski, 
 and D. J. Fox, Gaussian, Inc., Wallingford CT, 2013.
 
 ******************************************
 Gaussian 09:  ES64L-G09RevD.01 24-Apr-2013
                22-Aug-2020 
 ******************************************
 %nproc=8
 Will use up to    8 processors via shared memory.
 %mem=1000MB
 ----------------------------------------
 # rb3lyp/6-311+g** NMR geom=connectivity
 ----------------------------------------
 1/38=1,57=2/1;
 2/12=2,17=6,18=5,40=1/2;
 3/5=4,6=6,7=111,11=2,16=1,25=1,30=1,74=-5,116=1/1,2,8,3;
 4//1;
 5/5=2,38=5/2;
 8/6=1,10=90,11=11/1;
 10/13=100,45=16/2;
 6/7=2,8=2,9=2,10=2,28=1/1;
 99/9=1/99;
 -----
 Title
 -----
 Symbolic Z-matrix:
 Charge =  0 Multiplicity = 1
 C                    -4.05006  -0.57719   0.81367 
 H                    -5.02638  -1.00827   1.00248 
 C                    -3.93816   0.66178   0.24009 
 H                    -4.82524   1.23389  -0.01113 
 C                    -2.67684   1.24332   0.00576 
 C                    -1.49741   0.50515   0.28483 
 C                    -1.65083  -0.73387   0.9404 
 H                    -0.77136  -1.2731    1.26338 
 C                    -2.88985  -1.2624    1.19943 
 H                    -2.96837  -2.21246   1.71527 
 C                    -2.57732   2.59637  -0.41929 
 H                    -3.48707   3.14122  -0.64741 
 C                    -1.37419   3.21479  -0.4364 
 H                    -1.29973   4.2742   -0.65781 
 C                    -0.17195   2.49941  -0.17346 
 C                    -0.20439   1.10184   0.01927 
 C                     1.05135   3.20426  -0.06762 
 H                     1.04273   4.28195  -0.1897 
 C                     2.19421   2.54874   0.25796 
 H                     3.11685   3.09128   0.43347 
 C                     2.22165   1.13366   0.2935 
 C                     1.04869   0.39455   0.03024 
 C                     3.44834   0.46146   0.55739 
 H                     4.30958   1.06061   0.83348 
 C                     3.54273  -0.88559   0.47495 
 H                     4.47315  -1.39397   0.70388 
 C                     2.44901  -1.64744  -0.01963 
 C                     1.21507  -1.00573  -0.30136 
 C                     0.25311  -1.74344  -1.02166 
 H                    -0.65414  -1.25351  -1.34628 
 C                     0.44942  -3.06286  -1.34138 
 H                    -0.30832  -3.59443  -1.90541 
 C                     1.62517  -3.7208   -0.95525 
 H                     1.767    -4.76874  -1.1927 
 C                     2.61099  -3.01442  -0.31831 
 H                     3.55256  -3.49028  -0.06464 
 Bq                    3.25318   1.38123   1.71304 
 Bq                    3.50997   1.52351   0.7571 
 Bq                    3.38157   1.45237   1.23507 
 Bq                    3.3522    1.53712   1.3444 
 Bq                    3.40356   1.56558   1.15322 
 Bq                    3.32652   1.5229    1.44 
 Bq                    3.42924   1.57981   1.05762 
 Bq                    3.30084   1.50867   1.53559 
 Bq                    3.45492   1.59403   0.96203 
 Bq                    3.27517   1.49444   1.63119 
 Bq                    3.4806    1.60826   0.86644 
 Bq                    3.24949   1.48021   1.72678 
 Bq                    3.50628   1.62249   0.77084 
 Bq                    3.37788   1.55135   1.24881 
 Bq                    3.34851   1.63611   1.35814 
 Bq                    3.39987   1.66456   1.16696 
 Bq                    3.32283   1.62188   1.45374 
 Bq                    3.42555   1.67879   1.07136 
 Bq                    3.29715   1.60765   1.54933 
 Bq                    3.45123   1.69302   0.97577 
 Bq                    3.27147   1.59342   1.64493 
 Bq                    3.47691   1.70724   0.88018 
 Bq                    3.2458    1.5792    1.74052 
 Bq                    3.50258   1.72147   0.78458 
 Bq                    3.37419   1.65033   1.26255 
 Bq                    3.34482   1.73509   1.37189 
 Bq                    3.39618   1.76354   1.1807 
 Bq                    3.31914   1.72086   1.46748 
 Bq                    3.42186   1.77777   1.0851 
 Bq                    3.29346   1.70663   1.56307 
 Bq                    3.44754   1.792     0.98951 
 Bq                    3.26778   1.69241   1.65867 
 Bq                    3.47321   1.80623   0.89392 
 Bq                    3.24211   1.67818   1.75426 
 Bq                    3.49889   1.82045   0.79832 
 Bq                    3.3705    1.74932   1.27629 
 Bq                    3.34113   1.83407   1.38563 
 Bq                    3.39249   1.86253   1.19444 
 Bq                    3.31545   1.81984   1.48122 
 Bq                    3.41817   1.87675   1.09884 
 Bq                    3.28977   1.80562   1.57681 
 Bq                    3.44384   1.89098   1.00325 
 Bq                    3.26409   1.79139   1.67241 
 Bq                    3.46952   1.90521   0.90766 
 Bq                    3.23841   1.77716   1.768 
 Bq                    3.4952    1.91944   0.81206 
 Bq                    3.36681   1.8483    1.29003 
 Bq                    3.33744   1.93305   1.39937 
 Bq                    3.3888    1.96151   1.20818 
 Bq                    3.31176   1.91883   1.49496 
 Bq                    3.41447   1.97574   1.11259 
 Bq                    3.28608   1.9046    1.59055 
 Bq                    3.44015   1.98996   1.01699 
 Bq                    3.2604    1.89037   1.68615 
 Bq                    3.46583   2.00419   0.9214 
 Bq                    3.23472   1.87614   1.78174 
 Bq                    3.49151   2.01842   0.8258 
 Bq                    3.36312   1.94728   1.30377 
 Bq                    3.33375   2.03204   1.41311 
 Bq                    3.38511   2.06049   1.22192 
 Bq                    3.30807   2.01781   1.5087 
 Bq                    3.41078   2.07472   1.12633 
 Bq                    3.28239   2.00358   1.60429 
 Bq                    3.43646   2.08895   1.03073 
 Bq                    3.25671   1.98935   1.69989 
 Bq                    3.46214   2.10318   0.93514 
 Bq                    3.23103   1.97513   1.79548 
 Bq                    3.48782   2.1174    0.83954 
 Bq                    3.35943   2.04626   1.31751 
 Bq                    3.33006   2.13102   1.42685 
 Bq                    3.38141   2.15947   1.23566 
 Bq                    3.30438   2.11679   1.52244 
 Bq                    3.40709   2.1737    1.14007 
 Bq                    3.2787    2.10256   1.61804 
 Bq                    3.43277   2.18793   1.04447 
 Bq                    3.25302   2.08834   1.71363 
 Bq                    3.45845   2.20216   0.94888 
 Bq                    3.22734   2.07411   1.80922 
 Bq                    3.48413   2.21639   0.85328 
 Bq                    3.35574   2.14525   1.33125 
 Bq                    3.61119  -2.81812   0.76576 
 Bq                    3.66254  -2.78966   0.57458 
 Bq                    3.58551  -2.83234   0.86136 
 Bq                    3.68822  -2.77543   0.47898 
 Bq                    3.55983  -2.84657   0.95695 
 Bq                    3.7139   -2.7612    0.38339 
 Bq                    3.53415  -2.8608    1.05254 
 Bq                    3.73958  -2.74698   0.28779 
 Bq                    3.50847  -2.87503   1.14814 
 Bq                    3.76526  -2.73275   0.1922 
 Bq                    3.63686  -2.80389   0.67017 
 Bq                    3.60749  -2.71913   0.7795 
 Bq                    3.65885  -2.69068   0.58832 
 Bq                    3.58182  -2.73336   0.8751 
 Bq                    3.68453  -2.67645   0.49272 
 Bq                    3.55614  -2.74759   0.97069 
 Bq                    3.71021  -2.66222   0.39713 
 Bq                    3.53046  -2.76182   1.06629 
 Bq                    3.73589  -2.64799   0.30153 
 Bq                    3.50478  -2.77604   1.16188 
 Bq                    3.76157  -2.63377   0.20594 
 Bq                    3.63317  -2.7049    0.68391 
 Bq                    3.6038   -2.62015   0.79324 
 Bq                    3.65516  -2.59169   0.60206 
 Bq                    3.57812  -2.63438   0.88884 
 Bq                    3.68084  -2.57747   0.50646 
 Bq                    3.55245  -2.64861   0.98443 
 Bq                    3.70652  -2.56324   0.41087 
 Bq                    3.52677  -2.66283   1.08003 
 Bq                    3.7322   -2.54901   0.31528 
 Bq                    3.50109  -2.67706   1.17562 
 Bq                    3.75788  -2.53478   0.21968 
 Bq                    3.62948  -2.60592   0.69765 
 Bq                    3.60011  -2.52117   0.80698 
 Bq                    3.65147  -2.49271   0.6158 
 Bq                    3.57443  -2.53539   0.90258 
 Bq                    3.67715  -2.47848   0.5202 
 Bq                    3.54875  -2.54962   0.99817 
 Bq                    3.70283  -2.46426   0.42461 
 Bq                    3.52308  -2.56385   1.09377 
 Bq                    3.72851  -2.45003   0.32902 
 Bq                    3.4974   -2.57808   1.18936 
 Bq                    3.75419  -2.4358    0.23342 
 Bq                    3.62579  -2.50694   0.71139 
 Bq                    3.59642  -2.42218   0.82073 
 Bq                    3.64778  -2.39373   0.62954 
 Bq                    3.57074  -2.43641   0.91632 
 Bq                    3.67346  -2.3795    0.53394 
 Bq                    3.54506  -2.45064   1.01191 
 Bq                    3.69914  -2.36527   0.43835 
 Bq                    3.51938  -2.46487   1.10751 
 Bq                    3.72482  -2.35105   0.34276 
 Bq                    3.49371  -2.47909   1.2031 
 Bq                    3.75049  -2.33682   0.24716 
 Bq                    3.6221   -2.40796   0.72513 
 Bq                    3.59273  -2.3232    0.83447 
 Bq                    3.64409  -2.29475   0.64328 
 Bq                    3.56705  -2.33743   0.93006 
 Bq                    3.66977  -2.28052   0.54768 
 Bq                    3.54137  -2.35166   1.02565 
 Bq                    3.69545  -2.26629   0.45209 
 Bq                    3.51569  -2.36588   1.12125 
 Bq                    3.72112  -2.25206   0.3565 
 Bq                    3.49001  -2.38011   1.21684 
 Bq                    3.7468   -2.23784   0.2609 
 Bq                    3.61841  -2.30897   0.73887 
 Bq                    3.58904  -2.22422   0.84821 
 Bq                    3.6404   -2.19576   0.65702 
 Bq                    3.56336  -2.23845   0.9438 
 Bq                    3.66608  -2.18154   0.56143 
 Bq                    3.53768  -2.25267   1.03939 
 Bq                    3.69175  -2.16731   0.46583 
 Bq                    3.512    -2.2669    1.13499 
 Bq                    3.71743  -2.15308   0.37024 
 Bq                    3.48632  -2.28113   1.23058 
 Bq                    3.74311  -2.13885   0.27464 
 Bq                    3.61472  -2.20999   0.75261 
 Bq                    3.58535  -2.12524   0.86195 
 Bq                    3.63671  -2.09678   0.67076 
 Bq                    3.55967  -2.13946   0.95754 
 Bq                    3.66238  -2.08255   0.57517 
 Bq                    3.53399  -2.15369   1.05313 
 Bq                    3.68806  -2.06833   0.47957 
 Bq                    3.50831  -2.16792   1.14873 
 Bq                    3.71374  -2.0541    0.38398 
 Bq                    3.48263  -2.18215   1.24432 
 Bq                    3.73942  -2.03987   0.28838 
 Bq                    3.61103  -2.11101   0.76635 
 Bq                    3.58166  -2.02625   0.87569 
 Bq                    3.63301  -1.9978    0.6845 
 Bq                    3.55598  -2.04048   0.97128 
 Bq                    3.65869  -1.98357   0.58891 
 Bq                    3.5303   -2.05471   1.06688 
 Bq                    3.68437  -1.96934   0.49331 
 Bq                    3.50462  -2.06894   1.16247 
 Bq                    3.71005  -1.95512   0.39772 
 Bq                    3.47894  -2.08316   1.25806 
 Bq                    3.73573  -1.94089   0.30212 
 Bq                    3.60734  -2.01203   0.78009 
 Bq                    3.57797  -1.92727   0.88943 
 Bq                    3.62932  -1.89882   0.69824 
 Bq                    3.55229  -1.9415    0.98502 
 Bq                    3.655    -1.88459   0.60265 
 Bq                    3.52661  -1.95573   1.08062 
 Bq                    3.68068  -1.87036   0.50705 
 Bq                    3.50093  -1.96995   1.17621 
 Bq                    3.70636  -1.85613   0.41146 
 Bq                    3.47525  -1.98418   1.2718 
 Bq                    3.73204  -1.8419    0.31587 
 Bq                    3.60364  -1.91304   0.79383 
 Bq                    3.57427  -1.82829   0.90317 
 Bq                    3.62563  -1.79983   0.71198 
 Bq                    3.5486   -1.84252   0.99876 
 Bq                    3.65131  -1.78561   0.61639 
 Bq                    3.52292  -1.85674   1.09436 
 Bq                    3.67699  -1.77138   0.52079 
 Bq                    3.49724  -1.87097   1.18995 
 Bq                    3.70267  -1.75715   0.4252 
 Bq                    3.47156  -1.8852    1.28554 
 Bq                    3.72835  -1.74292   0.32961 
 
 Symmetry turned off:
 Cannot cope with ghost atoms or with translation vectors.
 Stoichiometry    C22H14
 Framework group  C1[X(C22H14)]
 NUMDOF-- NAT=    36 NAtoms=   236
 Deg. of freedom     0
 Full point group                 C1      NOp   1
                          Input orientation:                          
 ---------------------------------------------------------------------
 Center     Atomic      Atomic             Coordinates (Angstroms)
 Number     Number       Type             X           Y           Z
 ---------------------------------------------------------------------
      1          6           0       -4.050056   -0.577186    0.813671
      2          1           0       -5.026380   -1.008273    1.002476
      3          6           0       -3.938155    0.661780    0.240088
      4          1           0       -4.825242    1.233889   -0.011130
      5          6           0       -2.676841    1.243325    0.005758
      6          6           0       -1.497412    0.505153    0.284825
      7          6           0       -1.650833   -0.733873    0.940403
      8          1           0       -0.771365   -1.273097    1.263375
      9          6           0       -2.889855   -1.262404    1.199431
     10          1           0       -2.968371   -2.212456    1.715268
     11          6           0       -2.577319    2.596370   -0.419293
     12          1           0       -3.487073    3.141224   -0.647406
     13          6           0       -1.374190    3.214790   -0.436403
     14          1           0       -1.299732    4.274202   -0.657814
     15          6           0       -0.171949    2.499409   -0.173459
     16          6           0       -0.204392    1.101844    0.019269
     17          6           0        1.051349    3.204256   -0.067622
     18          1           0        1.042734    4.281950   -0.189700
     19          6           0        2.194209    2.548745    0.257958
     20          1           0        3.116853    3.091285    0.433473
     21          6           0        2.221647    1.133656    0.293499
     22          6           0        1.048693    0.394553    0.030241
     23          6           0        3.448336    0.461463    0.557394
     24          1           0        4.309579    1.060605    0.833485
     25          6           0        3.542735   -0.885593    0.474946
     26          1           0        4.473147   -1.393970    0.703882
     27          6           0        2.449005   -1.647445   -0.019632
     28          6           0        1.215070   -1.005726   -0.301357
     29          6           0        0.253111   -1.743444   -1.021659
     30          1           0       -0.654136   -1.253505   -1.346285
     31          6           0        0.449419   -3.062860   -1.341378
     32          1           0       -0.308316   -3.594431   -1.905406
     33          6           0        1.625173   -3.720797   -0.955254
     34          1           0        1.767005   -4.768740   -1.192702
     35          6           0        2.610987   -3.014418   -0.318305
     36          1           0        3.552561   -3.490281   -0.064637
     37          0           0        3.253178    1.381230    1.713039
     38          0           0        3.509967    1.523507    0.757101
     39          0           0        3.381573    1.452368    1.235070
     40          0           0        3.352203    1.537123    1.344404
     41          0           0        3.403560    1.565579    1.153217
     42          0           0        3.326524    1.522896    1.439998
     43          0           0        3.429239    1.579806    1.057623
     44          0           0        3.300845    1.508668    1.535592
     45          0           0        3.454918    1.594034    0.962029
     46          0           0        3.275166    1.494440    1.631186
     47          0           0        3.480597    1.608262    0.866435
     48          0           0        3.249487    1.480213    1.726779
     49          0           0        3.506276    1.622489    0.770842
     50          0           0        3.377881    1.551351    1.248810
     51          0           0        3.348512    1.636106    1.358145
     52          0           0        3.399869    1.664561    1.166957
     53          0           0        3.322833    1.621878    1.453739
     54          0           0        3.425548    1.678789    1.071363
     55          0           0        3.297154    1.607651    1.549332
     56          0           0        3.451227    1.693017    0.975770
     57          0           0        3.271475    1.593423    1.644926
     58          0           0        3.476906    1.707244    0.880176
     59          0           0        3.245796    1.579195    1.740520
     60          0           0        3.502585    1.721472    0.784582
     61          0           0        3.374190    1.650334    1.262551
     62          0           0        3.344820    1.735089    1.371885
     63          0           0        3.396178    1.763544    1.180698
     64          0           0        3.319142    1.720861    1.467479
     65          0           0        3.421857    1.777772    1.085104
     66          0           0        3.293463    1.706634    1.563073
     67          0           0        3.447536    1.791999    0.989510
     68          0           0        3.267784    1.692406    1.658667
     69          0           0        3.473215    1.806227    0.893916
     70          0           0        3.242105    1.678178    1.754260
     71          0           0        3.498894    1.820455    0.798323
     72          0           0        3.370499    1.749316    1.276292
     73          0           0        3.341129    1.834072    1.385626
     74          0           0        3.392487    1.862527    1.194438
     75          0           0        3.315451    1.819844    1.481220
     76          0           0        3.418166    1.876754    1.098845
     77          0           0        3.289772    1.805616    1.576813
     78          0           0        3.443845    1.890982    1.003251
     79          0           0        3.264093    1.791389    1.672407
     80          0           0        3.469524    1.905210    0.907657
     81          0           0        3.238414    1.777161    1.768001
     82          0           0        3.495203    1.919437    0.812063
     83          0           0        3.366808    1.848299    1.290032
     84          0           0        3.337438    1.933054    1.399366
     85          0           0        3.388796    1.961510    1.208179
     86          0           0        3.311760    1.918827    1.494960
     87          0           0        3.414475    1.975737    1.112585
     88          0           0        3.286081    1.904599    1.590554
     89          0           0        3.440154    1.989965    1.016991
     90          0           0        3.260402    1.890371    1.686148
     91          0           0        3.465833    2.004193    0.921398
     92          0           0        3.234723    1.876144    1.781742
     93          0           0        3.491512    2.018420    0.825804
     94          0           0        3.363117    1.947282    1.303773
     95          0           0        3.333747    2.032037    1.413107
     96          0           0        3.385105    2.060492    1.221919
     97          0           0        3.308068    2.017809    1.508701
     98          0           0        3.410784    2.074720    1.126326
     99          0           0        3.282390    2.003582    1.604295
    100          0           0        3.436463    2.088948    1.030732
    101          0           0        3.256711    1.989354    1.699888
    102          0           0        3.462142    2.103175    0.935138
    103          0           0        3.231032    1.975126    1.795482
    104          0           0        3.487821    2.117403    0.839544
    105          0           0        3.359426    2.046265    1.317513
    106          0           0        3.330056    2.131020    1.426847
    107          0           0        3.381414    2.159475    1.235660
    108          0           0        3.304377    2.116792    1.522441
    109          0           0        3.407093    2.173703    1.140066
    110          0           0        3.278699    2.102564    1.618035
    111          0           0        3.432772    2.187930    1.044472
    112          0           0        3.253020    2.088337    1.713629
    113          0           0        3.458451    2.202158    0.948879
    114          0           0        3.227341    2.074109    1.809223
    115          0           0        3.484129    2.216386    0.853285
    116          0           0        3.355735    2.145247    1.331254
    117          0           0        3.611185   -2.818115    0.765763
    118          0           0        3.662543   -2.789660    0.574576
    119          0           0        3.585506   -2.832343    0.861357
    120          0           0        3.688222   -2.775432    0.478982
    121          0           0        3.559827   -2.846570    0.956951
    122          0           0        3.713901   -2.761204    0.383388
    123          0           0        3.534148   -2.860798    1.052545
    124          0           0        3.739579   -2.746977    0.287794
    125          0           0        3.508470   -2.875026    1.148138
    126          0           0        3.765258   -2.732749    0.192201
    127          0           0        3.636864   -2.803887    0.670170
    128          0           0        3.607494   -2.719132    0.779504
    129          0           0        3.658852   -2.690677    0.588316
    130          0           0        3.581815   -2.733360    0.875098
    131          0           0        3.684531   -2.676449    0.492723
    132          0           0        3.556136   -2.747588    0.970691
    133          0           0        3.710209   -2.662222    0.397129
    134          0           0        3.530457   -2.761815    1.066285
    135          0           0        3.735888   -2.647994    0.301535
    136          0           0        3.504779   -2.776043    1.161879
    137          0           0        3.761567   -2.633766    0.205941
    138          0           0        3.633173   -2.704905    0.683910
    139          0           0        3.603803   -2.620150    0.793244
    140          0           0        3.655161   -2.591694    0.602057
    141          0           0        3.578124   -2.634377    0.888838
    142          0           0        3.680840   -2.577467    0.506463
    143          0           0        3.552445   -2.648605    0.984432
    144          0           0        3.706518   -2.563239    0.410869
    145          0           0        3.526766   -2.662833    1.080026
    146          0           0        3.732197   -2.549011    0.315276
    147          0           0        3.501088   -2.677060    1.175619
    148          0           0        3.757876   -2.534784    0.219682
    149          0           0        3.629482   -2.605922    0.697651
    150          0           0        3.600112   -2.521167    0.806985
    151          0           0        3.651470   -2.492712    0.615797
    152          0           0        3.574433   -2.535395    0.902579
    153          0           0        3.677149   -2.478484    0.520204
    154          0           0        3.548754   -2.549622    0.998172
    155          0           0        3.702827   -2.464256    0.424610
    156          0           0        3.523075   -2.563850    1.093766
    157          0           0        3.728506   -2.450029    0.329016
    158          0           0        3.497396   -2.578078    1.189360
    159          0           0        3.754185   -2.435801    0.233422
    160          0           0        3.625791   -2.506939    0.711391
    161          0           0        3.596421   -2.422184    0.820725
    162          0           0        3.647779   -2.393729    0.629538
    163          0           0        3.570742   -2.436412    0.916319
    164          0           0        3.673457   -2.379501    0.533944
    165          0           0        3.545063   -2.450640    1.011913
    166          0           0        3.699136   -2.365274    0.438350
    167          0           0        3.519384   -2.464867    1.107507
    168          0           0        3.724815   -2.351046    0.342757
    169          0           0        3.493705   -2.479095    1.203101
    170          0           0        3.750494   -2.336818    0.247163
    171          0           0        3.622100   -2.407957    0.725132
    172          0           0        3.592730   -2.323202    0.834466
    173          0           0        3.644088   -2.294746    0.643278
    174          0           0        3.567051   -2.337429    0.930060
    175          0           0        3.669766   -2.280519    0.547685
    176          0           0        3.541372   -2.351657    1.025654
    177          0           0        3.695445   -2.266291    0.452091
    178          0           0        3.515693   -2.365885    1.121247
    179          0           0        3.721124   -2.252063    0.356497
    180          0           0        3.490014   -2.380112    1.216841
    181          0           0        3.746803   -2.237836    0.260903
    182          0           0        3.618409   -2.308974    0.738872
    183          0           0        3.589039   -2.224219    0.848207
    184          0           0        3.640396   -2.195764    0.657019
    185          0           0        3.563360   -2.238447    0.943800
    186          0           0        3.666075   -2.181536    0.561425
    187          0           0        3.537681   -2.252674    1.039394
    188          0           0        3.691754   -2.167308    0.465831
    189          0           0        3.512002   -2.266902    1.134988
    190          0           0        3.717433   -2.153081    0.370238
    191          0           0        3.486323   -2.281130    1.230582
    192          0           0        3.743112   -2.138853    0.274644
    193          0           0        3.614718   -2.209991    0.752613
    194          0           0        3.585348   -2.125236    0.861947
    195          0           0        3.636705   -2.096781    0.670760
    196          0           0        3.559669   -2.139464    0.957541
    197          0           0        3.662384   -2.082553    0.575166
    198          0           0        3.533990   -2.153692    1.053135
    199          0           0        3.688063   -2.068326    0.479572
    200          0           0        3.508311   -2.167919    1.148728
    201          0           0        3.713742   -2.054098    0.383978
    202          0           0        3.482632   -2.182147    1.244322
    203          0           0        3.739421   -2.039870    0.288384
    204          0           0        3.611027   -2.111009    0.766353
    205          0           0        3.581657   -2.026254    0.875688
    206          0           0        3.633014   -1.997798    0.684500
    207          0           0        3.555978   -2.040481    0.971281
    208          0           0        3.658693   -1.983571    0.588906
    209          0           0        3.530299   -2.054709    1.066875
    210          0           0        3.684372   -1.969343    0.493313
    211          0           0        3.504620   -2.068937    1.162469
    212          0           0        3.710051   -1.955115    0.397719
    213          0           0        3.478941   -2.083164    1.258063
    214          0           0        3.735730   -1.940888    0.302125
    215          0           0        3.607336   -2.012026    0.780094
    216          0           0        3.577966   -1.927271    0.889428
    217          0           0        3.629323   -1.898816    0.698241
    218          0           0        3.552287   -1.941499    0.985022
    219          0           0        3.655002   -1.884588    0.602647
    220          0           0        3.526608   -1.955726    1.080616
    221          0           0        3.680681   -1.870360    0.507053
    222          0           0        3.500929   -1.969954    1.176209
    223          0           0        3.706360   -1.856133    0.411459
    224          0           0        3.475250   -1.984181    1.271803
    225          0           0        3.732039   -1.841905    0.315866
    226          0           0        3.603644   -1.913043    0.793834
    227          0           0        3.574275   -1.828288    0.903169
    228          0           0        3.625632   -1.799833    0.711981
    229          0           0        3.548596   -1.842516    0.998762
    230          0           0        3.651311   -1.785605    0.616387
    231          0           0        3.522917   -1.856743    1.094356
    232          0           0        3.676990   -1.771378    0.520794
    233          0           0        3.497238   -1.870971    1.189950
    234          0           0        3.702669   -1.757150    0.425200
    235          0           0        3.471559   -1.885199    1.285544
    236          0           0        3.728348   -1.742922    0.329606
 ---------------------------------------------------------------------
 Rotational constants (GHZ):      0.4529074      0.2836956      0.1879557
 Standard basis: 6-311+G(d,p) (5D, 7F)
 Warning:  center  37 has no basis functions!
 Warning:  center  38 has no basis functions!
 Warning:  center  39 has no basis functions!
 Warning:  center  40 has no basis functions!
 Warning:  center  41 has no basis functions!
 Warning:  center  42 has no basis functions!
 Warning:  center  43 has no basis functions!
 Warning:  center  44 has no basis functions!
 Warning:  center  45 has no basis functions!
 Warning:  center  46 has no basis functions!
 Warning:  center  47 has no basis functions!
 Warning:  center  48 has no basis functions!
 Warning:  center  49 has no basis functions!
 Warning:  center  50 has no basis functions!
 Warning:  center  51 has no basis functions!
 Warning:  center  52 has no basis functions!
 Warning:  center  53 has no basis functions!
 Warning:  center  54 has no basis functions!
 Warning:  center  55 has no basis functions!
 Warning:  center  56 has no basis functions!
 Warning:  center  57 has no basis functions!
 Warning:  center  58 has no basis functions!
 Warning:  center  59 has no basis functions!
 Warning:  center  60 has no basis functions!
 Warning:  center  61 has no basis functions!
 Warning:  center  62 has no basis functions!
 Warning:  center  63 has no basis functions!
 Warning:  center  64 has no basis functions!
 Warning:  center  65 has no basis functions!
 Warning:  center  66 has no basis functions!
 Warning:  center  67 has no basis functions!
 Warning:  center  68 has no basis functions!
 Warning:  center  69 has no basis functions!
 Warning:  center  70 has no basis functions!
 Warning:  center  71 has no basis functions!
 Warning:  center  72 has no basis functions!
 Warning:  center  73 has no basis functions!
 Warning:  center  74 has no basis functions!
 Warning:  center  75 has no basis functions!
 Warning:  center  76 has no basis functions!
 Warning:  center  77 has no basis functions!
 Warning:  center  78 has no basis functions!
 Warning:  center  79 has no basis functions!
 Warning:  center  80 has no basis functions!
 Warning:  center  81 has no basis functions!
 Warning:  center  82 has no basis functions!
 Warning:  center  83 has no basis functions!
 Warning:  center  84 has no basis functions!
 Warning:  center  85 has no basis functions!
 Warning:  center  86 has no basis functions!
 Warning:  center  87 has no basis functions!
 Warning:  center  88 has no basis functions!
 Warning:  center  89 has no basis functions!
 Warning:  center  90 has no basis functions!
 Warning:  center  91 has no basis functions!
 Warning:  center  92 has no basis functions!
 Warning:  center  93 has no basis functions!
 Warning:  center  94 has no basis functions!
 Warning:  center  95 has no basis functions!
 Warning:  center  96 has no basis functions!
 Warning:  center  97 has no basis functions!
 Warning:  center  98 has no basis functions!
 Warning:  center  99 has no basis functions!
 Warning:  center 100 has no basis functions!
 Warning:  center 101 has no basis functions!
 Warning:  center 102 has no basis functions!
 Warning:  center 103 has no basis functions!
 Warning:  center 104 has no basis functions!
 Warning:  center 105 has no basis functions!
 Warning:  center 106 has no basis functions!
 Warning:  center 107 has no basis functions!
 Warning:  center 108 has no basis functions!
 Warning:  center 109 has no basis functions!
 Warning:  center 110 has no basis functions!
 Warning:  center 111 has no basis functions!
 Warning:  center 112 has no basis functions!
 Warning:  center 113 has no basis functions!
 Warning:  center 114 has no basis functions!
 Warning:  center 115 has no basis functions!
 Warning:  center 116 has no basis functions!
 Warning:  center 117 has no basis functions!
 Warning:  center 118 has no basis functions!
 Warning:  center 119 has no basis functions!
 Warning:  center 120 has no basis functions!
 Warning:  center 121 has no basis functions!
 Warning:  center 122 has no basis functions!
 Warning:  center 123 has no basis functions!
 Warning:  center 124 has no basis functions!
 Warning:  center 125 has no basis functions!
 Warning:  center 126 has no basis functions!
 Warning:  center 127 has no basis functions!
 Warning:  center 128 has no basis functions!
 Warning:  center 129 has no basis functions!
 Warning:  center 130 has no basis functions!
 Warning:  center 131 has no basis functions!
 Warning:  center 132 has no basis functions!
 Warning:  center 133 has no basis functions!
 Warning:  center 134 has no basis functions!
 Warning:  center 135 has no basis functions!
 Warning:  center 136 has no basis functions!
 Warning:  center 137 has no basis functions!
 Warning:  center 138 has no basis functions!
 Warning:  center 139 has no basis functions!
 Warning:  center 140 has no basis functions!
 Warning:  center 141 has no basis functions!
 Warning:  center 142 has no basis functions!
 Warning:  center 143 has no basis functions!
 Warning:  center 144 has no basis functions!
 Warning:  center 145 has no basis functions!
 Warning:  center 146 has no basis functions!
 Warning:  center 147 has no basis functions!
 Warning:  center 148 has no basis functions!
 Warning:  center 149 has no basis functions!
 Warning:  center 150 has no basis functions!
 Warning:  center 151 has no basis functions!
 Warning:  center 152 has no basis functions!
 Warning:  center 153 has no basis functions!
 Warning:  center 154 has no basis functions!
 Warning:  center 155 has no basis functions!
 Warning:  center 156 has no basis functions!
 Warning:  center 157 has no basis functions!
 Warning:  center 158 has no basis functions!
 Warning:  center 159 has no basis functions!
 Warning:  center 160 has no basis functions!
 Warning:  center 161 has no basis functions!
 Warning:  center 162 has no basis functions!
 Warning:  center 163 has no basis functions!
 Warning:  center 164 has no basis functions!
 Warning:  center 165 has no basis functions!
 Warning:  center 166 has no basis functions!
 Warning:  center 167 has no basis functions!
 Warning:  center 168 has no basis functions!
 Warning:  center 169 has no basis functions!
 Warning:  center 170 has no basis functions!
 Warning:  center 171 has no basis functions!
 Warning:  center 172 has no basis functions!
 Warning:  center 173 has no basis functions!
 Warning:  center 174 has no basis functions!
 Warning:  center 175 has no basis functions!
 Warning:  center 176 has no basis functions!
 Warning:  center 177 has no basis functions!
 Warning:  center 178 has no basis functions!
 Warning:  center 179 has no basis functions!
 Warning:  center 180 has no basis functions!
 Warning:  center 181 has no basis functions!
 Warning:  center 182 has no basis functions!
 Warning:  center 183 has no basis functions!
 Warning:  center 184 has no basis functions!
 Warning:  center 185 has no basis functions!
 Warning:  center 186 has no basis functions!
 Warning:  center 187 has no basis functions!
 Warning:  center 188 has no basis functions!
 Warning:  center 189 has no basis functions!
 Warning:  center 190 has no basis functions!
 Warning:  center 191 has no basis functions!
 Warning:  center 192 has no basis functions!
 Warning:  center 193 has no basis functions!
 Warning:  center 194 has no basis functions!
 Warning:  center 195 has no basis functions!
 Warning:  center 196 has no basis functions!
 Warning:  center 197 has no basis functions!
 Warning:  center 198 has no basis functions!
 Warning:  center 199 has no basis functions!
 Warning:  center 200 has no basis functions!
 Warning:  center 201 has no basis functions!
 Warning:  center 202 has no basis functions!
 Warning:  center 203 has no basis functions!
 Warning:  center 204 has no basis functions!
 Warning:  center 205 has no basis functions!
 Warning:  center 206 has no basis functions!
 Warning:  center 207 has no basis functions!
 Warning:  center 208 has no basis functions!
 Warning:  center 209 has no basis functions!
 Warning:  center 210 has no basis functions!
 Warning:  center 211 has no basis functions!
 Warning:  center 212 has no basis functions!
 Warning:  center 213 has no basis functions!
 Warning:  center 214 has no basis functions!
 Warning:  center 215 has no basis functions!
 Warning:  center 216 has no basis functions!
 Warning:  center 217 has no basis functions!
 Warning:  center 218 has no basis functions!
 Warning:  center 219 has no basis functions!
 Warning:  center 220 has no basis functions!
 Warning:  center 221 has no basis functions!
 Warning:  center 222 has no basis functions!
 Warning:  center 223 has no basis functions!
 Warning:  center 224 has no basis functions!
 Warning:  center 225 has no basis functions!
 Warning:  center 226 has no basis functions!
 Warning:  center 227 has no basis functions!
 Warning:  center 228 has no basis functions!
 Warning:  center 229 has no basis functions!
 Warning:  center 230 has no basis functions!
 Warning:  center 231 has no basis functions!
 Warning:  center 232 has no basis functions!
 Warning:  center 233 has no basis functions!
 Warning:  center 234 has no basis functions!
 Warning:  center 235 has no basis functions!
 Warning:  center 236 has no basis functions!
   568 basis functions,   904 primitive gaussians,   590 cartesian basis functions
    73 alpha electrons       73 beta electrons
       nuclear repulsion energy      1610.9176155625 Hartrees.
 NAtoms=  236 NActive=  236 NUniq=  236 SFac= 1.00D+00 NAtFMM=   60 NAOKFM=T Big=T
 Integral buffers will be    131072 words long.
 Raffenetti 2 integral format.
 Two-electron integral symmetry is turned off.
 One-electron integrals computed using PRISM.
 NBasis=   568 RedAO= T EigKep=  1.78D-06  NBF=   568
 NBsUse=   556 1.00D-06 EigRej=  9.09D-07 NBFU=   556
 ExpMin= 4.38D-02 ExpMax= 4.56D+03 ExpMxC= 6.82D+02 IAcc=2 IRadAn=         4 AccDes= 0.00D+00
 Harris functional with IExCor=  402 and IRadAn=       4 diagonalized for initial guess.
 HarFok:  IExCor=  402 AccDes= 0.00D+00 IRadAn=         4 IDoV= 1 UseB2=F ITyADJ=14
 ICtDFT=  3500011 ScaDFX=  1.000000  1.000000  1.000000  1.000000
 FoFCou: FMM=F IPFlag=           0 FMFlag=      100000 FMFlg1=        2001
         NFxFlg=           0 DoJE=T BraDBF=F KetDBF=T FulRan=T
         wScrn=  0.000000 ICntrl=     500 IOpCl=  0 I1Cent=   200000004 NGrid=           0
         NMat0=    1 NMatS0=      1 NMatT0=    0 NMatD0=    1 NMtDS0=    0 NMtDT0=    0
 Symmetry not used in FoFCou.
 Requested convergence on RMS density matrix=1.00D-08 within 128 cycles.
 Requested convergence on MAX density matrix=1.00D-06.
 Requested convergence on             energy=1.00D-06.
 No special actions if energy rises.
 SCF Done:  E(RB3LYP) =  -847.003289847     A.U. after   15 cycles
            NFock= 15  Conv=0.76D-08     -V/T= 2.0040
 DoSCS=F DFT=T ScalE2(SS,OS)=  1.000000  1.000000
 Range of M.O.s used for correlation:     1   556
 NBasis=   568 NAE=    73 NBE=    73 NFC=     0 NFV=     0
 NROrb=    556 NOA=    73 NOB=    73 NVA=   483 NVB=   483

 **** Warning!!: The largest alpha MO coefficient is  0.10971037D+03

          Differentiating once with respect to magnetic field using GIAOs.
          Electric field/nuclear overlap derivatives assumed to be zero.
 FoFCou: FMM=F IPFlag=           0 FMFlag=      100000 FMFlg1=        2001
         NFxFlg=           0 DoJE=F BraDBF=F KetDBF=T FulRan=T
         wScrn=  0.000000 ICntrl=    6100 IOpCl=  0 I1Cent=           7 NGrid=         236
         NMat0=    1 NMatS0=      1 NMatT0=    0 NMatD0=    1 NMtDS0=    0 NMtDT0=    0
 Symmetry not used in FoFCou.
 FoFJK:  IHMeth= 1 ICntrl=    6127 DoSepK=F KAlg= 0 I1Cent=   0 FoldK=F
 IRaf=         1 NMat=   1 IRICut=       1 DoRegI=T DoRafI=F ISym2E= 0.
          There are     3 degrees of freedom in the 1st order CPHF.  IDoFFX=0 NUNeed=     3.
      3 vectors produced by pass  0 Test12= 1.18D-12 3.33D-08 XBig12= 2.07D+03 9.18D+00.
 AX will form     3 AO Fock derivatives at one time.
      3 vectors produced by pass  1 Test12= 1.18D-12 3.33D-08 XBig12= 3.56D+00 8.03D-01.
      3 vectors produced by pass  2 Test12= 1.18D-12 3.33D-08 XBig12= 2.10D-02 6.92D-02.
      3 vectors produced by pass  3 Test12= 1.18D-12 3.33D-08 XBig12= 5.45D-05 1.89D-03.
      3 vectors produced by pass  4 Test12= 1.18D-12 3.33D-08 XBig12= 1.20D-07 7.79D-05.
      3 vectors produced by pass  5 Test12= 1.18D-12 3.33D-08 XBig12= 4.02D-10 4.73D-06.
      3 vectors produced by pass  6 Test12= 1.18D-12 3.33D-08 XBig12= 1.32D-12 2.61D-07.
 InvSVY:  IOpt=1 It=  1 EMax= 2.13D-14
 Solved reduced A of dimension    21 with     3 vectors.
 Calculating GIAO nuclear magnetic shielding tensors.
 SCF GIAO Magnetic shielding tensor (ppm):
      1  C    Isotropic =    53.8139   Anisotropy =   178.0260
   XX=   -41.4327   YX=   -32.3458   ZX=    10.0287
   XY=   -28.3572   YY=    59.0527   ZY=    55.1899
   XZ=    13.1759   YZ=    58.7550   ZZ=   143.8218
   Eigenvalues:   -53.8775    42.8214   172.4979
      2  H    Isotropic =    24.3095   Anisotropy =     4.8536
   XX=    25.5771   YX=    -1.0289   ZX=     0.5661
   XY=    -0.7431   YY=    26.1829   ZY=    -2.3306
   XZ=    -0.1707   YZ=    -2.4411   ZZ=    21.1687
   Eigenvalues:    20.2108    25.1725    27.5453
      3  C    Isotropic =    51.4055   Anisotropy =   157.8639
   XX=   -31.5399   YX=    38.5015   ZX=   -17.9316
   XY=    34.3519   YY=    49.9437   ZY=    49.6392
   XZ=    -9.8383   YZ=    44.6006   ZZ=   135.8127
   Eigenvalues:   -50.5747    48.1432   156.6481
      4  H    Isotropic =    23.8290   Anisotropy =     7.1838
   XX=    25.3635   YX=     1.8486   ZX=    -0.3559
   XY=     1.9656   YY=    26.4581   ZY=    -2.4103
   XZ=    -1.2941   YZ=    -2.6614   ZZ=    19.6654
   Eigenvalues:    18.8176    24.0511    28.6182
      5  C    Isotropic =    46.0697   Anisotropy =   207.6751
   XX=   -19.2123   YX=    -4.8852   ZX=    -1.6475
   XY=     2.8938   YY=    -2.9860   ZY=    66.5656
   XZ=     2.5356   YZ=    67.9144   ZZ=   160.4073
   Eigenvalues:   -27.2455   -19.0652   184.5197
      6  C    Isotropic =    47.5218   Anisotropy =   196.9389
   XX=   -28.1552   YX=    -2.7889   ZX=    12.0660
   XY=   -14.3886   YY=    21.2063   ZY=    74.2521
   XZ=   -18.6356   YZ=    61.1113   ZZ=   149.5144
   Eigenvalues:   -30.2925    -5.9564   178.8144
      7  C    Isotropic =    49.3915   Anisotropy =   179.8333
   XX=   -12.5211   YX=    28.7048   ZX=   -24.6745
   XY=    31.5123   YY=    29.7000   ZY=    77.7459
   XZ=   -40.0095   YZ=    65.3072   ZZ=   130.9956
   Eigenvalues:   -52.1299    31.0240   169.2804
      8  H    Isotropic =    23.1586   Anisotropy =    13.5525
   XX=    28.5711   YX=     1.5482   ZX=    -3.6986
   XY=     3.2466   YY=    22.7592   ZY=    -2.1157
   XZ=    -8.3753   YZ=    -1.0821   ZZ=    18.1456
   Eigenvalues:    15.3521    21.9301    32.1936
      9  C    Isotropic =    55.1460   Anisotropy =   174.7426
   XX=    46.7071   YX=    -2.6162   ZX=    -2.8420
   XY=     0.6223   YY=    -1.6258   ZY=    92.8272
   XZ=     0.5159   YZ=    95.6598   ZZ=   120.3568
   Eigenvalues:   -52.8932    46.6901   171.6411
     10  H    Isotropic =    24.6278   Anisotropy =     7.1815
   XX=    29.1040   YX=     0.1399   ZX=    -0.3694
   XY=     0.3642   YY=    23.4778   ZY=    -1.0805
   XZ=    -2.4493   YZ=    -2.9465   ZZ=    21.3016
   Eigenvalues:    19.9703    24.4977    29.4155
     11  C    Isotropic =    51.5607   Anisotropy =   151.2142
   XX=     2.1639   YX=    40.9287   ZX=   -26.0048
   XY=    49.9131   YY=    12.2331   ZY=    42.1342
   XZ=   -15.6145   YZ=    38.6614   ZZ=   140.2851
   Eigenvalues:   -48.1951    50.5071   152.3701
     12  H    Isotropic =    23.8537   Anisotropy =     7.3815
   XX=    25.9672   YX=     2.3738   ZX=    -0.2390
   XY=     2.4320   YY=    26.3975   ZY=    -1.8291
   XZ=     0.3529   YZ=    -1.7731   ZZ=    19.1964
   Eigenvalues:    18.7149    24.0714    28.7747
     13  C    Isotropic =    52.8653   Anisotropy =   147.4265
   XX=    51.2944   YX=    19.9221   ZX=   -13.4678
   XY=    11.5478   YY=   -34.0176   ZY=    42.5079
   XZ=    -9.2241   YZ=    40.0716   ZZ=   141.3192
   Eigenvalues:   -46.5152    53.9616   151.1497
     14  H    Isotropic =    24.0156   Anisotropy =     7.3485
   XX=    28.6644   YX=     0.6281   ZX=     1.0808
   XY=     0.5926   YY=    24.4325   ZY=    -1.0823
   XZ=     1.6846   YZ=    -0.3842   ZZ=    18.9500
   Eigenvalues:    18.6430    24.4892    28.9146
     15  C    Isotropic =    46.2221   Anisotropy =   203.9048
   XX=   -27.2215   YX=    -0.0442   ZX=   -28.9124
   XY=     4.6427   YY=   -10.5571   ZY=    28.3830
   XZ=   -10.2704   YZ=    26.7376   ZZ=   176.4448
   Eigenvalues:   -30.5512   -12.9411   182.1586
     16  C    Isotropic =    51.9375   Anisotropy =   188.2004
   XX=   -19.4441   YX=     5.5046   ZX=    15.7858
   XY=    -8.3874   YY=     2.4863   ZY=    22.9264
   XZ=   -50.6243   YZ=    23.3340   ZZ=   172.7704
   Eigenvalues:   -21.0294    -0.5625   177.4045
     17  C    Isotropic =    51.9482   Anisotropy =   149.1264
   XX=    50.7296   YX=   -23.9353   ZX=   -18.4207
   XY=   -16.7271   YY=   -41.8764   ZY=    17.8662
   XZ=   -14.3278   YZ=    11.4871   ZZ=   146.9915
   Eigenvalues:   -46.7796    51.2584   151.3658
     18  H    Isotropic =    24.0122   Anisotropy =     7.5163
   XX=    28.5811   YX=    -0.0866   ZX=     1.5071
   XY=    -0.2466   YY=    24.3342   ZY=    -0.7657
   XZ=     2.5088   YZ=    -1.5208   ZZ=    19.1214
   Eigenvalues:    18.5094    24.5041    29.0231
     19  C    Isotropic =    51.7356   Anisotropy =   148.5924
   XX=     2.4559   YX=   -45.6913   ZX=   -31.2531
   XY=   -53.4448   YY=     7.4698   ZY=    -1.8888
   XZ=   -23.5601   YZ=    -1.2765   ZZ=   145.2810
   Eigenvalues:   -46.9894    51.3989   150.7972
     20  H    Isotropic =    23.9071   Anisotropy =     7.6651
   XX=    25.5796   YX=    -2.0226   ZX=     1.4905
   XY=    -1.9998   YY=    27.3706   ZY=    -0.5164
   XZ=     2.7276   YZ=    -1.1179   ZZ=    18.7711
   Eigenvalues:    18.1643    24.5398    29.0172
     21  C    Isotropic =    45.9767   Anisotropy =   203.9316
   XX=   -16.2108   YX=    13.1802   ZX=   -44.5913
   XY=     6.5714   YY=   -20.6329   ZY=     0.0949
   XZ=   -28.8984   YZ=   -13.0883   ZZ=   174.7736
   Eigenvalues:   -30.5796   -13.4215   181.9311
     22  C    Isotropic =    52.0450   Anisotropy =   188.1157
   XX=    -0.0787   YX=     2.5023   ZX=   -16.3451
   XY=    18.9327   YY=   -14.4798   ZY=   -34.4335
   XZ=   -50.6032   YZ=    19.9104   ZZ=   170.6934
   Eigenvalues:   -20.7705    -0.5500   177.4554
     23  C    Isotropic =    53.2392   Anisotropy =   146.7412
   XX=   -22.0674   YX=   -32.0012   ZX=   -49.4857
   XY=   -23.2043   YY=    44.3661   ZY=   -15.6400
   XZ=   -43.8090   YZ=   -20.2525   ZZ=   137.4189
   Eigenvalues:   -45.6776    54.3286   151.0667
     24  H    Isotropic =    23.8249   Anisotropy =     7.5289
   XX=    25.1073   YX=    -1.7330   ZX=     1.5380
   XY=    -1.5944   YY=    28.0047   ZY=     0.0879
   XZ=     1.2557   YZ=    -0.8283   ZZ=    18.3628
   Eigenvalues:    18.0848    24.5458    28.8442
     25  C    Isotropic =    51.4969   Anisotropy =   150.1066
   XX=   -28.4915   YX=    33.9684   ZX=   -52.3137
   XY=    22.0311   YY=    46.6072   ZY=    -3.8075
   XZ=   -44.5594   YZ=   -10.6355   ZZ=   136.3748
   Eigenvalues:   -48.3857    51.3083   151.5679
     26  H    Isotropic =    23.7431   Anisotropy =     7.4052
   XX=    24.0663   YX=     1.1141   ZX=     1.9989
   XY=     0.9693   YY=    28.1000   ZY=     1.6568
   XZ=     2.0795   YZ=     0.8886   ZZ=    19.0630
   Eigenvalues:    18.2615    24.2880    28.6799
     27  C    Isotropic =    45.8108   Anisotropy =   207.2710
   XX=    -2.7702   YX=    13.7697   ZX=   -61.4651
   XY=     6.5593   YY=   -12.0335   ZY=   -41.6456
   XZ=   -62.6381   YZ=   -44.9232   ZZ=   152.2361
   Eigenvalues:   -28.0803   -18.4787   183.9915
     28  C    Isotropic =    47.8398   Anisotropy =   197.2870
   XX=    19.6900   YX=    14.4398   ZX=   -60.5682
   XY=    28.5650   YY=   -19.3566   ZY=   -56.7015
   XZ=   -63.1331   YZ=   -24.4782   ZZ=   143.1859
   Eigenvalues:   -30.5979    -5.2472   179.3644
     29  C    Isotropic =    49.3441   Anisotropy =   179.7793
   XX=    -3.4110   YX=    38.3775   ZX=   -80.8875
   XY=    36.1252   YY=    25.9805   ZY=   -23.7573
   XZ=   -78.1065   YZ=    -3.9802   ZZ=   125.4627
   Eigenvalues:   -51.6645    30.4997   169.1970
     30  H    Isotropic =    23.1387   Anisotropy =    13.3222
   XX=    22.4354   YX=    -0.7013   ZX=    -0.2375
   XY=    -2.1539   YY=    28.3546   ZY=     4.5555
   XZ=    -3.4181   YZ=     8.3231   ZZ=    18.6259
   Eigenvalues:    15.2751    22.1208    32.0201
     31  C    Isotropic =    55.4410   Anisotropy =   174.9390
   XX=    17.1871   YX=   -14.0890   ZX=   -84.0024
   XY=   -17.9030   YY=    37.4745   ZY=   -50.3662
   XZ=   -84.6557   YZ=   -54.8325   ZZ=   111.6615
   Eigenvalues:   -51.9248    46.1808   172.0670
     32  H    Isotropic =    24.5337   Anisotropy =     7.2554
   XX=    24.6185   YX=    -2.5264   ZX=     0.7632
   XY=    -2.7385   YY=    27.4630   ZY=     1.0335
   XZ=     1.1913   YZ=     3.7573   ZZ=    21.5194
   Eigenvalues:    19.8987    24.3316    29.3706
     33  C    Isotropic =    53.1814   Anisotropy =   179.0596
   XX=    60.9231   YX=    35.2256   ZX=   -42.9515
   XY=    32.0226   YY=   -38.1801   ZY=   -45.5652
   XZ=   -44.2248   YZ=   -50.7831   ZZ=   136.8014
   Eigenvalues:   -55.1197    42.1095   172.5545
     34  H    Isotropic =    24.2825   Anisotropy =     5.1861
   XX=    26.7643   YX=    -0.0934   ZX=     2.5955
   XY=    -0.2993   YY=    24.8157   ZY=     0.8589
   XZ=     2.3715   YZ=     1.4580   ZZ=    21.2676
   Eigenvalues:    20.0339    25.0737    27.7399
     35  C    Isotropic =    51.5295   Anisotropy =   155.1748
   XX=    -0.5131   YX=    52.5760   ZX=   -52.1551
   XY=    55.6135   YY=    25.1843   ZY=   -14.2643
   XZ=   -45.7255   YZ=   -17.1625   ZZ=   129.9171
   Eigenvalues:   -48.3147    47.9237   154.9793
     36  H    Isotropic =    23.8384   Anisotropy =     7.3073
   XX=    24.2302   YX=     1.4459   ZX=     2.1759
   XY=     1.2147   YY=    27.1572   ZY=     2.0665
   XZ=     1.6853   YZ=     2.7775   ZZ=    20.1277
   Eigenvalues:    18.9464    23.8588    28.7099
     37  Bq   Isotropic =     0.7376   Anisotropy =    11.1407
   XX=    -0.6489   YX=    -2.8699   ZX=     1.1617
   XY=    -1.3081   YY=     1.2026   ZY=     2.0746
   XZ=    11.6204   YZ=     7.9123   ZZ=     1.6592
   Eigenvalues:    -8.4774     2.5256     8.1648
     38  Bq   Isotropic =     1.0332   Anisotropy =    21.1180
   XX=     9.6609   YX=    -5.7123   ZX=     5.9307
   XY=    -3.1395   YY=     9.6984   ZY=     0.2695
   XZ=     7.9548   YZ=    -1.8008   ZZ=   -16.2598
   Eigenvalues:   -18.0064     5.9941    15.1118
     39  Bq   Isotropic =     1.0785   Anisotropy =    12.2010
   XX=     5.1291   YX=    -4.8859   ZX=     2.9278
   XY=    -2.1104   YY=     5.8107   ZY=     2.1013
   XZ=    10.9543   YZ=     6.9119   ZZ=    -7.7044
   Eigenvalues:   -12.4264     6.4494     9.2124
     40  Bq   Isotropic =     0.0852   Anisotropy =    10.0973
   XX=     2.5103   YX=    -4.1323   ZX=     2.9149
   XY=    -1.9415   YY=     4.4999   ZY=     2.2696
   XZ=    11.5619   YZ=     6.9476   ZZ=    -6.7547
   Eigenvalues:   -12.4973     5.9362     6.8167
     41  Bq   Isotropic =    -0.0164   Anisotropy =    14.2320
   XX=     4.6089   YX=    -4.7967   ZX=     3.8370
   XY=    -2.3792   YY=     6.4568   ZY=     1.9204
   XZ=    10.7992   YZ=     5.1279   ZZ=   -11.1150
   Eigenvalues:   -14.9862     5.4653     9.4716
     42  Bq   Isotropic =     0.1284   Anisotropy =     9.3392
   XX=     1.4862   YX=    -3.7728   ZX=     2.5146
   XY=    -1.7459   YY=     3.5462   ZY=     2.3148
   XZ=    11.7643   YZ=     7.4054   ZZ=    -4.6472
   Eigenvalues:   -11.4285     5.4592     6.3546
     43  Bq   Isotropic =    -0.0807   Anisotropy =    16.2300
   XX=     5.5459   YX=    -5.0484   ZX=     4.3536
   XY=    -2.6091   YY=     7.3803   ZY=     1.6168
   XZ=    10.2768   YZ=     3.7667   ZZ=   -13.1682
   Eigenvalues:   -16.3035     5.3221    10.7394
     44  Bq   Isotropic =     0.1692   Anisotropy =     9.8133
   XX=     0.5468   YX=    -3.4181   ZX=     2.1521
   XY=    -1.5648   YY=     2.6525   ZY=     2.2864
   XZ=    11.8351   YZ=     7.6012   ZZ=    -2.6915
   Eigenvalues:   -10.4982     4.2945     6.7114
     45  Bq   Isotropic =    -0.1574   Anisotropy =    18.0171
   XX=     6.3107   YX=    -5.1989   ZX=     4.8893
   XY=    -2.8240   YY=     8.2119   ZY=     1.2418
   XZ=     9.6839   YZ=     2.1576   ZZ=   -14.9948
   Eigenvalues:   -17.5597     5.2336    11.8541
     46  Bq   Isotropic =     0.2086   Anisotropy =    10.3223
   XX=    -0.2792   YX=    -3.0780   ZX=     1.8246
   XY=    -1.3949   YY=     1.8405   ZY=     2.2000
   XZ=    11.7786   YZ=     7.5818   ZZ=    -0.9355
   Eigenvalues:    -9.6953     3.2309     7.0901
     47  Bq   Isotropic =    -0.2476   Anisotropy =    19.4741
   XX=     6.8459   YX=    -5.2095   ZX=     5.4131
   XY=    -2.9968   YY=     8.9137   ZY=     0.8151
   XZ=     9.0214   YZ=     0.3803   ZZ=   -16.5025
   Eigenvalues:   -18.6596     5.1817    12.7351
     48  Bq   Isotropic =     0.2466   Anisotropy =    10.7972
   XX=    -0.9787   YX=    -2.7589   ZX=     1.5292
   XY=    -1.2333   YY=     1.1228   ZY=     2.0728
   XZ=    11.6074   YZ=     7.3972   ZZ=     0.5956
   Eigenvalues:    -8.9990     2.2940     7.4447
     49  Bq   Isotropic =    -0.3499   Anisotropy =    20.5012
   XX=     7.1238   YX=    -5.0492   ZX=     5.8792
   XY=    -3.0984   YY=     9.4534   ZY=     0.3595
   XZ=     8.2689   YZ=    -1.4626   ZZ=   -17.6271
   Eigenvalues:   -19.5155     5.1481    13.3175
     50  Bq   Isotropic =     0.0378   Anisotropy =    12.1448
   XX=     3.5724   YX=    -4.4811   ZX=     3.3556
   XY=    -2.1534   YY=     5.4827   ZY=     2.1395
   XZ=    11.2346   YZ=     6.1931   ZZ=    -8.9417
   Eigenvalues:   -13.6956     5.6746     8.1344
     51  Bq   Isotropic =    -0.5561   Anisotropy =    10.0376
   XX=     1.5462   YX=    -3.7566   ZX=     3.2543
   XY=    -1.8895   YY=     4.2162   ZY=     2.0960
   XZ=    11.7193   YZ=     6.1199   ZZ=    -7.4307
   Eigenvalues:   -13.0965     5.2926     6.1356
     52  Bq   Isotropic =    -0.8041   Anisotropy =    13.9008
   XX=     3.1842   YX=    -4.2841   ZX=     4.1118
   XY=    -2.3428   YY=     6.0760   ZY=     1.7503
   XZ=    11.0689   YZ=     4.4114   ZZ=   -11.6725
   Eigenvalues:   -15.6532     4.7778     8.4631
     53  Bq   Isotropic =    -0.4366   Anisotropy =     9.2908
   XX=     0.7400   YX=    -3.4617   ZX=     2.8604
   XY=    -1.6797   YY=     3.3213   ZY=     2.1542
   XZ=    11.8622   YZ=     6.6004   ZZ=    -5.3710
   Eigenvalues:   -11.9663     4.8993     5.7573
     54  Bq   Isotropic =    -0.9284   Anisotropy =    15.7740
   XX=     3.9187   YX=    -4.4748   ZX=     4.5620
   XY=    -2.5708   YY=     6.9696   ZY=     1.4614
   XZ=    10.5790   YZ=     3.1978   ZZ=   -13.6734
   Eigenvalues:   -16.9736     4.6008     9.5876
     55  Bq   Isotropic =    -0.3225   Anisotropy =     9.6692
   XX=    -0.0065   YX=    -3.1655   ZX=     2.4931
   XY=    -1.4839   YY=     2.4861   ZY=     2.1476
   XZ=    11.8809   YZ=     6.8558   ZZ=    -3.4472
   Eigenvalues:   -10.9641     3.8729     6.1236
     56  Bq   Isotropic =    -1.0497   Anisotropy =    17.4645
   XX=     4.5317   YX=    -4.5819   ZX=     5.0069
   XY=    -2.7798   YY=     7.7848   ZY=     1.1071
   XZ=     9.9904   YZ=     1.7957   ZZ=   -15.4656
   Eigenvalues:   -18.2169     4.4745    10.5933
     57  Bq   Isotropic =    -0.2156   Anisotropy =    10.1009
   XX=    -0.6695   YX=    -2.8773   ZX=     2.1531
   XY=    -1.3015   YY=     1.7282   ZY=     2.0892
   XZ=    11.7825   YZ=     6.9200   ZZ=    -1.7055
   Eigenvalues:   -10.0864     2.9212     6.5184
     58  Bq   Isotropic =    -1.1649   Anisotropy =    18.8714
   XX=     4.9875   YX=    -4.5784   ZX=     5.4209
   XY=    -2.9486   YY=     8.4811   ZY=     0.7058
   XZ=     9.3017   YZ=     0.2728   ZZ=   -16.9635
   Eigenvalues:   -19.2930     4.3822    11.4160
     59  Bq   Isotropic =    -0.1169   Anisotropy =    10.5141
   XX=    -1.2367   YX=    -2.6034   ZX=     1.8405
   XY=    -1.1313   YY=     1.0570   ZY=     1.9930
   XZ=    11.5803   YZ=     6.8316   ZZ=    -0.1711
   Eigenvalues:    -9.3184     2.0751     6.8925
     60  Bq   Isotropic =    -1.2701   Anisotropy =    19.9066
   XX=     5.2711   YX=    -4.4434   ZX=     5.7686
   XY=    -3.0557   YY=     9.0225   ZY=     0.2809
   XZ=     8.4986   YZ=    -1.2878   ZZ=   -18.1039
   Eigenvalues:   -20.1187     4.3075    12.0010
     61  Bq   Isotropic =    -0.6793   Anisotropy =    11.9483
   XX=     2.3763   YX=    -4.0369   ZX=     3.6729
   XY=    -2.1122   YY=     5.1454   ZY=     1.9628
   XZ=    11.4525   YZ=     5.3918   ZZ=    -9.5595
   Eigenvalues:   -14.3390     5.0149     7.2862
     62  Bq   Isotropic =    -0.9621   Anisotropy =     9.8703
   XX=     0.8239   YX=    -3.3572   ZX=     3.5038
   XY=    -1.7769   YY=     3.9314   ZY=     1.8053
   XZ=    11.8337   YZ=     5.2933   ZZ=    -7.6415
   Eigenvalues:   -13.2742     4.7699     5.6182
     63  Bq   Isotropic =    -1.2832   Anisotropy =    13.4107
   XX=     2.1417   YX=    -3.7702   ZX=     4.2918
   XY=    -2.2405   YY=     5.6779   ZY=     1.4296
   XZ=    11.2739   YZ=     3.6741   ZZ=   -11.6691
   Eigenvalues:   -15.7631     4.2563     7.6573
     64  Bq   Isotropic =    -0.8021   Anisotropy =     9.2704
   XX=     0.1761   YX=    -3.1214   ZX=     3.1234
   XY=    -1.5615   YY=     3.0977   ZY=     1.8953
   XZ=    11.9270   YZ=     5.7989   ZZ=    -5.6803
   Eigenvalues:   -12.1533     4.3688     5.3781
     65  Bq   Isotropic =    -1.4346   Anisotropy =    15.1754
   XX=     2.7436   YX=    -3.9165   ZX=     4.6814
   XY=    -2.4740   YY=     6.5281   ZY=     1.1473
   XZ=    10.8098   YZ=     2.5878   ZZ=   -13.5754
   Eigenvalues:   -17.0315     4.0453     8.6823
     66  Bq   Isotropic =    -0.6482   Anisotropy =     9.5622
   XX=    -0.4264   YX=    -2.8811   ZX=     2.7594
   XY=    -1.3610   YY=     2.3211   ZY=     1.9273
   XZ=    11.9008   YZ=     6.1123   ZZ=    -3.8393
   Eigenvalues:   -11.1455     3.4743     5.7266
     67  Bq   Isotropic =    -1.5729   Anisotropy =    16.7875
   XX=     3.2640   YX=    -3.9981   ZX=     5.0488
   XY=    -2.6915   YY=     7.3134   ZY=     0.8159
   XZ=    10.2255   YZ=     1.3675   ZZ=   -15.2962
   Eigenvalues:   -18.2191     3.8816     9.6187
     68  Bq   Isotropic =    -0.5033   Anisotropy =     9.9332
   XX=    -0.9648   YX=    -2.6443   ZX=     2.4155
   XY=    -1.1758   YY=     1.6158   ZY=     1.9109
   XZ=    11.7653   YZ=     6.2560   ZZ=    -2.1608
   Eigenvalues:   -10.2512     2.6225     6.1188
     69  Bq   Isotropic =    -1.6928   Anisotropy =    18.1553
   XX=     3.6811   YX=    -3.9964   ZX=     5.3725
   XY=    -2.8760   YY=     7.9947   ZY=     0.4542
   XZ=     9.5178   YZ=     0.0720   ZZ=   -16.7542
   Eigenvalues:   -19.2433     3.7541    10.4107
     70  Bq   Isotropic =    -0.3693   Anisotropy =    10.2952
   XX=    -1.4284   YX=    -2.4162   ZX=     2.0938
   XY=    -1.0053   YY=     0.9898   ZY=     1.8572
   XZ=    11.5346   YZ=     6.2582   ZZ=    -0.6694
   Eigenvalues:    -9.4601     1.8579     6.4942
     71  Bq   Isotropic =    -1.7891   Anisotropy =    19.1956
   XX=     3.9869   YX=    -3.8967   ZX=     5.6250
   XY=    -3.0101   YY=     8.5353   ZY=     0.0852
   XZ=     8.6768   YZ=    -1.2312   ZZ=   -17.8895
   Eigenvalues:   -20.0264     3.6511    11.0079
     72  Bq   Isotropic =    -1.1240   Anisotropy =    11.5900
   XX=     1.4901   YX=    -3.5781   ZX=     3.8956
   XY=    -2.0050   YY=     4.8009   ZY=     1.6506
   XZ=    11.6161   YZ=     4.5837   ZZ=    -9.6629
   Eigenvalues:   -14.4905     4.5159     6.6027
     73  Bq   Isotropic =    -1.1794   Anisotropy =     9.6975
   XX=     0.3007   YX=    -2.9557   ZX=     3.6745
   XY=    -1.6205   YY=     3.6411   ZY=     1.4516
   XZ=    11.9094   YZ=     4.5212   ZZ=    -7.4801
   Eigenvalues:   -13.1346     4.3107     5.2856
     74  Bq   Isotropic =    -1.5157   Anisotropy =    12.7971
   XX=     1.4056   YX=    -3.2772   ZX=     4.3958
   XY=    -2.0940   YY=     5.2788   ZY=     1.0271
   XZ=    11.4307   YZ=     2.9729   ZZ=   -11.2315
   Eigenvalues:   -15.4660     3.9032     7.0157
     75  Bq   Isotropic =    -1.0070   Anisotropy =     9.2939
   XX=    -0.2353   YX=    -2.7715   ZX=     3.3113
   XY=    -1.4047   YY=     2.8664   ZY=     1.5826
   XZ=    11.9589   YZ=     5.0506   ZZ=    -5.6520
   Eigenvalues:   -12.0705     3.8606     5.1890
     76  Bq   Isotropic =    -1.6671   Anisotropy =    14.4533
   XX=     1.9275   YX=    -3.3939   ZX=     4.7337
   XY=    -2.3399   YY=     6.0884   ZY=     0.7448
   XZ=    10.9923   YZ=     1.9923   ZZ=   -13.0172
   Eigenvalues:   -16.6452     3.6755     7.9684
     77  Bq   Isotropic =    -0.8387   Anisotropy =     9.5122
   XX=    -0.7329   YX=    -2.5822   ZX=     2.9563
   XY=    -1.2062   YY=     2.1464   ZY=     1.6612
   XZ=    11.8930   YZ=     5.4156   ZZ=    -3.9296
   Eigenvalues:   -11.1024     3.0836     5.5028
     78  Bq   Isotropic =    -1.7988   Anisotropy =    15.9932
   XX=     2.4003   YX=    -3.4650   ZX=     5.0379
   XY=    -2.5780   YY=     6.8478   ZY=     0.4339
   XZ=    10.4169   YZ=     0.9250   ZZ=   -14.6444
   Eigenvalues:   -17.7481     3.4883     8.8633
     79  Bq   Isotropic =    -0.6784   Anisotropy =     9.8271
   XX=    -1.1778   YX=    -2.3934   ZX=     2.6148
   XY=    -1.0251   YY=     1.4926   ZY=     1.6934
   XZ=    11.7242   YZ=     5.6296   ZZ=    -2.3501
   Eigenvalues:   -10.2325     2.3242     5.8730
     80  Bq   Isotropic =    -1.9050   Anisotropy =    17.3276
   XX=     2.8103   YX=    -3.4778   ZX=     5.2901
   XY=    -2.7939   YY=     7.5198   ZY=     0.1146
   XZ=     9.6994   YZ=    -0.1766   ZZ=   -16.0451
   Eigenvalues:   -18.7002     3.3384     9.6468
     81  Bq   Isotropic =    -0.5288   Anisotropy =    10.1408
   XX=    -1.5616   YX=    -2.2093   ZX=     2.2909
   XY=    -0.8604   YY=     0.9114   ZY=     1.6871
   XZ=    11.4675   YZ=     5.7122   ZZ=    -0.9362
   Eigenvalues:    -9.4535     1.6354     6.2318
     82  Bq   Isotropic =    -1.9807   Anisotropy =    18.3740
   XX=     3.1532   YX=    -3.4211   ZX=     5.4683
   XY=    -2.9716   YY=     8.0679   ZY=    -0.1902
   XZ=     8.8320   YZ=    -1.2563   ZZ=   -17.1633
   Eigenvalues:   -19.4302     3.2194    10.2686
     83  Bq   Isotropic =    -1.3510   Anisotropy =    11.1292
   XX=     0.8554   YX=    -3.1274   ZX=     4.0389
   XY=    -1.8517   YY=     4.4531   ZY=     1.2656
   XZ=    11.7353   YZ=     3.8249   ZZ=    -9.3615
   Eigenvalues:   -14.2780     4.1565     6.0685
     84  Bq   Isotropic =    -1.2517   Anisotropy =     9.5971
   XX=    -0.0643   YX=    -2.5693   ZX=     3.7789
   XY=    -1.4359   YY=     3.3427   ZY=     1.0766
   XZ=    11.9514   YZ=     3.8406   ZZ=    -7.0334
   Eigenvalues:   -12.7686     3.8672     5.1464
     85  Bq   Isotropic =    -1.5590   Anisotropy =    12.1353
   XX=     0.9077   YX=    -2.8227   ZX=     4.4416
   XY=    -1.9222   YY=     4.8860   ZY=     0.5925
   XZ=    11.5537   YZ=     2.3473   ZZ=   -10.4706
   Eigenvalues:   -14.8875     3.6794     6.5312
     86  Bq   Isotropic =    -1.0872   Anisotropy =     9.3517
   XX=    -0.5236   YX=    -2.4280   ZX=     3.4340
   XY=    -1.2224   YY=     2.6225   ZY=     1.2520
   XZ=    11.9597   YZ=     4.3900   ZZ=    -5.3604
   Eigenvalues:   -11.7906     3.3818     5.1473
     87  Bq   Isotropic =    -1.6887   Anisotropy =    13.6713
   XX=     1.3890   YX=    -2.9235   ZX=     4.7384
   XY=    -2.1874   YY=     5.6650   ZY=     0.3038
   XZ=    11.1455   YZ=     1.4507   ZZ=   -12.1201
   Eigenvalues:   -15.9543     3.4627     7.4255
     88  Bq   Isotropic =    -0.9232   Anisotropy =     9.5189
   XX=    -0.9463   YX=    -2.2829   ZX=     3.0911
   XY=    -1.0298   YY=     1.9564   ZY=     1.3793
   XZ=    11.8570   YZ=     4.7978   ZZ=    -3.7798
   Eigenvalues:   -10.8908     2.6984     5.4227
     89  Bq   Isotropic =    -1.7940   Anisotropy =    15.1392
   XX=     1.8486   YX=    -2.9972   ZX=     4.9945
   XY=    -2.4563   YY=     6.4100   ZY=     0.0071
   XZ=    10.5873   YZ=     0.5062   ZZ=   -13.6406
   Eigenvalues:   -16.9527     3.2719     8.2988
     90  Bq   Isotropic =    -0.7643   Anisotropy =     9.7809
   XX=    -1.3222   YX=    -2.1372   ZX=     2.7566
   XY=    -0.8569   YY=     1.3530   ZY=     1.4610
   XZ=    11.6577   YZ=     5.0701   ZZ=    -2.3236
   Eigenvalues:   -10.0720     2.0229     5.7563
     91  Bq   Isotropic =    -1.8698   Anisotropy =    16.4438
   XX=     2.2780   YX=    -3.0352   ZX=     5.1934
   XY=    -2.7162   YY=     7.0855   ZY=    -0.2747
   XZ=     9.8710   YZ=    -0.4375   ZZ=   -14.9730
   Eigenvalues:   -17.8175     3.1153     9.0927
     92  Bq   Isotropic =    -0.6134   Anisotropy =    10.0461
   XX=    -1.6452   YX=    -1.9934   ZX=     2.4356
   XY=    -0.7024   YY=     0.8168   ZY=     1.5023
   XZ=    11.3776   YZ=     5.2198   ZZ=    -1.0117
   Eigenvalues:    -9.3293     1.4052     6.0840
     93  Bq   Isotropic =    -1.9129   Anisotropy =    17.4992
   XX=     2.6740   YX=    -3.0281   ZX=     5.3163
   XY=    -2.9508   YY=     7.6538   ZY=    -0.5181
   XZ=     8.9885   YZ=    -1.3320   ZZ=   -16.0663
   Eigenvalues:   -18.4844     2.9925     9.7533
     94  Bq   Isotropic =    -1.4111   Anisotropy =    10.6649
   XX=     0.4181   YX=    -2.7025   ZX=     4.1179
   XY=    -1.6700   YY=     4.1035   ZY=     0.8544
   XZ=    11.8194   YZ=     3.1541   ZZ=    -8.7548
   Eigenvalues:   -13.8107     3.8786     5.6989
     95  Bq   Isotropic =    -1.2161   Anisotropy =     9.5764
   XX=    -0.3056   YX=    -2.2102   ZX=     3.8300
   XY=    -1.2353   YY=     3.0335   ZY=     0.7122
   XZ=    11.9638   YZ=     3.2761   ZZ=    -6.3762
   Eigenvalues:   -12.2500     3.4336     5.1681
     96  Bq   Isotropic =    -1.4614   Anisotropy =    11.5108
   XX=     0.5936   YX=    -2.4177   ZX=     4.4462
   XY=    -1.7381   YY=     4.4977   ZY=     0.1629
   XZ=    11.6537   YZ=     1.8250   ZZ=    -9.4756
   Eigenvalues:   -14.1257     3.5289     6.2125
     97  Bq   Isotropic =    -1.0743   Anisotropy =     9.4374
   XX=    -0.7146   YX=    -2.1028   ZX=     3.5023
   XY=    -1.0251   YY=     2.3634   ZY=     0.9316
   XZ=    11.9312   YZ=     3.8402   ZZ=    -4.8718
   Eigenvalues:   -11.3743     2.9340     5.2173
     98  Bq   Isotropic =    -1.5521   Anisotropy =    12.9002
   XX=     1.0649   YX=    -2.5143   ZX=     4.7137
   XY=    -2.0281   YY=     5.2570   ZY=    -0.1389
   XZ=    11.2841   YZ=     0.9922   ZZ=   -10.9781
   Eigenvalues:   -15.0653     3.3610     7.0480
     99  Bq   Isotropic =    -0.9280   Anisotropy =     9.5722
   XX=    -1.0851   YX=    -1.9944   ZX=     3.1726
   XY=    -0.8404   YY=     1.7488   ZY=     1.1057
   XZ=    11.7931   YZ=     4.2804   ZZ=    -3.4475
   Eigenvalues:   -10.5593     2.3219     5.4535
    100  Bq   Isotropic =    -1.6140   Anisotropy =    14.2874
   XX=     1.5398   YX=    -2.6018   ZX=     4.9370
   XY=    -2.3361   YY=     6.0001   ZY=    -0.4300
   XZ=    10.7545   YZ=     0.1413   ZZ=   -12.3819
   Eigenvalues:   -15.9454     3.1924     7.9109
    101  Bq   Isotropic =    -0.7820   Anisotropy =     9.7858
   XX=    -1.4109   YX=    -1.8857   ZX=     2.8479
   XY=    -0.6785   YY=     1.1949   ZY=     1.2341
   XZ=    11.5653   YZ=     4.5975   ZZ=    -2.1300
   Eigenvalues:    -9.8077     1.7198     5.7418
    102  Bq   Isotropic =    -1.6439   Anisotropy =    15.5608
   XX=     2.0131   YX=    -2.6739   ZX=     5.1002
   XY=    -2.6499   YY=     6.6927   ZY=    -0.6843
   XZ=    10.0526   YZ=    -0.6805   ZZ=   -13.6373
   Eigenvalues:   -16.7099     3.0484     8.7300
    103  Bq   Isotropic =    -0.6401   Anisotropy =    10.0023
   XX=    -1.6882   YX=    -1.7775   ZX=     2.5336
   XY=    -0.5366   YY=     0.7040   ZY=     1.3199
   XZ=    11.2639   YZ=     4.7997   ZZ=    -0.9362
   Eigenvalues:    -9.1164     1.1680     6.0281
    104  Bq   Isotropic =    -1.6410   Anisotropy =    16.6258
   XX=     2.4810   YX=    -2.7215   ZX=     5.1854
   XY=    -2.9518   YY=     7.2945   ZY=    -0.8761
   XZ=     9.1672   YZ=    -1.4291   ZZ=   -14.6986
   Eigenvalues:   -17.3024     2.9365     9.4428
    105  Bq   Isotropic =    -1.3473   Anisotropy =    10.2974
   XX=     0.1337   YX=    -2.3155   ZX=     4.1479
   XY=    -1.4730   YY=     3.7498   ZY=     0.4523
   XZ=    11.8759   YZ=     2.5973   ZZ=    -7.9254
   Eigenvalues:   -13.1750     3.6155     5.5176
    106  Bq   Isotropic =    -1.1040   Anisotropy =     9.6223
   XX=    -0.4508   YX=    -1.8848   ZX=     3.8408
   XY=    -1.0263   YY=     2.7106   ZY=     0.3842
   XZ=    11.9489   YZ=     2.8439   ZZ=    -5.5717
   Eigenvalues:   -11.6366     3.0138     5.3109
    107  Bq   Isotropic =    -1.2627   Anisotropy =    11.0043
   XX=     0.4222   YX=    -2.0650   ZX=     4.4253
   XY=    -1.5473   YY=     4.1060   ZY=    -0.2316
   XZ=    11.7373   YZ=     1.4275   ZZ=    -8.3162
   Eigenvalues:   -13.2536     3.3920     6.0735
    108  Bq   Isotropic =    -0.9952   Anisotropy =     9.5509
   XX=    -0.8296   YX=    -1.8030   ZX=     3.5274
   XY=    -0.8201   YY=     2.0878   ZY=     0.6443
   XZ=    11.8741   YZ=     3.4158   ZZ=    -4.2438
   Eigenvalues:   -10.8706     2.5130     5.3721
    109  Bq   Isotropic =    -1.3001   Anisotropy =    12.2064
   XX=     0.9088   YX=    -2.1667   ZX=     4.6762
   XY=    -1.8654   YY=     4.8530   ZY=    -0.5523
   XZ=    11.4171   YZ=     0.6413   ZZ=    -9.6622
   Eigenvalues:   -14.0570     3.3191     6.8374
    110  Bq   Isotropic =    -0.8754   Anisotropy =     9.6620
   XX=    -1.1653   YX=    -1.7239   ZX=     3.2107
   XY=    -0.6447   YY=     1.5232   ZY=     0.8603
   XZ=    11.7013   YZ=     3.8768   ZZ=    -2.9843
   Eigenvalues:   -10.1483     1.9561     5.5659
    111  Bq   Isotropic =    -1.3037   Anisotropy =    13.4907
   XX=     1.4245   YX=    -2.2759   ZX=     4.8825
   XY=    -2.2171   YY=     5.6033   ZY=    -0.8476
   XZ=    10.9302   YZ=    -0.1420   ZZ=   -10.9390
   Eigenvalues:   -14.8079     3.2066     7.6901
    112  Bq   Isotropic =    -0.7504   Anisotropy =     9.8310
   XX=    -1.4554   YX=    -1.6459   ZX=     2.8971
   XY=    -0.4953   YY=     1.0186   ZY=     1.0298
   XZ=    11.4466   YZ=     4.2243   ZZ=    -1.8143
   Eigenvalues:    -9.4722     1.4175     5.8036
    113  Bq   Isotropic =    -1.2725   Anisotropy =    14.7214
   XX=     1.9664   YX=    -2.3878   ZX=     5.0274
   XY=    -2.5909   YY=     6.3231   ZY=    -1.0870
   XZ=    10.2584   YZ=    -0.8755   ZZ=   -12.1072
   Eigenvalues:   -15.4598     3.1005     8.5417
    114  Bq   Isotropic =    -0.6244   Anisotropy =     9.9992
   XX=    -1.6989   YX=    -1.5683   ZX=     2.5920
   XY=    -0.3678   YY=     0.5738   ZY=     1.1544
   XZ=    11.1260   YZ=     4.4636   ZZ=    -0.7482
   Eigenvalues:    -8.8410     0.9260     6.0417
    115  Bq   Isotropic =    -1.2096   Anisotropy =    15.7894
   XX=     2.5297   YX=    -2.4926   ZX=     5.0916
   XY=    -2.9668   YY=     6.9690   ZY=    -1.2411
   XZ=     9.3847   YZ=    -1.5164   ZZ=   -13.1276
   Eigenvalues:   -15.9647     3.0191     9.3166
    116  Bq   Isotropic =    -1.1953   Anisotropy =    10.0815
   XX=    -0.0322   YX=    -1.9714   ZX=     4.1431
   XY=    -1.2677   YY=     3.3865   ZY=     0.0876
   XZ=    11.9089   YZ=     2.1733   ZZ=    -6.9403
   Eigenvalues:   -12.4371     3.3254     5.5257
    117  Bq   Isotropic =    -0.8071   Anisotropy =     9.8065
   XX=    -1.1055   YX=    -0.1458   ZX=     5.1892
   XY=    -1.1267   YY=     4.1499   ZY=     3.4607
   XZ=    10.4593   YZ=     1.6886   ZZ=    -5.4659
   Eigenvalues:   -11.7818     3.6299     5.7305
    118  Bq   Isotropic =    -0.4692   Anisotropy =    12.9124
   XX=     0.2654   YX=    -0.1003   ZX=     5.9874
   XY=    -0.1728   YY=     5.8946   ZY=     4.9442
   XZ=     9.7032   YZ=     3.7396   ZZ=    -7.5677
   Eigenvalues:   -13.1731     3.6264     8.1390
    119  Bq   Isotropic =    -0.8957   Anisotropy =     8.6610
   XX=    -1.6540   YX=    -0.1030   ZX=     4.7452
   XY=    -1.4460   YY=     3.4446   ZY=     2.6679
   XZ=    10.5426   YZ=     0.6305   ZZ=    -4.4777
   Eigenvalues:   -11.0536     3.4883     4.8783
    120  Bq   Isotropic =    -0.2303   Anisotropy =    14.4379
   XX=     1.0721   YX=     0.0054   ZX=     6.3021
   XY=     0.4556   YY=     6.8772   ZY=     5.5120
   XZ=     8.9716   YZ=     4.5903   ZZ=    -8.6402
   Eigenvalues:   -13.7535     3.6676     9.3950
    121  Bq   Isotropic =    -0.9345   Anisotropy =     8.2958
   XX=    -2.1094   YX=    -0.0343   ZX=     4.2914
   XY=    -1.6720   YY=     2.8535   ZY=     1.9038
   XZ=    10.4711   YZ=    -0.3725   ZZ=    -3.5475
   Eigenvalues:   -10.3432     2.9437     4.5960
    122  Bq   Isotropic =     0.0344   Anisotropy =    15.7636
   XX=     1.9372   YX=     0.1637   ZX=     6.5270
   XY=     1.1561   YY=     7.8467   ZY=     5.8775
   XZ=     7.9754   YZ=     5.2334   ZZ=    -9.6807
   Eigenvalues:   -14.1960     3.7558    10.5435
    123  Bq   Isotropic =    -0.9312   Anisotropy =     8.4017
   XX=    -2.4750   YX=     0.0472   ZX=     3.8393
   XY=    -1.8189   YY=     2.3642   ZY=     1.1983
   XZ=    10.2745   YZ=    -1.2823   ZZ=    -2.6828
   Eigenvalues:    -9.6658     2.2022     4.6700
    124  Bq   Isotropic =     0.2996   Anisotropy =    16.7632
   XX=     2.8323   YX=     0.3562   ZX=     6.6345
   XY=     1.8856   YY=     8.7028   ZY=     5.9923
   XZ=     6.7105   YZ=     5.6266   ZZ=   -10.6363
   Eigenvalues:   -14.4626     3.8863    11.4751
    125  Bq   Isotropic =    -0.8950   Anisotropy =     8.6084
[...]
   129  Bq   0.000000
   130  Bq   0.000000
   131  Bq   0.000000
   132  Bq   0.000000
   133  Bq   0.000000
   134  Bq   0.000000
   135  Bq   0.000000
   136  Bq   0.000000
   137  Bq   0.000000
   138  Bq   0.000000
   139  Bq   0.000000
   140  Bq   0.000000
   141  Bq   0.000000
   142  Bq   0.000000
   143  Bq   0.000000
   144  Bq   0.000000
   145  Bq   0.000000
   146  Bq   0.000000
   147  Bq   0.000000
   148  Bq   0.000000
   149  Bq   0.000000
   150  Bq   0.000000
   151  Bq   0.000000
   152  Bq   0.000000
   153  Bq   0.000000
   154  Bq   0.000000
   155  Bq   0.000000
   156  Bq   0.000000
   157  Bq   0.000000
   158  Bq   0.000000
   159  Bq   0.000000
   160  Bq   0.000000
   161  Bq   0.000000
   162  Bq   0.000000
   163  Bq   0.000000
   164  Bq   0.000000
   165  Bq   0.000000
   166  Bq   0.000000
   167  Bq   0.000000
   168  Bq   0.000000
   169  Bq   0.000000
   170  Bq   0.000000
   171  Bq   0.000000
   172  Bq   0.000000
   173  Bq   0.000000
   174  Bq   0.000000
   175  Bq   0.000000
   176  Bq   0.000000
   177  Bq   0.000000
   178  Bq   0.000000
   179  Bq   0.000000
   180  Bq   0.000000
   181  Bq   0.000000
   182  Bq   0.000000
   183  Bq   0.000000
   184  Bq   0.000000
   185  Bq   0.000000
   186  Bq   0.000000
   187  Bq   0.000000
   188  Bq   0.000000
   189  Bq   0.000000
   190  Bq   0.000000
   191  Bq   0.000000
   192  Bq   0.000000
   193  Bq   0.000000
   194  Bq   0.000000
   195  Bq   0.000000
   196  Bq   0.000000
   197  Bq   0.000000
   198  Bq   0.000000
   199  Bq   0.000000
   200  Bq   0.000000
   201  Bq   0.000000
   202  Bq   0.000000
   203  Bq   0.000000
   204  Bq   0.000000
   205  Bq   0.000000
   206  Bq   0.000000
   207  Bq   0.000000
   208  Bq   0.000000
   209  Bq   0.000000
   210  Bq   0.000000
   211  Bq   0.000000
   212  Bq   0.000000
   213  Bq   0.000000
   214  Bq   0.000000
   215  Bq   0.000000
   216  Bq   0.000000
   217  Bq   0.000000
   218  Bq   0.000000
   219  Bq   0.000000
   220  Bq   0.000000
   221  Bq   0.000000
   222  Bq   0.000000
   223  Bq   0.000000
   224  Bq   0.000000
   225  Bq   0.000000
   226  Bq   0.000000
   227  Bq   0.000000
   228  Bq   0.000000
   229  Bq   0.000000
   230  Bq   0.000000
   231  Bq   0.000000
   232  Bq   0.000000
   233  Bq   0.000000
   234  Bq   0.000000
   235  Bq   0.000000
   236  Bq   0.000000
 Sum of Mulliken charges =   0.00000
 Mulliken charges with hydrogens summed into heavy atoms:
               1
     1  C   -0.255498
     3  C    0.169409
     5  C    0.448258
     6  C    0.064351
     7  C   -0.333926
     9  C   -0.139521
    11  C   -0.205988
    13  C   -0.119315
    15  C    0.653397
    16  C    0.034822
    17  C   -0.317410
    19  C   -0.434284
    21  C    0.651066
    22  C    0.037784
    23  C   -0.233803
    25  C   -0.321531
    27  C    0.448331
    28  C    0.061983
    29  C   -0.333381
    31  C   -0.139505
    33  C   -0.255977
    35  C    0.055019
    37  Bq   0.000000
    38  Bq   0.116514
    39  Bq   0.000000
    40  Bq   0.000000
    41  Bq   0.000000
    42  Bq   0.000000
    43  Bq   0.000000
    44  Bq   0.000000
    45  Bq   0.000000
    46  Bq   0.000000
    47  Bq   0.000000
    48  Bq   0.000000
    49  Bq   0.000000
    50  Bq   0.000000
    51  Bq   0.000000
    52  Bq   0.000000
    53  Bq   0.000000
    54  Bq   0.000000
    55  Bq   0.000000
    56  Bq   0.000000
    57  Bq   0.000000
    58  Bq   0.000000
    59  Bq   0.000000
    60  Bq   0.000000
    61  Bq   0.000000
    62  Bq   0.000000
    63  Bq   0.000000
    64  Bq   0.000000
    65  Bq   0.000000
    66  Bq   0.000000
    67  Bq   0.000000
    68  Bq   0.000000
    69  Bq   0.000000
    70  Bq   0.000000
    71  Bq   0.000000
    72  Bq   0.000000
    73  Bq   0.000000
    74  Bq   0.000000
    75  Bq   0.000000
    76  Bq   0.000000
    77  Bq   0.000000
    78  Bq   0.000000
    79  Bq   0.000000
    80  Bq   0.000000
    81  Bq   0.000000
    82  Bq   0.000000
    83  Bq   0.000000
    84  Bq   0.000000
    85  Bq   0.000000
    86  Bq   0.000000
    87  Bq   0.000000
    88  Bq   0.000000
    89  Bq   0.000000
    90  Bq   0.000000
    91  Bq   0.000000
    92  Bq   0.000000
    93  Bq   0.000000
    94  Bq   0.000000
    95  Bq   0.000000
    96  Bq   0.000000
    97  Bq   0.000000
    98  Bq   0.000000
    99  Bq   0.000000
   100  Bq   0.000000
   101  Bq   0.000000
   102  Bq   0.000000
   103  Bq   0.000000
   104  Bq   0.000000
   105  Bq   0.000000
   106  Bq   0.000000
   107  Bq   0.000000
   108  Bq   0.000000
   109  Bq   0.000000
   110  Bq   0.000000
   111  Bq   0.000000
   112  Bq   0.000000
   113  Bq   0.000000
   114  Bq   0.000000
   115  Bq   0.117431
   116  Bq   0.000000
   117  Bq   0.000000
   118  Bq   0.000000
   119  Bq   0.000000
   120  Bq   0.000000
   121  Bq   0.000000
   122  Bq   0.000000
   123  Bq   0.000000
   124  Bq   0.000000
   125  Bq   0.000000
   126  Bq   0.115561
   127  Bq   0.000000
   128  Bq   0.000000
   129  Bq   0.000000
   130  Bq   0.000000
   131  Bq   0.000000
   132  Bq   0.000000
   133  Bq   0.000000
   134  Bq   0.000000
   135  Bq   0.000000
   136  Bq   0.000000
   137  Bq   0.000000
   138  Bq   0.000000
   139  Bq   0.000000
   140  Bq   0.000000
   141  Bq   0.000000
   142  Bq   0.000000
   143  Bq   0.000000
   144  Bq   0.000000
   145  Bq   0.000000
   146  Bq   0.000000
   147  Bq   0.000000
   148  Bq   0.000000
   149  Bq   0.000000
   150  Bq   0.000000
   151  Bq   0.000000
   152  Bq   0.000000
   153  Bq   0.000000
   154  Bq   0.000000
   155  Bq   0.000000
   156  Bq   0.000000
   157  Bq   0.000000
   158  Bq   0.000000
   159  Bq   0.000000
   160  Bq   0.000000
   161  Bq   0.000000
   162  Bq   0.000000
   163  Bq   0.000000
   164  Bq   0.000000
   165  Bq   0.000000
   166  Bq   0.000000
   167  Bq   0.000000
   168  Bq   0.000000
   169  Bq   0.000000
   170  Bq   0.000000
   171  Bq   0.000000
   172  Bq   0.000000
   173  Bq   0.000000
   174  Bq   0.000000
   175  Bq   0.000000
   176  Bq   0.000000
   177  Bq   0.000000
   178  Bq   0.000000
   179  Bq   0.000000
   180  Bq   0.000000
   181  Bq   0.000000
   182  Bq   0.000000
   183  Bq   0.000000
   184  Bq   0.000000
   185  Bq   0.000000
   186  Bq   0.000000
   187  Bq   0.000000
   188  Bq   0.000000
   189  Bq   0.000000
   190  Bq   0.000000
   191  Bq   0.000000
   192  Bq   0.000000
   193  Bq   0.000000
   194  Bq   0.000000
   195  Bq   0.000000
   196  Bq   0.000000
   197  Bq   0.000000
   198  Bq   0.000000
   199  Bq   0.000000
   200  Bq   0.000000
   201  Bq   0.000000
   202  Bq   0.000000
   203  Bq   0.000000
   204  Bq   0.000000
   205  Bq   0.000000
   206  Bq   0.000000
   207  Bq   0.000000
   208  Bq   0.000000
   209  Bq   0.000000
   210  Bq   0.000000
   211  Bq   0.000000
   212  Bq   0.000000
   213  Bq   0.000000
   214  Bq   0.000000
   215  Bq   0.000000
   216  Bq   0.000000
   217  Bq   0.000000
   218  Bq   0.000000
   219  Bq   0.000000
   220  Bq   0.000000
   221  Bq   0.000000
   222  Bq   0.000000
   223  Bq   0.000000
   224  Bq   0.000000
   225  Bq   0.000000
   226  Bq   0.000000
   227  Bq   0.000000
   228  Bq   0.000000
   229  Bq   0.000000
   230  Bq   0.000000
   231  Bq   0.000000
   232  Bq   0.000000
   233  Bq   0.000000
   234  Bq   0.116215
   235  Bq   0.000000
   236  Bq   0.000000
 Electronic spatial extent (au):  <R**2>=           5736.9264
 Charge=              0.0000 electrons
 Dipole moment (field-independent basis, Debye):
    X=              0.0475    Y=              0.0856    Z=              0.0029  Tot=              0.0979
 Quadrupole moment (field-independent basis, Debye-Ang):
   XX=           -113.7056   YY=           -113.9456   ZZ=           -133.2669
   XY=             -0.3834   XZ=              3.2102   YZ=             -1.1839
 Traceless Quadrupole moment (field-independent basis, Debye-Ang):
   XX=              6.6005   YY=              6.3604   ZZ=            -12.9609
   XY=             -0.3834   XZ=              3.2102   YZ=             -1.1839
 Octapole moment (field-independent basis, Debye-Ang**2):
  XXX=            -16.4668  YYY=            -16.1860  ZZZ=             -1.7007  XYY=              2.5576
  XXY=             -6.5650  XXZ=             13.6547  XZZ=             -8.9478  YZZ=            -17.7168
  YYZ=            -13.2941  XYZ=              8.8036
 Hexadecapole moment (field-independent basis, Debye-Ang**3):
 XXXX=          -3951.1638 YYYY=          -3112.2161 ZZZZ=           -504.8311 XXXY=            340.6935
 XXXZ=            156.4968 YYYX=            335.5625 YYYZ=            -87.0893 ZZZX=            120.2262
 ZZZY=           -108.7373 XXYY=          -1176.4844 XXZZ=           -856.7291 YYZZ=           -665.7275
 XXYZ=            -68.9016 YYXZ=             48.1602 ZZXY=            153.0375
 N-N= 1.610917615562D+03 E-N=-5.186891130729D+03  KE= 8.436329774449D+02
 1\1\GINC-PLANA\SP\RB3LYP\6-311+G(d,p)\C22H14\YANNICK\22-Aug-2020\0\\# 
 rb3lyp/6-311+g** NMR geom=connectivity\\Title\\0,1\C,0,-4.0500558,-0.5
 771862,0.8136712\H,0,-5.0263804,-1.0082727,1.002476\C,0,-3.9381552,0.6
 617804,0.2400876\H,0,-4.8252424,1.233889,-0.0111295\C,0,-2.676841,1.24
 33246,0.0057578\C,0,-1.4974121,0.5051527,0.2848253\C,0,-1.6508332,-0.7
 338728,0.9404026\H,0,-0.7713646,-1.2730967,1.2633753\C,0,-2.8898548,-1
 .2624035,1.1994307\H,0,-2.9683706,-2.2124563,1.7152676\C,0,-2.5773185,
 2.5963696,-0.419293\H,0,-3.4870728,3.1412239,-0.6474055\C,0,-1.3741895
 ,3.2147896,-0.436403\H,0,-1.2997315,4.2742019,-0.6578144\C,0,-0.171948
 8,2.499409,-0.1734588\C,0,-0.2043917,1.1018437,0.0192689\C,0,1.0513491
 ,3.204256,-0.0676222\H,0,1.0427344,4.2819499,-0.1896997\C,0,2.1942091,
 2.5487446,0.2579577\H,0,3.1168527,3.0912848,0.4334727\C,0,2.2216473,1.
 1336562,0.293499\C,0,1.0486931,0.3945528,0.0302412\C,0,3.4483363,0.461
 4633,0.5573939\H,0,4.3095794,1.0606054,0.8334846\C,0,3.5427346,-0.8855
 926,0.4749463\H,0,4.4731467,-1.3939704,0.7038822\C,0,2.4490052,-1.6474
 447,-0.0196319\C,0,1.2150704,-1.0057258,-0.3013573\C,0,0.2531113,-1.74
 3444,-1.0216591\H,0,-0.6541356,-1.2535051,-1.3462847\C,0,0.4494193,-3.
 0628597,-1.3413779\H,0,-0.3083162,-3.5944309,-1.905406\C,0,1.6251726,-
 3.7207967,-0.9552541\H,0,1.7670048,-4.7687404,-1.1927019\C,0,2.6109872
 ,-3.0144177,-0.318305\H,0,3.5525612,-3.4902813,-0.0646367\Bq,0,3.25317
 81811,1.3812301024,1.7130388163\Bq,0,3.5099668243,1.5235066926,0.75710
 10753\Bq,0,3.3815725027,1.4523683975,1.2350699458\Bq,0,3.3522025878,1.
 5371234325,1.3444042594\Bq,0,3.4035603165,1.5655787506,1.1532167113\Bq
 ,0,3.3265237235,1.5228957735,1.4399980335\Bq,0,3.4292391808,1.57980640
 96,1.0576229372\Bq,0,3.3008448592,1.5086681145,1.5355918076\Bq,0,3.454
 9180451,1.5940340686,0.9620291631\Bq,0,3.2751659949,1.4944404554,1.631
 1855817\Bq,0,3.4805969094,1.6082617277,0.866435389\Bq,0,3.2494871305,1
 .4802127964,1.7267793558\Bq,0,3.5062757738,1.6224893867,0.7708416149\B
 q,0,3.3778814522,1.5513510915,1.2488104853\Bq,0,3.3485115373,1.6361061
 265,1.358144799\Bq,0,3.3998692659,1.6645614446,1.1669572508\Bq,0,3.322
 832673,1.6218784675,1.4537385731\Bq,0,3.4255481303,1.6787891036,1.0713
 634767\Bq,0,3.2971538087,1.6076508085,1.5493323472\Bq,0,3.4512269946,1
 .6930167627,0.9757697026\Bq,0,3.2714749443,1.5934231495,1.6449261213\B
 q,0,3.4769058589,1.7072444217,0.8801759285\Bq,0,3.24579608,1.579195490
 4,1.7405198954\Bq,0,3.5025847232,1.7214720807,0.7845821544\Bq,0,3.3741
 904016,1.6503337856,1.2625510249\Bq,0,3.3448204868,1.7350888206,1.3718
 853386\Bq,0,3.3961782154,1.7635441386,1.1806977904\Bq,0,3.3191416224,1
 .7208611616,1.4674791127\Bq,0,3.4218570797,1.7777717977,1.0851040163\B
 q,0,3.2934627581,1.7066335025,1.5630728868\Bq,0,3.4475359441,1.7919994
 567,0.9895102422\Bq,0,3.2677838938,1.6924058435,1.6586666608\Bq,0,3.47
 32148084,1.8062271157,0.8939164681\Bq,0,3.2421050295,1.6781781845,1.75
 42604349\Bq,0,3.4988936727,1.8204547748,0.798322694\Bq,0,3.3704993511,
 1.7493164796,1.2762915645\Bq,0,3.3411294362,1.8340715146,1.3856258781\
 Bq,0,3.3924871649,1.8625268327,1.1944383299\Bq,0,3.3154505719,1.819843
 8556,1.4812196522\Bq,0,3.4181660292,1.8767544917,1.0988445558\Bq,0,3.2
 897717076,1.8056161966,1.5768134263\Bq,0,3.4438448935,1.8909821507,1.0
 032507817\Bq,0,3.2640928433,1.7913885375,1.6724072004\Bq,0,3.469523757
 8,1.9052098098,0.9076570076\Bq,0,3.2384139789,1.7771608785,1.768000974
 5\Bq,0,3.4952026222,1.9194374688,0.8120632336\Bq,0,3.3668083005,1.8482
 991736,1.290032104\Bq,0,3.3374383857,1.9330542087,1.3993664177\Bq,0,3.
 3887961143,1.9615095267,1.2081788695\Bq,0,3.3117595214,1.9188265496,1.
 4949601918\Bq,0,3.4144749787,1.9757371857,1.1125850954\Bq,0,3.28608065
 7,1.9045988906,1.5905539659\Bq,0,3.440153843,1.9899648448,1.0169913213
 \Bq,0,3.2604017927,1.8903712316,1.68614774\Bq,0,3.4658327073,2.0041925
 038,0.9213975472\Bq,0,3.2347229284,1.8761435725,1.7817415141\Bq,0,3.49
 15115716,2.0184201628,0.8258037731\Bq,0,3.36311725,1.9472818677,1.3037
 726436\Bq,0,3.3337473352,2.0320369027,1.4131069572\Bq,0,3.3851050638,2
 .0604922207,1.221919409\Bq,0,3.3080684708,2.0178092437,1.5087007313\Bq
 ,0,3.4107839281,2.0747198798,1.126325635\Bq,0,3.2823896065,2.003581584
 6,1.6042945054\Bq,0,3.4364627924,2.0889475388,1.0307318609\Bq,0,3.2567
 107422,1.9893539256,1.6998882795\Bq,0,3.4621416568,2.1031751978,0.9351
 380868\Bq,0,3.2310318779,1.9751262666,1.7954820536\Bq,0,3.4878205211,2
 .1174028569,0.8395443127\Bq,0,3.3594261995,2.0462645617,1.3175131831\B
 q,0,3.3300562846,2.1310195967,1.4268474968\Bq,0,3.3814140133,2.1594749
 148,1.2356599486\Bq,0,3.3043774203,2.1167919377,1.5224412709\Bq,0,3.40
 70928776,2.1737025738,1.1400661745\Bq,0,3.278698556,2.1025642787,1.618
 035045\Bq,0,3.4327717419,2.1879302328,1.0444724004\Bq,0,3.2530196917,2
 .0883366196,1.7136288191\Bq,0,3.4584506062,2.2021578919,0.9488786263\B
 q,0,3.2273408273,2.0741089606,1.8092225932\Bq,0,3.4841294706,2.2163855
 509,0.8532848522\Bq,0,3.3557351489,2.1452472558,1.3312537227\Bq,0,3.61
 11850614,-2.8181151051,0.7657633006\Bq,0,3.6625427901,-2.789659787,0.5
 745757525\Bq,0,3.5855061971,-2.8323427641,0.8613570747\Bq,0,3.68822165
 44,-2.775432128,0.4789819784\Bq,0,3.5598273328,-2.8465704231,0.9569508
 488\Bq,0,3.7139005187,-2.761204469,0.3833882043\Bq,0,3.5341484685,-2.8
 607980821,1.0525446229\Bq,0,3.739579383,-2.7469768099,0.2877944302\Bq,
 0,3.5084696041,-2.8750257412,1.148138397\Bq,0,3.7652582474,-2.73274915
 09,0.1922006561\Bq,0,3.6368639258,-2.803887446,0.6701695265\Bq,0,3.607
 4940109,-2.719132411,0.7795038402\Bq,0,3.6588517395,-2.690677093,0.588
 316292\Bq,0,3.5818151466,-2.7333600701,0.8750976143\Bq,0,3.6845306039,
 -2.6764494339,0.4927225179\Bq,0,3.5561362823,-2.7475877291,0.970691388
 4\Bq,0,3.7102094682,-2.6622217749,0.3971287438\Bq,0,3.5304574179,-2.76
 18153881,1.0662851625\Bq,0,3.7358883325,-2.6479941159,0.3015349697\Bq,
 0,3.5047785536,-2.7760430471,1.1618789366\Bq,0,3.7615671968,-2.6337664
 569,0.2059411956\Bq,0,3.6331728752,-2.704904752,0.6839100661\Bq,0,3.60
 38029604,-2.620149717,0.7932443798\Bq,0,3.655160689,-2.5916943989,0.60
 20568316\Bq,0,3.578124096,-2.634377376,0.8888381539\Bq,0,3.6808395533,
 -2.5774667399,0.5064630575\Bq,0,3.5524452317,-2.648605035,0.9844319279
 \Bq,0,3.7065184177,-2.5632390809,0.4108692834\Bq,0,3.5267663674,-2.662
 8326941,1.080025702\Bq,0,3.732197282,-2.5490114219,0.3152755093\Bq,0,3
 .5010875031,-2.6770603531,1.1756194761\Bq,0,3.7578761463,-2.5347837628
 ,0.2196817352\Bq,0,3.6294818247,-2.605922058,0.6976506057\Bq,0,3.60011
 19098,-2.521167023,0.8069849193\Bq,0,3.6514696385,-2.4927117049,0.6157
 973711\Bq,0,3.5744330455,-2.535394682,0.9025786934\Bq,0,3.6771485028,-
 2.4784840459,0.520203597\Bq,0,3.5487541812,-2.549622341,0.9981724675\B
 q,0,3.7028273671,-2.4642563868,0.4246098229\Bq,0,3.5230753169,-2.56385
 ,1.0937662416\Bq,0,3.7285062314,-2.4500287278,0.3290160488\Bq,0,3.4973
 964525,-2.5780776591,1.1893600157\Bq,0,3.7541850958,-2.4358010688,0.23
 34222748\Bq,0,3.6257907742,-2.5069393639,0.7113911452\Bq,0,3.596420859
 3,-2.4221843289,0.8207254589\Bq,0,3.6477785879,-2.3937290109,0.6295379
 107\Bq,0,3.570741995,-2.4364119879,0.916319233\Bq,0,3.6734574523,-2.37
 95013518,0.5339441366\Bq,0,3.5450631306,-2.450639647,1.0119130071\Bq,0
 ,3.6991363166,-2.3652736928,0.4383503625\Bq,0,3.5193842663,-2.46486730
 6,1.1075067812\Bq,0,3.7248151809,-2.3510460338,0.3427565884\Bq,0,3.493
 705402,-2.479094965,1.2031005553\Bq,0,3.7504940452,-2.3368183748,0.247
 1628143\Bq,0,3.6220997236,-2.4079566699,0.7251316848\Bq,0,3.5927298088
 ,-2.3232016349,0.8344659984\Bq,0,3.6440875374,-2.2947463168,0.64327845
 02\Bq,0,3.5670509444,-2.3374292939,0.9300597725\Bq,0,3.6697664017,-2.2
 805186578,0.5476846762\Bq,0,3.5413720801,-2.3516569529,1.0256535466\Bq
 ,0,3.695445266,-2.2662909988,0.4520909021\Bq,0,3.5156932158,-2.3658846
 12,1.1212473207\Bq,0,3.7211241304,-2.2520633397,0.356497128\Bq,0,3.490
 0143515,-2.380112271,1.2168410948\Bq,0,3.7468029947,-2.2378356807,0.26
 09033539\Bq,0,3.6184086731,-2.3089739759,0.7388722243\Bq,0,3.589038758
 2,-2.2242189408,0.848206538\Bq,0,3.6403964869,-2.1957636228,0.65701898
 98\Bq,0,3.5633598939,-2.2384465999,0.9438003121\Bq,0,3.6660753512,-2.1
 815359638,0.5614252157\Bq,0,3.5376810296,-2.2526742589,1.0393940862\Bq
 ,0,3.6917542155,-2.1673083047,0.4658314416\Bq,0,3.5120021653,-2.266901
 9179,1.1349878603\Bq,0,3.7174330798,-2.1530806457,0.3702376675\Bq,0,3.
 4863233009,-2.281129577,1.2305816344\Bq,0,3.7431119442,-2.1388529867,0
 .2746438934\Bq,0,3.6147176225,-2.2099912818,0.7526127639\Bq,0,3.585347
 7077,-2.1252362468,0.8619470776\Bq,0,3.6367054363,-2.0967809288,0.6707
 595294\Bq,0,3.5596688434,-2.1394639058,0.9575408516\Bq,0,3.6623843007,
 -2.0825532697,0.5751657553\Bq,0,3.533989979,-2.1536915649,1.0531346257
 \Bq,0,3.688063165,-2.0683256107,0.4795719812\Bq,0,3.5083111147,-2.1679
 192239,1.1487283998\Bq,0,3.7137420293,-2.0540979517,0.3839782071\Bq,0,
 3.4826322504,-2.1821468829,1.2443221739\Bq,0,3.7394208936,-2.039870292
 6,0.288384433\Bq,0,3.611026572,-2.1110085878,0.7663533035\Bq,0,3.58165
 66572,-2.0262535528,0.8756876171\Bq,0,3.6330143858,-1.9977982347,0.684
 5000689\Bq,0,3.5559777928,-2.0404812118,0.9712813912\Bq,0,3.6586932501
 ,-1.9835705757,0.5889062948\Bq,0,3.5302989285,-2.0547088708,1.06687516
 53\Bq,0,3.6843721144,-1.9693429167,0.4933125207\Bq,0,3.5046200642,-2.0
 689365299,1.1624689394\Bq,0,3.7100509788,-1.9551152576,0.3977187466\Bq
 ,0,3.4789411999,-2.0831641889,1.2580627135\Bq,0,3.7357298431,-1.940887
 5986,0.3021249725\Bq,0,3.6073355215,-2.0120258937,0.780093843\Bq,0,3.5
 779656066,-1.9272708587,0.8894281567\Bq,0,3.6293233353,-1.8988155407,0
 .6982406085\Bq,0,3.5522867423,-1.9414985178,0.9850219308\Bq,0,3.655002
 1996,-1.8845878817,0.6026468344\Bq,0,3.526607878,-1.9557261768,1.08061
 57049\Bq,0,3.6806810639,-1.8703602226,0.5070530603\Bq,0,3.5009290136,-
 1.9699538358,1.176209479\Bq,0,3.7063599282,-1.8561325636,0.4114592862\
 Bq,0,3.4752501493,-1.9841814949,1.2718032531\Bq,0,3.7320387926,-1.8419
 049046,0.3158655121\Bq,0,3.6036444709,-1.9130431997,0.7938343826\Bq,0,
 3.5742745561,-1.8282881647,0.9031686962\Bq,0,3.6256322847,-1.799832846
 6,0.711981148\Bq,0,3.5485956918,-1.8425158237,0.9987624703\Bq,0,3.6513
 11149,-1.7856051876,0.6163873739\Bq,0,3.5229168274,-1.8567434828,1.094
 3562444\Bq,0,3.6769900134,-1.7713775286,0.5207935999\Bq,0,3.4972379631
 ,-1.8709711418,1.1899500185\Bq,0,3.7026688777,-1.7571498696,0.42519982
 58\Bq,0,3.4715590988,-1.8851988008,1.2855437926\Bq,0,3.728347742,-1.74
 29222105,0.3296060517\\Version=ES64L-G09RevD.01\HF=-847.0032898\RMSD=7
 .560e-09\Dipole=0.0186808,0.0336671,0.0011595\Quadrupole=4.9072795,4.7
 288219,-9.6361014,-0.2850201,2.3867064,-0.880172\PG=C01 [X(C22H14)]\\@


 A politician is a person who can make waves and then
 make you think he's the only one who can save the ship.
 -- Ivern Ball
 Job cpu time:       0 days  3 hours 58 minutes 27.7 seconds.
 File lengths (MBytes):  RWF=    184 Int=      0 D2E=      0 Chk=     19 Scr=      1
 Normal termination of Gaussian 09 at Sat Aug 22 20:40:39 2020.
