 Entering Gaussian System, Link 0=g09
 Input=input_cycle_02_batch_05400.com
 Output=input_cycle_02_batch_05400.log
 Initial command:
 /share/programs/GAUSSIAN/64/g09/l1.exe "/scratch/yannick.30069/Gau-2269115.inp" -scrdir="/scratch/yannick.30069/"
 Entering Link 1 = /share/programs/GAUSSIAN/64/g09/l1.exe PID=   2269116.
  
 Copyright (c) 1988,1990,1992,1993,1995,1998,2003,2009,2013,
            Gaussian, Inc.  All Rights Reserved.
  
 This is part of the Gaussian(R) 09 program.  It is based on
 the Gaussian(R) 03 system (copyright 2003, Gaussian, Inc.),
 the Gaussian(R) 98 system (copyright 1998, Gaussian, Inc.),
 the Gaussian(R) 94 system (copyright 1995, Gaussian, Inc.),
 the Gaussian 92(TM) system (copyright 1992, Gaussian, Inc.),
 the Gaussian 90(TM) system (copyright 1990, Gaussian, Inc.),
 the Gaussian 88(TM) system (copyright 1988, Gaussian, Inc.),
 the Gaussian 86(TM) system (copyright 1986, Carnegie Mellon
 University), and the Gaussian 82(TM) system (copyright 1983,
 Carnegie Mellon University). Gaussian is a federally registered
 trademark of Gaussian, Inc.
  
 This software contains proprietary and confidential information,
 including trade secrets, belonging to Gaussian, Inc.
  
 This software is provided under written license and may be
 used, copied, transmitted, or stored only in accord with that
 written license.
  
 The following legend is applicable only to US Government
 contracts under FAR:
  
                    RESTRICTED RIGHTS LEGEND
  
 Use, reproduction and disclosure by the US Government is
 subject to restrictions as set forth in subparagraphs (a)
 and (c) of the Commercial Computer Software - Restricted
 Rights clause in FAR 52.227-19.
  
 Gaussian, Inc.
 340 Quinnipiac St., Bldg. 40, Wallingford CT 06492
  
  
 ---------------------------------------------------------------
 Warning -- This program may not be used in any manner that
 competes with the business of Gaussian, Inc. or will provide
 assistance to any competitor of Gaussian, Inc.  The licensee
 of this program is prohibited from giving any competitor of
 Gaussian, Inc. access to this program.  By using this program,
 the user acknowledges that Gaussian, Inc. is engaged in the
 business of creating and licensing software in the field of
 computational chemistry and represents and warrants to the
 licensee that it is not a competitor of Gaussian, Inc. and that
 it will not use this program in any manner prohibited above.
 ---------------------------------------------------------------
  

 Cite this work as:
 Gaussian 09, Revision D.01,
 M. J. Frisch, G. W. Trucks, H. B. Schlegel, G. E. Scuseria, 
 M. A. Robb, J. R. Cheeseman, G. Scalmani, V. Barone, B. Mennucci, 
 G. A. Petersson, H. Nakatsuji, M. Caricato, X. Li, H. P. Hratchian, 
 A. F. Izmaylov, J. Bloino, G. Zheng, J. L. Sonnenberg, M. Hada, 
 M. Ehara, K. Toyota, R. Fukuda, J. Hasegawa, M. Ishida, T. Nakajima, 
 Y. Honda, O. Kitao, H. Nakai, T. Vreven, J. A. Montgomery, Jr., 
 J. E. Peralta, F. Ogliaro, M. Bearpark, J. J. Heyd, E. Brothers, 
 K. N. Kudin, V. N. Staroverov, T. Keith, R. Kobayashi, J. Normand, 
 K. Raghavachari, A. Rendell, J. C. Burant, S. S. Iyengar, J. Tomasi, 
 M. Cossi, N. Rega, J. M. Millam, M. Klene, J. E. Knox, J. B. Cross, 
 V. Bakken, C. Adamo, J. Jaramillo, R. Gomperts, R. E. Stratmann, 
 O. Yazyev, A. J. Austin, R. Cammi, C. Pomelli, J. W. Ochterski, 
 R. L. Martin, K. Morokuma, V. G. Zakrzewski, G. A. Voth, 
 P. Salvador, J. J. Dannenberg, S. Dapprich, A. D. Daniels, 
 O. Farkas, J. B. Foresman, J. V. Ortiz, J. Cioslowski, 
 and D. J. Fox, Gaussian, Inc., Wallingford CT, 2013.
 
 ******************************************
 Gaussian 09:  ES64L-G09RevD.01 24-Apr-2013
                21-Aug-2020 
 ******************************************
 %nproc=8
 Will use up to    8 processors via shared memory.
 %mem=1000MB
 ----------------------------------------
 # rb3lyp/6-311+g** NMR geom=connectivity
 ----------------------------------------
 1/38=1,57=2/1;
 2/12=2,17=6,18=5,40=1/2;
 3/5=4,6=6,7=111,11=2,16=1,25=1,30=1,74=-5,116=1/1,2,8,3;
 4//1;
 5/5=2,38=5/2;
 8/6=1,10=90,11=11/1;
 10/13=100,45=16/2;
 6/7=2,8=2,9=2,10=2,28=1/1;
 99/9=1/99;
 -----
 Title
 -----
 Symbolic Z-matrix:
 Charge =  0 Multiplicity = 1
 C                    -4.05006  -0.57719   0.81367 
 H                    -5.02638  -1.00827   1.00248 
 C                    -3.93816   0.66178   0.24009 
 H                    -4.82524   1.23389  -0.01113 
 C                    -2.67684   1.24332   0.00576 
 C                    -1.49741   0.50515   0.28483 
 C                    -1.65083  -0.73387   0.9404 
 H                    -0.77136  -1.2731    1.26338 
 C                    -2.88985  -1.2624    1.19943 
 H                    -2.96837  -2.21246   1.71527 
 C                    -2.57732   2.59637  -0.41929 
 H                    -3.48707   3.14122  -0.64741 
 C                    -1.37419   3.21479  -0.4364 
 H                    -1.29973   4.2742   -0.65781 
 C                    -0.17195   2.49941  -0.17346 
 C                    -0.20439   1.10184   0.01927 
 C                     1.05135   3.20426  -0.06762 
 H                     1.04273   4.28195  -0.1897 
 C                     2.19421   2.54874   0.25796 
 H                     3.11685   3.09128   0.43347 
 C                     2.22165   1.13366   0.2935 
 C                     1.04869   0.39455   0.03024 
 C                     3.44834   0.46146   0.55739 
 H                     4.30958   1.06061   0.83348 
 C                     3.54273  -0.88559   0.47495 
 H                     4.47315  -1.39397   0.70388 
 C                     2.44901  -1.64744  -0.01963 
 C                     1.21507  -1.00573  -0.30136 
 C                     0.25311  -1.74344  -1.02166 
 H                    -0.65414  -1.25351  -1.34628 
 C                     0.44942  -3.06286  -1.34138 
 H                    -0.30832  -3.59443  -1.90541 
 C                     1.62517  -3.7208   -0.95525 
 H                     1.767    -4.76874  -1.1927 
 C                     2.61099  -3.01442  -0.31831 
 H                     3.55256  -3.49028  -0.06464 
 Bq                   -3.00992   2.44179  -0.33048 
 Bq                   -3.02913   2.56453   0.15384 
 Bq                   -3.032     2.68602   0.22618 
 Bq                   -3.02432   2.63692   0.03245 
 Bq                   -3.03584   2.71057   0.32304 
 Bq                   -3.02048   2.61237  -0.06442 
 Bq                   -3.03969   2.73512   0.4199 
 Bq                   -3.01663   2.58783  -0.16128 
 Bq                   -3.04353   2.75967   0.51677 
 Bq                   -3.01279   2.56328  -0.25814 
 Bq                   -3.04737   2.78422   0.61363 
 Bq                   -3.00895   2.53873  -0.35501 
 Bq                   -3.02816   2.66147   0.12931 
 Bq                   -3.03103   2.78296   0.20165 
 Bq                   -3.02334   2.73386   0.00792 
 Bq                   -3.03487   2.80751   0.29851 
 Bq                   -3.0195    2.70931  -0.08895 
 Bq                   -3.03871   2.83206   0.39537 
 Bq                   -3.01566   2.68477  -0.18581 
 Bq                   -3.04255   2.85661   0.49224 
 Bq                   -3.01182   2.66022  -0.28267 
 Bq                   -3.0464    2.88116   0.5891 
 Bq                   -3.00798   2.63567  -0.37954 
 Bq                   -3.02719   2.75841   0.10478 
 Bq                   -3.03006   2.8799    0.17712 
 Bq                   -3.02237   2.8308   -0.01661 
 Bq                   -3.0339    2.90445   0.27398 
 Bq                   -3.01853   2.80625  -0.11348 
 Bq                   -3.03774   2.929     0.37084 
 Bq                   -3.01469   2.78171  -0.21034 
 Bq                   -3.04158   2.95355   0.46771 
 Bq                   -3.01085   2.75716  -0.3072 
 Bq                   -3.04542   2.9781    0.56457 
 Bq                   -3.007     2.73261  -0.40407 
 Bq                   -3.02621   2.85535   0.08025 
 Bq                   -3.02908   2.97684   0.15259 
 Bq                   -3.0214    2.92774  -0.04114 
 Bq                   -3.03292   3.00139   0.24945 
 Bq                   -3.01756   2.90319  -0.13801 
 Bq                   -3.03677   3.02594   0.34631 
 Bq                   -3.01371   2.87865  -0.23487 
 Bq                   -3.04061   3.05049   0.44318 
 Bq                   -3.00987   2.8541   -0.33173 
 Bq                   -3.04445   3.07504   0.54004 
 Bq                   -3.00603   2.82955  -0.4286 
 Bq                   -3.02524   2.95229   0.05572 
 Bq                   -3.02811   3.07378   0.12806 
 Bq                   -3.02043   3.02468  -0.06567 
 Bq                   -3.03195   3.09833   0.22492 
 Bq                   -3.01658   3.00013  -0.16254 
 Bq                   -3.03579   3.12288   0.32178 
 Bq                   -3.01274   2.97558  -0.2594 
 Bq                   -3.03964   3.14743   0.41865 
 Bq                   -3.0089    2.95104  -0.35626 
 Bq                   -3.04348   3.17198   0.51551 
 Bq                   -3.00506   2.92649  -0.45313 
 Bq                   -3.02427   3.04923   0.03119 
 Bq                   -3.02714   3.17072   0.10353 
 Bq                   -3.01945   3.12162  -0.0902 
 Bq                   -3.03098   3.19527   0.20039 
 Bq                   -3.01561   3.09707  -0.18707 
 Bq                   -3.03482   3.21982   0.29725 
 Bq                   -3.01177   3.07252  -0.28393 
 Bq                   -3.03866   3.24437   0.39412 
 Bq                   -3.00793   3.04798  -0.38079 
 Bq                   -3.0425    3.26892   0.49098 
 Bq                   -3.00408   3.02343  -0.47766 
 Bq                   -3.02329   3.14617   0.00666 
 Bq                   -3.02616   3.26766   0.079 
 Bq                   -3.01848   3.21856  -0.11473 
 Bq                   -3.03001   3.29221   0.17586 
 Bq                   -3.01464   3.19401  -0.2116 
 Bq                   -3.03385   3.31676   0.27272 
 Bq                   -3.0108    3.16946  -0.30846 
 Bq                   -3.03769   3.34131   0.36959 
 Bq                   -3.00695   3.14492  -0.40532 
 Bq                   -3.04153   3.36586   0.46645 
 Bq                   -3.00311   3.12037  -0.50219 
 Bq                   -3.02232   3.24311  -0.01787 
 Bq                   -3.02519   3.3646    0.05447 
 Bq                   -3.01751   3.3155   -0.13926 
 Bq                   -3.02903   3.38915   0.15133 
 Bq                   -3.01366   3.29095  -0.23613 
 Bq                   -3.03287   3.4137    0.24819 
 Bq                   -3.00982   3.2664   -0.33299 
 Bq                   -3.03672   3.43825   0.34506 
 Bq                   -3.00598   3.24186  -0.42985 
 Bq                   -3.04056   3.4628    0.44192 
 Bq                   -3.00214   3.21731  -0.52672 
 Bq                   -3.02135   3.34005  -0.0424 
 Bq                   -3.02422   3.46154   0.02994 
 Bq                   -3.01653   3.41244  -0.16379 
 Bq                   -3.02806   3.48609   0.1268 
 Bq                   -3.01269   3.38789  -0.26066 
 Bq                   -3.0319    3.51064   0.22366 
 Bq                   -3.00885   3.36334  -0.35752 
 Bq                   -3.03574   3.53519   0.32053 
 Bq                   -3.00501   3.33879  -0.45438 
 Bq                   -3.03959   3.55974   0.41739 
 Bq                   -3.00117   3.31425  -0.55125 
 Bq                   -3.02038   3.43699  -0.06693 
 Bq                   -3.02324   3.55848   0.00541 
 Bq                   -3.01556   3.50938  -0.18832 
 Bq                   -3.02709   3.58303   0.10227 
 Bq                   -3.01172   3.48483  -0.28519 
 Bq                   -3.03093   3.60758   0.19913 
 Bq                   -3.00788   3.46028  -0.38205 
 Bq                   -3.03477   3.63213   0.296 
 Bq                   -3.00403   3.43573  -0.47891 
 Bq                   -3.03861   3.65668   0.39286 
 Bq                   -3.00019   3.41119  -0.57578 
 Bq                   -3.0194    3.53393  -0.09146 
 Bq                   -3.02227   3.65542  -0.01912 
 Bq                   -3.01459   3.60632  -0.21285 
 Bq                   -3.02611   3.67997   0.07774 
 Bq                   -3.01075   3.58177  -0.30972 
 Bq                   -3.02996   3.70452   0.1746 
 Bq                   -3.0069    3.55722  -0.40658 
 Bq                   -3.0338    3.72907   0.27147 
 Bq                   -3.00306   3.53267  -0.50344 
 Bq                   -3.03764   3.75362   0.36833 
 Bq                   -2.99922   3.50813  -0.60031 
 Bq                   -3.01843   3.63087  -0.11599 
 Bq                   -3.0213    3.75236  -0.04365 
 Bq                   -3.01361   3.70326  -0.23738 
 Bq                   -3.02514   3.77691   0.05321 
 Bq                   -3.00977   3.67871  -0.33425 
 Bq                   -3.02898   3.80146   0.15007 
 Bq                   -3.00593   3.65416  -0.43111 
 Bq                   -3.03282   3.82601   0.24694 
 Bq                   -3.00209   3.62961  -0.52797 
 Bq                   -3.03667   3.85056   0.3438 
 Bq                   -2.99825   3.60507  -0.62484 
 Bq                   -3.01746   3.72781  -0.14052 
 Bq                   -3.02033   3.8493   -0.06818 
 Bq                   -3.01264   3.8002   -0.26191 
 Bq                   -3.02417   3.87385   0.02868 
 Bq                   -3.0088    3.77565  -0.35878 
 Bq                   -3.02801   3.8984    0.12554 
 Bq                   -3.00496   3.7511   -0.45564 
 Bq                   -3.03185   3.92295   0.22241 
 Bq                   -3.00112   3.72655  -0.5525 
 Bq                   -3.03569   3.9475    0.31927 
 Bq                   -2.99727   3.70201  -0.64937 
 Bq                   -3.01648   3.82475  -0.16505 
 Bq                   -3.01935   3.94624  -0.09271 
 Bq                   -3.01167   3.89714  -0.28644 
 Bq                   -3.02319   3.97079   0.00415 
 Bq                   -3.00783   3.87259  -0.38331 
 Bq                   -3.02704   3.99534   0.10101 
 Bq                   -3.00398   3.84804  -0.48017 
 Bq                   -3.03088   4.01989   0.19788 
 Bq                   -3.00014   3.82349  -0.57703 
 Bq                   -3.03472   4.04444   0.29474 
 Bq                   -2.9963    3.79894  -0.6739 
 Bq                   -3.01551   3.92169  -0.18958 
 Bq                   -3.01838   4.04318  -0.11724 
 Bq                   -3.0107    3.99408  -0.31097 
 Bq                   -3.02222   4.06773  -0.02038 
 Bq                   -3.00685   3.96953  -0.40784 
 Bq                   -3.02606   4.09228   0.07648 
 Bq                   -3.00301   3.94498  -0.5047 
 Bq                   -3.02991   4.11683   0.17335 
 Bq                   -2.99917   3.92043  -0.60156 
 Bq                   -3.03375   4.14138   0.27021 
 Bq                   -2.99533   3.89588  -0.69843 
 Bq                   -3.01454   4.01863  -0.21411 
 Bq                   -3.01741   4.14012  -0.14177 
 Bq                   -3.00972   4.09102  -0.3355 
 Bq                   -3.02125   4.16467  -0.04491 
 Bq                   -3.00588   4.06647  -0.43237 
 Bq                   -3.02509   4.18922   0.05195 
 Bq                   -3.00204   4.04192  -0.52923 
 Bq                   -3.02893   4.21377   0.14882 
 Bq                   -2.9982    4.01737  -0.62609 
 Bq                   -3.03277   4.23832   0.24568 
 Bq                   -2.99435   3.99282  -0.72296 
 Bq                   -3.01356   4.11557  -0.23864 
 Bq                   -3.01643   4.23706  -0.1663 
 Bq                   -3.00875   4.18796  -0.36003 
 Bq                   -3.02028   4.26161  -0.06944 
 Bq                   -3.00491   4.16341  -0.4569 
 Bq                   -3.02412   4.28616   0.02742 
 Bq                   -3.00107   4.13886  -0.55376 
 Bq                   -3.02796   4.31071   0.12429 
 Bq                   -2.99722   4.11431  -0.65062 
 Bq                   -3.0318    4.33526   0.22115 
 Bq                   -2.99338   4.08976  -0.74749 
 Bq                   -3.01259   4.21251  -0.26317 
 Bq                   -3.01546   4.334    -0.19083 
 Bq                   -3.00778   4.2849   -0.38456 
 Bq                   -3.0193    4.35855  -0.09397 
 Bq                   -3.00393   4.26035  -0.48143 
 Bq                   -3.02314   4.3831    0.00289 
 Bq                   -3.00009   4.2358   -0.57829 
 Bq                   -3.02699   4.40765   0.09976 
 Bq                   -2.99625   4.21125  -0.67515 
 Bq                   -3.03083   4.4322    0.19662 
 Bq                   -2.99241   4.1867   -0.77202 
 Bq                   -3.01162   4.30945  -0.2877 
 
 Symmetry turned off:
 Cannot cope with ghost atoms or with translation vectors.
 Stoichiometry    C22H14
 Framework group  C1[X(C22H14)]
 NUMDOF-- NAT=    36 NAtoms=   236
 Deg. of freedom     0
 Full point group                 C1      NOp   1
                          Input orientation:                          
 ---------------------------------------------------------------------
 Center     Atomic      Atomic             Coordinates (Angstroms)
 Number     Number       Type             X           Y           Z
 ---------------------------------------------------------------------
      1          6           0       -4.050056   -0.577186    0.813671
      2          1           0       -5.026380   -1.008273    1.002476
      3          6           0       -3.938155    0.661780    0.240088
      4          1           0       -4.825242    1.233889   -0.011130
      5          6           0       -2.676841    1.243325    0.005758
      6          6           0       -1.497412    0.505153    0.284825
      7          6           0       -1.650833   -0.733873    0.940403
      8          1           0       -0.771365   -1.273097    1.263375
      9          6           0       -2.889855   -1.262404    1.199431
     10          1           0       -2.968371   -2.212456    1.715268
     11          6           0       -2.577319    2.596370   -0.419293
     12          1           0       -3.487073    3.141224   -0.647406
     13          6           0       -1.374190    3.214790   -0.436403
     14          1           0       -1.299732    4.274202   -0.657814
     15          6           0       -0.171949    2.499409   -0.173459
     16          6           0       -0.204392    1.101844    0.019269
     17          6           0        1.051349    3.204256   -0.067622
     18          1           0        1.042734    4.281950   -0.189700
     19          6           0        2.194209    2.548745    0.257958
     20          1           0        3.116853    3.091285    0.433473
     21          6           0        2.221647    1.133656    0.293499
     22          6           0        1.048693    0.394553    0.030241
     23          6           0        3.448336    0.461463    0.557394
     24          1           0        4.309579    1.060605    0.833485
     25          6           0        3.542735   -0.885593    0.474946
     26          1           0        4.473147   -1.393970    0.703882
     27          6           0        2.449005   -1.647445   -0.019632
     28          6           0        1.215070   -1.005726   -0.301357
     29          6           0        0.253111   -1.743444   -1.021659
     30          1           0       -0.654136   -1.253505   -1.346285
     31          6           0        0.449419   -3.062860   -1.341378
     32          1           0       -0.308316   -3.594431   -1.905406
     33          6           0        1.625173   -3.720797   -0.955254
     34          1           0        1.767005   -4.768740   -1.192702
     35          6           0        2.610987   -3.014418   -0.318305
     36          1           0        3.552561   -3.490281   -0.064637
     37          0           0       -3.009922    2.441787   -0.330476
     38          0           0       -3.029132    2.564534    0.153842
     39          0           0       -3.032001    2.686023    0.226176
     40          0           0       -3.024317    2.636924    0.032448
     41          0           0       -3.035843    2.710572    0.323039
     42          0           0       -3.020475    2.612375   -0.064415
     43          0           0       -3.039685    2.735122    0.419903
     44          0           0       -3.016633    2.587826   -0.161279
     45          0           0       -3.043527    2.759671    0.516767
     46          0           0       -3.012791    2.563276   -0.258143
     47          0           0       -3.047369    2.784220    0.613630
     48          0           0       -3.008949    2.538727   -0.355006
     49          0           0       -3.028159    2.661474    0.129312
     50          0           0       -3.031028    2.782963    0.201646
     51          0           0       -3.023344    2.733864    0.007918
     52          0           0       -3.034870    2.807512    0.298509
     53          0           0       -3.019502    2.709315   -0.088945
     54          0           0       -3.038712    2.832061    0.395373
     55          0           0       -3.015660    2.684765   -0.185809
     56          0           0       -3.042554    2.856611    0.492237
     57          0           0       -3.011818    2.660216   -0.282673
     58          0           0       -3.046396    2.881160    0.589100
     59          0           0       -3.007976    2.635667   -0.379536
     60          0           0       -3.027186    2.758413    0.104782
     61          0           0       -3.030055    2.879903    0.177116
     62          0           0       -3.022371    2.830804   -0.016612
     63          0           0       -3.033897    2.904452    0.273979
     64          0           0       -3.018529    2.806255   -0.113475
     65          0           0       -3.037739    2.929001    0.370843
     66          0           0       -3.014687    2.781705   -0.210339
     67          0           0       -3.041581    2.953551    0.467707
     68          0           0       -3.010845    2.757156   -0.307203
     69          0           0       -3.045423    2.978100    0.564570
     70          0           0       -3.007003    2.732607   -0.404066
     71          0           0       -3.026213    2.855353    0.080252
     72          0           0       -3.029082    2.976842    0.152586
     73          0           0       -3.021398    2.927744   -0.041142
     74          0           0       -3.032924    3.001392    0.249449
     75          0           0       -3.017556    2.903194   -0.138005
     76          0           0       -3.036766    3.025941    0.346313
     77          0           0       -3.013714    2.878645   -0.234869
     78          0           0       -3.040608    3.050490    0.443177
     79          0           0       -3.009872    2.854096   -0.331733
     80          0           0       -3.044450    3.075040    0.540040
     81          0           0       -3.006030    2.829547   -0.428596
     82          0           0       -3.025240    2.952293    0.055722
     83          0           0       -3.028109    3.073782    0.128056
     84          0           0       -3.020425    3.024684   -0.065672
     85          0           0       -3.031951    3.098332    0.224919
     86          0           0       -3.016583    3.000134   -0.162535
     87          0           0       -3.035793    3.122881    0.321783
     88          0           0       -3.012741    2.975585   -0.259399
     89          0           0       -3.039635    3.147430    0.418647
     90          0           0       -3.008899    2.951036   -0.356263
     91          0           0       -3.043477    3.171980    0.515510
     92          0           0       -3.005057    2.926486   -0.453126
     93          0           0       -3.024267    3.049233    0.031192
     94          0           0       -3.027136    3.170722    0.103526
     95          0           0       -3.019452    3.121623   -0.090202
     96          0           0       -3.030978    3.195271    0.200389
     97          0           0       -3.015610    3.097074   -0.187065
     98          0           0       -3.034820    3.219821    0.297253
     99          0           0       -3.011768    3.072525   -0.283929
    100          0           0       -3.038662    3.244370    0.394117
    101          0           0       -3.007926    3.047976   -0.380793
    102          0           0       -3.042504    3.268919    0.490980
    103          0           0       -3.004084    3.023426   -0.477656
    104          0           0       -3.023294    3.146173    0.006662
    105          0           0       -3.026163    3.267662    0.078996
    106          0           0       -3.018479    3.218563   -0.114732
    107          0           0       -3.030005    3.292211    0.175859
    108          0           0       -3.014637    3.194014   -0.211595
    109          0           0       -3.033847    3.316761    0.272723
    110          0           0       -3.010795    3.169465   -0.308459
    111          0           0       -3.037689    3.341310    0.369587
    112          0           0       -3.006953    3.144915   -0.405323
    113          0           0       -3.041531    3.365859    0.466450
    114          0           0       -3.003111    3.120366   -0.502186
    115          0           0       -3.022321    3.243113   -0.017868
    116          0           0       -3.025190    3.364602    0.054466
    117          0           0       -3.017506    3.315503   -0.139262
    118          0           0       -3.029032    3.389151    0.151329
    119          0           0       -3.013664    3.290954   -0.236125
    120          0           0       -3.032874    3.413700    0.248193
    121          0           0       -3.009822    3.266404   -0.332989
    122          0           0       -3.036716    3.438250    0.345057
    123          0           0       -3.005980    3.241855   -0.429853
    124          0           0       -3.040558    3.462799    0.441920
    125          0           0       -3.002138    3.217306   -0.526716
    126          0           0       -3.021348    3.340052   -0.042398
    127          0           0       -3.024217    3.461542    0.029936
    128          0           0       -3.016533    3.412443   -0.163792
    129          0           0       -3.028059    3.486091    0.126799
    130          0           0       -3.012691    3.387894   -0.260655
    131          0           0       -3.031901    3.510640    0.223663
    132          0           0       -3.008849    3.363344   -0.357519
    133          0           0       -3.035743    3.535190    0.320527
    134          0           0       -3.005008    3.338795   -0.454383
    135          0           0       -3.039585    3.559739    0.417390
    136          0           0       -3.001166    3.314246   -0.551246
    137          0           0       -3.020375    3.436992   -0.066928
    138          0           0       -3.023244    3.558481    0.005406
    139          0           0       -3.015561    3.509383   -0.188322
    140          0           0       -3.027086    3.583031    0.102269
    141          0           0       -3.011719    3.484833   -0.285185
    142          0           0       -3.030928    3.607580    0.199133
    143          0           0       -3.007877    3.460284   -0.382049
    144          0           0       -3.034770    3.632129    0.295997
    145          0           0       -3.004035    3.435735   -0.478913
    146          0           0       -3.038612    3.656679    0.392860
    147          0           0       -3.000193    3.411186   -0.575776
    148          0           0       -3.019402    3.533932   -0.091458
    149          0           0       -3.022272    3.655421   -0.019125
    150          0           0       -3.014588    3.606323   -0.212852
    151          0           0       -3.026113    3.679971    0.077739
    152          0           0       -3.010746    3.581773   -0.309716
    153          0           0       -3.029955    3.704520    0.174603
    154          0           0       -3.006904    3.557224   -0.406579
    155          0           0       -3.033797    3.729069    0.271466
    156          0           0       -3.003062    3.532675   -0.503443
    157          0           0       -3.037639    3.753619    0.368330
    158          0           0       -2.999220    3.508125   -0.600307
    159          0           0       -3.018430    3.630872   -0.115988
    160          0           0       -3.021299    3.752361   -0.043655
    161          0           0       -3.013615    3.703262   -0.237382
    162          0           0       -3.025141    3.776910    0.053209
    163          0           0       -3.009773    3.678713   -0.334246
    164          0           0       -3.028983    3.801460    0.150073
    165          0           0       -3.005931    3.654164   -0.431109
    166          0           0       -3.032824    3.826009    0.246936
    167          0           0       -3.002089    3.629614   -0.527973
    168          0           0       -3.036666    3.850558    0.343800
    169          0           0       -2.998247    3.605065   -0.624837
    170          0           0       -3.017457    3.727812   -0.140518
    171          0           0       -3.020326    3.849301   -0.068185
    172          0           0       -3.012642    3.800202   -0.261912
    173          0           0       -3.024168    3.873850    0.028679
    174          0           0       -3.008800    3.775653   -0.358776
    175          0           0       -3.028010    3.898400    0.125543
    176          0           0       -3.004958    3.751104   -0.455639
    177          0           0       -3.031852    3.922949    0.222406
    178          0           0       -3.001116    3.726554   -0.552503
    179          0           0       -3.035694    3.947498    0.319270
    180          0           0       -2.997274    3.702005   -0.649367
    181          0           0       -3.016484    3.824752   -0.165048
    182          0           0       -3.019353    3.946241   -0.092715
    183          0           0       -3.011669    3.897142   -0.286442
    184          0           0       -3.023195    3.970790    0.004149
    185          0           0       -3.007827    3.872593   -0.383306
    186          0           0       -3.027037    3.995339    0.101013
    187          0           0       -3.003985    3.848043   -0.480169
    188          0           0       -3.030879    4.019889    0.197876
    189          0           0       -3.000143    3.823494   -0.577033
    190          0           0       -3.034721    4.044438    0.294740
    191          0           0       -2.996301    3.798945   -0.673897
    192          0           0       -3.015511    3.921691   -0.189578
    193          0           0       -3.018380    4.043181   -0.117245
    194          0           0       -3.010696    3.994082   -0.310972
    195          0           0       -3.022222    4.067730   -0.020381
    196          0           0       -3.006854    3.969533   -0.407836
    197          0           0       -3.026064    4.092279    0.076483
    198          0           0       -3.003012    3.944983   -0.504699
    199          0           0       -3.029906    4.116829    0.173346
    200          0           0       -2.999170    3.920434   -0.601563
    201          0           0       -3.033748    4.141378    0.270210
    202          0           0       -2.995328    3.895885   -0.698427
    203          0           0       -3.014538    4.018631   -0.214108
    204          0           0       -3.017407    4.140120   -0.141775
    205          0           0       -3.009723    4.091022   -0.335502
    206          0           0       -3.021249    4.164670   -0.044911
    207          0           0       -3.005881    4.066472   -0.432366
    208          0           0       -3.025091    4.189219    0.051953
    209          0           0       -3.002039    4.041923   -0.529229
    210          0           0       -3.028933    4.213768    0.148816
    211          0           0       -2.998197    4.017374   -0.626093
    212          0           0       -3.032775    4.238318    0.245680
    213          0           0       -2.994355    3.992825   -0.722957
    214          0           0       -3.013565    4.115571   -0.238638
    215          0           0       -3.016434    4.237060   -0.166305
    216          0           0       -3.008750    4.187962   -0.360032
    217          0           0       -3.020276    4.261610   -0.069441
    218          0           0       -3.004908    4.163412   -0.456896
    219          0           0       -3.024118    4.286159    0.027423
    220          0           0       -3.001066    4.138863   -0.553759
    221          0           0       -3.027960    4.310708    0.124286
    222          0           0       -2.997224    4.114314   -0.650623
    223          0           0       -3.031802    4.335258    0.221150
    224          0           0       -2.993382    4.089764   -0.747487
    225          0           0       -3.012592    4.212511   -0.263168
    226          0           0       -3.015461    4.334000   -0.190835
    227          0           0       -3.007777    4.284901   -0.384562
    228          0           0       -3.019303    4.358549   -0.093971
    229          0           0       -3.003935    4.260352   -0.481426
    230          0           0       -3.023145    4.383099    0.002893
    231          0           0       -3.000093    4.235803   -0.578289
    232          0           0       -3.026987    4.407648    0.099756
    233          0           0       -2.996251    4.211253   -0.675153
    234          0           0       -3.030829    4.432197    0.196620
    235          0           0       -2.992409    4.186704   -0.772017
    236          0           0       -3.011619    4.309451   -0.287698
 ---------------------------------------------------------------------
 Rotational constants (GHZ):      0.4529074      0.2836956      0.1879557
 Standard basis: 6-311+G(d,p) (5D, 7F)
 Warning:  center  37 has no basis functions!
 Warning:  center  38 has no basis functions!
 Warning:  center  39 has no basis functions!
 Warning:  center  40 has no basis functions!
 Warning:  center  41 has no basis functions!
 Warning:  center  42 has no basis functions!
 Warning:  center  43 has no basis functions!
 Warning:  center  44 has no basis functions!
 Warning:  center  45 has no basis functions!
 Warning:  center  46 has no basis functions!
 Warning:  center  47 has no basis functions!
 Warning:  center  48 has no basis functions!
 Warning:  center  49 has no basis functions!
 Warning:  center  50 has no basis functions!
 Warning:  center  51 has no basis functions!
 Warning:  center  52 has no basis functions!
 Warning:  center  53 has no basis functions!
 Warning:  center  54 has no basis functions!
 Warning:  center  55 has no basis functions!
 Warning:  center  56 has no basis functions!
 Warning:  center  57 has no basis functions!
 Warning:  center  58 has no basis functions!
 Warning:  center  59 has no basis functions!
 Warning:  center  60 has no basis functions!
 Warning:  center  61 has no basis functions!
 Warning:  center  62 has no basis functions!
 Warning:  center  63 has no basis functions!
 Warning:  center  64 has no basis functions!
 Warning:  center  65 has no basis functions!
 Warning:  center  66 has no basis functions!
 Warning:  center  67 has no basis functions!
 Warning:  center  68 has no basis functions!
 Warning:  center  69 has no basis functions!
 Warning:  center  70 has no basis functions!
 Warning:  center  71 has no basis functions!
 Warning:  center  72 has no basis functions!
 Warning:  center  73 has no basis functions!
 Warning:  center  74 has no basis functions!
 Warning:  center  75 has no basis functions!
 Warning:  center  76 has no basis functions!
 Warning:  center  77 has no basis functions!
 Warning:  center  78 has no basis functions!
 Warning:  center  79 has no basis functions!
 Warning:  center  80 has no basis functions!
 Warning:  center  81 has no basis functions!
 Warning:  center  82 has no basis functions!
 Warning:  center  83 has no basis functions!
 Warning:  center  84 has no basis functions!
 Warning:  center  85 has no basis functions!
 Warning:  center  86 has no basis functions!
 Warning:  center  87 has no basis functions!
 Warning:  center  88 has no basis functions!
 Warning:  center  89 has no basis functions!
 Warning:  center  90 has no basis functions!
 Warning:  center  91 has no basis functions!
 Warning:  center  92 has no basis functions!
 Warning:  center  93 has no basis functions!
 Warning:  center  94 has no basis functions!
 Warning:  center  95 has no basis functions!
 Warning:  center  96 has no basis functions!
 Warning:  center  97 has no basis functions!
 Warning:  center  98 has no basis functions!
 Warning:  center  99 has no basis functions!
 Warning:  center 100 has no basis functions!
 Warning:  center 101 has no basis functions!
 Warning:  center 102 has no basis functions!
 Warning:  center 103 has no basis functions!
 Warning:  center 104 has no basis functions!
 Warning:  center 105 has no basis functions!
 Warning:  center 106 has no basis functions!
 Warning:  center 107 has no basis functions!
 Warning:  center 108 has no basis functions!
 Warning:  center 109 has no basis functions!
 Warning:  center 110 has no basis functions!
 Warning:  center 111 has no basis functions!
 Warning:  center 112 has no basis functions!
 Warning:  center 113 has no basis functions!
 Warning:  center 114 has no basis functions!
 Warning:  center 115 has no basis functions!
 Warning:  center 116 has no basis functions!
 Warning:  center 117 has no basis functions!
 Warning:  center 118 has no basis functions!
 Warning:  center 119 has no basis functions!
 Warning:  center 120 has no basis functions!
 Warning:  center 121 has no basis functions!
 Warning:  center 122 has no basis functions!
 Warning:  center 123 has no basis functions!
 Warning:  center 124 has no basis functions!
 Warning:  center 125 has no basis functions!
 Warning:  center 126 has no basis functions!
 Warning:  center 127 has no basis functions!
 Warning:  center 128 has no basis functions!
 Warning:  center 129 has no basis functions!
 Warning:  center 130 has no basis functions!
 Warning:  center 131 has no basis functions!
 Warning:  center 132 has no basis functions!
 Warning:  center 133 has no basis functions!
 Warning:  center 134 has no basis functions!
 Warning:  center 135 has no basis functions!
 Warning:  center 136 has no basis functions!
 Warning:  center 137 has no basis functions!
 Warning:  center 138 has no basis functions!
 Warning:  center 139 has no basis functions!
 Warning:  center 140 has no basis functions!
 Warning:  center 141 has no basis functions!
 Warning:  center 142 has no basis functions!
 Warning:  center 143 has no basis functions!
 Warning:  center 144 has no basis functions!
 Warning:  center 145 has no basis functions!
 Warning:  center 146 has no basis functions!
 Warning:  center 147 has no basis functions!
 Warning:  center 148 has no basis functions!
 Warning:  center 149 has no basis functions!
 Warning:  center 150 has no basis functions!
 Warning:  center 151 has no basis functions!
 Warning:  center 152 has no basis functions!
 Warning:  center 153 has no basis functions!
 Warning:  center 154 has no basis functions!
 Warning:  center 155 has no basis functions!
 Warning:  center 156 has no basis functions!
 Warning:  center 157 has no basis functions!
 Warning:  center 158 has no basis functions!
 Warning:  center 159 has no basis functions!
 Warning:  center 160 has no basis functions!
 Warning:  center 161 has no basis functions!
 Warning:  center 162 has no basis functions!
 Warning:  center 163 has no basis functions!
 Warning:  center 164 has no basis functions!
 Warning:  center 165 has no basis functions!
 Warning:  center 166 has no basis functions!
 Warning:  center 167 has no basis functions!
 Warning:  center 168 has no basis functions!
 Warning:  center 169 has no basis functions!
 Warning:  center 170 has no basis functions!
 Warning:  center 171 has no basis functions!
 Warning:  center 172 has no basis functions!
 Warning:  center 173 has no basis functions!
 Warning:  center 174 has no basis functions!
 Warning:  center 175 has no basis functions!
 Warning:  center 176 has no basis functions!
 Warning:  center 177 has no basis functions!
 Warning:  center 178 has no basis functions!
 Warning:  center 179 has no basis functions!
 Warning:  center 180 has no basis functions!
 Warning:  center 181 has no basis functions!
 Warning:  center 182 has no basis functions!
 Warning:  center 183 has no basis functions!
 Warning:  center 184 has no basis functions!
 Warning:  center 185 has no basis functions!
 Warning:  center 186 has no basis functions!
 Warning:  center 187 has no basis functions!
 Warning:  center 188 has no basis functions!
 Warning:  center 189 has no basis functions!
 Warning:  center 190 has no basis functions!
 Warning:  center 191 has no basis functions!
 Warning:  center 192 has no basis functions!
 Warning:  center 193 has no basis functions!
 Warning:  center 194 has no basis functions!
 Warning:  center 195 has no basis functions!
 Warning:  center 196 has no basis functions!
 Warning:  center 197 has no basis functions!
 Warning:  center 198 has no basis functions!
 Warning:  center 199 has no basis functions!
 Warning:  center 200 has no basis functions!
 Warning:  center 201 has no basis functions!
 Warning:  center 202 has no basis functions!
 Warning:  center 203 has no basis functions!
 Warning:  center 204 has no basis functions!
 Warning:  center 205 has no basis functions!
 Warning:  center 206 has no basis functions!
 Warning:  center 207 has no basis functions!
 Warning:  center 208 has no basis functions!
 Warning:  center 209 has no basis functions!
 Warning:  center 210 has no basis functions!
 Warning:  center 211 has no basis functions!
 Warning:  center 212 has no basis functions!
 Warning:  center 213 has no basis functions!
 Warning:  center 214 has no basis functions!
 Warning:  center 215 has no basis functions!
 Warning:  center 216 has no basis functions!
 Warning:  center 217 has no basis functions!
 Warning:  center 218 has no basis functions!
 Warning:  center 219 has no basis functions!
 Warning:  center 220 has no basis functions!
 Warning:  center 221 has no basis functions!
 Warning:  center 222 has no basis functions!
 Warning:  center 223 has no basis functions!
 Warning:  center 224 has no basis functions!
 Warning:  center 225 has no basis functions!
 Warning:  center 226 has no basis functions!
 Warning:  center 227 has no basis functions!
 Warning:  center 228 has no basis functions!
 Warning:  center 229 has no basis functions!
 Warning:  center 230 has no basis functions!
 Warning:  center 231 has no basis functions!
 Warning:  center 232 has no basis functions!
 Warning:  center 233 has no basis functions!
 Warning:  center 234 has no basis functions!
 Warning:  center 235 has no basis functions!
 Warning:  center 236 has no basis functions!
   568 basis functions,   904 primitive gaussians,   590 cartesian basis functions
    73 alpha electrons       73 beta electrons
       nuclear repulsion energy      1610.9176155625 Hartrees.
 NAtoms=  236 NActive=  236 NUniq=  236 SFac= 1.00D+00 NAtFMM=   60 NAOKFM=T Big=T
 Integral buffers will be    131072 words long.
 Raffenetti 2 integral format.
 Two-electron integral symmetry is turned off.
 One-electron integrals computed using PRISM.
 NBasis=   568 RedAO= T EigKep=  1.78D-06  NBF=   568
 NBsUse=   556 1.00D-06 EigRej=  9.09D-07 NBFU=   556
 ExpMin= 4.38D-02 ExpMax= 4.56D+03 ExpMxC= 6.82D+02 IAcc=2 IRadAn=         4 AccDes= 0.00D+00
 Harris functional with IExCor=  402 and IRadAn=       4 diagonalized for initial guess.
 HarFok:  IExCor=  402 AccDes= 0.00D+00 IRadAn=         4 IDoV= 1 UseB2=F ITyADJ=14
 ICtDFT=  3500011 ScaDFX=  1.000000  1.000000  1.000000  1.000000
 FoFCou: FMM=F IPFlag=           0 FMFlag=      100000 FMFlg1=        2001
         NFxFlg=           0 DoJE=T BraDBF=F KetDBF=T FulRan=T
         wScrn=  0.000000 ICntrl=     500 IOpCl=  0 I1Cent=   200000004 NGrid=           0
         NMat0=    1 NMatS0=      1 NMatT0=    0 NMatD0=    1 NMtDS0=    0 NMtDT0=    0
 Symmetry not used in FoFCou.
 Requested convergence on RMS density matrix=1.00D-08 within 128 cycles.
 Requested convergence on MAX density matrix=1.00D-06.
 Requested convergence on             energy=1.00D-06.
 No special actions if energy rises.
 SCF Done:  E(RB3LYP) =  -847.003289847     A.U. after   15 cycles
            NFock= 15  Conv=0.75D-08     -V/T= 2.0040
 DoSCS=F DFT=T ScalE2(SS,OS)=  1.000000  1.000000
 Range of M.O.s used for correlation:     1   556
 NBasis=   568 NAE=    73 NBE=    73 NFC=     0 NFV=     0
 NROrb=    556 NOA=    73 NOB=    73 NVA=   483 NVB=   483

 **** Warning!!: The largest alpha MO coefficient is  0.10971037D+03

          Differentiating once with respect to magnetic field using GIAOs.
          Electric field/nuclear overlap derivatives assumed to be zero.
 FoFCou: FMM=F IPFlag=           0 FMFlag=      100000 FMFlg1=        2001
         NFxFlg=           0 DoJE=F BraDBF=F KetDBF=T FulRan=T
         wScrn=  0.000000 ICntrl=    6100 IOpCl=  0 I1Cent=           7 NGrid=         236
         NMat0=    1 NMatS0=      1 NMatT0=    0 NMatD0=    1 NMtDS0=    0 NMtDT0=    0
 Symmetry not used in FoFCou.
 FoFJK:  IHMeth= 1 ICntrl=    6127 DoSepK=F KAlg= 0 I1Cent=   0 FoldK=F
 IRaf=         1 NMat=   1 IRICut=       1 DoRegI=T DoRafI=F ISym2E= 0.
          There are     3 degrees of freedom in the 1st order CPHF.  IDoFFX=0 NUNeed=     3.
      3 vectors produced by pass  0 Test12= 1.18D-12 3.33D-08 XBig12= 2.07D+03 9.18D+00.
 AX will form     3 AO Fock derivatives at one time.
      3 vectors produced by pass  1 Test12= 1.18D-12 3.33D-08 XBig12= 3.56D+00 8.03D-01.
      3 vectors produced by pass  2 Test12= 1.18D-12 3.33D-08 XBig12= 2.10D-02 6.92D-02.
      3 vectors produced by pass  3 Test12= 1.18D-12 3.33D-08 XBig12= 5.45D-05 1.89D-03.
      3 vectors produced by pass  4 Test12= 1.18D-12 3.33D-08 XBig12= 1.20D-07 7.79D-05.
      3 vectors produced by pass  5 Test12= 1.18D-12 3.33D-08 XBig12= 4.02D-10 4.73D-06.
      3 vectors produced by pass  6 Test12= 1.18D-12 3.33D-08 XBig12= 1.32D-12 2.61D-07.
 InvSVY:  IOpt=1 It=  1 EMax= 7.11D-15
 Solved reduced A of dimension    21 with     3 vectors.
 Calculating GIAO nuclear magnetic shielding tensors.
 SCF GIAO Magnetic shielding tensor (ppm):
      1  C    Isotropic =    53.8139   Anisotropy =   178.0260
   XX=   -41.4327   YX=   -32.3458   ZX=    10.0287
   XY=   -28.3572   YY=    59.0527   ZY=    55.1899
   XZ=    13.1759   YZ=    58.7550   ZZ=   143.8218
   Eigenvalues:   -53.8775    42.8214   172.4979
      2  H    Isotropic =    24.3095   Anisotropy =     4.8536
   XX=    25.5771   YX=    -1.0289   ZX=     0.5661
   XY=    -0.7431   YY=    26.1829   ZY=    -2.3306
   XZ=    -0.1707   YZ=    -2.4411   ZZ=    21.1687
   Eigenvalues:    20.2108    25.1725    27.5453
      3  C    Isotropic =    51.4055   Anisotropy =   157.8639
   XX=   -31.5399   YX=    38.5015   ZX=   -17.9316
   XY=    34.3519   YY=    49.9437   ZY=    49.6392
   XZ=    -9.8383   YZ=    44.6006   ZZ=   135.8127
   Eigenvalues:   -50.5747    48.1432   156.6481
      4  H    Isotropic =    23.8290   Anisotropy =     7.1838
   XX=    25.3635   YX=     1.8486   ZX=    -0.3559
   XY=     1.9656   YY=    26.4581   ZY=    -2.4103
   XZ=    -1.2941   YZ=    -2.6614   ZZ=    19.6654
   Eigenvalues:    18.8176    24.0511    28.6182
      5  C    Isotropic =    46.0697   Anisotropy =   207.6751
   XX=   -19.2123   YX=    -4.8852   ZX=    -1.6475
   XY=     2.8938   YY=    -2.9860   ZY=    66.5656
   XZ=     2.5356   YZ=    67.9144   ZZ=   160.4073
   Eigenvalues:   -27.2455   -19.0652   184.5197
      6  C    Isotropic =    47.5218   Anisotropy =   196.9389
   XX=   -28.1552   YX=    -2.7889   ZX=    12.0660
   XY=   -14.3886   YY=    21.2063   ZY=    74.2521
   XZ=   -18.6356   YZ=    61.1113   ZZ=   149.5144
   Eigenvalues:   -30.2925    -5.9564   178.8144
      7  C    Isotropic =    49.3915   Anisotropy =   179.8333
   XX=   -12.5211   YX=    28.7048   ZX=   -24.6745
   XY=    31.5123   YY=    29.7000   ZY=    77.7459
   XZ=   -40.0095   YZ=    65.3072   ZZ=   130.9956
   Eigenvalues:   -52.1299    31.0240   169.2804
      8  H    Isotropic =    23.1586   Anisotropy =    13.5525
   XX=    28.5711   YX=     1.5482   ZX=    -3.6986
   XY=     3.2466   YY=    22.7592   ZY=    -2.1157
   XZ=    -8.3753   YZ=    -1.0821   ZZ=    18.1456
   Eigenvalues:    15.3521    21.9301    32.1936
      9  C    Isotropic =    55.1460   Anisotropy =   174.7426
   XX=    46.7071   YX=    -2.6162   ZX=    -2.8420
   XY=     0.6223   YY=    -1.6258   ZY=    92.8272
   XZ=     0.5159   YZ=    95.6598   ZZ=   120.3568
   Eigenvalues:   -52.8932    46.6901   171.6411
     10  H    Isotropic =    24.6278   Anisotropy =     7.1815
   XX=    29.1040   YX=     0.1399   ZX=    -0.3694
   XY=     0.3642   YY=    23.4778   ZY=    -1.0805
   XZ=    -2.4493   YZ=    -2.9465   ZZ=    21.3016
   Eigenvalues:    19.9703    24.4977    29.4155
     11  C    Isotropic =    51.5607   Anisotropy =   151.2142
   XX=     2.1639   YX=    40.9287   ZX=   -26.0048
   XY=    49.9131   YY=    12.2331   ZY=    42.1342
   XZ=   -15.6145   YZ=    38.6614   ZZ=   140.2851
   Eigenvalues:   -48.1951    50.5071   152.3701
     12  H    Isotropic =    23.8537   Anisotropy =     7.3815
   XX=    25.9672   YX=     2.3738   ZX=    -0.2390
   XY=     2.4320   YY=    26.3975   ZY=    -1.8291
   XZ=     0.3529   YZ=    -1.7731   ZZ=    19.1964
   Eigenvalues:    18.7149    24.0714    28.7747
     13  C    Isotropic =    52.8653   Anisotropy =   147.4265
   XX=    51.2944   YX=    19.9221   ZX=   -13.4678
   XY=    11.5478   YY=   -34.0176   ZY=    42.5079
   XZ=    -9.2241   YZ=    40.0716   ZZ=   141.3192
   Eigenvalues:   -46.5152    53.9616   151.1497
     14  H    Isotropic =    24.0156   Anisotropy =     7.3485
   XX=    28.6644   YX=     0.6281   ZX=     1.0808
   XY=     0.5926   YY=    24.4325   ZY=    -1.0823
   XZ=     1.6846   YZ=    -0.3842   ZZ=    18.9500
   Eigenvalues:    18.6430    24.4892    28.9146
     15  C    Isotropic =    46.2221   Anisotropy =   203.9048
   XX=   -27.2215   YX=    -0.0442   ZX=   -28.9124
   XY=     4.6427   YY=   -10.5571   ZY=    28.3830
   XZ=   -10.2704   YZ=    26.7376   ZZ=   176.4448
   Eigenvalues:   -30.5512   -12.9411   182.1586
     16  C    Isotropic =    51.9375   Anisotropy =   188.2004
   XX=   -19.4441   YX=     5.5046   ZX=    15.7858
   XY=    -8.3874   YY=     2.4863   ZY=    22.9264
   XZ=   -50.6243   YZ=    23.3340   ZZ=   172.7704
   Eigenvalues:   -21.0294    -0.5625   177.4045
     17  C    Isotropic =    51.9482   Anisotropy =   149.1264
   XX=    50.7296   YX=   -23.9353   ZX=   -18.4207
   XY=   -16.7271   YY=   -41.8764   ZY=    17.8662
   XZ=   -14.3278   YZ=    11.4871   ZZ=   146.9915
   Eigenvalues:   -46.7796    51.2584   151.3658
     18  H    Isotropic =    24.0122   Anisotropy =     7.5163
   XX=    28.5811   YX=    -0.0866   ZX=     1.5071
   XY=    -0.2466   YY=    24.3342   ZY=    -0.7657
   XZ=     2.5088   YZ=    -1.5208   ZZ=    19.1214
   Eigenvalues:    18.5094    24.5041    29.0231
     19  C    Isotropic =    51.7356   Anisotropy =   148.5924
   XX=     2.4559   YX=   -45.6913   ZX=   -31.2531
   XY=   -53.4448   YY=     7.4698   ZY=    -1.8888
   XZ=   -23.5601   YZ=    -1.2765   ZZ=   145.2810
   Eigenvalues:   -46.9894    51.3989   150.7972
     20  H    Isotropic =    23.9071   Anisotropy =     7.6651
   XX=    25.5796   YX=    -2.0226   ZX=     1.4905
   XY=    -1.9998   YY=    27.3706   ZY=    -0.5164
   XZ=     2.7276   YZ=    -1.1179   ZZ=    18.7711
   Eigenvalues:    18.1643    24.5398    29.0172
     21  C    Isotropic =    45.9767   Anisotropy =   203.9316
   XX=   -16.2108   YX=    13.1802   ZX=   -44.5913
   XY=     6.5714   YY=   -20.6329   ZY=     0.0949
   XZ=   -28.8984   YZ=   -13.0883   ZZ=   174.7736
   Eigenvalues:   -30.5796   -13.4215   181.9311
     22  C    Isotropic =    52.0450   Anisotropy =   188.1157
   XX=    -0.0787   YX=     2.5023   ZX=   -16.3451
   XY=    18.9327   YY=   -14.4798   ZY=   -34.4335
   XZ=   -50.6032   YZ=    19.9104   ZZ=   170.6934
   Eigenvalues:   -20.7705    -0.5500   177.4554
     23  C    Isotropic =    53.2392   Anisotropy =   146.7412
   XX=   -22.0674   YX=   -32.0012   ZX=   -49.4857
   XY=   -23.2043   YY=    44.3661   ZY=   -15.6400
   XZ=   -43.8090   YZ=   -20.2525   ZZ=   137.4189
   Eigenvalues:   -45.6776    54.3286   151.0667
     24  H    Isotropic =    23.8249   Anisotropy =     7.5289
   XX=    25.1073   YX=    -1.7330   ZX=     1.5380
   XY=    -1.5944   YY=    28.0047   ZY=     0.0879
   XZ=     1.2557   YZ=    -0.8283   ZZ=    18.3628
   Eigenvalues:    18.0848    24.5458    28.8442
     25  C    Isotropic =    51.4969   Anisotropy =   150.1066
   XX=   -28.4915   YX=    33.9684   ZX=   -52.3137
   XY=    22.0311   YY=    46.6072   ZY=    -3.8075
   XZ=   -44.5594   YZ=   -10.6355   ZZ=   136.3748
   Eigenvalues:   -48.3857    51.3083   151.5679
     26  H    Isotropic =    23.7431   Anisotropy =     7.4052
   XX=    24.0663   YX=     1.1141   ZX=     1.9989
   XY=     0.9693   YY=    28.1000   ZY=     1.6568
   XZ=     2.0795   YZ=     0.8886   ZZ=    19.0630
   Eigenvalues:    18.2615    24.2880    28.6799
     27  C    Isotropic =    45.8108   Anisotropy =   207.2710
   XX=    -2.7702   YX=    13.7697   ZX=   -61.4651
   XY=     6.5593   YY=   -12.0335   ZY=   -41.6456
   XZ=   -62.6381   YZ=   -44.9232   ZZ=   152.2361
   Eigenvalues:   -28.0803   -18.4787   183.9915
     28  C    Isotropic =    47.8398   Anisotropy =   197.2870
   XX=    19.6900   YX=    14.4398   ZX=   -60.5682
   XY=    28.5650   YY=   -19.3566   ZY=   -56.7015
   XZ=   -63.1331   YZ=   -24.4782   ZZ=   143.1859
   Eigenvalues:   -30.5979    -5.2472   179.3644
     29  C    Isotropic =    49.3441   Anisotropy =   179.7793
   XX=    -3.4110   YX=    38.3775   ZX=   -80.8875
   XY=    36.1252   YY=    25.9805   ZY=   -23.7573
   XZ=   -78.1065   YZ=    -3.9802   ZZ=   125.4627
   Eigenvalues:   -51.6645    30.4997   169.1970
     30  H    Isotropic =    23.1387   Anisotropy =    13.3222
   XX=    22.4354   YX=    -0.7013   ZX=    -0.2375
   XY=    -2.1539   YY=    28.3546   ZY=     4.5555
   XZ=    -3.4181   YZ=     8.3231   ZZ=    18.6259
   Eigenvalues:    15.2751    22.1208    32.0201
     31  C    Isotropic =    55.4410   Anisotropy =   174.9390
   XX=    17.1871   YX=   -14.0890   ZX=   -84.0024
   XY=   -17.9030   YY=    37.4745   ZY=   -50.3662
   XZ=   -84.6557   YZ=   -54.8325   ZZ=   111.6615
   Eigenvalues:   -51.9248    46.1808   172.0670
     32  H    Isotropic =    24.5337   Anisotropy =     7.2554
   XX=    24.6185   YX=    -2.5264   ZX=     0.7632
   XY=    -2.7385   YY=    27.4630   ZY=     1.0335
   XZ=     1.1913   YZ=     3.7573   ZZ=    21.5194
   Eigenvalues:    19.8987    24.3316    29.3706
     33  C    Isotropic =    53.1814   Anisotropy =   179.0596
   XX=    60.9231   YX=    35.2256   ZX=   -42.9515
   XY=    32.0226   YY=   -38.1801   ZY=   -45.5652
   XZ=   -44.2248   YZ=   -50.7831   ZZ=   136.8014
   Eigenvalues:   -55.1197    42.1095   172.5545
     34  H    Isotropic =    24.2825   Anisotropy =     5.1861
   XX=    26.7643   YX=    -0.0934   ZX=     2.5955
   XY=    -0.2993   YY=    24.8157   ZY=     0.8589
   XZ=     2.3715   YZ=     1.4580   ZZ=    21.2676
   Eigenvalues:    20.0339    25.0737    27.7399
     35  C    Isotropic =    51.5295   Anisotropy =   155.1748
   XX=    -0.5131   YX=    52.5760   ZX=   -52.1551
   XY=    55.6135   YY=    25.1843   ZY=   -14.2643
   XZ=   -45.7255   YZ=   -17.1625   ZZ=   129.9171
   Eigenvalues:   -48.3147    47.9237   154.9793
     36  H    Isotropic =    23.8384   Anisotropy =     7.3073
   XX=    24.2302   YX=     1.4459   ZX=     2.1759
   XY=     1.2147   YY=    27.1572   ZY=     2.0665
   XZ=     1.6853   YZ=     2.7775   ZZ=    20.1277
   Eigenvalues:    18.9464    23.8588    28.7099
     37  Bq   Isotropic =     5.8640   Anisotropy =    30.0834
   XX=   -17.7037   YX=   -10.4673   ZX=     4.6514
   XY=    -5.7306   YY=    22.8006   ZY=    -4.3407
   XZ=     1.2457   YZ=    -3.8088   ZZ=    12.4951
   Eigenvalues:   -19.4067    11.0791    25.9196
     38  Bq   Isotropic =    13.6818   Anisotropy =    10.4298
   XX=    12.5057   YX=    -0.7079   ZX=     4.1565
   XY=    -3.8784   YY=    19.9817   ZY=    -3.6619
   XZ=   -12.2762   YZ=     1.8782   ZZ=     8.5580
   Eigenvalues:     5.7399    14.6706    20.6350
     39  Bq   Isotropic =    12.7581   Anisotropy =     8.3146
   XX=    12.1319   YX=     0.0564   ZX=     2.4653
   XY=    -3.1310   YY=    17.2080   ZY=    -4.0964
   XZ=   -14.1473   YZ=     4.4862   ZZ=     8.9343
   Eigenvalues:     4.4293    15.5437    18.3011
     40  Bq   Isotropic =    14.1339   Anisotropy =    12.9135
   XX=     8.4816   YX=     0.6998   ZX=     8.6590
   XY=    -1.5970   YY=    21.8946   ZY=    -5.8226
   XZ=    -8.5808   YZ=    -0.1549   ZZ=    12.0253
   Eigenvalues:     8.4654    11.1933    22.7429
     41  Bq   Isotropic =    11.2226   Anisotropy =    11.6372
   XX=    11.1974   YX=    -0.2824   ZX=     0.2048
   XY=    -3.4801   YY=    14.6970   ZY=    -3.0663
   XZ=   -15.8403   YZ=     6.4555   ZZ=     7.7735
   Eigenvalues:     1.4809    13.2063    18.9807
     42  Bq   Isotropic =    13.0340   Anisotropy =    17.9483
   XX=     1.9778   YX=     0.6474   ZX=    11.4084
   XY=    -0.4024   YY=    23.3605   ZY=    -6.1932
   XZ=    -5.4091   YZ=    -2.2693   ZZ=    13.7639
   Eigenvalues:     1.1997    12.9029    24.9996
     43  Bq   Isotropic =     9.6097   Anisotropy =    14.4139
   XX=     9.5711   YX=    -0.5516   ZX=    -1.3644
   XY=    -3.6275   YY=    12.4028   ZY=    -2.0830
   XZ=   -16.7794   YZ=     8.0319   ZZ=     6.8551
   Eigenvalues:    -1.0219    10.6320    19.2190
     44  Bq   Isotropic =    10.4472   Anisotropy =    23.6764
   XX=    -7.8498   YX=    -0.0747   ZX=    12.2419
   XY=     0.9367   YY=    23.9630   ZY=    -6.0701
   XZ=    -2.8937   YZ=    -3.7331   ZZ=    15.2286
   Eigenvalues:    -8.8186    13.9288    26.2315
     45  Bq   Isotropic =     8.1074   Anisotropy =    16.2407
   XX=     7.7606   YX=    -0.7478   ZX=    -2.3562
   XY=    -3.6333   YY=    10.4198   ZY=    -1.2007
   XZ=   -17.0967   YZ=     9.2159   ZZ=     6.1418
   Eigenvalues:    -2.9814     8.3690    18.9346
     46  Bq   Isotropic =     7.0172   Anisotropy =    28.9512
   XX=   -18.9148   YX=    -1.7392   ZX=     9.7001
   XY=     2.1937   YY=    23.9979   ZY=    -5.4507
   XZ=    -1.5798   YZ=    -4.2139   ZZ=    15.9684
   Eigenvalues:   -19.3953    14.1289    26.3180
     47  Bq   Isotropic =     6.8023   Anisotropy =    17.3148
   XX=     6.0431   YX=    -0.8823   ZX=    -2.9157
   XY=    -3.5450   YY=     8.7656   ZY=    -0.4387
   XZ=   -16.9431   YZ=    10.0499   ZZ=     5.5981
   Eigenvalues:    -4.4093     6.4707    18.3455
     48  Bq   Isotropic =     4.2919   Anisotropy =    32.2597
   XX=   -27.0917   YX=    -4.2258   ZX=     3.4913
   XY=     3.0672   YY=    24.1473   ZY=    -4.4273
   XZ=    -1.2956   YZ=    -3.6415   ZZ=    15.8201
   Eigenvalues:   -27.1242    14.2016    25.7983
     49  Bq   Isotropic =    13.8849   Anisotropy =     9.1415
   XX=    11.5712   YX=     0.4234   ZX=     5.3952
   XY=    -2.5165   YY=    19.7214   ZY=    -5.0675
   XZ=   -11.6646   YZ=     2.2108   ZZ=    10.3620
   Eigenvalues:     7.5180    14.1574    19.9792
     50  Bq   Isotropic =    12.8898   Anisotropy =     6.3130
   XX=    12.1428   YX=     0.7774   ZX=     3.0571
   XY=    -2.2302   YY=    16.3699   ZY=    -4.8678
   XZ=   -13.1560   YZ=     5.5020   ZZ=    10.1568
   Eigenvalues:     5.9991    15.5719    17.0985
     51  Bq   Isotropic =    14.6543   Anisotropy =    11.6411
   XX=     8.3823   YX=     3.2489   ZX=     9.1637
   XY=     1.3333   YY=    20.6860   ZY=    -7.5249
   XZ=    -8.1748   YZ=     0.9864   ZZ=    14.8947
   Eigenvalues:     7.7910    13.7569    22.4150
     52  Bq   Isotropic =    11.2356   Anisotropy =    10.6764
   XX=    11.2316   YX=    -0.0124   ZX=     0.7376
   XY=    -3.0499   YY=    14.0156   ZY=    -3.4695
   XZ=   -14.7665   YZ=     7.3712   ZZ=     8.4595
   Eigenvalues:     2.6693    12.6842    18.3532
     53  Bq   Isotropic =    13.8074   Anisotropy =    17.0461
   XX=     1.7201   YX=     4.7029   ZX=    11.6472
   XY=     4.3045   YY=    22.0161   ZY=    -8.1667
   XZ=    -5.6080   YZ=    -1.0565   ZZ=    17.6861
   Eigenvalues:    -0.1255    16.3762    25.1715
     54  Bq   Isotropic =     9.5439   Anisotropy =    13.8258
   XX=     9.6244   YX=    -0.5421   ZX=    -0.9117
   XY=    -3.4616   YY=    11.8468   ZY=    -2.2304
   XZ=   -15.7037   YZ=     8.8282   ZZ=     7.1606
   Eigenvalues:    -0.1327    10.0034    18.7611
     55  Bq   Isotropic =    11.4690   Anisotropy =    23.1522
   XX=    -8.3871   YX=     5.7874   ZX=    11.9629
   XY=     7.8765   YY=    22.6242   ZY=    -7.8015
   XZ=    -3.9339   YZ=    -2.3695   ZZ=    20.1701
   Eigenvalues:   -10.6423    18.1456    26.9038
     56  Bq   Isotropic =     7.9912   Anisotropy =    15.8530
   XX=     7.8290   YX=    -0.8772   ZX=    -1.9872
   XY=    -3.6067   YY=     9.9610   ZY=    -1.1900
   XZ=   -16.0698   YZ=     9.8857   ZZ=     6.1838
   Eigenvalues:    -2.3188     7.7326    18.5599
     57  Bq   Isotropic =     8.2431   Anisotropy =    28.5235
   XX=   -19.8038   YX=     5.8745   ZX=     8.6170
   XY=    11.3996   YY=    22.9030   ZY=    -6.1278
   XZ=    -3.6001   YZ=    -2.5967   ZZ=    21.6302
   Eigenvalues:   -21.7366    19.2073    27.2588
     58  Bq   Isotropic =     6.6543   Anisotropy =    17.0390
   XX=     6.1209   YX=    -1.0764   ZX=    -2.6244
   XY=    -3.5858   YY=     8.3817   ZY=    -0.3435
   XZ=   -15.9943   YZ=    10.5960   ZZ=     5.4604
   Eigenvalues:    -3.9190     5.8684    18.0136
     59  Bq   Isotropic =     5.6693   Anisotropy =    31.4196
   XX=   -28.2141   YX=     4.5362   ZX=     1.4314
   XY=    13.8000   YY=    23.5674   ZY=    -3.2549
   XZ=    -4.1851   YZ=    -1.7491   ZZ=    21.6546
   Eigenvalues:   -29.8064    20.1987    26.6157
     60  Bq   Isotropic =    14.1856   Anisotropy =     7.5097
   XX=    11.5462   YX=     1.8742   ZX=     5.9941
   XY=    -0.8255   YY=    18.6998   ZY=    -6.3016
   XZ=   -10.8786   YZ=     3.2992   ZZ=    12.3109
   Eigenvalues:     9.4189    13.9459    19.1921
     61  Bq   Isotropic =    12.8605   Anisotropy =     5.3246
   XX=    12.5131   YX=     1.4397   ZX=     3.2396
   XY=    -1.4072   YY=    15.1402   ZY=    -5.1984
   XZ=   -11.9443   YZ=     7.0110   ZZ=    10.9283
   Eigenvalues:     7.2334    14.9380    16.4102
     62  Bq   Isotropic =    15.3389   Anisotropy =     9.7257
   XX=    10.0028   YX=     5.5130   ZX=     8.6775
   XY=     3.8568   YY=    18.6985   ZY=    -8.3433
   XZ=    -7.5245   YZ=     3.1211   ZZ=    17.3154
   Eigenvalues:     7.6922    16.5017    21.8227
     63  Bq   Isotropic =    11.0682   Anisotropy =    10.0912
   XX=    11.3850   YX=     0.2463   ZX=     1.0407
   XY=    -2.6420   YY=    13.0872   ZY=    -3.5795
   XZ=   -13.4908   YZ=     8.6117   ZZ=     8.7323
   Eigenvalues:     3.5345    11.8744    17.7957
     64  Bq   Isotropic =    15.1851   Anisotropy =    14.9349
   XX=     4.6318   YX=     8.2871   ZX=    10.5901
   XY=     8.2471   YY=    19.6763   ZY=    -9.0064
   XZ=    -5.5030   YZ=     1.4298   ZZ=    21.2472
   Eigenvalues:     0.2589    20.1548    25.1417
     65  Bq   Isotropic =     9.3126   Anisotropy =    13.3899
   XX=     9.6870   YX=    -0.5220   ZX=    -0.5743
   XY=    -3.2937   YY=    11.1499   ZY=    -2.1859
   XZ=   -14.4508   YZ=     9.8334   ZZ=     7.1011
   Eigenvalues:     0.4744     9.2243    18.2392
     66  Bq   Isotropic =    13.7757   Anisotropy =    21.0183
   XX=    -3.6980   YX=    10.9946   ZX=    10.2944
   XY=    13.5332   YY=    20.0689   ZY=    -8.2235
   XZ=    -4.5073   YZ=     0.4743   ZZ=    24.9561
   Eigenvalues:    -9.4014    22.9406    27.7878
     67  Bq   Isotropic =     7.7368   Anisotropy =    15.5126
   XX=     7.8631   YX=    -0.9880   ZX=    -1.6649
   XY=    -3.5690   YY=     9.4346   ZY=    -1.0534
   XZ=   -14.8909   YZ=    10.6881   ZZ=     5.9126
   Eigenvalues:    -1.8862     7.0180    18.0785
     68  Bq   Isotropic =    11.5701   Anisotropy =    26.3758
   XX=   -13.1519   YX=    12.7563   ZX=     6.5187
   XY=    18.7157   YY=    20.3511   ZY=    -5.5134
   XZ=    -4.8932   YZ=     0.5270   ZZ=    27.5112
   Eigenvalues:   -19.4435    24.9999    29.1540
     69  Bq   Isotropic =     6.3974   Anisotropy =    16.7566
   XX=     6.1528   YX=    -1.2512   ZX=    -2.3408
   XY=    -3.6131   YY=     7.9783   ZY=    -0.1642
   XZ=   -14.9159   YZ=    11.2258   ZZ=     5.0611
   Eigenvalues:    -3.6075     5.2312    17.5685
     70  Bq   Isotropic =     9.7886   Anisotropy =    28.9551
   XX=   -20.0678   YX=    12.6909   ZX=    -0.7227
   XY=    22.1660   YY=    21.2430   ZY=    -1.0864
   XZ=    -6.1386   YZ=     1.4159   ZZ=    28.1907
   Eigenvalues:   -26.6344    26.9082    29.0921
     71  Bq   Isotropic =    14.4191   Anisotropy =     5.8642
   XX=    12.3609   YX=     3.1793   ZX=     5.9251
   XY=     0.6730   YY=    17.1055   ZY=    -6.8951
   XZ=    -9.8623   YZ=     5.1073   ZZ=    13.7911
   Eigenvalues:    10.7777    14.1511    18.3286
     72  Bq   Isotropic =    12.5494   Anisotropy =     5.3587
   XX=    13.0126   YX=     1.8433   ZX=     3.0998
   XY=    -0.8839   YY=    13.7748   ZY=    -4.9404
   XZ=   -10.5479   YZ=     8.7876   ZZ=    10.8609
   Eigenvalues:     7.5212    14.0052    16.1219
     73  Bq   Isotropic =    15.8234   Anisotropy =     7.8819
   XX=    12.6175   YX=     6.8701   ZX=     7.5338
   XY=     5.2607   YY=    16.5249   ZY=    -8.0138
   XZ=    -6.5699   YZ=     5.8295   ZZ=    18.3277
   Eigenvalues:     8.0944    18.2976    21.0780
     74  Bq   Isotropic =    10.6515   Anisotropy =     9.8914
   XX=    11.5266   YX=     0.3868   ZX=     1.1500
   XY=    -2.3716   YY=    12.0698   ZY=    -3.3048
   XZ=   -12.0555   YZ=    10.0051   ZZ=     8.3583
   Eigenvalues:     3.7012    11.0076    17.2458
     75  Bq   Isotropic =    16.5614   Anisotropy =    11.9705
   XX=     9.4670   YX=    10.3813   ZX=     8.7835
   XY=    10.2524   YY=    17.1733   ZY=    -8.4725
   XZ=    -4.9254   YZ=     4.5914   ZZ=    23.0438
   Eigenvalues:     1.9635    23.1790    24.5417
     76  Bq   Isotropic =     8.8761   Anisotropy =    13.1316
   XX=     9.6825   YX=    -0.5453   ZX=    -0.3419
   XY=    -3.1806   YY=    10.4066   ZY=    -1.8991
   XZ=   -13.0593   YZ=    10.9135   ZZ=     6.5391
   Eigenvalues:     0.5707     8.4270    17.6305
     77  Bq   Isotropic =    16.4172   Anisotropy =    17.4115
   XX=     4.2130   YX=    13.9897   ZX=     8.0065
   XY=    16.1348   YY=    17.3802   ZY=    -7.2873
   XZ=    -4.3027   YZ=     3.9476   ZZ=    27.6585
   Eigenvalues:    -5.8230    27.0497    28.0249
     78  Bq   Isotropic =     7.3206   Anisotropy =    15.2370
   XX=     7.8170   YX=    -1.1054   ZX=    -1.3904
   XY=    -3.5460   YY=     8.8954   ZY=    -0.7681
   XZ=   -13.5916   YZ=    11.5170   ZZ=     5.2495
   Eigenvalues:    -1.8238     6.3072    17.4786
     79  Bq   Isotropic =    15.6448   Anisotropy =    23.2928
   XX=    -1.8422   YX=    16.7445   ZX=     4.2965
   XY=    21.7624   YY=    17.6209   ZY=    -3.9869
   XZ=    -4.9799   YZ=     4.0243   ZZ=    31.1558
   Eigenvalues:   -13.6858    29.4469    31.1734
     80  Bq   Isotropic =     6.0174   Anisotropy =    16.4759
   XX=     6.1106   YX=    -1.4159   ZX=    -2.0701
   XY=    -3.6368   YY=     7.5859   ZY=     0.1050
   XZ=   -13.7329   YZ=    11.8542   ZZ=     4.3557
   Eigenvalues:    -3.5614     4.6123    17.0013
     81  Bq   Isotropic =    14.9765   Anisotropy =    27.2717
   XX=    -6.2058   YX=    17.5928   ZX=    -2.1499
   XY=    25.4041   YY=    18.5231   ZY=     1.0964
   XZ=    -6.4718   YZ=     4.5335   ZZ=    32.6122
   Eigenvalues:   -19.1524    30.9243    33.1577
     82  Bq   Isotropic =    14.3741   Anisotropy =     4.7412
   XX=    13.6053   YX=     3.9782   ZX=     5.3688
   XY=     1.5713   YY=    15.3372   ZY=    -6.6345
   XZ=    -8.6217   YZ=     7.3322   ZZ=    14.1797
   Eigenvalues:    10.8568    14.7305    17.5349
     83  Bq   Isotropic =    11.8770   Anisotropy =     5.7923
   XX=    13.3522   YX=     1.9140   ZX=     2.7868
   XY=    -0.7418   YY=    12.5376   ZY=    -4.1602
   XZ=    -9.0498   YZ=    10.5032   ZZ=     9.7412
   Eigenvalues:     6.3950    13.4975    15.7386
     84  Bq   Isotropic =    15.7549   Anisotropy =     8.4966
   XX=    15.1769   YX=     7.1555   ZX=     6.1905
   XY=     5.3831   YY=    14.7274   ZY=    -6.7585
   XZ=    -5.3823   YZ=     8.4724   ZZ=    17.3603
   Eigenvalues:     8.6657    17.1796    21.4192
     85  Bq   Isotropic =     9.9529   Anisotropy =    10.0057
   XX=    11.5077   YX=     0.3655   ZX=     1.1380
   XY=    -2.2855   YY=    11.1303   ZY=    -2.6852
   XZ=   -10.5362   YZ=    11.3182   ZZ=     7.2208
   Eigenvalues:     2.8897    10.3457    16.6233
     86  Bq   Isotropic =    17.2800   Anisotropy =    12.6751
   XX=    14.3558   YX=    10.7667   ZX=     6.8961
   XY=    10.1637   YY=    15.2563   ZY=    -6.9509
   XZ=    -3.9463   YZ=     7.5821   ZZ=    22.2279
   Eigenvalues:     4.2911    21.8189    25.7301
     87  Bq   Isotropic =     8.2234   Anisotropy =    13.0403
   XX=     9.5338   YX=    -0.6352   ZX=    -0.1838
   XY=    -3.1454   YY=     9.7181   ZY=    -1.3977
   XZ=   -11.5918   YZ=    11.9007   ZZ=     5.4182
   Eigenvalues:    -0.0022     7.7553    16.9169
     88  Bq   Isotropic =    18.2903   Anisotropy =    17.1553
   XX=    12.2838   YX=    14.4924   ZX=     5.9068
   XY=    15.6199   YY=    15.4960   ZY=    -5.5940
   XZ=    -3.4327   YZ=     7.0073   ZZ=    27.0909
   Eigenvalues:    -1.2587    26.4024    29.7272
     89  Bq   Isotropic =     6.7417   Anisotropy =    15.0273
   XX=     7.6501   YX=    -1.2394   ZX=    -1.1540
   XY=    -3.5468   YY=     8.4022   ZY=    -0.3566
   XZ=   -12.2219   YZ=    12.2489   ZZ=     4.1727
   Eigenvalues:    -2.2209     5.6861    16.7599
     90  Bq   Isotropic =    18.8326   Anisotropy =    21.0846
   XX=     9.6832   YX=    17.4632   ZX=     2.6670
   XY=    20.6745   YY=    15.8193   ZY=    -2.3509
   XZ=    -4.0567   YZ=     6.7317   ZZ=    30.9954
   Eigenvalues:    -6.6639    30.2727    32.8890
     91  Bq   Isotropic =     5.5168   Anisotropy =    16.1989
   XX=     5.9721   YX=    -1.5734   ZX=    -1.8123
   XY=    -3.6586   YY=     7.2370   ZY=     0.4440
   XZ=   -12.4842   YZ=    12.3884   ZZ=     3.3413
   Eigenvalues:    -3.8312     4.0656    16.3161
     92  Bq   Isotropic =    19.1757   Anisotropy =    23.4442
   XX=     7.8704   YX=    18.7122   ZX=    -2.5363
   XY=    23.8522   YY=    16.6488   ZY=     2.3856
   XZ=    -5.4296   YZ=     6.4540   ZZ=    33.0080
   Eigenvalues:   -10.2696    32.9916    34.8052
     93  Bq   Isotropic =    13.8761   Anisotropy =     5.0802
   XX=    14.7211   YX=     4.1559   ZX=     4.6006
   XY=     1.7445   YY=    13.7915   ZY=    -5.6405
   XZ=    -7.2382   YZ=     9.5108   ZZ=    13.1157
   Eigenvalues:     9.6858    14.6796    17.2629
     94  Bq   Isotropic =    10.8338   Anisotropy =     6.5821
   XX=    13.3029   YX=     1.6997   ZX=     2.4371
   XY=    -0.9224   YY=    11.5888   ZY=    -3.0798
   XZ=    -7.5585   YZ=    11.8399   ZZ=     7.6096
   Eigenvalues:     4.1695    13.1099    15.2218
     95  Bq   Isotropic =    14.9462   Anisotropy =     9.9337
   XX=    16.8286   YX=     6.6079   ZX=     4.9920
   XY=     4.5384   YY=    13.5566   ZY=    -5.0770
   XZ=    -4.1192   YZ=    10.4773   ZZ=    14.4532
   Eigenvalues:     8.7183    14.5516    21.5687
     96  Bq   Isotropic =     8.9866   Anisotropy =    10.3718
   XX=    11.2170   YX=     0.2013   ZX=     1.0767
   XY=    -2.3592   YY=    10.3785   ZY=    -1.8612
   XZ=    -9.0239   YZ=    12.3258   ZZ=     5.3642
   Eigenvalues:     1.2293     9.8293    15.9011
     97  Bq   Isotropic =    16.9462   Anisotropy =    13.9584
   XX=    17.8134   YX=     9.8942   ZX=     5.3602
   XY=     8.6149   YY=    14.1792   ZY=    -5.1000
   XZ=    -2.7849   YZ=     9.7223   ZZ=    18.8460
   Eigenvalues:     6.4874    18.0994    26.2518
     98  Bq   Isotropic =     7.3760   Anisotropy =    13.0890
   XX=     9.1887   YX=    -0.7838   ZX=    -0.0670
   XY=    -3.1764   YY=     9.1543   ZY=    -0.7715
   XZ=   -10.1228   YZ=    12.6356   ZZ=     3.7850
   Eigenvalues:    -1.1861     7.2121    16.1020
     99  Bq   Isotropic =    18.7016   Anisotropy =    17.7900
   XX=    18.1705   YX=    13.2481   ZX=     4.4078
   XY=    13.1137   YY=    14.6383   ZY=    -3.8797
   XZ=    -2.2343   YZ=     8.9540   ZZ=    23.2961
   Eigenvalues:     3.0345    22.5087    30.5616
    100  Bq   Isotropic =     6.0212   Anisotropy =    14.8735
   XX=     7.3389   YX=    -1.3857   ZX=    -0.9441
   XY=    -3.5637   YY=     7.9962   ZY=     0.1217
   XZ=   -10.8408   YZ=    12.7693   ZZ=     2.7284
   Eigenvalues:    -3.0464     5.1730    15.9368
    101  Bq   Isotropic =    20.1056   Anisotropy =    20.6562
   XX=    18.1493   YX=    15.9596   ZX=     1.8239
   XY=    17.1532   YY=    15.1426   ZY=    -1.2326
   XZ=    -2.6367   YZ=     8.0630   ZZ=    27.0251
   Eigenvalues:    -0.2663    26.7067    33.8765
    102  Bq   Isotropic =     4.9138   Anisotropy =    15.9230
   XX=     5.7269   YX=    -1.7197   ZX=    -1.5665
   XY=    -3.6726   YY=     6.9536   ZY=     0.8114
   XZ=   -11.2164   YZ=    12.7444   ZZ=     2.0608
   Eigenvalues:    -4.3972     3.6095    15.5291
    103  Bq   Isotropic =    21.1049   Anisotropy =    21.9172
   XX=    18.2010   YX=    17.2606   ZX=    -2.1128
   XY=    19.6370   YY=    15.8667   ZY=     2.4795
   XZ=    -3.7101   YZ=     6.8154   ZZ=    29.2470
   Eigenvalues:    -2.3686    29.9669    35.7163
    104  Bq   Isotropic =    12.8574   Anisotropy =     6.3173
   XX=    15.2544   YX=     3.8250   ZX=     3.8516
   XY=     1.3332   YY=    12.6811   ZY=    -4.2561
   XZ=    -5.8392   YZ=    11.2048   ZZ=    10.6368
   Eigenvalues:     7.3221    14.1812    17.0690
    105  Bq   Isotropic =     9.4825   Anisotropy =     7.6980
   XX=    12.7687   YX=     1.3108   ZX=     2.1298
   XY=    -1.2907   YY=    10.9486   ZY=    -1.9621
   XZ=    -6.1757   YZ=    12.5874   ZZ=     4.7302
   Eigenvalues:     1.4093    12.4238    14.6146
    106  Bq   Isotropic =    13.4307   Anisotropy =    10.8873
   XX=    17.2031   YX=     5.6155   ZX=     4.0750
   XY=     3.2145   YY=    12.9357   ZY=    -3.4585
   XZ=    -2.9454   YZ=    11.5300   ZZ=    10.1532
   Eigenvalues:     6.7690    12.8341    20.6889
    107  Bq   Isotropic =     7.8107   Anisotropy =    10.9253
   XX=    10.6153   YX=    -0.0513   ZX=     1.0118
   XY=    -2.5254   YY=     9.8396   ZY=    -1.0082
   XZ=    -7.6034   YZ=    12.8722   ZZ=     2.9770
   Eigenvalues:    -0.8905     9.2282    15.0942
    108  Bq   Isotropic =    15.5442   Anisotropy =    14.5944
   XX=    19.2322   YX=     8.4101   ZX=     4.2840
   XY=     6.4384   YY=    13.7444   ZY=    -3.4697
   XZ=    -1.6734   YZ=    10.7072   ZZ=    13.6561
   Eigenvalues:     7.6591    13.6996    25.2738
    109  Bq   Isotropic =     6.3832   Anisotropy =    13.2375
   XX=     8.6359   YX=    -0.9646   ZX=     0.0305
   XY=    -3.2396   YY=     8.7348   ZY=    -0.1351
   XZ=    -8.7228   YZ=    13.0050   ZZ=     1.7791
   Eigenvalues:    -2.7417     6.6832    15.2082
    110  Bq   Isotropic =    17.5679   Anisotropy =    17.9753
   XX=    20.9940   YX=    11.2282   ZX=     3.5050
   XY=     9.8926   YY=    14.4553   ZY=    -2.6207
   XZ=    -1.0442   YZ=     9.5871   ZZ=    17.2544
   Eigenvalues:     6.2633    16.8890    29.5515
    111  Bq   Isotropic =     5.1985   Anisotropy =    14.7557
   XX=     6.8837   YX=    -1.5310   ZX=    -0.7536
   XY=    -3.5791   YY=     7.6892   ZY=     0.5918
   XZ=    -9.5065   YZ=    12.9962   ZZ=     1.0227
   Eigenvalues:    -4.1549     4.7148    15.0356
    112  Bq   Isotropic =    19.3162   Anisotropy =    20.4342
   XX=    22.4396   YX=    13.5285   ZX=     1.5665
   XY=    12.9203   YY=    15.1136   ZY=    -0.8387
   XZ=    -1.1953   YZ=     8.0276   ZZ=    20.3954
   Eigenvalues:     4.5710    20.4387    32.9390
    113  Bq   Isotropic =     4.2388   Anisotropy =    15.6406
   XX=     5.3795   YX=    -1.8477   ZX=    -1.3338
   XY=    -3.6683   YY=     6.7403   ZY=     1.1576
   XZ=    -9.9764   YZ=    12.8626   ZZ=     0.5966
   Eigenvalues:    -5.1697     3.2202    14.6659
    114  Bq   Isotropic =    20.5755   Anisotropy =    21.5669
   XX=    23.5235   YX=    14.7391   ZX=    -1.3125
   XY=    14.7657   YY=    15.6887   ZY=     1.6063
   XZ=    -1.9375   YZ=     5.8962   ZZ=    22.5143
   Eigenvalues:     3.5140    23.2591    34.9534
    115  Bq   Isotropic =    11.3756   Anisotropy =     7.3975
   XX=    15.0054   YX=     3.1996   ZX=     3.2375
   XY=     0.6015   YY=    11.9982   ZY=    -2.8563
   XZ=    -4.5501   YZ=    12.1441   ZZ=     7.1231
   Eigenvalues:     4.0940    13.7255    16.3072
    116  Bq   Isotropic =     7.9376   Anisotropy =     9.0041
   XX=    11.7900   YX=     0.8570   ZX=     1.8859
   XY=    -1.7076   YY=    10.5346   ZY=    -1.0146
   XZ=    -4.9726   YZ=    12.6812   ZZ=     1.4883
   Eigenvalues:    -1.4790    11.3515    13.9404
    117  Bq   Isotropic =    11.4111   Anisotropy =    11.2462
   XX=    16.3846   YX=     4.4989   ZX=     3.4191
   XY=     1.8232   YY=    12.6189   ZY=    -2.2088
   XZ=    -1.9731   YZ=    11.6046   ZZ=     5.2299
   Eigenvalues:     2.9055    12.4192    18.9085
    118  Bq   Isotropic =     6.5124   Anisotropy =    11.5767
   XX=     9.7372   YX=    -0.3339   ZX=     0.9592
   XY=    -2.7099   YY=     9.4690   ZY=    -0.2745
   XZ=    -6.3368   YZ=    12.9002   ZZ=     0.3311
   Eigenvalues:    -3.1256     8.4327    14.2302
    119  Bq   Isotropic =    13.3510   Anisotropy =    14.5726
   XX=    18.7722   YX=     6.8014   ZX=     3.5738
   XY=     4.2600   YY=    13.5825   ZY=    -2.3381
   XZ=    -0.7681   YZ=    10.5879   ZZ=     7.6985
   Eigenvalues:     5.4144    11.5726    23.0661
    120  Bq   Isotropic =     5.3114   Anisotropy =    13.4308
   XX=     7.9046   YX=    -1.1479   ZX=     0.1164
   XY=    -3.2968   YY=     8.4344   ZY=     0.4100
   XZ=    -7.4466   YZ=    12.9631   ZZ=    -0.4047
   Eigenvalues:    -4.4122     6.0813    14.2653
    121  Bq   Isotropic =    15.2669   Anisotropy =    17.5861
   XX=    21.0559   YX=     9.1045   ZX=     2.9997
   XY=     6.8121   YY=    14.4539   ZY=    -1.9592
   XZ=    -0.0798   YZ=     9.0881   ZZ=    10.2911
   Eigenvalues:     7.2726    11.5372    26.9910
    122  Bq   Isotropic =     4.3238   Anisotropy =    14.6452
   XX=     6.3084   YX=    -1.6606   ZX=    -0.5816
   XY=    -3.5734   YY=     7.4647   ZY=     0.9862
   XZ=    -8.2664   YZ=    12.8949   ZZ=    -0.8017
   Eigenvalues:    -5.3679     4.2521    14.0872
    123  Bq   Isotropic =    16.9582   Anisotropy =    19.8233
   XX=    23.0466   YX=    11.0077   ZX=     1.5961
   XY=     9.0169   YY=    15.1577   ZY=    -1.0558
   XZ=    -0.0199   YZ=     6.9789   ZZ=    12.6703
   Eigenvalues:     7.5222    13.1787    30.1737
    124  Bq   Isotropic =     3.5288   Anisotropy =    15.3401
   XX=     4.9478   YX=    -1.9502   ZX=    -1.1177
   XY=    -3.6361   YY=     6.5842   ZY=     1.4379
   XZ=    -8.8049   YZ=    12.7172   ZZ=    -0.9457
   Eigenvalues:    -6.0291     2.8599    13.7555
    125  Bq   Isotropic =    18.1740   Anisotropy =    20.9578
[...]
   134  Bq   0.000000
   135  Bq   0.000000
   136  Bq   0.000000
   137  Bq   0.000000
   138  Bq   0.000000
   139  Bq   0.000000
   140  Bq   0.000000
   141  Bq   0.000000
   142  Bq   0.000000
   143  Bq   0.000000
   144  Bq   0.000000
   145  Bq   0.000000
   146  Bq   0.000000
   147  Bq   0.000000
   148  Bq   0.000000
   149  Bq   0.000000
   150  Bq   0.000000
   151  Bq   0.000000
   152  Bq   0.000000
   153  Bq   0.000000
   154  Bq   0.000000
   155  Bq   0.000000
   156  Bq   0.000000
   157  Bq   0.000000
   158  Bq   0.000000
   159  Bq   0.000000
   160  Bq   0.000000
   161  Bq   0.000000
   162  Bq   0.000000
   163  Bq   0.000000
   164  Bq   0.000000
   165  Bq   0.000000
   166  Bq   0.000000
   167  Bq   0.000000
   168  Bq   0.000000
   169  Bq   0.000000
   170  Bq   0.000000
   171  Bq   0.000000
   172  Bq   0.000000
   173  Bq   0.000000
   174  Bq   0.000000
   175  Bq   0.000000
   176  Bq   0.000000
   177  Bq   0.000000
   178  Bq   0.000000
   179  Bq   0.000000
   180  Bq   0.000000
   181  Bq   0.000000
   182  Bq   0.000000
   183  Bq   0.000000
   184  Bq   0.000000
   185  Bq   0.000000
   186  Bq   0.000000
   187  Bq   0.000000
   188  Bq   0.000000
   189  Bq   0.000000
   190  Bq   0.000000
   191  Bq   0.000000
   192  Bq   0.000000
   193  Bq   0.000000
   194  Bq   0.000000
   195  Bq   0.000000
   196  Bq   0.000000
   197  Bq   0.000000
   198  Bq   0.000000
   199  Bq   0.000000
   200  Bq   0.000000
   201  Bq   0.000000
   202  Bq   0.000000
   203  Bq   0.000000
   204  Bq   0.000000
   205  Bq   0.000000
   206  Bq   0.000000
   207  Bq   0.000000
   208  Bq   0.000000
   209  Bq   0.000000
   210  Bq   0.000000
   211  Bq   0.000000
   212  Bq   0.000000
   213  Bq   0.000000
   214  Bq   0.000000
   215  Bq   0.000000
   216  Bq   0.000000
   217  Bq   0.000000
   218  Bq   0.000000
   219  Bq   0.000000
   220  Bq   0.000000
   221  Bq   0.000000
   222  Bq   0.000000
   223  Bq   0.000000
   224  Bq   0.000000
   225  Bq   0.000000
   226  Bq   0.000000
   227  Bq   0.000000
   228  Bq   0.000000
   229  Bq   0.000000
   230  Bq   0.000000
   231  Bq   0.000000
   232  Bq   0.000000
   233  Bq   0.000000
   234  Bq   0.000000
   235  Bq   0.000000
   236  Bq   0.000000
 Sum of Mulliken charges =   0.00000
 Mulliken charges with hydrogens summed into heavy atoms:
               1
     1  C   -0.255498
     3  C    0.169409
     5  C    0.448258
     6  C    0.064351
     7  C   -0.333926
     9  C   -0.139521
    11  C   -0.322216
    13  C   -0.119315
    15  C    0.653397
    16  C    0.034822
    17  C   -0.317410
    19  C   -0.316854
    21  C    0.651066
    22  C    0.037784
    23  C   -0.117289
    25  C   -0.205316
    27  C    0.448331
    28  C    0.061983
    29  C   -0.333381
    31  C   -0.139505
    33  C   -0.255977
    35  C    0.170579
    37  Bq   0.000000
    38  Bq   0.000000
    39  Bq   0.000000
    40  Bq   0.000000
    41  Bq   0.000000
    42  Bq   0.000000
    43  Bq   0.000000
    44  Bq   0.000000
    45  Bq   0.000000
    46  Bq   0.000000
    47  Bq   0.000000
    48  Bq   0.000000
    49  Bq   0.000000
    50  Bq   0.000000
    51  Bq   0.000000
    52  Bq   0.000000
    53  Bq   0.000000
    54  Bq   0.000000
    55  Bq   0.000000
    56  Bq   0.000000
    57  Bq   0.000000
    58  Bq   0.000000
    59  Bq   0.000000
    60  Bq   0.000000
    61  Bq   0.000000
    62  Bq   0.000000
    63  Bq   0.000000
    64  Bq   0.000000
    65  Bq   0.000000
    66  Bq   0.000000
    67  Bq   0.000000
    68  Bq   0.000000
    69  Bq   0.000000
    70  Bq   0.000000
    71  Bq   0.000000
    72  Bq   0.000000
    73  Bq   0.000000
    74  Bq   0.000000
    75  Bq   0.000000
    76  Bq   0.000000
    77  Bq   0.000000
    78  Bq   0.000000
    79  Bq   0.000000
    80  Bq   0.000000
    81  Bq   0.000000
    82  Bq   0.000000
    83  Bq   0.000000
    84  Bq   0.000000
    85  Bq   0.000000
    86  Bq   0.000000
    87  Bq   0.000000
    88  Bq   0.000000
    89  Bq   0.000000
    90  Bq   0.000000
    91  Bq   0.000000
    92  Bq   0.000000
    93  Bq   0.000000
    94  Bq   0.000000
    95  Bq   0.000000
    96  Bq   0.000000
    97  Bq   0.000000
    98  Bq   0.000000
    99  Bq   0.000000
   100  Bq   0.000000
   101  Bq   0.000000
   102  Bq   0.000000
   103  Bq   0.000000
   104  Bq   0.000000
   105  Bq   0.000000
   106  Bq   0.000000
   107  Bq   0.000000
   108  Bq   0.000000
   109  Bq   0.000000
   110  Bq   0.000000
   111  Bq   0.000000
   112  Bq   0.000000
   113  Bq   0.000000
   114  Bq   0.000000
   115  Bq   0.000000
   116  Bq   0.000000
   117  Bq   0.000000
   118  Bq   0.000000
   119  Bq   0.000000
   120  Bq   0.000000
   121  Bq   0.000000
   122  Bq   0.000000
   123  Bq   0.000000
   124  Bq   0.000000
   125  Bq   0.116228
   126  Bq   0.000000
   127  Bq   0.000000
   128  Bq   0.000000
   129  Bq   0.000000
   130  Bq   0.000000
   131  Bq   0.000000
   132  Bq   0.000000
   133  Bq   0.000000
   134  Bq   0.000000
   135  Bq   0.000000
   136  Bq   0.000000
   137  Bq   0.000000
   138  Bq   0.000000
   139  Bq   0.000000
   140  Bq   0.000000
   141  Bq   0.000000
   142  Bq   0.000000
   143  Bq   0.000000
   144  Bq   0.000000
   145  Bq   0.000000
   146  Bq   0.000000
   147  Bq   0.000000
   148  Bq   0.000000
   149  Bq   0.000000
   150  Bq   0.000000
   151  Bq   0.000000
   152  Bq   0.000000
   153  Bq   0.000000
   154  Bq   0.000000
   155  Bq   0.000000
   156  Bq   0.000000
   157  Bq   0.000000
   158  Bq   0.000000
   159  Bq   0.000000
   160  Bq   0.000000
   161  Bq   0.000000
   162  Bq   0.000000
   163  Bq   0.000000
   164  Bq   0.000000
   165  Bq   0.000000
   166  Bq   0.000000
   167  Bq   0.000000
   168  Bq   0.000000
   169  Bq   0.000000
   170  Bq   0.000000
   171  Bq   0.000000
   172  Bq   0.000000
   173  Bq   0.000000
   174  Bq   0.000000
   175  Bq   0.000000
   176  Bq   0.000000
   177  Bq   0.000000
   178  Bq   0.000000
   179  Bq   0.000000
   180  Bq   0.000000
   181  Bq   0.000000
   182  Bq   0.000000
   183  Bq   0.000000
   184  Bq   0.000000
   185  Bq   0.000000
   186  Bq   0.000000
   187  Bq   0.000000
   188  Bq   0.000000
   189  Bq   0.000000
   190  Bq   0.000000
   191  Bq   0.000000
   192  Bq   0.000000
   193  Bq   0.000000
   194  Bq   0.000000
   195  Bq   0.000000
   196  Bq   0.000000
   197  Bq   0.000000
   198  Bq   0.000000
   199  Bq   0.000000
   200  Bq   0.000000
   201  Bq   0.000000
   202  Bq   0.000000
   203  Bq   0.000000
   204  Bq   0.000000
   205  Bq   0.000000
   206  Bq   0.000000
   207  Bq   0.000000
   208  Bq   0.000000
   209  Bq   0.000000
   210  Bq   0.000000
   211  Bq   0.000000
   212  Bq   0.000000
   213  Bq   0.000000
   214  Bq   0.000000
   215  Bq   0.000000
   216  Bq   0.000000
   217  Bq   0.000000
   218  Bq   0.000000
   219  Bq   0.000000
   220  Bq   0.000000
   221  Bq   0.000000
   222  Bq   0.000000
   223  Bq   0.000000
   224  Bq   0.000000
   225  Bq   0.000000
   226  Bq   0.000000
   227  Bq   0.000000
   228  Bq   0.000000
   229  Bq   0.000000
   230  Bq   0.000000
   231  Bq   0.000000
   232  Bq   0.000000
   233  Bq   0.000000
   234  Bq   0.000000
   235  Bq   0.000000
   236  Bq   0.000000
 Electronic spatial extent (au):  <R**2>=           5736.9264
 Charge=              0.0000 electrons
 Dipole moment (field-independent basis, Debye):
    X=              0.0475    Y=              0.0856    Z=              0.0029  Tot=              0.0979
 Quadrupole moment (field-independent basis, Debye-Ang):
   XX=           -113.7056   YY=           -113.9456   ZZ=           -133.2669
   XY=             -0.3834   XZ=              3.2102   YZ=             -1.1839
 Traceless Quadrupole moment (field-independent basis, Debye-Ang):
   XX=              6.6005   YY=              6.3604   ZZ=            -12.9609
   XY=             -0.3834   XZ=              3.2102   YZ=             -1.1839
 Octapole moment (field-independent basis, Debye-Ang**2):
  XXX=            -16.4668  YYY=            -16.1860  ZZZ=             -1.7007  XYY=              2.5576
  XXY=             -6.5650  XXZ=             13.6547  XZZ=             -8.9478  YZZ=            -17.7168
  YYZ=            -13.2941  XYZ=              8.8036
 Hexadecapole moment (field-independent basis, Debye-Ang**3):
 XXXX=          -3951.1638 YYYY=          -3112.2161 ZZZZ=           -504.8311 XXXY=            340.6935
 XXXZ=            156.4968 YYYX=            335.5625 YYYZ=            -87.0893 ZZZX=            120.2262
 ZZZY=           -108.7373 XXYY=          -1176.4844 XXZZ=           -856.7291 YYZZ=           -665.7275
 XXYZ=            -68.9016 YYXZ=             48.1602 ZZXY=            153.0375
 N-N= 1.610917615562D+03 E-N=-5.186891130729D+03  KE= 8.436329774448D+02
 1\1\GINC-PLANA\SP\RB3LYP\6-311+G(d,p)\C22H14\YANNICK\21-Aug-2020\0\\# 
 rb3lyp/6-311+g** NMR geom=connectivity\\Title\\0,1\C,0,-4.0500558,-0.5
 771862,0.8136712\H,0,-5.0263804,-1.0082727,1.002476\C,0,-3.9381552,0.6
 617804,0.2400876\H,0,-4.8252424,1.233889,-0.0111295\C,0,-2.676841,1.24
 33246,0.0057578\C,0,-1.4974121,0.5051527,0.2848253\C,0,-1.6508332,-0.7
 338728,0.9404026\H,0,-0.7713646,-1.2730967,1.2633753\C,0,-2.8898548,-1
 .2624035,1.1994307\H,0,-2.9683706,-2.2124563,1.7152676\C,0,-2.5773185,
 2.5963696,-0.419293\H,0,-3.4870728,3.1412239,-0.6474055\C,0,-1.3741895
 ,3.2147896,-0.436403\H,0,-1.2997315,4.2742019,-0.6578144\C,0,-0.171948
 8,2.499409,-0.1734588\C,0,-0.2043917,1.1018437,0.0192689\C,0,1.0513491
 ,3.204256,-0.0676222\H,0,1.0427344,4.2819499,-0.1896997\C,0,2.1942091,
 2.5487446,0.2579577\H,0,3.1168527,3.0912848,0.4334727\C,0,2.2216473,1.
 1336562,0.293499\C,0,1.0486931,0.3945528,0.0302412\C,0,3.4483363,0.461
 4633,0.5573939\H,0,4.3095794,1.0606054,0.8334846\C,0,3.5427346,-0.8855
 926,0.4749463\H,0,4.4731467,-1.3939704,0.7038822\C,0,2.4490052,-1.6474
 447,-0.0196319\C,0,1.2150704,-1.0057258,-0.3013573\C,0,0.2531113,-1.74
 3444,-1.0216591\H,0,-0.6541356,-1.2535051,-1.3462847\C,0,0.4494193,-3.
 0628597,-1.3413779\H,0,-0.3083162,-3.5944309,-1.905406\C,0,1.6251726,-
 3.7207967,-0.9552541\H,0,1.7670048,-4.7687404,-1.1927019\C,0,2.6109872
 ,-3.0144177,-0.318305\H,0,3.5525612,-3.4902813,-0.0646367\Bq,0,-3.0099
 221173,2.4417871916,-0.3304761984\Bq,0,-3.029132024,2.5645337785,0.153
 8421421\Bq,0,-3.0320010511,2.6860229278,0.2261757807\Bq,0,-3.024317088
 4,2.6369242931,0.0324484445\Bq,0,-3.0358430324,2.7105722452,0.32303944
 88\Bq,0,-3.0204751071,2.6123749757,-0.0644152235\Bq,0,-3.0396850137,2.
 7351215626,0.4199031169\Bq,0,-3.0166331257,2.5878256583,-0.1612788916\
 Bq,0,-3.0435269951,2.75967088,0.516766785\Bq,0,-3.0127911444,2.5632763
 409,-0.2581425597\Bq,0,-3.0473689764,2.7842201973,0.6136304531\Bq,0,-3
 .0089491631,2.5387270236,-0.3550062278\Bq,0,-3.0281590697,2.6614736105
 ,0.1293121126\Bq,0,-3.0310280968,2.7829627598,0.2016457513\Bq,0,-3.023
 3441342,2.733864125,0.0079184151\Bq,0,-3.0348700782,2.8075120771,0.298
 5094194\Bq,0,-3.0195021529,2.7093148076,-0.088945253\Bq,0,-3.038712059
 5,2.8320613945,0.3953730875\Bq,0,-3.0156601715,2.6847654903,-0.1858089
 211\Bq,0,-3.0425540408,2.8566107119,0.4922367556\Bq,0,-3.0118181902,2.
 6602161729,-0.2826725892\Bq,0,-3.0463960222,2.8811600293,0.5891004237\
 Bq,0,-3.0079762089,2.6356668555,-0.3795362572\Bq,0,-3.0271861155,2.758
 4134424,0.1047820832\Bq,0,-3.0300551426,2.8799025917,0.1771157219\Bq,0
 ,-3.02237118,2.830803957,-0.0166116143\Bq,0,-3.0338971239,2.9044519091
 ,0.27397939\Bq,0,-3.0185291986,2.8062546396,-0.1134752824\Bq,0,-3.0377
 391053,2.9290012265,0.3708430581\Bq,0,-3.0146872173,2.7817053222,-0.21
 03389505\Bq,0,-3.0415810866,2.9535505438,0.4677067261\Bq,0,-3.01084523
 6,2.7571560048,-0.3072026186\Bq,0,-3.0454230679,2.9780998612,0.5645703
 942\Bq,0,-3.0070032546,2.7326066875,-0.4040662867\Bq,0,-3.0262131613,2
 .8553532743,0.0802520538\Bq,0,-3.0290821884,2.9768424236,0.1525856924\
 Bq,0,-3.0213982257,2.9277437889,-0.0411416437\Bq,0,-3.0329241697,3.001
 391741,0.2494493605\Bq,0,-3.0175562444,2.9031944715,-0.1380053118\Bq,0
 ,-3.036766151,3.0259410584,0.3463130286\Bq,0,-3.0137142631,2.878645154
 1,-0.2348689799\Bq,0,-3.0406081324,3.0504903758,0.4431766967\Bq,0,-3.0
 098722817,2.8540958368,-0.331732648\Bq,0,-3.0444501137,3.0750396931,0.
 5400403648\Bq,0,-3.0060303004,2.8295465194,-0.4285963161\Bq,0,-3.02524
 02071,2.9522931063,0.0557220244\Bq,0,-3.0281092342,3.0737822556,0.1280
 55663\Bq,0,-3.0204252715,3.0246836208,-0.0656716732\Bq,0,-3.0319512155
 ,3.098331573,0.2249193311\Bq,0,-3.0165832902,3.0001343035,-0.162535341
 3\Bq,0,-3.0357931968,3.1228808903,0.3217829992\Bq,0,-3.0127413088,2.97
 55849861,-0.2593990093\Bq,0,-3.0396351782,3.1474302077,0.4186466673\Bq
 ,0,-3.0088993275,2.9510356687,-0.3562626774\Bq,0,-3.0434771595,3.17197
 95251,0.5155103354\Bq,0,-3.0050573462,2.9264863513,-0.4531263455\Bq,0,
 -3.0242672528,3.0492329382,0.0311919949\Bq,0,-3.0271362799,3.170722087
 5,0.1035256336\Bq,0,-3.0194523173,3.1216234528,-0.0902017026\Bq,0,-3.0
 309782613,3.1952714049,0.2003893017\Bq,0,-3.015610336,3.0970741354,-0.
 1870653707\Bq,0,-3.0348202426,3.2198207223,0.2972529698\Bq,0,-3.011768
 3546,3.072524818,-0.2839290388\Bq,0,-3.0386622239,3.2443700397,0.39411
 66379\Bq,0,-3.0079263733,3.0479755006,-0.3807927069\Bq,0,-3.0425042053
 ,3.268919357,0.4909803059\Bq,0,-3.004084392,3.0234261833,-0.477656375\
 Bq,0,-3.0232942986,3.1461727701,0.0066619655\Bq,0,-3.0261633257,3.2676
 619195,0.0789956042\Bq,0,-3.0184793631,3.2185632847,-0.114731732\Bq,0,
 -3.030005307,3.2922112368,0.1758592723\Bq,0,-3.0146373817,3.1940139673
 ,-0.2115954001\Bq,0,-3.0338472884,3.3167605542,0.2727229403\Bq,0,-3.01
 07954004,3.16946465,-0.3084590682\Bq,0,-3.0376892697,3.3413098716,0.36
 95866084\Bq,0,-3.0069534191,3.1449153326,-0.4053227363\Bq,0,-3.0415312
 51,3.365859189,0.4664502765\Bq,0,-3.0031114377,3.1203660152,-0.5021864
 044\Bq,0,-3.0223213444,3.2431126021,-0.0178680639\Bq,0,-3.0251903715,3
 .3646017514,0.0544655747\Bq,0,-3.0175064088,3.3155031167,-0.1392617614
 \Bq,0,-3.0290323528,3.3891510688,0.1513292428\Bq,0,-3.0136644275,3.290
 9537993,-0.2361254295\Bq,0,-3.0328743342,3.4137003862,0.2481929109\Bq,
 0,-3.0098224462,3.2664044819,-0.3329890976\Bq,0,-3.0367163155,3.438249
 7035,0.345056579\Bq,0,-3.0059804648,3.2418551645,-0.4298527657\Bq,0,-3
 .0405582968,3.4627990209,0.4419202471\Bq,0,-3.0021384835,3.2173058471,
 -0.5267164338\Bq,0,-3.0213483902,3.340052434,-0.0423980934\Bq,0,-3.024
 2174173,3.4615415833,0.0299355453\Bq,0,-3.0165334546,3.4124429486,-0.1
 637917909\Bq,0,-3.0280593986,3.4860909007,0.1267992134\Bq,0,-3.0126914
 733,3.3878936312,-0.260655459\Bq,0,-3.0319013799,3.5106402181,0.223662
 8815\Bq,0,-3.008849492,3.3633443138,-0.3575191271\Bq,0,-3.0357433613,3
 .5351895355,0.3205265496\Bq,0,-3.0050075106,3.3387949965,-0.4543827951
 \Bq,0,-3.0395853426,3.5597388528,0.4173902177\Bq,0,-3.0011655293,3.314
 2456791,-0.5512464632\Bq,0,-3.0203754359,3.436992266,-0.0669281228\Bq,
 0,-3.023244463,3.5584814153,0.0054055159\Bq,0,-3.0155605004,3.50938278
 05,-0.1883218203\Bq,0,-3.0270864444,3.5830307327,0.102269184\Bq,0,-3.0
 117185191,3.4848334632,-0.2851854884\Bq,0,-3.0309284257,3.60758005,0.1
 991328521\Bq,0,-3.0078765377,3.4602841458,-0.3820491565\Bq,0,-3.034770
 407,3.6321293674,0.2959965202\Bq,0,-3.0040345564,3.4357348284,-0.47891
 28246\Bq,0,-3.0386123884,3.6566786848,0.3928601882\Bq,0,-3.0001925751,
 3.411185511,-0.5757764927\Bq,0,-3.0194024817,3.5339320979,-0.091458152
 2\Bq,0,-3.0222715088,3.6554212472,-0.0191245135\Bq,0,-3.0145875462,3.6
 063226125,-0.2128518497\Bq,0,-3.0261134901,3.6799705646,0.0777391545\B
 q,0,-3.0107455648,3.5817732951,-0.3097155178\Bq,0,-3.0299554715,3.7045
 19882,0.1746028226\Bq,0,-3.0069035835,3.5572239777,-0.4065791859\Bq,0,
 -3.0337974528,3.7290691993,0.2714664907\Bq,0,-3.0030616022,3.532674660
 3,-0.503442854\Bq,0,-3.0376394341,3.7536185167,0.3683301588\Bq,0,-2.99
 92196208,3.508125343,-0.6003065221\Bq,0,-3.0184295275,3.6308719298,-0.
 1159881816\Bq,0,-3.0212985546,3.7523610792,-0.043654543\Bq,0,-3.013614
 5919,3.7032624444,-0.2373818792\Bq,0,-3.0251405359,3.7769103965,0.0532
 091251\Bq,0,-3.0097726106,3.678713127,-0.3342455472\Bq,0,-3.0289825173
 ,3.8014597139,0.1500727932\Bq,0,-3.0059306293,3.6541638097,-0.43110921
 53\Bq,0,-3.0328244986,3.8260090313,0.2469364613\Bq,0,-3.0020886479,3.6
 296144923,-0.5279728834\Bq,0,-3.0366664799,3.8505583487,0.3438001294\B
 q,0,-2.9982466666,3.6050651749,-0.6248365515\Bq,0,-3.0174565733,3.7278
 117618,-0.1405182111\Bq,0,-3.0203256004,3.8493009111,-0.0681845724\Bq,
 0,-3.0126416377,3.8002022763,-0.2619119086\Bq,0,-3.0241675817,3.873850
 2285,0.0286790957\Bq,0,-3.0087996564,3.775652959,-0.3587755767\Bq,0,-3
 .028009563,3.8983995458,0.1255427638\Bq,0,-3.0049576751,3.7511036416,-
 0.4556392448\Bq,0,-3.0318515444,3.9229488632,0.2224064319\Bq,0,-3.0011
 156937,3.7265543242,-0.5525029129\Bq,0,-3.0356935257,3.9474981806,0.31
 92701\Bq,0,-2.9972737124,3.7020050068,-0.6493665809\Bq,0,-3.016483619,
 3.8247515937,-0.1650482405\Bq,0,-3.0193526461,3.946240743,-0.092714601
 8\Bq,0,-3.0116686835,3.8971421083,-0.286441938\Bq,0,-3.0231946275,3.97
 07900604,0.0041490663\Bq,0,-3.0078267022,3.8725927909,-0.3833056061\Bq
 ,0,-3.0270366088,3.9953393778,0.1010127344\Bq,0,-3.0039847208,3.848043
 4735,-0.4801692742\Bq,0,-3.0308785901,4.0198886952,0.1978764024\Bq,0,-
 3.0001427395,3.8234941562,-0.5770329423\Bq,0,-3.0347205715,4.044438012
 5,0.2947400705\Bq,0,-2.9963007582,3.7989448388,-0.6738966104\Bq,0,-3.0
 155106648,3.9216914257,-0.1895782699\Bq,0,-3.0183796919,4.043180575,-0
 .1172446313\Bq,0,-3.0106957293,3.9940819402,-0.3109719674\Bq,0,-3.0222
 216733,4.0677298924,-0.0203809632\Bq,0,-3.0068537479,3.9695326228,-0.4
 078356355\Bq,0,-3.0260636546,4.0922792097,0.0764827049\Bq,0,-3.0030117
 666,3.9449833055,-0.5046993036\Bq,0,-3.0299056359,4.1168285271,0.17334
 6373\Bq,0,-2.9991697853,3.9204339881,-0.6015629717\Bq,0,-3.0337476172,
 4.1413778445,0.2702100411\Bq,0,-2.9953278039,3.8958846707,-0.698426639
 8\Bq,0,-3.0145377106,4.0186312576,-0.2141082993\Bq,0,-3.0174067377,4.1
 401204069,-0.1417746607\Bq,0,-3.009722775,4.0910217722,-0.3355019969\B
 q,0,-3.021248719,4.1646697243,-0.0449109926\Bq,0,-3.0058807937,4.06647
 24548,-0.432365665\Bq,0,-3.0250907004,4.1892190417,0.0519526755\Bq,0,-
 3.0020388124,4.0419231374,-0.529229333\Bq,0,-3.0289326817,4.213768359,
 0.1488163436\Bq,0,-2.9981968311,4.01737382,-0.6260930011\Bq,0,-3.03277
 4663,4.2383176764,0.2456800117\Bq,0,-2.9943548497,3.9928245027,-0.7229
 566692\Bq,0,-3.0135647564,4.1155710895,-0.2386383288\Bq,0,-3.016433783
 5,4.2370602389,-0.1663046901\Bq,0,-3.0087498208,4.1879616041,-0.360032
 0263\Bq,0,-3.0202757648,4.2616095562,-0.069441022\Bq,0,-3.0049078395,4
 .1634122867,-0.4568956944\Bq,0,-3.0241177461,4.2861588736,0.0274226461
 \Bq,0,-3.0010658582,4.1388629694,-0.5537593625\Bq,0,-3.0279597275,4.31
 0708191,0.1242863142\Bq,0,-2.9972238768,4.114313652,-0.6506230306\Bq,0
 ,-3.0318017088,4.3352575084,0.2211499823\Bq,0,-2.9933818955,4.08976433
 46,-0.7474866986\Bq,0,-3.0125918021,4.2125109215,-0.2631683582\Bq,0,-3
 .0154608292,4.3340000708,-0.1908347195\Bq,0,-3.0077768666,4.284901436,
 -0.3845620557\Bq,0,-3.0193028106,4.3585493882,-0.0939710514\Bq,0,-3.00
 39348853,4.2603521187,-0.4814257238\Bq,0,-3.0231447919,4.3830987055,0.
 0028926166\Bq,0,-3.0000929039,4.2358028013,-0.5782893919\Bq,0,-3.02698
 67732,4.4076480229,0.0997562847\Bq,0,-2.9962509226,4.2112534839,-0.675
 15306\Bq,0,-3.0308287546,4.4321973403,0.1966199528\Bq,0,-2.9924089413,
 4.1867041665,-0.7720167281\Bq,0,-3.0116188479,4.3094507534,-0.28769838
 76\\Version=ES64L-G09RevD.01\HF=-847.0032898\RMSD=7.537e-09\Dipole=0.0
 186808,0.0336671,0.0011595\Quadrupole=4.9072795,4.7288219,-9.6361014,-
 0.2850201,2.3867064,-0.880172\PG=C01 [X(C22H14)]\\@


 DESK:  A WASTEBASKET WITH DRAWERS.
 Job cpu time:       0 days  3 hours 57 minutes 17.7 seconds.
 File lengths (MBytes):  RWF=    184 Int=      0 D2E=      0 Chk=     19 Scr=      1
 Normal termination of Gaussian 09 at Fri Aug 21 21:17:17 2020.
