 Entering Gaussian System, Link 0=g09
 Input=input_cycle_02_batch_11800.com
 Output=input_cycle_02_batch_11800.log
 Initial command:
 /share/programs/GAUSSIAN/64/g09/l1.exe "/scratch/yannick.30112/Gau-2510309.inp" -scrdir="/scratch/yannick.30112/"
 Entering Link 1 = /share/programs/GAUSSIAN/64/g09/l1.exe PID=   2510310.
  
 Copyright (c) 1988,1990,1992,1993,1995,1998,2003,2009,2013,
            Gaussian, Inc.  All Rights Reserved.
  
 This is part of the Gaussian(R) 09 program.  It is based on
 the Gaussian(R) 03 system (copyright 2003, Gaussian, Inc.),
 the Gaussian(R) 98 system (copyright 1998, Gaussian, Inc.),
 the Gaussian(R) 94 system (copyright 1995, Gaussian, Inc.),
 the Gaussian 92(TM) system (copyright 1992, Gaussian, Inc.),
 the Gaussian 90(TM) system (copyright 1990, Gaussian, Inc.),
 the Gaussian 88(TM) system (copyright 1988, Gaussian, Inc.),
 the Gaussian 86(TM) system (copyright 1986, Carnegie Mellon
 University), and the Gaussian 82(TM) system (copyright 1983,
 Carnegie Mellon University). Gaussian is a federally registered
 trademark of Gaussian, Inc.
  
 This software contains proprietary and confidential information,
 including trade secrets, belonging to Gaussian, Inc.
  
 This software is provided under written license and may be
 used, copied, transmitted, or stored only in accord with that
 written license.
  
 The following legend is applicable only to US Government
 contracts under FAR:
  
                    RESTRICTED RIGHTS LEGEND
  
 Use, reproduction and disclosure by the US Government is
 subject to restrictions as set forth in subparagraphs (a)
 and (c) of the Commercial Computer Software - Restricted
 Rights clause in FAR 52.227-19.
  
 Gaussian, Inc.
 340 Quinnipiac St., Bldg. 40, Wallingford CT 06492
  
  
 ---------------------------------------------------------------
 Warning -- This program may not be used in any manner that
 competes with the business of Gaussian, Inc. or will provide
 assistance to any competitor of Gaussian, Inc.  The licensee
 of this program is prohibited from giving any competitor of
 Gaussian, Inc. access to this program.  By using this program,
 the user acknowledges that Gaussian, Inc. is engaged in the
 business of creating and licensing software in the field of
 computational chemistry and represents and warrants to the
 licensee that it is not a competitor of Gaussian, Inc. and that
 it will not use this program in any manner prohibited above.
 ---------------------------------------------------------------
  

 Cite this work as:
 Gaussian 09, Revision D.01,
 M. J. Frisch, G. W. Trucks, H. B. Schlegel, G. E. Scuseria, 
 M. A. Robb, J. R. Cheeseman, G. Scalmani, V. Barone, B. Mennucci, 
 G. A. Petersson, H. Nakatsuji, M. Caricato, X. Li, H. P. Hratchian, 
 A. F. Izmaylov, J. Bloino, G. Zheng, J. L. Sonnenberg, M. Hada, 
 M. Ehara, K. Toyota, R. Fukuda, J. Hasegawa, M. Ishida, T. Nakajima, 
 Y. Honda, O. Kitao, H. Nakai, T. Vreven, J. A. Montgomery, Jr., 
 J. E. Peralta, F. Ogliaro, M. Bearpark, J. J. Heyd, E. Brothers, 
 K. N. Kudin, V. N. Staroverov, T. Keith, R. Kobayashi, J. Normand, 
 K. Raghavachari, A. Rendell, J. C. Burant, S. S. Iyengar, J. Tomasi, 
 M. Cossi, N. Rega, J. M. Millam, M. Klene, J. E. Knox, J. B. Cross, 
 V. Bakken, C. Adamo, J. Jaramillo, R. Gomperts, R. E. Stratmann, 
 O. Yazyev, A. J. Austin, R. Cammi, C. Pomelli, J. W. Ochterski, 
 R. L. Martin, K. Morokuma, V. G. Zakrzewski, G. A. Voth, 
 P. Salvador, J. J. Dannenberg, S. Dapprich, A. D. Daniels, 
 O. Farkas, J. B. Foresman, J. V. Ortiz, J. Cioslowski, 
 and D. J. Fox, Gaussian, Inc., Wallingford CT, 2013.
 
 ******************************************
 Gaussian 09:  ES64L-G09RevD.01 24-Apr-2013
                21-Aug-2020 
 ******************************************
 %nproc=8
 Will use up to    8 processors via shared memory.
 %mem=1000MB
 ----------------------------------------
 # rb3lyp/6-311+g** NMR geom=connectivity
 ----------------------------------------
 1/38=1,57=2/1;
 2/12=2,17=6,18=5,40=1/2;
 3/5=4,6=6,7=111,11=2,16=1,25=1,30=1,74=-5,116=1/1,2,8,3;
 4//1;
 5/5=2,38=5/2;
 8/6=1,10=90,11=11/1;
 10/13=100,45=16/2;
 6/7=2,8=2,9=2,10=2,28=1/1;
 99/9=1/99;
 -----
 Title
 -----
 Symbolic Z-matrix:
 Charge =  0 Multiplicity = 1
 C                    -4.05006  -0.57719   0.81367 
 H                    -5.02638  -1.00827   1.00248 
 C                    -3.93816   0.66178   0.24009 
 H                    -4.82524   1.23389  -0.01113 
 C                    -2.67684   1.24332   0.00576 
 C                    -1.49741   0.50515   0.28483 
 C                    -1.65083  -0.73387   0.9404 
 H                    -0.77136  -1.2731    1.26338 
 C                    -2.88985  -1.2624    1.19943 
 H                    -2.96837  -2.21246   1.71527 
 C                    -2.57732   2.59637  -0.41929 
 H                    -3.48707   3.14122  -0.64741 
 C                    -1.37419   3.21479  -0.4364 
 H                    -1.29973   4.2742   -0.65781 
 C                    -0.17195   2.49941  -0.17346 
 C                    -0.20439   1.10184   0.01927 
 C                     1.05135   3.20426  -0.06762 
 H                     1.04273   4.28195  -0.1897 
 C                     2.19421   2.54874   0.25796 
 H                     3.11685   3.09128   0.43347 
 C                     2.22165   1.13366   0.2935 
 C                     1.04869   0.39455   0.03024 
 C                     3.44834   0.46146   0.55739 
 H                     4.30958   1.06061   0.83348 
 C                     3.54273  -0.88559   0.47495 
 H                     4.47315  -1.39397   0.70388 
 C                     2.44901  -1.64744  -0.01963 
 C                     1.21507  -1.00573  -0.30136 
 C                     0.25311  -1.74344  -1.02166 
 H                    -0.65414  -1.25351  -1.34628 
 C                     0.44942  -3.06286  -1.34138 
 H                    -0.30832  -3.59443  -1.90541 
 C                     1.62517  -3.7208   -0.95525 
 H                     1.767    -4.76874  -1.1927 
 C                     2.61099  -3.01442  -0.31831 
 H                     3.55256  -3.49028  -0.06464 
 Bq                   -1.8439   -0.44186   0.54985 
 Bq                   -1.87847  -0.22091   1.42162 
 Bq                   -1.84005  -0.46641   0.45298 
 Bq                   -1.85926  -0.34366   0.9373 
 Bq                   -1.86213  -0.22217   1.00964 
 Bq                   -1.85445  -0.27127   0.81591 
 Bq                   -1.86597  -0.19762   1.1065 
 Bq                   -1.85061  -0.29582   0.71904 
 Bq                   -1.86982  -0.17307   1.20336 
 Bq                   -1.84676  -0.32037   0.62218 
 Bq                   -1.87366  -0.14852   1.30023 
 Bq                   -1.84292  -0.34492   0.52532 
 Bq                   -1.8775   -0.12397   1.39709 
 Bq                   -1.83908  -0.36947   0.42845 
 Bq                   -1.85829  -0.24672   0.91277 
 Bq                   -1.86116  -0.12523   0.98511 
 Bq                   -1.85348  -0.17433   0.79138 
 Bq                   -1.865    -0.10068   1.08197 
 Bq                   -1.84963  -0.19888   0.69451 
 Bq                   -1.86884  -0.07613   1.17883 
 Bq                   -1.84579  -0.22343   0.59765 
 Bq                   -1.87269  -0.05158   1.2757 
 Bq                   -1.84195  -0.24798   0.50079 
 Bq                   -1.87653  -0.02703   1.37256 
 Bq                   -1.83811  -0.27253   0.40392 
 Bq                   -1.85732  -0.14978   0.88824 
 Bq                   -1.86019  -0.02829   0.96058 
 Bq                   -1.8525   -0.07739   0.76685 
 Bq                   -1.86403  -0.00374   1.05744 
 Bq                   -1.84866  -0.10194   0.66998 
 Bq                   -1.86787   0.02081   1.1543 
 Bq                   -1.84482  -0.12649   0.57312 
 Bq                   -1.87171   0.04536   1.25117 
 Bq                   -1.84098  -0.15104   0.47626 
 Bq                   -1.87555   0.0699    1.34803 
 Bq                   -1.83713  -0.17559   0.37939 
 Bq                   -1.85634  -0.05284   0.86371 
 Bq                   -1.85921   0.06865   0.93605 
 Bq                   -1.85153   0.01955   0.74232 
 Bq                   -1.86306   0.0932    1.03291 
 Bq                   -1.84769  -0.005     0.64545 
 Bq                   -1.8669    0.11775   1.12977 
 Bq                   -1.84385  -0.02955   0.54859 
 Bq                   -1.87074   0.1423    1.22664 
 Bq                   -1.84     -0.0541    0.45173 
 Bq                   -1.87458   0.16684   1.3235 
 Bq                   -1.83616  -0.07865   0.35486 
 Bq                   -1.85537   0.0441    0.83918 
 Bq                   -1.85824   0.16559   0.91152 
 Bq                   -1.85056   0.11649   0.71779 
 Bq                   -1.86208   0.19014   1.00838 
 Bq                   -1.84671   0.09194   0.62092 
 Bq                   -1.86592   0.21469   1.10524 
 Bq                   -1.84287   0.06739   0.52406 
 Bq                   -1.86977   0.23924   1.20211 
 Bq                   -1.83903   0.04284   0.4272 
 Bq                   -1.87361   0.26378   1.29897 
 Bq                   -1.83519   0.01829   0.33033 
 Bq                   -1.8544    0.14104   0.81465 
 Bq                   -1.85727   0.26253   0.88699 
 Bq                   -1.84958   0.21343   0.69326 
 Bq                   -1.86111   0.28708   0.98385 
 Bq                   -1.84574   0.18888   0.59639 
 Bq                   -1.86495   0.31163   1.08071 
 Bq                   -1.8419    0.16433   0.49953 
 Bq                   -1.86879   0.33618   1.17758 
 Bq                   -1.83806   0.13978   0.40267 
 Bq                   -1.87264   0.36072   1.27444 
 Bq                   -1.83422   0.11523   0.3058 
 Bq                   -1.85343   0.23798   0.79012 
 Bq                   -1.85629   0.35947   0.86246 
 Bq                   -1.84861   0.31037   0.66873 
 Bq                   -1.86014   0.38402   0.95932 
 Bq                   -1.84477   0.28582   0.57186 
 Bq                   -1.86398   0.40857   1.05618 
 Bq                   -1.84093   0.26127   0.475 
 Bq                   -1.86782   0.43311   1.15305 
 Bq                   -1.83708   0.23672   0.37814 
 Bq                   -1.87166   0.45766   1.24991 
 Bq                   -1.83324   0.21217   0.28127 
 Bq                   -1.85245   0.33492   0.76559 
 Bq                   -1.85532   0.45641   0.83793 
 Bq                   -1.84764   0.40731   0.6442 
 Bq                   -1.85916   0.48096   0.93479 
 Bq                   -1.8438    0.38276   0.54733 
 Bq                   -1.86301   0.50551   1.03165 
 Bq                   -1.83995   0.35821   0.45047 
 Bq                   -1.86685   0.53005   1.12852 
 Bq                   -1.83611   0.33366   0.35361 
 Bq                   -1.87069   0.5546    1.22538 
 Bq                   -1.83227   0.30911   0.25674 
 Bq                   -1.85148   0.43186   0.74106 
 Bq                   -1.85435   0.55335   0.8134 
 Bq                   -1.84666   0.50425   0.61967 
 Bq                   -1.85819   0.5779    0.91026 
 Bq                   -1.84282   0.4797    0.5228 
 Bq                   -1.86203   0.60245   1.00712 
 Bq                   -1.83898   0.45515   0.42594 
 Bq                   -1.86587   0.62699   1.10399 
 Bq                   -1.83514   0.4306    0.32908 
 Bq                   -1.86972   0.65154   1.20085 
 Bq                   -1.8313    0.40605   0.23221 
 Bq                   -1.85051   0.5288    0.71653 
 Bq                   -1.85338   0.65029   0.78887 
 Bq                   -1.84569   0.60119   0.59514 
 Bq                   -1.85722   0.67484   0.88573 
 Bq                   -1.84185   0.57664   0.49827 
 Bq                   -1.86106   0.69939   0.98259 
 Bq                   -1.83801   0.55209   0.40141 
 Bq                   -1.8649    0.72393   1.07946 
 Bq                   -1.83417   0.52754   0.30455 
 Bq                   -1.86874   0.74848   1.17632 
 Bq                   -1.83032   0.50299   0.20768 
 Bq                   -1.84953   0.62574   0.692 
 Bq                   -1.8524    0.74723   0.76434 
 Bq                   -1.84472   0.69813   0.57061 
 Bq                   -1.85624   0.77178   0.8612 
 Bq                   -1.84088   0.67358   0.47374 
 Bq                   -1.86009   0.79632   0.95806 
 Bq                   -1.83704   0.64903   0.37688 
 Bq                   -1.86393   0.82087   1.05493 
 Bq                   -1.83319   0.62448   0.28002 
 Bq                   -1.86777   0.84542   1.15179 
 Bq                   -1.82935   0.59993   0.18315 
 Bq                   -1.84856   0.72268   0.66747 
 Bq                   -1.85143   0.84417   0.73981 
 Bq                   -1.84375   0.79507   0.54608 
 Bq                   -1.85527   0.86872   0.83667 
 Bq                   -1.8399    0.77052   0.44921 
 Bq                   -1.85911   0.89326   0.93353 
 Bq                   -1.83606   0.74597   0.35235 
 Bq                   -1.86296   0.91781   1.0304 
 Bq                   -1.83222   0.72142   0.25549 
 Bq                   -1.8668    0.94236   1.12726 
 Bq                   -1.82838   0.69687   0.15862 
 Bq                   -1.84759   0.81962   0.64294 
 Bq                   -1.85046   0.94111   0.71528 
 Bq                   -1.84277   0.89201   0.52155 
 Bq                   -1.8543    0.96566   0.81214 
 Bq                   -1.83893   0.86746   0.42468 
 Bq                   -1.85814   0.9902    0.909 
 Bq                   -1.83509   0.84291   0.32782 
 Bq                   -1.86198   1.01475   1.00587 
 Bq                   -1.83125   0.81836   0.23096 
 Bq                   -1.86582   1.0393    1.10273 
 Bq                   -1.82741   0.79381   0.13409 
 Bq                   -1.84662   0.91656   0.61841 
 Bq                   -1.84948   1.03805   0.69075 
 Bq                   -1.8418    0.98895   0.49702 
 Bq                   -1.85333   1.0626    0.78761 
 Bq                   -1.83796   0.9644    0.40015 
 Bq                   -1.85717   1.08714   0.88447 
 Bq                   -1.83412   0.93985   0.30329 
 Bq                   -1.86101   1.11169   0.98134 
 Bq                   -1.83027   0.9153    0.20643 
 Bq                   -1.86485   1.13624   1.0782 
 Bq                   -1.82643   0.89075   0.10956 
 Bq                   -1.84564   1.0135    0.59388 
 Bq                   -1.84851   1.13499   0.66622 
 Bq                   -1.84083   1.08589   0.47249 
 Bq                   -1.85235   1.15953   0.76308 
 Bq                   -1.83699   1.06134   0.37562 
 Bq                   -1.8562    1.18408   0.85994 
 Bq                   -1.83314   1.03679   0.27876 
 Bq                   -1.86004   1.20863   0.95681 
 Bq                   -1.8293    1.01224   0.1819 
 Bq                   -1.86388   1.23318   1.05367 
 Bq                   -1.82546   0.98769   0.08503 
 Bq                   -1.84467   1.11044   0.56935 
 Bq                   -1.84754   1.23193   0.64169 
 Bq                   -1.83985   1.18283   0.44796 
 Bq                   -1.85138   1.25647   0.73855 
 Bq                   -1.83601   1.15828   0.35109 
 Bq                   -1.85522   1.28102   0.83541 
 Bq                   -1.83217   1.13373   0.25423 
 Bq                   -1.85906   1.30557   0.93228 
 Bq                   -1.82833   1.10918   0.15737 
 Bq                   -1.86291   1.33012   1.02914 
 Bq                   -1.82449   1.08463   0.0605 
 Bq                   -1.8437    1.20738   0.54482 
 Bq                   -1.84657   1.32887   0.61716 
 Bq                   -1.83888   1.27977   0.42343 
 Bq                   -1.85041   1.35341   0.71402 
 Bq                   -1.83504   1.25522   0.32656 
 Bq                   -1.85425   1.37796   0.81088 
 Bq                   -1.8312    1.23067   0.2297 
 Bq                   -1.85809   1.40251   0.90775 
 Bq                   -1.82736   1.20612   0.13284 
 Bq                   -1.86193   1.42706   1.00461 
 Bq                   -1.82351   1.18157   0.03597 
 Bq                   -1.84272   1.30432   0.52029 
 Bq                   -1.84559   1.42581   0.59263 
 Bq                   -1.83791   1.37671   0.3989 
 Bq                   -1.84943   1.45035   0.68949 
 Bq                   -1.83407   1.35216   0.30203 
 Bq                   -1.85328   1.4749    0.78635 
 Bq                   -1.83022   1.32761   0.20517 
 Bq                   -1.85712   1.49945   0.88322 
 Bq                   -1.82638   1.30306   0.10831 
 Bq                   -1.86096   1.524     0.98008 
 
 Symmetry turned off:
 Cannot cope with ghost atoms or with translation vectors.
 Stoichiometry    C22H14
 Framework group  C1[X(C22H14)]
 NUMDOF-- NAT=    36 NAtoms=   236
 Deg. of freedom     0
 Full point group                 C1      NOp   1
                          Input orientation:                          
 ---------------------------------------------------------------------
 Center     Atomic      Atomic             Coordinates (Angstroms)
 Number     Number       Type             X           Y           Z
 ---------------------------------------------------------------------
      1          6           0       -4.050056   -0.577186    0.813671
      2          1           0       -5.026380   -1.008273    1.002476
      3          6           0       -3.938155    0.661780    0.240088
      4          1           0       -4.825242    1.233889   -0.011130
      5          6           0       -2.676841    1.243325    0.005758
      6          6           0       -1.497412    0.505153    0.284825
      7          6           0       -1.650833   -0.733873    0.940403
      8          1           0       -0.771365   -1.273097    1.263375
      9          6           0       -2.889855   -1.262404    1.199431
     10          1           0       -2.968371   -2.212456    1.715268
     11          6           0       -2.577319    2.596370   -0.419293
     12          1           0       -3.487073    3.141224   -0.647406
     13          6           0       -1.374190    3.214790   -0.436403
     14          1           0       -1.299732    4.274202   -0.657814
     15          6           0       -0.171949    2.499409   -0.173459
     16          6           0       -0.204392    1.101844    0.019269
     17          6           0        1.051349    3.204256   -0.067622
     18          1           0        1.042734    4.281950   -0.189700
     19          6           0        2.194209    2.548745    0.257958
     20          1           0        3.116853    3.091285    0.433473
     21          6           0        2.221647    1.133656    0.293499
     22          6           0        1.048693    0.394553    0.030241
     23          6           0        3.448336    0.461463    0.557394
     24          1           0        4.309579    1.060605    0.833485
     25          6           0        3.542735   -0.885593    0.474946
     26          1           0        4.473147   -1.393970    0.703882
     27          6           0        2.449005   -1.647445   -0.019632
     28          6           0        1.215070   -1.005726   -0.301357
     29          6           0        0.253111   -1.743444   -1.021659
     30          1           0       -0.654136   -1.253505   -1.346285
     31          6           0        0.449419   -3.062860   -1.341378
     32          1           0       -0.308316   -3.594431   -1.905406
     33          6           0        1.625173   -3.720797   -0.955254
     34          1           0        1.767005   -4.768740   -1.192702
     35          6           0        2.610987   -3.014418   -0.318305
     36          1           0        3.552561   -3.490281   -0.064637
     37          0           0       -1.843896   -0.441858    0.549848
     38          0           0       -1.878473   -0.220915    1.421621
     39          0           0       -1.840054   -0.466408    0.452984
     40          0           0       -1.859263   -0.343661    0.937302
     41          0           0       -1.862132   -0.222172    1.009636
     42          0           0       -1.854449   -0.271271    0.815908
     43          0           0       -1.865974   -0.197623    1.106499
     44          0           0       -1.850607   -0.295820    0.719045
     45          0           0       -1.869816   -0.173073    1.203363
     46          0           0       -1.846765   -0.320369    0.622181
     47          0           0       -1.873658   -0.148524    1.300227
     48          0           0       -1.842923   -0.344919    0.525317
     49          0           0       -1.877500   -0.123975    1.397091
     50          0           0       -1.839081   -0.369468    0.428454
     51          0           0       -1.858291   -0.246721    0.912772
     52          0           0       -1.861160   -0.125232    0.985106
     53          0           0       -1.853476   -0.174331    0.791378
     54          0           0       -1.865002   -0.100683    1.081969
     55          0           0       -1.849634   -0.198880    0.694515
     56          0           0       -1.868844   -0.076134    1.178833
     57          0           0       -1.845792   -0.223429    0.597651
     58          0           0       -1.872685   -0.051584    1.275697
     59          0           0       -1.841950   -0.247979    0.500787
     60          0           0       -1.876527   -0.027035    1.372560
     61          0           0       -1.838108   -0.272528    0.403924
     62          0           0       -1.857318   -0.149782    0.888242
     63          0           0       -1.860187   -0.028292    0.960576
     64          0           0       -1.852503   -0.077391    0.766848
     65          0           0       -1.864029   -0.003743    1.057439
     66          0           0       -1.848661   -0.101940    0.669985
     67          0           0       -1.867871    0.020806    1.154303
     68          0           0       -1.844819   -0.126490    0.573121
     69          0           0       -1.871713    0.045356    1.251167
     70          0           0       -1.840977   -0.151039    0.476257
     71          0           0       -1.875555    0.069905    1.348030
     72          0           0       -1.837135   -0.175588    0.379394
     73          0           0       -1.856345   -0.052842    0.863712
     74          0           0       -1.859214    0.068647    0.936046
     75          0           0       -1.851530    0.019549    0.742318
     76          0           0       -1.863056    0.093197    1.032909
     77          0           0       -1.847688   -0.005000    0.645455
     78          0           0       -1.866898    0.117746    1.129773
     79          0           0       -1.843846   -0.029550    0.548591
     80          0           0       -1.870740    0.142295    1.226637
     81          0           0       -1.840004   -0.054099    0.451727
     82          0           0       -1.874582    0.166845    1.323500
     83          0           0       -1.836162   -0.078648    0.354864
     84          0           0       -1.855372    0.044098    0.839182
     85          0           0       -1.858241    0.165587    0.911516
     86          0           0       -1.850557    0.116489    0.717788
     87          0           0       -1.862083    0.190137    1.008379
     88          0           0       -1.846715    0.091939    0.620925
     89          0           0       -1.865925    0.214686    1.105243
     90          0           0       -1.842873    0.067390    0.524061
     91          0           0       -1.869767    0.239235    1.202107
     92          0           0       -1.839031    0.042841    0.427197
     93          0           0       -1.873609    0.263785    1.298970
     94          0           0       -1.835189    0.018291    0.330334
     95          0           0       -1.854399    0.141038    0.814652
     96          0           0       -1.857268    0.262527    0.886986
     97          0           0       -1.849584    0.213428    0.693258
     98          0           0       -1.861110    0.287076    0.983849
     99          0           0       -1.845742    0.188879    0.596395
    100          0           0       -1.864952    0.311626    1.080713
    101          0           0       -1.841900    0.164330    0.499531
    102          0           0       -1.868794    0.336175    1.177577
    103          0           0       -1.838058    0.139781    0.402667
    104          0           0       -1.872636    0.360724    1.274440
    105          0           0       -1.834216    0.115231    0.305804
    106          0           0       -1.853426    0.237978    0.790122
    107          0           0       -1.856295    0.359467    0.862456
    108          0           0       -1.848611    0.310368    0.668728
    109          0           0       -1.860137    0.384016    0.959319
    110          0           0       -1.844769    0.285819    0.571865
    111          0           0       -1.863979    0.408566    1.056183
    112          0           0       -1.840927    0.261270    0.475001
    113          0           0       -1.867821    0.433115    1.153047
    114          0           0       -1.837085    0.236720    0.378137
    115          0           0       -1.871663    0.457664    1.249910
    116          0           0       -1.833243    0.212171    0.281274
    117          0           0       -1.852453    0.334918    0.765592
    118          0           0       -1.855322    0.456407    0.837926
    119          0           0       -1.847638    0.407308    0.644198
    120          0           0       -1.859164    0.480956    0.934789
    121          0           0       -1.843796    0.382759    0.547335
    122          0           0       -1.863006    0.505505    1.031653
    123          0           0       -1.839954    0.358210    0.450471
    124          0           0       -1.866848    0.530055    1.128517
    125          0           0       -1.836112    0.333660    0.353607
    126          0           0       -1.870690    0.554604    1.225380
    127          0           0       -1.832270    0.309111    0.256744
    128          0           0       -1.851480    0.431857    0.741062
    129          0           0       -1.854349    0.553347    0.813396
    130          0           0       -1.846665    0.504248    0.619668
    131          0           0       -1.858191    0.577896    0.910259
    132          0           0       -1.842823    0.479699    0.522805
    133          0           0       -1.862033    0.602445    1.007123
    134          0           0       -1.838981    0.455149    0.425941
    135          0           0       -1.865875    0.626995    1.103987
    136          0           0       -1.835139    0.430600    0.329077
    137          0           0       -1.869717    0.651544    1.200850
    138          0           0       -1.831297    0.406051    0.232214
    139          0           0       -1.850507    0.528797    0.716532
    140          0           0       -1.853376    0.650286    0.788866
    141          0           0       -1.845692    0.601188    0.595138
    142          0           0       -1.857218    0.674836    0.885729
    143          0           0       -1.841850    0.576639    0.498275
    144          0           0       -1.861060    0.699385    0.982593
    145          0           0       -1.838008    0.552089    0.401411
    146          0           0       -1.864902    0.723934    1.079457
    147          0           0       -1.834166    0.527540    0.304547
    148          0           0       -1.868744    0.748484    1.176320
    149          0           0       -1.830324    0.502991    0.207684
    150          0           0       -1.849534    0.625737    0.692002
    151          0           0       -1.852403    0.747226    0.764336
    152          0           0       -1.844719    0.698128    0.570608
    153          0           0       -1.856245    0.771776    0.861199
    154          0           0       -1.840877    0.673578    0.473745
    155          0           0       -1.860087    0.796325    0.958063
    156          0           0       -1.837035    0.649029    0.376881
    157          0           0       -1.863929    0.820874    1.054927
    158          0           0       -1.833193    0.624480    0.280017
    159          0           0       -1.867771    0.845424    1.151790
    160          0           0       -1.829351    0.599930    0.183154
    161          0           0       -1.848561    0.722677    0.667472
    162          0           0       -1.851430    0.844166    0.739806
    163          0           0       -1.843746    0.795067    0.546078
    164          0           0       -1.855272    0.868715    0.836669
    165          0           0       -1.839904    0.770518    0.449215
    166          0           0       -1.859114    0.893265    0.933533
    167          0           0       -1.836062    0.745969    0.352351
    168          0           0       -1.862956    0.917814    1.030397
    169          0           0       -1.832220    0.721420    0.255487
    170          0           0       -1.866798    0.942363    1.127260
    171          0           0       -1.828378    0.696870    0.158623
    172          0           0       -1.847588    0.819617    0.642942
    173          0           0       -1.850457    0.941106    0.715275
    174          0           0       -1.842773    0.892007    0.521548
    175          0           0       -1.854299    0.965655    0.812139
    176          0           0       -1.838931    0.867458    0.424684
    177          0           0       -1.858141    0.990205    0.909003
    178          0           0       -1.835089    0.842909    0.327821
    179          0           0       -1.861983    1.014754    1.005866
    180          0           0       -1.831247    0.818359    0.230957
    181          0           0       -1.865825    1.039303    1.102730
    182          0           0       -1.827405    0.793810    0.134093
    183          0           0       -1.846615    0.916557    0.618412
    184          0           0       -1.849484    1.038046    0.690745
    185          0           0       -1.841800    0.988947    0.497018
    186          0           0       -1.853326    1.062595    0.787609
    187          0           0       -1.837958    0.964398    0.400154
    188          0           0       -1.857168    1.087144    0.884473
    189          0           0       -1.834116    0.939849    0.303291
    190          0           0       -1.861010    1.111694    0.981336
    191          0           0       -1.830274    0.915299    0.206427
    192          0           0       -1.864852    1.136243    1.078200
    193          0           0       -1.826432    0.890750    0.109563
    194          0           0       -1.845642    1.013496    0.593882
    195          0           0       -1.848511    1.134986    0.666215
    196          0           0       -1.840827    1.085887    0.472488
    197          0           0       -1.852353    1.159535    0.763079
    198          0           0       -1.836985    1.061338    0.375624
    199          0           0       -1.856195    1.184084    0.859943
    200          0           0       -1.833143    1.036788    0.278761
    201          0           0       -1.860037    1.208634    0.956806
    202          0           0       -1.829301    1.012239    0.181897
    203          0           0       -1.863879    1.233183    1.053670
    204          0           0       -1.825459    0.987690    0.085033
    205          0           0       -1.844669    1.110436    0.569352
    206          0           0       -1.847538    1.231925    0.641685
    207          0           0       -1.839854    1.182827    0.447958
    208          0           0       -1.851380    1.256475    0.738549
    209          0           0       -1.836012    1.158277    0.351094
    210          0           0       -1.855222    1.281024    0.835413
    211          0           0       -1.832170    1.133728    0.254231
    212          0           0       -1.859064    1.305573    0.932276
    213          0           0       -1.828328    1.109179    0.157367
    214          0           0       -1.862906    1.330123    1.029140
    215          0           0       -1.824486    1.084630    0.060503
    216          0           0       -1.843696    1.207376    0.544822
    217          0           0       -1.846565    1.328865    0.617155
    218          0           0       -1.838881    1.279767    0.423428
    219          0           0       -1.850407    1.353415    0.714019
    220          0           0       -1.835039    1.255217    0.326564
    221          0           0       -1.854249    1.377964    0.810883
    222          0           0       -1.831197    1.230668    0.229701
    223          0           0       -1.858091    1.402513    0.907746
    224          0           0       -1.827355    1.206119    0.132837
    225          0           0       -1.861933    1.427063    1.004610
    226          0           0       -1.823513    1.181569    0.035973
    227          0           0       -1.842723    1.304316    0.520292
    228          0           0       -1.845592    1.425805    0.592625
    229          0           0       -1.837908    1.376706    0.398898
    230          0           0       -1.849434    1.450354    0.689489
    231          0           0       -1.834066    1.352157    0.302034
    232          0           0       -1.853276    1.474904    0.786353
    233          0           0       -1.830224    1.327608    0.205171
    234          0           0       -1.857118    1.499453    0.883216
    235          0           0       -1.826382    1.303059    0.108307
    236          0           0       -1.860960    1.524002    0.980080
 ---------------------------------------------------------------------
 Rotational constants (GHZ):      0.4529074      0.2836956      0.1879557
 Standard basis: 6-311+G(d,p) (5D, 7F)
 Warning:  center  37 has no basis functions!
 Warning:  center  38 has no basis functions!
 Warning:  center  39 has no basis functions!
 Warning:  center  40 has no basis functions!
 Warning:  center  41 has no basis functions!
 Warning:  center  42 has no basis functions!
 Warning:  center  43 has no basis functions!
 Warning:  center  44 has no basis functions!
 Warning:  center  45 has no basis functions!
 Warning:  center  46 has no basis functions!
 Warning:  center  47 has no basis functions!
 Warning:  center  48 has no basis functions!
 Warning:  center  49 has no basis functions!
 Warning:  center  50 has no basis functions!
 Warning:  center  51 has no basis functions!
 Warning:  center  52 has no basis functions!
 Warning:  center  53 has no basis functions!
 Warning:  center  54 has no basis functions!
 Warning:  center  55 has no basis functions!
 Warning:  center  56 has no basis functions!
 Warning:  center  57 has no basis functions!
 Warning:  center  58 has no basis functions!
 Warning:  center  59 has no basis functions!
 Warning:  center  60 has no basis functions!
 Warning:  center  61 has no basis functions!
 Warning:  center  62 has no basis functions!
 Warning:  center  63 has no basis functions!
 Warning:  center  64 has no basis functions!
 Warning:  center  65 has no basis functions!
 Warning:  center  66 has no basis functions!
 Warning:  center  67 has no basis functions!
 Warning:  center  68 has no basis functions!
 Warning:  center  69 has no basis functions!
 Warning:  center  70 has no basis functions!
 Warning:  center  71 has no basis functions!
 Warning:  center  72 has no basis functions!
 Warning:  center  73 has no basis functions!
 Warning:  center  74 has no basis functions!
 Warning:  center  75 has no basis functions!
 Warning:  center  76 has no basis functions!
 Warning:  center  77 has no basis functions!
 Warning:  center  78 has no basis functions!
 Warning:  center  79 has no basis functions!
 Warning:  center  80 has no basis functions!
 Warning:  center  81 has no basis functions!
 Warning:  center  82 has no basis functions!
 Warning:  center  83 has no basis functions!
 Warning:  center  84 has no basis functions!
 Warning:  center  85 has no basis functions!
 Warning:  center  86 has no basis functions!
 Warning:  center  87 has no basis functions!
 Warning:  center  88 has no basis functions!
 Warning:  center  89 has no basis functions!
 Warning:  center  90 has no basis functions!
 Warning:  center  91 has no basis functions!
 Warning:  center  92 has no basis functions!
 Warning:  center  93 has no basis functions!
 Warning:  center  94 has no basis functions!
 Warning:  center  95 has no basis functions!
 Warning:  center  96 has no basis functions!
 Warning:  center  97 has no basis functions!
 Warning:  center  98 has no basis functions!
 Warning:  center  99 has no basis functions!
 Warning:  center 100 has no basis functions!
 Warning:  center 101 has no basis functions!
 Warning:  center 102 has no basis functions!
 Warning:  center 103 has no basis functions!
 Warning:  center 104 has no basis functions!
 Warning:  center 105 has no basis functions!
 Warning:  center 106 has no basis functions!
 Warning:  center 107 has no basis functions!
 Warning:  center 108 has no basis functions!
 Warning:  center 109 has no basis functions!
 Warning:  center 110 has no basis functions!
 Warning:  center 111 has no basis functions!
 Warning:  center 112 has no basis functions!
 Warning:  center 113 has no basis functions!
 Warning:  center 114 has no basis functions!
 Warning:  center 115 has no basis functions!
 Warning:  center 116 has no basis functions!
 Warning:  center 117 has no basis functions!
 Warning:  center 118 has no basis functions!
 Warning:  center 119 has no basis functions!
 Warning:  center 120 has no basis functions!
 Warning:  center 121 has no basis functions!
 Warning:  center 122 has no basis functions!
 Warning:  center 123 has no basis functions!
 Warning:  center 124 has no basis functions!
 Warning:  center 125 has no basis functions!
 Warning:  center 126 has no basis functions!
 Warning:  center 127 has no basis functions!
 Warning:  center 128 has no basis functions!
 Warning:  center 129 has no basis functions!
 Warning:  center 130 has no basis functions!
 Warning:  center 131 has no basis functions!
 Warning:  center 132 has no basis functions!
 Warning:  center 133 has no basis functions!
 Warning:  center 134 has no basis functions!
 Warning:  center 135 has no basis functions!
 Warning:  center 136 has no basis functions!
 Warning:  center 137 has no basis functions!
 Warning:  center 138 has no basis functions!
 Warning:  center 139 has no basis functions!
 Warning:  center 140 has no basis functions!
 Warning:  center 141 has no basis functions!
 Warning:  center 142 has no basis functions!
 Warning:  center 143 has no basis functions!
 Warning:  center 144 has no basis functions!
 Warning:  center 145 has no basis functions!
 Warning:  center 146 has no basis functions!
 Warning:  center 147 has no basis functions!
 Warning:  center 148 has no basis functions!
 Warning:  center 149 has no basis functions!
 Warning:  center 150 has no basis functions!
 Warning:  center 151 has no basis functions!
 Warning:  center 152 has no basis functions!
 Warning:  center 153 has no basis functions!
 Warning:  center 154 has no basis functions!
 Warning:  center 155 has no basis functions!
 Warning:  center 156 has no basis functions!
 Warning:  center 157 has no basis functions!
 Warning:  center 158 has no basis functions!
 Warning:  center 159 has no basis functions!
 Warning:  center 160 has no basis functions!
 Warning:  center 161 has no basis functions!
 Warning:  center 162 has no basis functions!
 Warning:  center 163 has no basis functions!
 Warning:  center 164 has no basis functions!
 Warning:  center 165 has no basis functions!
 Warning:  center 166 has no basis functions!
 Warning:  center 167 has no basis functions!
 Warning:  center 168 has no basis functions!
 Warning:  center 169 has no basis functions!
 Warning:  center 170 has no basis functions!
 Warning:  center 171 has no basis functions!
 Warning:  center 172 has no basis functions!
 Warning:  center 173 has no basis functions!
 Warning:  center 174 has no basis functions!
 Warning:  center 175 has no basis functions!
 Warning:  center 176 has no basis functions!
 Warning:  center 177 has no basis functions!
 Warning:  center 178 has no basis functions!
 Warning:  center 179 has no basis functions!
 Warning:  center 180 has no basis functions!
 Warning:  center 181 has no basis functions!
 Warning:  center 182 has no basis functions!
 Warning:  center 183 has no basis functions!
 Warning:  center 184 has no basis functions!
 Warning:  center 185 has no basis functions!
 Warning:  center 186 has no basis functions!
 Warning:  center 187 has no basis functions!
 Warning:  center 188 has no basis functions!
 Warning:  center 189 has no basis functions!
 Warning:  center 190 has no basis functions!
 Warning:  center 191 has no basis functions!
 Warning:  center 192 has no basis functions!
 Warning:  center 193 has no basis functions!
 Warning:  center 194 has no basis functions!
 Warning:  center 195 has no basis functions!
 Warning:  center 196 has no basis functions!
 Warning:  center 197 has no basis functions!
 Warning:  center 198 has no basis functions!
 Warning:  center 199 has no basis functions!
 Warning:  center 200 has no basis functions!
 Warning:  center 201 has no basis functions!
 Warning:  center 202 has no basis functions!
 Warning:  center 203 has no basis functions!
 Warning:  center 204 has no basis functions!
 Warning:  center 205 has no basis functions!
 Warning:  center 206 has no basis functions!
 Warning:  center 207 has no basis functions!
 Warning:  center 208 has no basis functions!
 Warning:  center 209 has no basis functions!
 Warning:  center 210 has no basis functions!
 Warning:  center 211 has no basis functions!
 Warning:  center 212 has no basis functions!
 Warning:  center 213 has no basis functions!
 Warning:  center 214 has no basis functions!
 Warning:  center 215 has no basis functions!
 Warning:  center 216 has no basis functions!
 Warning:  center 217 has no basis functions!
 Warning:  center 218 has no basis functions!
 Warning:  center 219 has no basis functions!
 Warning:  center 220 has no basis functions!
 Warning:  center 221 has no basis functions!
 Warning:  center 222 has no basis functions!
 Warning:  center 223 has no basis functions!
 Warning:  center 224 has no basis functions!
 Warning:  center 225 has no basis functions!
 Warning:  center 226 has no basis functions!
 Warning:  center 227 has no basis functions!
 Warning:  center 228 has no basis functions!
 Warning:  center 229 has no basis functions!
 Warning:  center 230 has no basis functions!
 Warning:  center 231 has no basis functions!
 Warning:  center 232 has no basis functions!
 Warning:  center 233 has no basis functions!
 Warning:  center 234 has no basis functions!
 Warning:  center 235 has no basis functions!
 Warning:  center 236 has no basis functions!
   568 basis functions,   904 primitive gaussians,   590 cartesian basis functions
    73 alpha electrons       73 beta electrons
       nuclear repulsion energy      1610.9176155625 Hartrees.
 NAtoms=  236 NActive=  236 NUniq=  236 SFac= 1.00D+00 NAtFMM=   60 NAOKFM=T Big=T
 Integral buffers will be    131072 words long.
 Raffenetti 2 integral format.
 Two-electron integral symmetry is turned off.
 One-electron integrals computed using PRISM.
 NBasis=   568 RedAO= T EigKep=  1.78D-06  NBF=   568
 NBsUse=   556 1.00D-06 EigRej=  9.09D-07 NBFU=   556
 ExpMin= 4.38D-02 ExpMax= 4.56D+03 ExpMxC= 6.82D+02 IAcc=2 IRadAn=         4 AccDes= 0.00D+00
 Harris functional with IExCor=  402 and IRadAn=       4 diagonalized for initial guess.
 HarFok:  IExCor=  402 AccDes= 0.00D+00 IRadAn=         4 IDoV= 1 UseB2=F ITyADJ=14
 ICtDFT=  3500011 ScaDFX=  1.000000  1.000000  1.000000  1.000000
 FoFCou: FMM=F IPFlag=           0 FMFlag=      100000 FMFlg1=        2001
         NFxFlg=           0 DoJE=T BraDBF=F KetDBF=T FulRan=T
         wScrn=  0.000000 ICntrl=     500 IOpCl=  0 I1Cent=   200000004 NGrid=           0
         NMat0=    1 NMatS0=      1 NMatT0=    0 NMatD0=    1 NMtDS0=    0 NMtDT0=    0
 Symmetry not used in FoFCou.
 Requested convergence on RMS density matrix=1.00D-08 within 128 cycles.
 Requested convergence on MAX density matrix=1.00D-06.
 Requested convergence on             energy=1.00D-06.
 No special actions if energy rises.
 SCF Done:  E(RB3LYP) =  -847.003289847     A.U. after   15 cycles
            NFock= 15  Conv=0.77D-08     -V/T= 2.0040
 DoSCS=F DFT=T ScalE2(SS,OS)=  1.000000  1.000000
 Range of M.O.s used for correlation:     1   556
 NBasis=   568 NAE=    73 NBE=    73 NFC=     0 NFV=     0
 NROrb=    556 NOA=    73 NOB=    73 NVA=   483 NVB=   483

 **** Warning!!: The largest alpha MO coefficient is  0.10971037D+03

          Differentiating once with respect to magnetic field using GIAOs.
          Electric field/nuclear overlap derivatives assumed to be zero.
 FoFCou: FMM=F IPFlag=           0 FMFlag=      100000 FMFlg1=        2001
         NFxFlg=           0 DoJE=F BraDBF=F KetDBF=T FulRan=T
         wScrn=  0.000000 ICntrl=    6100 IOpCl=  0 I1Cent=           7 NGrid=         236
         NMat0=    1 NMatS0=      1 NMatT0=    0 NMatD0=    1 NMtDS0=    0 NMtDT0=    0
 Symmetry not used in FoFCou.
 FoFJK:  IHMeth= 1 ICntrl=    6127 DoSepK=F KAlg= 0 I1Cent=   0 FoldK=F
 IRaf=         1 NMat=   1 IRICut=       1 DoRegI=T DoRafI=F ISym2E= 0.
          There are     3 degrees of freedom in the 1st order CPHF.  IDoFFX=0 NUNeed=     3.
      3 vectors produced by pass  0 Test12= 1.18D-12 3.33D-08 XBig12= 2.07D+03 9.18D+00.
 AX will form     3 AO Fock derivatives at one time.
      3 vectors produced by pass  1 Test12= 1.18D-12 3.33D-08 XBig12= 3.56D+00 8.03D-01.
      3 vectors produced by pass  2 Test12= 1.18D-12 3.33D-08 XBig12= 2.10D-02 6.92D-02.
      3 vectors produced by pass  3 Test12= 1.18D-12 3.33D-08 XBig12= 5.45D-05 1.89D-03.
      3 vectors produced by pass  4 Test12= 1.18D-12 3.33D-08 XBig12= 1.20D-07 7.79D-05.
      3 vectors produced by pass  5 Test12= 1.18D-12 3.33D-08 XBig12= 4.02D-10 4.73D-06.
      3 vectors produced by pass  6 Test12= 1.18D-12 3.33D-08 XBig12= 1.32D-12 2.61D-07.
 InvSVY:  IOpt=1 It=  1 EMax= 1.42D-14
 Solved reduced A of dimension    21 with     3 vectors.
 Calculating GIAO nuclear magnetic shielding tensors.
 SCF GIAO Magnetic shielding tensor (ppm):
      1  C    Isotropic =    53.8139   Anisotropy =   178.0260
   XX=   -41.4327   YX=   -32.3458   ZX=    10.0287
   XY=   -28.3572   YY=    59.0527   ZY=    55.1899
   XZ=    13.1759   YZ=    58.7550   ZZ=   143.8218
   Eigenvalues:   -53.8775    42.8214   172.4979
      2  H    Isotropic =    24.3095   Anisotropy =     4.8536
   XX=    25.5771   YX=    -1.0289   ZX=     0.5661
   XY=    -0.7431   YY=    26.1829   ZY=    -2.3306
   XZ=    -0.1707   YZ=    -2.4411   ZZ=    21.1687
   Eigenvalues:    20.2108    25.1725    27.5453
      3  C    Isotropic =    51.4055   Anisotropy =   157.8639
   XX=   -31.5399   YX=    38.5015   ZX=   -17.9316
   XY=    34.3519   YY=    49.9437   ZY=    49.6392
   XZ=    -9.8383   YZ=    44.6006   ZZ=   135.8127
   Eigenvalues:   -50.5747    48.1432   156.6481
      4  H    Isotropic =    23.8290   Anisotropy =     7.1838
   XX=    25.3635   YX=     1.8486   ZX=    -0.3559
   XY=     1.9656   YY=    26.4581   ZY=    -2.4103
   XZ=    -1.2941   YZ=    -2.6614   ZZ=    19.6654
   Eigenvalues:    18.8176    24.0511    28.6182
      5  C    Isotropic =    46.0697   Anisotropy =   207.6751
   XX=   -19.2123   YX=    -4.8852   ZX=    -1.6475
   XY=     2.8938   YY=    -2.9860   ZY=    66.5656
   XZ=     2.5356   YZ=    67.9144   ZZ=   160.4073
   Eigenvalues:   -27.2455   -19.0652   184.5197
      6  C    Isotropic =    47.5218   Anisotropy =   196.9389
   XX=   -28.1552   YX=    -2.7889   ZX=    12.0660
   XY=   -14.3886   YY=    21.2063   ZY=    74.2521
   XZ=   -18.6356   YZ=    61.1113   ZZ=   149.5144
   Eigenvalues:   -30.2925    -5.9564   178.8144
      7  C    Isotropic =    49.3915   Anisotropy =   179.8333
   XX=   -12.5211   YX=    28.7048   ZX=   -24.6745
   XY=    31.5123   YY=    29.7000   ZY=    77.7459
   XZ=   -40.0095   YZ=    65.3072   ZZ=   130.9956
   Eigenvalues:   -52.1299    31.0240   169.2804
      8  H    Isotropic =    23.1586   Anisotropy =    13.5525
   XX=    28.5711   YX=     1.5482   ZX=    -3.6986
   XY=     3.2466   YY=    22.7592   ZY=    -2.1157
   XZ=    -8.3753   YZ=    -1.0821   ZZ=    18.1456
   Eigenvalues:    15.3521    21.9301    32.1936
      9  C    Isotropic =    55.1460   Anisotropy =   174.7426
   XX=    46.7071   YX=    -2.6162   ZX=    -2.8420
   XY=     0.6223   YY=    -1.6258   ZY=    92.8272
   XZ=     0.5159   YZ=    95.6598   ZZ=   120.3568
   Eigenvalues:   -52.8932    46.6901   171.6411
     10  H    Isotropic =    24.6278   Anisotropy =     7.1815
   XX=    29.1040   YX=     0.1399   ZX=    -0.3694
   XY=     0.3642   YY=    23.4778   ZY=    -1.0805
   XZ=    -2.4493   YZ=    -2.9465   ZZ=    21.3016
   Eigenvalues:    19.9703    24.4977    29.4155
     11  C    Isotropic =    51.5607   Anisotropy =   151.2142
   XX=     2.1639   YX=    40.9287   ZX=   -26.0048
   XY=    49.9131   YY=    12.2331   ZY=    42.1342
   XZ=   -15.6145   YZ=    38.6614   ZZ=   140.2851
   Eigenvalues:   -48.1951    50.5071   152.3701
     12  H    Isotropic =    23.8537   Anisotropy =     7.3815
   XX=    25.9672   YX=     2.3738   ZX=    -0.2390
   XY=     2.4320   YY=    26.3975   ZY=    -1.8291
   XZ=     0.3529   YZ=    -1.7731   ZZ=    19.1964
   Eigenvalues:    18.7149    24.0714    28.7747
     13  C    Isotropic =    52.8653   Anisotropy =   147.4265
   XX=    51.2944   YX=    19.9221   ZX=   -13.4678
   XY=    11.5478   YY=   -34.0176   ZY=    42.5079
   XZ=    -9.2241   YZ=    40.0716   ZZ=   141.3192
   Eigenvalues:   -46.5152    53.9616   151.1497
     14  H    Isotropic =    24.0156   Anisotropy =     7.3485
   XX=    28.6644   YX=     0.6281   ZX=     1.0808
   XY=     0.5926   YY=    24.4325   ZY=    -1.0823
   XZ=     1.6846   YZ=    -0.3842   ZZ=    18.9500
   Eigenvalues:    18.6430    24.4892    28.9146
     15  C    Isotropic =    46.2221   Anisotropy =   203.9048
   XX=   -27.2215   YX=    -0.0442   ZX=   -28.9124
   XY=     4.6427   YY=   -10.5571   ZY=    28.3830
   XZ=   -10.2704   YZ=    26.7376   ZZ=   176.4448
   Eigenvalues:   -30.5512   -12.9411   182.1586
     16  C    Isotropic =    51.9375   Anisotropy =   188.2004
   XX=   -19.4441   YX=     5.5046   ZX=    15.7858
   XY=    -8.3874   YY=     2.4863   ZY=    22.9264
   XZ=   -50.6243   YZ=    23.3340   ZZ=   172.7704
   Eigenvalues:   -21.0294    -0.5625   177.4045
     17  C    Isotropic =    51.9482   Anisotropy =   149.1264
   XX=    50.7296   YX=   -23.9353   ZX=   -18.4207
   XY=   -16.7271   YY=   -41.8764   ZY=    17.8662
   XZ=   -14.3278   YZ=    11.4871   ZZ=   146.9915
   Eigenvalues:   -46.7796    51.2584   151.3658
     18  H    Isotropic =    24.0122   Anisotropy =     7.5163
   XX=    28.5811   YX=    -0.0866   ZX=     1.5071
   XY=    -0.2466   YY=    24.3342   ZY=    -0.7657
   XZ=     2.5088   YZ=    -1.5208   ZZ=    19.1214
   Eigenvalues:    18.5094    24.5041    29.0231
     19  C    Isotropic =    51.7356   Anisotropy =   148.5924
   XX=     2.4559   YX=   -45.6913   ZX=   -31.2531
   XY=   -53.4448   YY=     7.4698   ZY=    -1.8888
   XZ=   -23.5601   YZ=    -1.2765   ZZ=   145.2810
   Eigenvalues:   -46.9894    51.3989   150.7972
     20  H    Isotropic =    23.9071   Anisotropy =     7.6651
   XX=    25.5796   YX=    -2.0226   ZX=     1.4905
   XY=    -1.9998   YY=    27.3706   ZY=    -0.5164
   XZ=     2.7276   YZ=    -1.1179   ZZ=    18.7711
   Eigenvalues:    18.1643    24.5398    29.0172
     21  C    Isotropic =    45.9767   Anisotropy =   203.9316
   XX=   -16.2108   YX=    13.1802   ZX=   -44.5913
   XY=     6.5714   YY=   -20.6329   ZY=     0.0949
   XZ=   -28.8984   YZ=   -13.0883   ZZ=   174.7736
   Eigenvalues:   -30.5796   -13.4215   181.9311
     22  C    Isotropic =    52.0450   Anisotropy =   188.1157
   XX=    -0.0787   YX=     2.5023   ZX=   -16.3451
   XY=    18.9327   YY=   -14.4798   ZY=   -34.4335
   XZ=   -50.6032   YZ=    19.9104   ZZ=   170.6934
   Eigenvalues:   -20.7705    -0.5500   177.4554
     23  C    Isotropic =    53.2392   Anisotropy =   146.7412
   XX=   -22.0674   YX=   -32.0012   ZX=   -49.4857
   XY=   -23.2043   YY=    44.3661   ZY=   -15.6400
   XZ=   -43.8090   YZ=   -20.2525   ZZ=   137.4189
   Eigenvalues:   -45.6776    54.3286   151.0667
     24  H    Isotropic =    23.8249   Anisotropy =     7.5289
   XX=    25.1073   YX=    -1.7330   ZX=     1.5380
   XY=    -1.5944   YY=    28.0047   ZY=     0.0879
   XZ=     1.2557   YZ=    -0.8283   ZZ=    18.3628
   Eigenvalues:    18.0848    24.5458    28.8442
     25  C    Isotropic =    51.4969   Anisotropy =   150.1066
   XX=   -28.4915   YX=    33.9684   ZX=   -52.3137
   XY=    22.0311   YY=    46.6072   ZY=    -3.8075
   XZ=   -44.5594   YZ=   -10.6355   ZZ=   136.3748
   Eigenvalues:   -48.3857    51.3083   151.5679
     26  H    Isotropic =    23.7431   Anisotropy =     7.4052
   XX=    24.0663   YX=     1.1141   ZX=     1.9989
   XY=     0.9693   YY=    28.1000   ZY=     1.6568
   XZ=     2.0795   YZ=     0.8886   ZZ=    19.0630
   Eigenvalues:    18.2615    24.2880    28.6799
     27  C    Isotropic =    45.8108   Anisotropy =   207.2710
   XX=    -2.7702   YX=    13.7697   ZX=   -61.4651
   XY=     6.5593   YY=   -12.0335   ZY=   -41.6456
   XZ=   -62.6381   YZ=   -44.9232   ZZ=   152.2361
   Eigenvalues:   -28.0803   -18.4787   183.9915
     28  C    Isotropic =    47.8398   Anisotropy =   197.2870
   XX=    19.6900   YX=    14.4398   ZX=   -60.5682
   XY=    28.5650   YY=   -19.3566   ZY=   -56.7015
   XZ=   -63.1331   YZ=   -24.4782   ZZ=   143.1859
   Eigenvalues:   -30.5979    -5.2472   179.3644
     29  C    Isotropic =    49.3441   Anisotropy =   179.7793
   XX=    -3.4110   YX=    38.3775   ZX=   -80.8875
   XY=    36.1252   YY=    25.9805   ZY=   -23.7573
   XZ=   -78.1065   YZ=    -3.9802   ZZ=   125.4627
   Eigenvalues:   -51.6645    30.4997   169.1970
     30  H    Isotropic =    23.1387   Anisotropy =    13.3222
   XX=    22.4354   YX=    -0.7013   ZX=    -0.2375
   XY=    -2.1539   YY=    28.3546   ZY=     4.5555
   XZ=    -3.4181   YZ=     8.3231   ZZ=    18.6259
   Eigenvalues:    15.2751    22.1208    32.0201
     31  C    Isotropic =    55.4410   Anisotropy =   174.9390
   XX=    17.1871   YX=   -14.0890   ZX=   -84.0024
   XY=   -17.9030   YY=    37.4745   ZY=   -50.3662
   XZ=   -84.6557   YZ=   -54.8325   ZZ=   111.6615
   Eigenvalues:   -51.9248    46.1808   172.0670
     32  H    Isotropic =    24.5337   Anisotropy =     7.2554
   XX=    24.6185   YX=    -2.5264   ZX=     0.7632
   XY=    -2.7385   YY=    27.4630   ZY=     1.0335
   XZ=     1.1913   YZ=     3.7573   ZZ=    21.5194
   Eigenvalues:    19.8987    24.3316    29.3706
     33  C    Isotropic =    53.1814   Anisotropy =   179.0596
   XX=    60.9231   YX=    35.2256   ZX=   -42.9515
   XY=    32.0226   YY=   -38.1801   ZY=   -45.5652
   XZ=   -44.2248   YZ=   -50.7831   ZZ=   136.8014
   Eigenvalues:   -55.1197    42.1095   172.5545
     34  H    Isotropic =    24.2825   Anisotropy =     5.1861
   XX=    26.7643   YX=    -0.0934   ZX=     2.5955
   XY=    -0.2993   YY=    24.8157   ZY=     0.8589
   XZ=     2.3715   YZ=     1.4580   ZZ=    21.2676
   Eigenvalues:    20.0339    25.0737    27.7399
     35  C    Isotropic =    51.5295   Anisotropy =   155.1748
   XX=    -0.5131   YX=    52.5760   ZX=   -52.1551
   XY=    55.6135   YY=    25.1843   ZY=   -14.2643
   XZ=   -45.7255   YZ=   -17.1625   ZZ=   129.9171
   Eigenvalues:   -48.3147    47.9237   154.9793
     36  H    Isotropic =    23.8384   Anisotropy =     7.3073
   XX=    24.2302   YX=     1.4459   ZX=     2.1759
   XY=     1.2147   YY=    27.1572   ZY=     2.0665
   XZ=     1.6853   YZ=     2.7775   ZZ=    20.1277
   Eigenvalues:    18.9464    23.8588    28.7099
     37  Bq   Isotropic =    21.2956   Anisotropy =    44.0560
   XX=    20.1558   YX=    13.5189   ZX=   -19.7788
   XY=    13.2584   YY=    13.2555   ZY=    32.7714
   XZ=    -3.5429   YZ=    22.0130   ZZ=    30.4756
   Eigenvalues:   -15.6089    28.8295    50.6663
     38  Bq   Isotropic =    25.8109   Anisotropy =    27.8481
   XX=    16.7573   YX=     6.7195   ZX=     2.9576
   XY=     5.9514   YY=    17.6496   ZY=     5.7616
   XZ=     0.3710   YZ=     4.7172   ZZ=    43.0257
   Eigenvalues:    10.6701    22.3862    44.3762
     39  Bq   Isotropic =    25.2729   Anisotropy =    37.2463
   XX=    25.0385   YX=     8.4920   ZX=   -17.1529
   XY=    10.9079   YY=    19.6988   ZY=    29.1796
   XZ=    -1.1129   YZ=    18.7927   ZZ=    31.0815
   Eigenvalues:    -5.1103    30.8253    50.1038
     40  Bq   Isotropic =    12.9567   Anisotropy =    55.6983
   XX=     4.0607   YX=    28.1200   ZX=    -4.3589
   XY=    13.0765   YY=    -7.3979   ZY=    14.7638
   XZ=   -19.9530   YZ=    26.1479   ZZ=    42.2072
   Eigenvalues:   -30.7275    19.5086    50.0888
     41  Bq   Isotropic =    24.6674   Anisotropy =    41.4442
   XX=    20.2136   YX=    18.4027   ZX=    -0.0118
   XY=     6.2746   YY=     6.2519   ZY=     8.3136
   XZ=   -17.9831   YZ=    17.8306   ZZ=    47.5365
   Eigenvalues:    -5.6555    27.3608    52.2968
     42  Bq   Isotropic =    20.8358   Anisotropy =    47.0735
   XX=    19.5082   YX=    20.6701   ZX=    -7.6746
   XY=     8.3232   YY=     1.4923   ZY=    19.6283
   XZ=   -17.3437   YZ=    23.8688   ZZ=    41.5069
   Eigenvalues:   -17.2743    27.5635    52.2181
     43  Bq   Isotropic =    26.6487   Anisotropy =    36.4897
   XX=    20.8395   YX=    14.9446   ZX=     1.9414
   XY=     5.5973   YY=    10.9086   ZY=     5.3666
   XZ=   -14.1961   YZ=    13.7765   ZZ=    48.1979
   Eigenvalues:     1.6890    27.2819    50.9751
     44  Bq   Isotropic =    21.3373   Anisotropy =    45.5097
   XX=    21.6103   YX=    18.2966   ZX=   -11.4076
   XY=     9.2562   YY=     4.2643   ZY=    24.8493
   XZ=   -12.5088   YZ=    24.1100   ZZ=    38.1373
   Eigenvalues:   -16.8231    29.1579    51.6771
     45  Bq   Isotropic =    27.2960   Anisotropy =    32.2832
   XX=    20.2903   YX=    11.3087   ZX=     2.4966
   XY=     5.2401   YY=    14.4882   ZY=     4.6108
   XZ=    -9.3529   YZ=    10.2468   ZZ=    47.1096
   Eigenvalues:     7.0034    26.0665    48.8182
     46  Bq   Isotropic =    23.4761   Anisotropy =    41.6837
   XX=    25.0453   YX=    14.2773   ZX=   -13.4991
   XY=     9.6679   YY=     9.4993   ZY=    27.5192
   XZ=    -6.5270   YZ=    22.5902   ZZ=    35.8836
   Eigenvalues:   -12.0528    31.2159    51.2652
     47  Bq   Isotropic =    26.4681   Anisotropy =    29.5606
   XX=    18.4758   YX=     8.1697   ZX=     2.1405
   XY=     5.1440   YY=    16.1307   ZY=     5.3178
   XZ=    -4.6411   YZ=     7.5426   ZZ=    44.7978
   Eigenvalues:     9.5927    23.6364    46.1752
     48  Bq   Isotropic =    25.9931   Anisotropy =    37.0565
   XX=    28.2543   YX=     9.8531   ZX=   -13.6290
   XY=     9.2975   YY=    14.9187   ZY=    27.3226
   XZ=    -1.4290   YZ=    20.2646   ZZ=    34.8063
   Eigenvalues:    -5.3194    32.6013    50.6974
     49  Bq   Isotropic =    24.5321   Anisotropy =    28.1545
   XX=    15.8297   YX=     5.7720   ZX=     1.3794
   XY=     5.1939   YY=    15.9238   ZY=     6.6525
   XZ=    -0.7410   YZ=     5.5892   ZZ=    41.8428
   Eigenvalues:     9.8414    20.4531    43.3017
     50  Bq   Isotropic =    27.6270   Anisotropy =    32.7657
   XX=    29.8248   YX=     6.0247   ZX=   -12.2620
   XY=     8.1289   YY=    18.7661   ZY=    25.0726
   XZ=     1.4433   YZ=    18.0920   ZZ=    34.2901
   Eigenvalues:     0.8575    32.5527    49.4708
     51  Bq   Isotropic =    22.2627   Anisotropy =    45.5257
   XX=    19.3118   YX=    20.6334   ZX=    -3.4446
   XY=     7.2340   YY=     2.4163   ZY=    13.4581
   XZ=   -19.3179   YZ=    21.5637   ZZ=    45.0601
   Eigenvalues:   -12.9276    27.1026    52.6132
     52  Bq   Isotropic =    27.9428   Anisotropy =    36.5819
   XX=    25.8359   YX=    12.2114   ZX=     0.0977
   XY=     1.7014   YY=    11.4042   ZY=    10.0962
   XZ=   -17.6159   YZ=    15.6037   ZZ=    46.5883
   Eigenvalues:     3.2203    28.2774    52.3307
     53  Bq   Isotropic =    26.9510   Anisotropy =    39.5174
   XX=    28.4031   YX=    12.7393   ZX=    -4.0237
   XY=     2.2637   YY=     9.3521   ZY=    17.6937
   XZ=   -16.5938   YZ=    19.9610   ZZ=    43.0977
   Eigenvalues:    -3.0364    30.5935    53.2959
     54  Bq   Isotropic =    28.0037   Anisotropy =    33.5336
   XX=    23.9400   YX=    10.3148   ZX=     1.0481
   XY=     2.1125   YY=    13.5049   ZY=     7.8525
   XZ=   -14.2506   YZ=    12.6748   ZZ=    46.5660
   Eigenvalues:     6.9093    26.7422    50.3594
     55  Bq   Isotropic =    27.1058   Anisotropy =    38.1068
   XX=    29.8296   YX=    10.7948   ZX=    -6.2613
   XY=     3.1600   YY=    10.6978   ZY=    21.0874
   XZ=   -11.7805   YZ=    20.3840   ZZ=    40.7900
   Eigenvalues:    -3.1445    31.9516    52.5103
     56  Bq   Isotropic =    27.2029   Anisotropy =    30.8743
   XX=    21.3248   YX=     8.1214   ZX=     1.2078
   XY=     2.7798   YY=    15.0264   ZY=     7.0153
   XZ=    -9.7779   YZ=     9.9856   ZZ=    45.2575
   Eigenvalues:     9.3628    24.4602    47.7858
     57  Bq   Isotropic =    27.8291   Anisotropy =    35.3644
   XX=    31.3187   YX=     7.8477   ZX=    -7.7985
   XY=     4.0632   YY=    13.1748   ZY=    22.8323
   XZ=    -5.6766   YZ=    19.6427   ZZ=    38.9939
   Eigenvalues:    -1.0119    33.0940    51.4054
     58  Bq   Isotropic =    25.5444   Anisotropy =    29.1266
   XX=    18.1645   YX=     6.0930   ZX=     0.8462
   XY=     3.5095   YY=    15.4530   ZY=     7.2193
   XZ=    -5.2926   YZ=     7.7870   ZZ=    43.0158
   Eigenvalues:    10.1541    21.5170    44.9622
     59  Bq   Isotropic =    28.6259   Anisotropy =    32.2745
   XX=    32.2845   YX=     4.6948   ZX=    -8.3412
   XY=     4.5711   YY=    15.7639   ZY=    22.6489
   XZ=    -0.2195   YZ=    18.2739   ZZ=    37.8294
   Eigenvalues:     2.2793    33.4562    50.1423
     60  Bq   Isotropic =    23.2844   Anisotropy =    28.1945
   XX=    14.8169   YX=     4.4532   ZX=     0.2572
   XY=     4.1554   YY=    14.7721   ZY=     7.9553
   XZ=    -1.4718   YZ=     6.0948   ZZ=    40.2641
   Eigenvalues:     9.4697    18.3026    42.0807
     61  Bq   Isotropic =    28.8843   Anisotropy =    29.4787
   XX=    32.0872   YX=     2.0331   ZX=    -7.9730
   XY=     4.4380   YY=    17.6375   ZY=    20.9656
   XZ=     3.1157   YZ=    16.8927   ZZ=    36.9283
   Eigenvalues:     5.4294    32.6868    48.5368
     62  Bq   Isotropic =    27.3875   Anisotropy =    38.9237
   XX=    27.1803   YX=    13.1898   ZX=    -1.6978
   XY=     1.7289   YY=     9.6965   ZY=    13.6345
   XZ=   -18.6479   YZ=    18.2428   ZZ=    45.2855
   Eigenvalues:    -0.5814    29.4072    53.3366
     63  Bq   Isotropic =    29.2435   Anisotropy =    33.4222
   XX=    27.6451   YX=     6.7239   ZX=     1.1953
   XY=    -2.2085   YY=    15.3551   ZY=    12.2093
   XZ=   -16.9176   YZ=    13.8751   ZZ=    44.7302
   Eigenvalues:     9.0316    27.1739    51.5250
     64  Bq   Isotropic =    29.5065   Anisotropy =    35.5376
   XX=    31.2702   YX=     5.5585   ZX=    -0.3067
   XY=    -3.2558   YY=    14.4384   ZY=    17.3215
   XZ=   -16.0320   YZ=    17.2528   ZZ=    42.8110
   Eigenvalues:     5.4328    29.8885    53.1983
     65  Bq   Isotropic =    28.3147   Anisotropy =    31.4016
   XX=    24.6764   YX=     6.0823   ZX=     1.2062
   XY=    -0.8916   YY=    15.8632   ZY=    10.3833
   XZ=   -13.7955   YZ=    11.6366   ZZ=    44.4045
   Eigenvalues:    10.6039    25.0911    49.2491
     66  Bq   Isotropic =    29.3488   Anisotropy =    34.6060
   XX=    32.1058   YX=     3.5652   ZX=    -1.5802
   XY=    -2.7336   YY=    14.5341   ZY=    19.2919
   XZ=   -11.4463   YZ=    17.7461   ZZ=    41.4065
   Eigenvalues:     4.6761    30.9509    52.4195
     67  Bq   Isotropic =    26.7217   Anisotropy =    29.7186
   XX=    21.1309   YX=     5.0665   ZX=     0.8298
   XY=     0.5791   YY=    15.9213   ZY=     9.4069
   XZ=    -9.6443   YZ=     9.5157   ZZ=    43.1131
   Eigenvalues:    11.2657    22.3654    46.5342
     68  Bq   Isotropic =    29.2403   Anisotropy =    32.6376
   XX=    32.4721   YX=     1.0661   ZX=    -2.8580
   XY=    -1.7514   YY=    14.9495   ZY=    19.9971
   XZ=    -5.3818   YZ=    17.4066   ZZ=    40.2992
   Eigenvalues:     4.9348    31.7874    50.9987
     69  Bq   Isotropic =    24.5913   Anisotropy =    28.6636
   XX=    17.3520   YX=     3.9879   ZX=     0.2478
   XY=     1.9540   YY=    15.3378   ZY=     9.1452
   XZ=    -5.4399   YZ=     7.7075   ZZ=    41.0842
   Eigenvalues:    10.8263    19.2473    43.7004
     70  Bq   Isotropic =    29.1113   Anisotropy =    30.3282
   XX=    32.3160   YX=    -1.3208   ZX=    -3.8714
   XY=    -0.7204   YY=    15.4822   ZY=    19.2696
   XZ=     0.3252   YZ=    16.5553   ZZ=    39.5357
   Eigenvalues:     5.9334    32.0704    49.3301
     71  Bq   Isotropic =    22.1512   Anisotropy =    28.1101
   XX=    13.6944   YX=     3.0362   ZX=    -0.3720
   XY=     3.0817   YY=    14.1374   ZY=     9.3223
   XZ=    -1.8046   YZ=     6.2568   ZZ=    38.6219
   Eigenvalues:     9.4142    16.1482    40.8913
     72  Bq   Isotropic =    28.7279   Anisotropy =    28.1811
   XX=    31.4283   YX=    -3.0585   ZX=    -4.4435
   XY=    -0.0171   YY=    15.9709   ZY=    17.4510
   XZ=     4.0836   YZ=    15.6243   ZZ=    38.7844
   Eigenvalues:     7.2202    31.4482    47.5153
     73  Bq   Isotropic =    29.5639   Anisotropy =    35.0533
   XX=    29.8376   YX=     6.6306   ZX=     0.6814
   XY=    -3.0734   YY=    14.7614   ZY=    14.7065
   XZ=   -17.9094   YZ=    15.8797   ZZ=    44.0927
   Eigenvalues:     7.0719    28.6870    52.9328
     74  Bq   Isotropic =    29.2859   Anisotropy =    31.6652
   XX=    26.8524   YX=     2.2419   ZX=     3.0808
   XY=    -5.4232   YY=    18.3571   ZY=    14.3492
   XZ=   -15.9339   YZ=    12.4509   ZZ=    42.6481
   Eigenvalues:    12.3184    25.1432    50.3960
     75  Bq   Isotropic =    29.6245   Anisotropy =    34.3380
   XX=    29.8120   YX=    -0.6272   ZX=     3.7066
   XY=    -8.3034   YY=    17.5489   ZY=    18.1576
   XZ=   -15.5134   YZ=    15.4531   ZZ=    41.5126
   Eigenvalues:     8.8101    27.5469    52.5165
     76  Bq   Isotropic =    27.9842   Anisotropy =    30.0449
   XX=    23.7622   YX=     2.5875   ZX=     2.1857
   XY=    -3.3104   YY=    17.9193   ZY=    12.6523
   XZ=   -12.9345   YZ=    10.5945   ZZ=    42.2709
   Eigenvalues:    12.9855    22.9530    48.0141
     77  Bq   Isotropic =    28.9366   Anisotropy =    34.3093
   XX=    29.6973   YX=    -3.0914   ZX=     3.0621
   XY=    -8.5103   YY=    16.3856   ZY=    19.1695
   XZ=   -11.3049   YZ=    16.0675   ZZ=    40.7270
   Eigenvalues:     6.6729    28.3275    51.8095
     78  Bq   Isotropic =    26.0462   Anisotropy =    28.8962
   XX=    20.0467   YX=     2.4719   ZX=     1.1866
   XY=    -1.2049   YY=    16.9710   ZY=    11.4778
   XZ=    -9.0582   YZ=     8.8484   ZZ=    41.1210
   Eigenvalues:    12.7195    20.1088    45.3104
     79  Bq   Isotropic =    28.1022   Anisotropy =    33.2187
   XX=    29.0094   YX=    -5.7142   ZX=     1.7470
   XY=    -7.8605   YY=    15.0312   ZY=    18.8945
   XZ=    -5.4202   YZ=    15.9667   ZZ=    40.2661
   Eigenvalues:     4.9770    29.0816    50.2480
     80  Bq   Isotropic =    23.6996   Anisotropy =    28.2836
   XX=    16.1628   YX=     2.1284   ZX=     0.2411
   XY=     0.6505   YY=    15.5915   ZY=    10.8175
   XZ=    -5.1606   YZ=     7.3497   ZZ=    39.3445
   Eigenvalues:    11.5344    17.0091    42.5553
     81  Bq   Isotropic =    27.4016   Anisotropy =    31.4575
   XX=    28.1618   YX=    -7.8472   ZX=     0.0199
   XY=    -6.6409   YY=    13.9436   ZY=    17.2662
   XZ=     0.4050   YZ=    15.3399   ZZ=    40.0994
   Eigenvalues:     4.2699    29.5616    48.3732
     82  Bq   Isotropic =    21.1867   Anisotropy =    28.0010
   XX=    12.4946   YX=     1.7277   ZX=    -0.5559
   XY=     2.1311   YY=    13.8975   ZY=    10.5325
   XZ=    -1.7845   YZ=     6.1326   ZZ=    37.1680
   Eigenvalues:     9.5695    14.1365    39.8540
     83  Bq   Isotropic =    26.8761   Anisotropy =    29.4429
   XX=    27.2760   YX=    -8.9570   ZX=    -1.6762
   XY=    -5.2634   YY=    13.5256   ZY=    14.7367
   XZ=     4.4761   YZ=    14.5534   ZZ=    39.8267
   Eigenvalues:     4.7700    29.3536    46.5047
     84  Bq   Isotropic =    29.8192   Anisotropy =    33.3080
   XX=    28.9226   YX=     1.2047   ZX=     3.6617
   XY=    -7.2034   YY=    18.2366   ZY=    16.3449
   XZ=   -17.0491   YZ=    14.1701   ZZ=    42.2983
   Eigenvalues:    10.8343    26.5987    52.0245
     85  Bq   Isotropic =    28.6399   Anisotropy =    30.9598
   XX=    24.3124   YX=    -1.0681   ZX=     5.6028
   XY=    -7.9487   YY=    20.7849   ZY=    16.3091
   XZ=   -14.6620   YZ=    11.1313   ZZ=    40.8225
   Eigenvalues:    13.4203    23.2196    49.2798
     86  Bq   Isotropic =    28.0615   Anisotropy =    35.3135
   XX=    24.9225   YX=    -5.5831   ZX=     8.2369
   XY=   -12.9114   YY=    19.4698   ZY=    19.8184
   XZ=   -14.8877   YZ=    14.1925   ZZ=    39.7922
   Eigenvalues:     7.3063    25.2743    51.6038
     87  Bq   Isotropic =    27.3642   Anisotropy =    29.3038
   XX=    21.7772   YX=     0.0095   ZX=     3.7742
   XY=    -5.1136   YY=    19.7629   ZY=    14.5056
   XZ=   -11.7324   YZ=     9.4786   ZZ=    40.5525
   Eigenvalues:    14.2224    20.9702    46.9000
     88  Bq   Isotropic =    26.4032   Anisotropy =    36.7103
   XX=    23.0442   YX=    -8.8471   ZX=     8.0454
   XY=   -14.1967   YY=    16.9093   ZY=    20.3420
   XZ=   -11.1948   YZ=    15.0527   ZZ=    39.2561
   Eigenvalues:     2.6546    25.6782    50.8767
     89  Bq   Isotropic =    25.3571   Anisotropy =    28.3874
   XX=    18.3987   YX=     0.5208   ZX=     2.0813
   XY=    -2.5061   YY=    18.0887   ZY=    13.0901
   XZ=    -8.1145   YZ=     8.0033   ZZ=    39.5839
   Eigenvalues:    13.7668    18.0224    44.2820
     90  Bq   Isotropic =    24.5724   Anisotropy =    36.8743
   XX=    20.7309   YX=   -12.0890   ZX=     6.3936
   XY=   -14.2757   YY=    13.7756   ZY=    19.2628
   XZ=    -5.6677   YZ=    15.1856   ZZ=    39.2108
   Eigenvalues:    -1.5083    26.0703    49.1553
     91  Bq   Isotropic =    22.9497   Anisotropy =    28.0379
   XX=    14.7520   YX=     0.6827   ZX=     0.6796
   XY=    -0.3136   YY=    16.0704   ZY=    12.1040
   XZ=    -4.5482   YZ=     6.7778   ZZ=    38.0266
   Eigenvalues:    12.2687    14.9387    41.6416
     92  Bq   Isotropic =    23.3119   Anisotropy =    35.7798
   XX=    19.0840   YX=   -14.4520   ZX=     3.5354
   XY=   -13.1673   YY=    11.2304   ZY=    16.5481
   XZ=     0.0751   YZ=    14.6534   ZZ=    39.6212
   Eigenvalues:    -3.6325    26.4030    47.1651
     93  Bq   Isotropic =    20.4267   Anisotropy =    27.9377
   XX=    11.2806   YX=     0.6672   ZX=    -0.3888
   XY=     1.3945   YY=    13.9274   ZY=    11.4681
   XZ=    -1.4868   YZ=     5.8010   ZZ=    36.0721
   Eigenvalues:     9.8252    12.4031    39.0519
     94  Bq   Isotropic =    22.9861   Anisotropy =    33.6489
   XX=    18.6758   YX=   -15.2372   ZX=     0.2879
   XY=   -11.2197   YY=    10.2861   ZY=    12.8918
   XZ=     4.2620   YZ=    13.8118   ZZ=    39.9963
   Eigenvalues:    -2.9146    26.4542    45.4186
     95  Bq   Isotropic =    28.8996   Anisotropy =    33.1582
   XX=    25.4485   YX=    -2.9120   ZX=     7.2500
   XY=   -10.6887   YY=    20.7840   ZY=    18.2489
   XZ=   -15.9788   YZ=    12.7898   ZZ=    40.4664
   Eigenvalues:    11.1062    24.5876    51.0051
     96  Bq   Isotropic =    27.7629   Anisotropy =    30.9347
   XX=    20.6638   YX=    -3.0117   ZX=     8.5423
   XY=    -9.6573   YY=    22.9568   ZY=    17.8251
   XZ=   -13.0812   YZ=     9.7466   ZZ=    39.6681
   Eigenvalues:    12.5569    22.3457    48.3861
     97  Bq   Isotropic =    25.4187   Anisotropy =    37.8156
   XX=    17.1510   YX=    -8.7944   ZX=    13.3047
   XY=   -16.7526   YY=    20.8866   ZY=    21.7677
   XZ=   -14.0483   YZ=    13.0788   ZZ=    38.2186
   Eigenvalues:     2.0171    23.6100    50.6291
     98  Bq   Isotropic =    26.7472   Anisotropy =    29.0069
   XX=    19.1927   YX=    -1.5178   ZX=     5.7263
   XY=    -6.2245   YY=    21.4953   ZY=    15.7966
   XZ=   -10.2334   YZ=     8.2471   ZZ=    39.5536
   Eigenvalues:    14.1710    19.9855    46.0851
     99  Bq   Isotropic =    22.1788   Anisotropy =    41.2851
   XX=    12.2669   YX=   -12.9649   ZX=    13.5128
   XY=   -19.3610   YY=    16.7753   ZY=    22.2763
   XZ=   -11.0563   YZ=    14.3221   ZZ=    37.4941
   Eigenvalues:    -6.0901    22.9243    49.7021
    100  Bq   Isotropic =    24.8102   Anisotropy =    28.1630
   XX=    16.4844   YX=    -0.6776   ZX=     3.2942
   XY=    -3.2686   YY=    19.2296   ZY=    14.1588
   XZ=    -6.8984   YZ=     7.0251   ZZ=    38.7167
   Eigenvalues:    14.0548    16.7903    43.5856
    101  Bq   Isotropic =    18.7707   Anisotropy =    43.3836
   XX=     7.1675   YX=   -17.1466   ZX=    11.2277
   XY=   -20.4850   YY=    11.7043   ZY=    20.7204
   XZ=    -6.1672   YZ=    14.8023   ZZ=    37.4402
   Eigenvalues:   -13.4410    22.0600    47.6931
    102  Bq   Isotropic =    22.4102   Anisotropy =    27.9696
   XX=    13.2845   YX=    -0.2537   ZX=     1.3921
   XY=    -0.8878   YY=    16.6667   ZY=    12.9433
   XZ=    -3.6996   YZ=     6.0788   ZZ=    37.2795
   Eigenvalues:    12.9095    13.2646    41.0567
    103  Bq   Isotropic =    16.6800   Anisotropy =    43.3799
   XX=     4.1527   YX=   -20.1472   ZX=     6.6733
   XY=   -19.7286   YY=     7.7130   ZY=    16.9841
   XZ=    -0.8176   YZ=    14.4169   ZZ=    38.1742
   Eigenvalues:   -17.1448    21.5848    45.5999
    104  Bq   Isotropic =    19.8959   Anisotropy =    27.9848
   XX=    10.1334   YX=    -0.0635   ZX=     0.0088
   XY=     0.9213   YY=    14.1172   ZY=    12.0774
   XZ=    -0.9989   YZ=     5.3610   ZZ=    35.4370
   Eigenvalues:     9.8486    11.2866    38.5524
    105  Bq   Isotropic =    16.8037   Anisotropy =    41.0396
   XX=     4.6159   YX=   -20.9301   ZX=     1.2467
   XY=   -17.2796   YY=     6.5870   ZY=    12.0589
   XZ=     3.2071   YZ=    13.4946   ZZ=    39.2082
   Eigenvalues:   -15.5638    21.8114    44.1635
    106  Bq   Isotropic =    27.3949   Anisotropy =    34.0378
   XX=    20.1191   YX=    -5.3997   ZX=    11.3223
   XY=   -13.3139   YY=    22.9478   ZY=    20.0011
   XZ=   -14.6147   YZ=    11.4332   ZZ=    39.1179
   Eigenvalues:     8.5544    23.5436    50.0868
    107  Bq   Isotropic =    27.0675   Anisotropy =    31.3195
   XX=    16.5778   YX=    -3.3783   ZX=    11.5034
   XY=   -10.2678   YY=    25.0074   ZY=    18.5539
   XZ=   -11.2134   YZ=     8.2456   ZZ=    39.6172
   Eigenvalues:    10.7078    22.5475    47.9471
    108  Bq   Isotropic =    22.4394   Anisotropy =    41.1400
   XX=     7.4381   YX=    -9.4425   ZX=    18.4997
   XY=   -19.0147   YY=    22.2817   ZY=    23.2400
   XZ=   -12.9798   YZ=    11.8233   ZZ=    37.5985
   Eigenvalues:    -4.7161    22.1683    49.8661
    109  Bq   Isotropic =    26.3794   Anisotropy =    29.0817
   XX=    16.4748   YX=    -1.9017   ZX=     7.7094
   XY=    -6.5057   YY=    23.1238   ZY=    16.3584
   XZ=    -8.5057   YZ=     6.9484   ZZ=    39.5397
   Eigenvalues:    13.1270    20.2440    45.7672
    110  Bq   Isotropic =    17.0194   Anisotropy =    47.3623
   XX=    -1.8367   YX=   -14.1564   ZX=    19.1031
   XY=   -22.8687   YY=    16.6026   ZY=    24.1746
   XZ=   -10.9668   YZ=    13.5507   ZZ=    36.2922
   Eigenvalues:   -16.9592    19.4231    48.5943
    111  Bq   Isotropic =    24.5305   Anisotropy =    28.2563
   XX=    14.5976   YX=    -1.0774   ZX=     4.5651
   XY=    -3.4301   YY=    20.3239   ZY=    14.6191
   XZ=    -5.5073   YZ=     6.0201   ZZ=    38.6700
   Eigenvalues:    13.1632    17.0603    43.3681
    112  Bq   Isotropic =    11.2983   Anisotropy =    52.3137
   XX=   -11.2361   YX=   -19.1547   ZX=    15.9094
   XY=   -25.0781   YY=     9.4876   ZY=    22.6862
   XZ=    -7.1619   YZ=    14.5790   ZZ=    35.6435
   Eigenvalues:   -28.3901    16.1109    46.1741
    113  Bq   Isotropic =    22.1305   Anisotropy =    28.1486
   XX=    11.9282   YX=    -0.6484   ZX=     2.1870
   XY=    -1.0416   YY=    17.2793   ZY=    13.3157
   XZ=    -2.7184   YZ=     5.3797   ZZ=    37.1839
   Eigenvalues:    11.6696    13.8256    40.8962
    114  Bq   Isotropic =     7.9037   Anisotropy =    54.0722
   XX=   -16.5134   YX=   -22.9443   ZX=     9.0676
   XY=   -24.7475   YY=     4.0755   ZY=    18.4321
   XZ=    -2.6430   YZ=    14.6019   ZZ=    36.1490
   Eigenvalues:   -34.2342    13.9936    43.9518
    115  Bq   Isotropic =    19.6031   Anisotropy =    28.2131
   XX=     9.1380   YX=    -0.4350   ZX=     0.5019
   XY=     0.7324   YY=    14.3683   ZY=    12.3546
   XZ=    -0.4130   YZ=     4.9360   ZZ=    35.3029
   Eigenvalues:     9.1304    11.2670    38.4119
    116  Bq   Isotropic =     8.6452   Anisotropy =    51.5571
   XX=   -14.8329   YX=   -24.0870   ZX=     0.8303
   XY=   -21.8776   YY=     3.1453   ZY=    12.6096
   XZ=     0.9269   YZ=    13.8092   ZZ=    37.6231
   Eigenvalues:   -31.5188    14.4377    43.0165
    117  Bq   Isotropic =    25.9040   Anisotropy =    35.4235
   XX=    13.7955   YX=    -5.8135   ZX=    15.4509
   XY=   -14.5683   YY=    25.0305   ZY=    21.0296
   XZ=   -12.9370   YZ=     9.9227   ZZ=    38.8860
   Eigenvalues:     4.8969    23.2954    49.5197
    118  Bq   Isotropic =    26.9200   Anisotropy =    32.1128
   XX=    12.9004   YX=    -2.1072   ZX=    13.8866
   XY=    -9.4864   YY=    26.8225   ZY=    18.1995
   XZ=    -9.1730   YZ=     6.7933   ZZ=    41.0372
   Eigenvalues:     9.1802    23.2513    48.3286
    119  Bq   Isotropic =    20.1867   Anisotropy =    44.7714
   XX=    -2.2041   YX=    -6.7920   ZX=    22.8156
   XY=   -18.6286   YY=    23.7803   ZY=    23.3712
   XZ=   -11.7750   YZ=    10.4555   ZZ=    38.9839
   Eigenvalues:   -10.3488    20.8746    50.0343
    120  Bq   Isotropic =    26.4393   Anisotropy =    29.6279
   XX=    14.1262   YX=    -1.1724   ZX=     9.3004
   XY=    -5.8395   YY=    24.5185   ZY=    16.0825
   XZ=    -6.6747   YZ=     5.7762   ZZ=    40.6730
   Eigenvalues:    12.1122    21.0144    46.1912
    121  Bq   Isotropic =    12.4172   Anisotropy =    54.1765
   XX=   -16.5615   YX=   -11.0168   ZX=    23.6971
   XY=   -23.0813   YY=    16.7763   ZY=    25.0363
   XZ=   -11.0839   YZ=    12.7428   ZZ=    37.0369
   Eigenvalues:   -26.6497    15.3665    48.5349
    122  Bq   Isotropic =    24.5869   Anisotropy =    28.7771
   XX=    13.0239   YX=    -0.7275   ZX=     5.6026
   XY=    -2.9582   YY=    21.2476   ZY=    14.4621
   XZ=    -4.0653   YZ=     5.1807   ZZ=    39.4891
   Eigenvalues:    12.1893    17.7997    43.7716
    123  Bq   Isotropic =     3.9516   Anisotropy =    62.7250
   XX=   -31.2231   YX=   -15.9531   ZX=    19.3762
   XY=   -25.8800   YY=     7.7681   ZY=    24.3800
   XZ=    -8.9460   YZ=    14.5967   ZZ=    35.3097
   Eigenvalues:   -42.4636     8.5500    45.7683
    124  Bq   Isotropic =    22.1207   Anisotropy =    28.6621
   XX=    10.8347   YX=    -0.5408   ZX=     2.8653
   XY=    -0.7752   YY=    17.7993   ZY=    13.2511
   XZ=    -1.7158   YZ=     4.8530   ZZ=    37.7280
   Eigenvalues:    10.6473    14.4860    41.2287
    125  Bq   Isotropic =    -1.1516   Anisotropy =    66.8476
[...]
   139  Bq   0.000000
   140  Bq   0.000000
   141  Bq   0.000000
   142  Bq   0.000000
   143  Bq   0.000000
   144  Bq   0.000000
   145  Bq   0.000000
   146  Bq   0.000000
   147  Bq   0.000000
   148  Bq   0.000000
   149  Bq   0.000000
   150  Bq   0.000000
   151  Bq   0.000000
   152  Bq   0.000000
   153  Bq   0.000000
   154  Bq   0.000000
   155  Bq   0.000000
   156  Bq   0.000000
   157  Bq   0.000000
   158  Bq   0.000000
   159  Bq   0.000000
   160  Bq   0.000000
   161  Bq   0.000000
   162  Bq   0.000000
   163  Bq   0.000000
   164  Bq   0.000000
   165  Bq   0.000000
   166  Bq   0.000000
   167  Bq   0.000000
   168  Bq   0.000000
   169  Bq   0.000000
   170  Bq   0.000000
   171  Bq   0.000000
   172  Bq   0.000000
   173  Bq   0.000000
   174  Bq   0.000000
   175  Bq   0.000000
   176  Bq   0.000000
   177  Bq   0.000000
   178  Bq   0.000000
   179  Bq   0.000000
   180  Bq   0.000000
   181  Bq   0.000000
   182  Bq   0.000000
   183  Bq   0.000000
   184  Bq   0.000000
   185  Bq   0.000000
   186  Bq   0.000000
   187  Bq   0.000000
   188  Bq   0.000000
   189  Bq   0.000000
   190  Bq   0.000000
   191  Bq   0.000000
   192  Bq   0.000000
   193  Bq   0.000000
   194  Bq   0.000000
   195  Bq   0.000000
   196  Bq   0.000000
   197  Bq   0.000000
   198  Bq   0.000000
   199  Bq   0.000000
   200  Bq   0.000000
   201  Bq   0.000000
   202  Bq   0.000000
   203  Bq   0.000000
   204  Bq   0.000000
   205  Bq   0.000000
   206  Bq   0.000000
   207  Bq   0.000000
   208  Bq   0.000000
   209  Bq   0.000000
   210  Bq   0.000000
   211  Bq   0.000000
   212  Bq   0.000000
   213  Bq   0.000000
   214  Bq   0.000000
   215  Bq   0.000000
   216  Bq   0.000000
   217  Bq   0.000000
   218  Bq   0.000000
   219  Bq   0.000000
   220  Bq   0.000000
   221  Bq   0.000000
   222  Bq   0.000000
   223  Bq   0.000000
   224  Bq   0.000000
   225  Bq   0.000000
   226  Bq   0.000000
   227  Bq   0.000000
   228  Bq   0.000000
   229  Bq   0.000000
   230  Bq   0.000000
   231  Bq   0.000000
   232  Bq   0.000000
   233  Bq   0.000000
   234  Bq   0.000000
   235  Bq   0.000000
   236  Bq   0.000000
 Sum of Mulliken charges =   0.00000
 Mulliken charges with hydrogens summed into heavy atoms:
               1
     1  C   -0.255498
     3  C    0.169409
     5  C    0.448258
     6  C    0.064351
     7  C   -0.333926
     9  C   -0.139521
    11  C   -0.205988
    13  C   -0.119315
    15  C    0.653397
    16  C    0.034822
    17  C   -0.317410
    19  C   -0.316854
    21  C    0.651066
    22  C    0.037784
    23  C   -0.117289
    25  C   -0.205316
    27  C    0.448331
    28  C    0.061983
    29  C   -0.333381
    31  C   -0.139505
    33  C   -0.255977
    35  C    0.170579
    37  Bq   0.000000
    38  Bq   0.000000
    39  Bq   0.000000
    40  Bq   0.000000
    41  Bq   0.000000
    42  Bq   0.000000
    43  Bq   0.000000
    44  Bq   0.000000
    45  Bq   0.000000
    46  Bq   0.000000
    47  Bq   0.000000
    48  Bq   0.000000
    49  Bq   0.000000
    50  Bq   0.000000
    51  Bq   0.000000
    52  Bq   0.000000
    53  Bq   0.000000
    54  Bq   0.000000
    55  Bq   0.000000
    56  Bq   0.000000
    57  Bq   0.000000
    58  Bq   0.000000
    59  Bq   0.000000
    60  Bq   0.000000
    61  Bq   0.000000
    62  Bq   0.000000
    63  Bq   0.000000
    64  Bq   0.000000
    65  Bq   0.000000
    66  Bq   0.000000
    67  Bq   0.000000
    68  Bq   0.000000
    69  Bq   0.000000
    70  Bq   0.000000
    71  Bq   0.000000
    72  Bq   0.000000
    73  Bq   0.000000
    74  Bq   0.000000
    75  Bq   0.000000
    76  Bq   0.000000
    77  Bq   0.000000
    78  Bq   0.000000
    79  Bq   0.000000
    80  Bq   0.000000
    81  Bq   0.000000
    82  Bq   0.000000
    83  Bq   0.000000
    84  Bq   0.000000
    85  Bq   0.000000
    86  Bq   0.000000
    87  Bq   0.000000
    88  Bq   0.000000
    89  Bq   0.000000
    90  Bq   0.000000
    91  Bq   0.000000
    92  Bq   0.000000
    93  Bq   0.000000
    94  Bq   0.000000
    95  Bq   0.000000
    96  Bq   0.000000
    97  Bq   0.000000
    98  Bq   0.000000
    99  Bq   0.000000
   100  Bq   0.000000
   101  Bq   0.000000
   102  Bq   0.000000
   103  Bq   0.000000
   104  Bq   0.000000
   105  Bq   0.000000
   106  Bq   0.000000
   107  Bq   0.000000
   108  Bq   0.000000
   109  Bq   0.000000
   110  Bq   0.000000
   111  Bq   0.000000
   112  Bq   0.000000
   113  Bq   0.000000
   114  Bq   0.000000
   115  Bq   0.000000
   116  Bq   0.000000
   117  Bq   0.000000
   118  Bq   0.000000
   119  Bq   0.000000
   120  Bq   0.000000
   121  Bq   0.000000
   122  Bq   0.000000
   123  Bq   0.000000
   124  Bq   0.000000
   125  Bq   0.000000
   126  Bq   0.000000
   127  Bq   0.000000
   128  Bq   0.000000
   129  Bq   0.000000
   130  Bq   0.000000
   131  Bq   0.000000
   132  Bq   0.000000
   133  Bq   0.000000
   134  Bq   0.000000
   135  Bq   0.000000
   136  Bq   0.000000
   137  Bq   0.000000
   138  Bq   0.000000
   139  Bq   0.000000
   140  Bq   0.000000
   141  Bq   0.000000
   142  Bq   0.000000
   143  Bq   0.000000
   144  Bq   0.000000
   145  Bq   0.000000
   146  Bq   0.000000
   147  Bq   0.000000
   148  Bq   0.000000
   149  Bq   0.000000
   150  Bq   0.000000
   151  Bq   0.000000
   152  Bq   0.000000
   153  Bq   0.000000
   154  Bq   0.000000
   155  Bq   0.000000
   156  Bq   0.000000
   157  Bq   0.000000
   158  Bq   0.000000
   159  Bq   0.000000
   160  Bq   0.000000
   161  Bq   0.000000
   162  Bq   0.000000
   163  Bq   0.000000
   164  Bq   0.000000
   165  Bq   0.000000
   166  Bq   0.000000
   167  Bq   0.000000
   168  Bq   0.000000
   169  Bq   0.000000
   170  Bq   0.000000
   171  Bq   0.000000
   172  Bq   0.000000
   173  Bq   0.000000
   174  Bq   0.000000
   175  Bq   0.000000
   176  Bq   0.000000
   177  Bq   0.000000
   178  Bq   0.000000
   179  Bq   0.000000
   180  Bq   0.000000
   181  Bq   0.000000
   182  Bq   0.000000
   183  Bq   0.000000
   184  Bq   0.000000
   185  Bq   0.000000
   186  Bq   0.000000
   187  Bq   0.000000
   188  Bq   0.000000
   189  Bq   0.000000
   190  Bq   0.000000
   191  Bq   0.000000
   192  Bq   0.000000
   193  Bq   0.000000
   194  Bq   0.000000
   195  Bq   0.000000
   196  Bq   0.000000
   197  Bq   0.000000
   198  Bq   0.000000
   199  Bq   0.000000
   200  Bq   0.000000
   201  Bq   0.000000
   202  Bq   0.000000
   203  Bq   0.000000
   204  Bq   0.000000
   205  Bq   0.000000
   206  Bq   0.000000
   207  Bq   0.000000
   208  Bq   0.000000
   209  Bq   0.000000
   210  Bq   0.000000
   211  Bq   0.000000
   212  Bq   0.000000
   213  Bq   0.000000
   214  Bq   0.000000
   215  Bq   0.000000
   216  Bq   0.000000
   217  Bq   0.000000
   218  Bq   0.000000
   219  Bq   0.000000
   220  Bq   0.000000
   221  Bq   0.000000
   222  Bq   0.000000
   223  Bq   0.000000
   224  Bq   0.000000
   225  Bq   0.000000
   226  Bq   0.000000
   227  Bq   0.000000
   228  Bq   0.000000
   229  Bq   0.000000
   230  Bq   0.000000
   231  Bq   0.000000
   232  Bq   0.000000
   233  Bq   0.000000
   234  Bq   0.000000
   235  Bq   0.000000
   236  Bq   0.000000
 Electronic spatial extent (au):  <R**2>=           5736.9264
 Charge=              0.0000 electrons
 Dipole moment (field-independent basis, Debye):
    X=              0.0475    Y=              0.0856    Z=              0.0029  Tot=              0.0979
 Quadrupole moment (field-independent basis, Debye-Ang):
   XX=           -113.7056   YY=           -113.9456   ZZ=           -133.2669
   XY=             -0.3834   XZ=              3.2102   YZ=             -1.1839
 Traceless Quadrupole moment (field-independent basis, Debye-Ang):
   XX=              6.6005   YY=              6.3604   ZZ=            -12.9609
   XY=             -0.3834   XZ=              3.2102   YZ=             -1.1839
 Octapole moment (field-independent basis, Debye-Ang**2):
  XXX=            -16.4668  YYY=            -16.1860  ZZZ=             -1.7007  XYY=              2.5576
  XXY=             -6.5650  XXZ=             13.6547  XZZ=             -8.9478  YZZ=            -17.7168
  YYZ=            -13.2941  XYZ=              8.8036
 Hexadecapole moment (field-independent basis, Debye-Ang**3):
 XXXX=          -3951.1638 YYYY=          -3112.2161 ZZZZ=           -504.8311 XXXY=            340.6935
 XXXZ=            156.4968 YYYX=            335.5625 YYYZ=            -87.0893 ZZZX=            120.2262
 ZZZY=           -108.7373 XXYY=          -1176.4844 XXZZ=           -856.7291 YYZZ=           -665.7275
 XXYZ=            -68.9016 YYXZ=             48.1602 ZZXY=            153.0375
 N-N= 1.610917615562D+03 E-N=-5.186891130729D+03  KE= 8.436329774448D+02
 1\1\GINC-MUHKA\SP\RB3LYP\6-311+G(d,p)\C22H14\YANNICK\21-Aug-2020\0\\# 
 rb3lyp/6-311+g** NMR geom=connectivity\\Title\\0,1\C,0,-4.0500558,-0.5
 771862,0.8136712\H,0,-5.0263804,-1.0082727,1.002476\C,0,-3.9381552,0.6
 617804,0.2400876\H,0,-4.8252424,1.233889,-0.0111295\C,0,-2.676841,1.24
 33246,0.0057578\C,0,-1.4974121,0.5051527,0.2848253\C,0,-1.6508332,-0.7
 338728,0.9404026\H,0,-0.7713646,-1.2730967,1.2633753\C,0,-2.8898548,-1
 .2624035,1.1994307\H,0,-2.9683706,-2.2124563,1.7152676\C,0,-2.5773185,
 2.5963696,-0.419293\H,0,-3.4870728,3.1412239,-0.6474055\C,0,-1.3741895
 ,3.2147896,-0.436403\H,0,-1.2997315,4.2742019,-0.6578144\C,0,-0.171948
 8,2.499409,-0.1734588\C,0,-0.2043917,1.1018437,0.0192689\C,0,1.0513491
 ,3.204256,-0.0676222\H,0,1.0427344,4.2819499,-0.1896997\C,0,2.1942091,
 2.5487446,0.2579577\H,0,3.1168527,3.0912848,0.4334727\C,0,2.2216473,1.
 1336562,0.293499\C,0,1.0486931,0.3945528,0.0302412\C,0,3.4483363,0.461
 4633,0.5573939\H,0,4.3095794,1.0606054,0.8334846\C,0,3.5427346,-0.8855
 926,0.4749463\H,0,4.4731467,-1.3939704,0.7038822\C,0,2.4490052,-1.6474
 447,-0.0196319\C,0,1.2150704,-1.0057258,-0.3013573\C,0,0.2531113,-1.74
 3444,-1.0216591\H,0,-0.6541356,-1.2535051,-1.3462847\C,0,0.4494193,-3.
 0628597,-1.3413779\H,0,-0.3083162,-3.5944309,-1.905406\C,0,1.6251726,-
 3.7207967,-0.9552541\H,0,1.7670048,-4.7687404,-1.1927019\C,0,2.6109872
 ,-3.0144177,-0.318305\H,0,3.5525612,-3.4902813,-0.0646367\Bq,0,-1.8438
 955434,-0.4418584492,0.5498475189\Bq,0,-1.8784733753,-0.2209145928,1.4
 216205317\Bq,0,-1.8400535621,-0.4664077665,0.4529838508\Bq,0,-1.859263
 4687,-0.3436611797,0.9373021912\Bq,0,-1.8621324958,-0.2221720303,1.009
 6358299\Bq,0,-1.8544485331,-0.2712706651,0.8159084937\Bq,0,-1.86597447
 71,-0.197622713,1.106499498\Bq,0,-1.8506065518,-0.2958199825,0.7190448
 256\Bq,0,-1.8698164585,-0.1730733956,1.2033631661\Bq,0,-1.8467645705,-
 0.3203692998,0.6221811575\Bq,0,-1.8736584398,-0.1485240782,1.300226834
 2\Bq,0,-1.8429225892,-0.3449186172,0.5253174895\Bq,0,-1.8775004211,-0.
 1239747608,1.3970905023\Bq,0,-1.8390806078,-0.3694679346,0.4284538214\
 Bq,0,-1.8582905145,-0.2467213477,0.9127721618\Bq,0,-1.8611595416,-0.12
 52321984,0.9851058005\Bq,0,-1.8534755789,-0.1743308332,0.7913784643\Bq
 ,0,-1.8650015229,-0.100682881,1.0819694686\Bq,0,-1.8496335976,-0.19888
 01505,0.6945147962\Bq,0,-1.8688435042,-0.0761335637,1.1788331367\Bq,0,
 -1.8457916163,-0.2234294679,0.5976511281\Bq,0,-1.8726854856,-0.0515842
 463,1.2756968048\Bq,0,-1.8419496349,-0.2479787853,0.50078746\Bq,0,-1.8
 765274669,-0.0270349289,1.3725604728\Bq,0,-1.8381076536,-0.2725281027,
 0.4039237919\Bq,0,-1.8573175602,-0.1497815158,0.8882421324\Bq,0,-1.860
 1865874,-0.0282923665,0.9605757711\Bq,0,-1.8525026247,-0.0773910012,0.
 7668484349\Bq,0,-1.8640285687,-0.0037430491,1.0574394391\Bq,0,-1.84866
 06434,-0.1019403186,0.6699847668\Bq,0,-1.86787055,0.0208062683,1.15430
 31072\Bq,0,-1.844818662,-0.126489636,0.5731210987\Bq,0,-1.8717125313,0
 .0453555857,1.2511667753\Bq,0,-1.8409766807,-0.1510389533,0.4762574306
 \Bq,0,-1.8755545127,0.069904903,1.3480304434\Bq,0,-1.8371346994,-0.175
 5882707,0.3793937625\Bq,0,-1.856344606,-0.0528416838,0.863712103\Bq,0,
 -1.8592136331,0.0686474655,0.9360457416\Bq,0,-1.8515296705,0.019548830
 7,0.7423184054\Bq,0,-1.8630556145,0.0931967828,1.0329094097\Bq,0,-1.84
 76876891,-0.0050004867,0.6454547374\Bq,0,-1.8668975958,0.1177461002,1.
 1297730778\Bq,0,-1.8438457078,-0.029549804,0.5485910693\Bq,0,-1.870739
 5771,0.1422954176,1.2266367459\Bq,0,-1.8400037265,-0.0540991214,0.4517
 274012\Bq,0,-1.8745815584,0.166844735,1.323500414\Bq,0,-1.8361617452,-
 0.0786484388,0.3548637331\Bq,0,-1.8553716518,0.0440981481,0.8391820735
 \Bq,0,-1.8582406789,0.1655872974,0.9115157122\Bq,0,-1.8505567162,0.116
 4886627,0.717788376\Bq,0,-1.8620826602,0.1901366148,1.0083793803\Bq,0,
 -1.8467147349,0.0919393453,0.6209247079\Bq,0,-1.8659246416,0.214685932
 2,1.1052430484\Bq,0,-1.8428727536,0.0673900279,0.5240610398\Bq,0,-1.86
 97666229,0.2392352495,1.2021067165\Bq,0,-1.8390307723,0.0428407105,0.4
 271973717\Bq,0,-1.8736086042,0.2637845669,1.2989703846\Bq,0,-1.8351887
 909,0.0182913932,0.3303337037\Bq,0,-1.8543986976,0.14103798,0.81465204
 41\Bq,0,-1.8572677247,0.2625271294,0.8869856828\Bq,0,-1.849583762,0.21
 34284946,0.6932583466\Bq,0,-1.861109706,0.2870764467,0.9838493509\Bq,0
 ,-1.8457417807,0.1888791772,0.5963946785\Bq,0,-1.8649516873,0.31162576
 41,1.080713019\Bq,0,-1.8418997994,0.1643298598,0.4995310104\Bq,0,-1.86
 87936687,0.3361750815,1.177576687\Bq,0,-1.838057818,0.1397805425,0.402
 6673423\Bq,0,-1.87263565,0.3607243989,1.2744403551\Bq,0,-1.8342158367,
 0.1152312251,0.3058036742\Bq,0,-1.8534257434,0.237977812,0.7901220147\
 Bq,0,-1.8562947705,0.3594669613,0.8624556533\Bq,0,-1.8486108078,0.3103
 683265,0.6687283172\Bq,0,-1.8601367518,0.3840162787,0.9593193214\Bq,0,
 -1.8447688265,0.2858190092,0.5718646491\Bq,0,-1.8639787331,0.408565596
 ,1.0561829895\Bq,0,-1.8409268451,0.2612696918,0.475000981\Bq,0,-1.8678
 207144,0.4331149134,1.1530466576\Bq,0,-1.8370848638,0.2367203744,0.378
 1373129\Bq,0,-1.8716626958,0.4576642308,1.2499103257\Bq,0,-1.833242882
 5,0.212171057,0.2812736448\Bq,0,-1.8524527891,0.3349176439,0.765591985
 3\Bq,0,-1.8553218162,0.4564067932,0.8379256239\Bq,0,-1.8476378536,0.40
 73081585,0.6441982877\Bq,0,-1.8591637976,0.4809561106,0.934789292\Bq,0
 ,-1.8437958722,0.3827588411,0.5473346196\Bq,0,-1.8630057789,0.50550542
 8,1.0316529601\Bq,0,-1.8399538909,0.3582095237,0.4504709516\Bq,0,-1.86
 68477602,0.5300547454,1.1285166282\Bq,0,-1.8361119096,0.3336602064,0.3
 536072835\Bq,0,-1.8706897415,0.5546040627,1.2253802963\Bq,0,-1.8322699
 283,0.309110889,0.2567436154\Bq,0,-1.8514798349,0.4318574759,0.7410619
 558\Bq,0,-1.854348862,0.5533466252,0.8133955945\Bq,0,-1.8466648993,0.5
 042479904,0.6196682583\Bq,0,-1.8581908433,0.5778959425,0.9102592626\Bq
 ,0,-1.842822918,0.479698673,0.5228045902\Bq,0,-1.8620328247,0.60244525
 99,1.0071229307\Bq,0,-1.8389809367,0.4551493557,0.4259409221\Bq,0,-1.8
 65874806,0.6269945773,1.1039865988\Bq,0,-1.8351389554,0.4306000383,0.3
 29077254\Bq,0,-1.8697167873,0.6515438947,1.2008502669\Bq,0,-1.83129697
 4,0.4060507209,0.232213586\Bq,0,-1.8505068807,0.5287973078,0.716531926
 4\Bq,0,-1.8533759078,0.6502864571,0.7888655651\Bq,0,-1.8456919451,0.60
 11878224,0.5951382289\Bq,0,-1.8572178891,0.6748357745,0.8857292332\Bq,
 0,-1.8418499638,0.576638505,0.4982745608\Bq,0,-1.8610598704,0.69938509
 19,0.9825929012\Bq,0,-1.8380079825,0.5520891876,0.4014108927\Bq,0,-1.8
 649018518,0.7239344092,1.0794565693\Bq,0,-1.8341660011,0.5275398702,0.
 3045472246\Bq,0,-1.8687438331,0.7484837266,1.1763202374\Bq,0,-1.830324
 0198,0.5029905529,0.2076835565\Bq,0,-1.8495339265,0.6257371397,0.69200
 1897\Bq,0,-1.8524029536,0.747226289,0.7643355356\Bq,0,-1.8447189909,0.
 6981276543,0.5706081995\Bq,0,-1.8562449349,0.7717756064,0.8611992037\B
 q,0,-1.8408770096,0.6735783369,0.4737445314\Bq,0,-1.8600869162,0.79632
 49238,0.9580628718\Bq,0,-1.8370350282,0.6490290195,0.3768808633\Bq,0,-
 1.8639288975,0.8208742412,1.0549265399\Bq,0,-1.8331930469,0.6244797022
 ,0.2800171952\Bq,0,-1.8677708789,0.8454235585,1.151790208\Bq,0,-1.8293
 510656,0.5999303848,0.1831535271\Bq,0,-1.8485609722,0.7226769717,0.667
 4718675\Bq,0,-1.8514299993,0.844166121,0.7398055062\Bq,0,-1.8437460367
 ,0.7950674862,0.54607817\Bq,0,-1.8552719807,0.8687154384,0.8366691743\
 Bq,0,-1.8399040553,0.7705181689,0.4492145019\Bq,0,-1.859113962,0.89326
 47557,0.9335328424\Bq,0,-1.836062074,0.7459688515,0.3523508338\Bq,0,-1
 .8629559433,0.9178140731,1.0303965105\Bq,0,-1.8322200927,0.7214195341,
 0.2554871658\Bq,0,-1.8667979246,0.9423633905,1.1272601786\Bq,0,-1.8283
 781114,0.6968702167,0.1586234977\Bq,0,-1.847588018,0.8196168036,0.6429
 418381\Bq,0,-1.8504570451,0.9411059529,0.7152754768\Bq,0,-1.8427730825
 ,0.8920073182,0.5215481406\Bq,0,-1.8542990264,0.9656552703,0.812139144
 9\Bq,0,-1.8389311011,0.8674580008,0.4246844725\Bq,0,-1.8581410078,0.99
 02045877,0.909002813\Bq,0,-1.8350891198,0.8429086834,0.3278208044\Bq,0
 ,-1.8619829891,1.0147539051,1.0058664811\Bq,0,-1.8312471385,0.81835936
 6,0.2309571363\Bq,0,-1.8658249704,1.0393032224,1.1027301491\Bq,0,-1.82
 74051571,0.7938100487,0.1340934682\Bq,0,-1.8466150638,0.9165566355,0.6
 184118087\Bq,0,-1.8494840909,1.0380457849,0.6907454474\Bq,0,-1.8418001
 282,0.9889471501,0.4970181112\Bq,0,-1.8533260722,1.0625951022,0.787609
 1154\Bq,0,-1.8379581469,0.9643978327,0.4001544431\Bq,0,-1.8571680535,1
 .0871444196,0.8844727835\Bq,0,-1.8341161656,0.9398485154,0.303290775\B
 q,0,-1.8610100349,1.111693737,0.9813364516\Bq,0,-1.8302741842,0.915299
 198,0.2064271069\Bq,0,-1.8648520162,1.1362430544,1.0782001197\Bq,0,-1.
 8264322029,0.8907498806,0.1095634388\Bq,0,-1.8456421096,1.0134964675,0
 .5938817793\Bq,0,-1.8485111367,1.1349856168,0.6662154179\Bq,0,-1.84082
 7174,1.0858869821,0.4724880817\Bq,0,-1.852353118,1.1595349342,0.763079
 086\Bq,0,-1.8369851927,1.0613376647,0.3756244137\Bq,0,-1.8561950993,1.
 1840842516,0.8599427541\Bq,0,-1.8331432113,1.0367883473,0.2787607456\B
 q,0,-1.8600370806,1.2086335689,0.9568064222\Bq,0,-1.82930123,1.0122390
 299,0.1818970775\Bq,0,-1.863879062,1.2331828863,1.0536700903\Bq,0,-1.8
 254592487,0.9876897125,0.0850334094\Bq,0,-1.8446691553,1.1104362994,0.
 5693517498\Bq,0,-1.8475381824,1.2319254487,0.6416853885\Bq,0,-1.839854
 2198,1.182826814,0.4479580523\Bq,0,-1.8513801638,1.2564747661,0.738549
 0566\Bq,0,-1.8360122384,1.1582774966,0.3510943842\Bq,0,-1.8552221451,1
 .2810240835,0.8354127247\Bq,0,-1.8321702571,1.1337281792,0.2542307161\
 Bq,0,-1.8590641264,1.3055734009,0.9322763928\Bq,0,-1.8283282758,1.1091
 788619,0.1573670481\Bq,0,-1.8629061078,1.3301227182,1.0291400609\Bq,0,
 -1.8244862945,1.0846295445,0.06050338\Bq,0,-1.8436962011,1.2073761314,
 0.5448217204\Bq,0,-1.8465652282,1.3288652807,0.6171553591\Bq,0,-1.8388
 812656,1.2797666459,0.4234280229\Bq,0,-1.8504072095,1.3534145981,0.714
 0190272\Bq,0,-1.8350392842,1.2552173286,0.3265643548\Bq,0,-1.854249190
 9,1.3779639154,0.8108826953\Bq,0,-1.8311973029,1.2306680112,0.22970068
 67\Bq,0,-1.8580911722,1.4025132328,0.9077463633\Bq,0,-1.8273553216,1.2
 061186938,0.1328370186\Bq,0,-1.8619331535,1.4270625502,1.0046100314\Bq
 ,0,-1.8235133402,1.1815693764,0.0359733505\Bq,0,-1.8427232469,1.304315
 9633,0.520291691\Bq,0,-1.845592274,1.4258051126,0.5926253296\Bq,0,-1.8
 379083113,1.3767064779,0.3988979935\Bq,0,-1.8494342553,1.45035443,0.68
 94889977\Bq,0,-1.83406633,1.3521571605,0.3020343254\Bq,0,-1.8532762366
 ,1.4749037474,0.7863526658\Bq,0,-1.8302243487,1.3276078431,0.205170657
 3\Bq,0,-1.857118218,1.4994530647,0.8832163339\Bq,0,-1.8263823673,1.303
 0585257,0.1083069892\Bq,0,-1.8609601993,1.5240023821,0.980080002\\Vers
 ion=ES64L-G09RevD.01\HF=-847.0032898\RMSD=7.650e-09\Dipole=0.0186808,0
 .0336671,0.0011595\Quadrupole=4.9072795,4.7288219,-9.6361014,-0.285020
 1,2.3867064,-0.880172\PG=C01 [X(C22H14)]\\@


 KNOWING HOW CONTENTED, FREE, AND JOYFUL IS LIFE IN
 THE REALMS OF SCIENCE, ONE FERVENTLY WISHES THAT
 MANY WOULD ENTER HER PORTALS.
   --  DMITRI IVANOVICH MENDELEEV
 "FIRST PRINCIPLES OF CHEMISTRY", LONGMANS, GREEN,
 AND CO.  LONDON, 1891
 Job cpu time:       0 days  2 hours 27 minutes 36.0 seconds.
 File lengths (MBytes):  RWF=    184 Int=      0 D2E=      0 Chk=     19 Scr=      1
 Normal termination of Gaussian 09 at Fri Aug 21 23:05:07 2020.
