 Entering Gaussian System, Link 0=g09
 Input=input_cycle_02_batch_02800.com
 Output=input_cycle_02_batch_02800.log
 Initial command:
 /share/programs/GAUSSIAN/64/g09/l1.exe "/scratch/yannick.30051/Gau-2250567.inp" -scrdir="/scratch/yannick.30051/"
 Entering Link 1 = /share/programs/GAUSSIAN/64/g09/l1.exe PID=   2250568.
  
 Copyright (c) 1988,1990,1992,1993,1995,1998,2003,2009,2013,
            Gaussian, Inc.  All Rights Reserved.
  
 This is part of the Gaussian(R) 09 program.  It is based on
 the Gaussian(R) 03 system (copyright 2003, Gaussian, Inc.),
 the Gaussian(R) 98 system (copyright 1998, Gaussian, Inc.),
 the Gaussian(R) 94 system (copyright 1995, Gaussian, Inc.),
 the Gaussian 92(TM) system (copyright 1992, Gaussian, Inc.),
 the Gaussian 90(TM) system (copyright 1990, Gaussian, Inc.),
 the Gaussian 88(TM) system (copyright 1988, Gaussian, Inc.),
 the Gaussian 86(TM) system (copyright 1986, Carnegie Mellon
 University), and the Gaussian 82(TM) system (copyright 1983,
 Carnegie Mellon University). Gaussian is a federally registered
 trademark of Gaussian, Inc.
  
 This software contains proprietary and confidential information,
 including trade secrets, belonging to Gaussian, Inc.
  
 This software is provided under written license and may be
 used, copied, transmitted, or stored only in accord with that
 written license.
  
 The following legend is applicable only to US Government
 contracts under FAR:
  
                    RESTRICTED RIGHTS LEGEND
  
 Use, reproduction and disclosure by the US Government is
 subject to restrictions as set forth in subparagraphs (a)
 and (c) of the Commercial Computer Software - Restricted
 Rights clause in FAR 52.227-19.
  
 Gaussian, Inc.
 340 Quinnipiac St., Bldg. 40, Wallingford CT 06492
  
  
 ---------------------------------------------------------------
 Warning -- This program may not be used in any manner that
 competes with the business of Gaussian, Inc. or will provide
 assistance to any competitor of Gaussian, Inc.  The licensee
 of this program is prohibited from giving any competitor of
 Gaussian, Inc. access to this program.  By using this program,
 the user acknowledges that Gaussian, Inc. is engaged in the
 business of creating and licensing software in the field of
 computational chemistry and represents and warrants to the
 licensee that it is not a competitor of Gaussian, Inc. and that
 it will not use this program in any manner prohibited above.
 ---------------------------------------------------------------
  

 Cite this work as:
 Gaussian 09, Revision D.01,
 M. J. Frisch, G. W. Trucks, H. B. Schlegel, G. E. Scuseria, 
 M. A. Robb, J. R. Cheeseman, G. Scalmani, V. Barone, B. Mennucci, 
 G. A. Petersson, H. Nakatsuji, M. Caricato, X. Li, H. P. Hratchian, 
 A. F. Izmaylov, J. Bloino, G. Zheng, J. L. Sonnenberg, M. Hada, 
 M. Ehara, K. Toyota, R. Fukuda, J. Hasegawa, M. Ishida, T. Nakajima, 
 Y. Honda, O. Kitao, H. Nakai, T. Vreven, J. A. Montgomery, Jr., 
 J. E. Peralta, F. Ogliaro, M. Bearpark, J. J. Heyd, E. Brothers, 
 K. N. Kudin, V. N. Staroverov, T. Keith, R. Kobayashi, J. Normand, 
 K. Raghavachari, A. Rendell, J. C. Burant, S. S. Iyengar, J. Tomasi, 
 M. Cossi, N. Rega, J. M. Millam, M. Klene, J. E. Knox, J. B. Cross, 
 V. Bakken, C. Adamo, J. Jaramillo, R. Gomperts, R. E. Stratmann, 
 O. Yazyev, A. J. Austin, R. Cammi, C. Pomelli, J. W. Ochterski, 
 R. L. Martin, K. Morokuma, V. G. Zakrzewski, G. A. Voth, 
 P. Salvador, J. J. Dannenberg, S. Dapprich, A. D. Daniels, 
 O. Farkas, J. B. Foresman, J. V. Ortiz, J. Cioslowski, 
 and D. J. Fox, Gaussian, Inc., Wallingford CT, 2013.
 
 ******************************************
 Gaussian 09:  ES64L-G09RevD.01 24-Apr-2013
                21-Aug-2020 
 ******************************************
 %nproc=8
 Will use up to    8 processors via shared memory.
 %mem=1000MB
 ----------------------------------------
 # rb3lyp/6-311+g** NMR geom=connectivity
 ----------------------------------------
 1/38=1,57=2/1;
 2/12=2,17=6,18=5,40=1/2;
 3/5=4,6=6,7=111,11=2,16=1,25=1,30=1,74=-5,116=1/1,2,8,3;
 4//1;
 5/5=2,38=5/2;
 8/6=1,10=90,11=11/1;
 10/13=100,45=16/2;
 6/7=2,8=2,9=2,10=2,28=1/1;
 99/9=1/99;
 -----
 Title
 -----
 Symbolic Z-matrix:
 Charge =  0 Multiplicity = 1
 C                    -4.05006  -0.57719   0.81367 
 H                    -5.02638  -1.00827   1.00248 
 C                    -3.93816   0.66178   0.24009 
 H                    -4.82524   1.23389  -0.01113 
 C                    -2.67684   1.24332   0.00576 
 C                    -1.49741   0.50515   0.28483 
 C                    -1.65083  -0.73387   0.9404 
 H                    -0.77136  -1.2731    1.26338 
 C                    -2.88985  -1.2624    1.19943 
 H                    -2.96837  -2.21246   1.71527 
 C                    -2.57732   2.59637  -0.41929 
 H                    -3.48707   3.14122  -0.64741 
 C                    -1.37419   3.21479  -0.4364 
 H                    -1.29973   4.2742   -0.65781 
 C                    -0.17195   2.49941  -0.17346 
 C                    -0.20439   1.10184   0.01927 
 C                     1.05135   3.20426  -0.06762 
 H                     1.04273   4.28195  -0.1897 
 C                     2.19421   2.54874   0.25796 
 H                     3.11685   3.09128   0.43347 
 C                     2.22165   1.13366   0.2935 
 C                     1.04869   0.39455   0.03024 
 C                     3.44834   0.46146   0.55739 
 H                     4.30958   1.06061   0.83348 
 C                     3.54273  -0.88559   0.47495 
 H                     4.47315  -1.39397   0.70388 
 C                     2.44901  -1.64744  -0.01963 
 C                     1.21507  -1.00573  -0.30136 
 C                     0.25311  -1.74344  -1.02166 
 H                    -0.65414  -1.25351  -1.34628 
 C                     0.44942  -3.06286  -1.34138 
 H                    -0.30832  -3.59443  -1.90541 
 C                     1.62517  -3.7208   -0.95525 
 H                     1.767    -4.76874  -1.1927 
 C                     2.61099  -3.01442  -0.31831 
 H                     3.55256  -3.49028  -0.06464 
 Bq                   -3.49873   4.33274  -0.62264 
 Bq                   -3.52562   4.50459   0.05541 
 Bq                   -3.49489   4.30819  -0.7195 
 Bq                   -3.52946   4.52914   0.15227 
 Bq                   -3.49104   4.28364  -0.81636 
 Bq                   -3.51025   4.40639  -0.33204 
 Bq                   -3.46282  -0.41605   0.99528 
 Bq                   -3.45514  -0.46515   0.80156 
 Bq                   -3.46666  -0.3915    1.09215 
 Bq                   -3.4513   -0.4897    0.70469 
 Bq                   -3.47051  -0.36695   1.18901 
 Bq                   -3.44745  -0.51425   0.60783 
 Bq                   -3.47435  -0.3424    1.28587 
 Bq                   -3.44361  -0.5388    0.51097 
 Bq                   -3.47819  -0.31785   1.38274 
 Bq                   -3.43977  -0.56335   0.4141 
 Bq                   -3.45898  -0.4406    0.89842 
 Bq                   -3.46185  -0.31911   0.97075 
 Bq                   -3.45416  -0.36821   0.77703 
 Bq                   -3.46569  -0.29456   1.06762 
 Bq                   -3.45032  -0.39276   0.68016 
 Bq                   -3.46953  -0.27001   1.16448 
 Bq                   -3.44648  -0.41731   0.5833 
 Bq                   -3.47337  -0.24546   1.26134 
 Bq                   -3.44264  -0.44186   0.48644 
 Bq                   -3.47722  -0.22091   1.35821 
 Bq                   -3.4388   -0.46641   0.38957 
 Bq                   -3.45801  -0.34366   0.87389 
 Bq                   -3.46088  -0.22217   0.94622 
 Bq                   -3.45319  -0.27127   0.7525 
 Bq                   -3.46472  -0.19762   1.04309 
 Bq                   -3.44935  -0.29582   0.65563 
 Bq                   -3.46856  -0.17307   1.13995 
 Bq                   -3.44551  -0.32037   0.55877 
 Bq                   -3.4724   -0.14852   1.23681 
 Bq                   -3.44167  -0.34492   0.46191 
 Bq                   -3.47624  -0.12397   1.33368 
 Bq                   -3.43782  -0.36947   0.36504 
 Bq                   -3.45703  -0.24672   0.84936 
 Bq                   -3.4599   -0.12523   0.92169 
 Bq                   -3.45222  -0.17433   0.72797 
 Bq                   -3.46374  -0.10068   1.01856 
 Bq                   -3.44838  -0.19888   0.6311 
 Bq                   -3.46759  -0.07613   1.11542 
 Bq                   -3.44453  -0.22343   0.53424 
 Bq                   -3.47143  -0.05158   1.21228 
 Bq                   -3.44069  -0.24798   0.43738 
 Bq                   -3.47527  -0.02703   1.30915 
 Bq                   -3.43685  -0.27253   0.34051 
 Bq                   -3.45606  -0.14978   0.82483 
 Bq                   -3.45893  -0.02829   0.89716 
 Bq                   -3.45125  -0.07739   0.70344 
 Bq                   -3.46277  -0.00374   0.99403 
 Bq                   -3.4474   -0.10194   0.60657 
 Bq                   -3.46661   0.02081   1.09089 
 Bq                   -3.44356  -0.12649   0.50971 
 Bq                   -3.47046   0.04536   1.18775 
 Bq                   -3.43972  -0.15104   0.41285 
 Bq                   -3.4743    0.0699    1.28462 
 Bq                   -3.43588  -0.17559   0.31598 
 Bq                   -3.45509  -0.05284   0.8003 
 Bq                   -3.45796   0.06865   0.87263 
 Bq                   -3.45027   0.01955   0.67891 
 Bq                   -3.4618    0.0932    0.9695 
 Bq                   -3.44643  -0.005     0.58204 
 Bq                   -3.46564   0.11775   1.06636 
 Bq                   -3.44259  -0.02955   0.48518 
 Bq                   -3.46948   0.1423    1.16322 
 Bq                   -3.43875  -0.0541    0.38832 
 Bq                   -3.47332   0.16684   1.26009 
 Bq                   -3.4349   -0.07865   0.29145 
 Bq                   -3.45411   0.0441    0.77577 
 Bq                   -3.45698   0.16559   0.8481 
 Bq                   -3.4493    0.11649   0.65438 
 Bq                   -3.46083   0.19014   0.94497 
 Bq                   -3.44546   0.09194   0.55751 
 Bq                   -3.46467   0.21469   1.04183 
 Bq                   -3.44162   0.06739   0.46065 
 Bq                   -3.46851   0.23924   1.13869 
 Bq                   -3.43777   0.04284   0.36379 
 Bq                   -3.47235   0.26378   1.23556 
 Bq                   -3.43393   0.01829   0.26692 
 Bq                   -3.45314   0.14104   0.75124 
 Bq                   -3.45601   0.26253   0.82357 
 Bq                   -3.44833   0.21343   0.62985 
 Bq                   -3.45985   0.28708   0.92044 
 Bq                   -3.44448   0.18888   0.53298 
 Bq                   -3.46369   0.31163   1.0173 
 Bq                   -3.44064   0.16433   0.43612 
 Bq                   -3.46754   0.33618   1.11416 
 Bq                   -3.4368    0.13978   0.33926 
 Bq                   -3.47138   0.36072   1.21103 
 Bq                   -3.43296   0.11523   0.24239 
 Bq                   -3.45217   0.23798   0.72671 
 Bq                   -3.45504   0.35947   0.79904 
 Bq                   -3.44735   0.31037   0.60532 
 Bq                   -3.45888   0.38402   0.89591 
 Bq                   -3.44351   0.28582   0.50845 
 Bq                   -3.46272   0.40857   0.99277 
 Bq                   -3.43967   0.26127   0.41159 
 Bq                   -3.46656   0.43311   1.08963 
 Bq                   -3.43583   0.23672   0.31473 
 Bq                   -3.47041   0.45766   1.1865 
 Bq                   -3.43199   0.21217   0.21786 
 Bq                   -3.4512    0.33492   0.70218 
 Bq                   -3.45406   0.45641   0.77451 
 Bq                   -3.44638   0.40731   0.58079 
 Bq                   -3.45791   0.48096   0.87138 
 Bq                   -3.44254   0.38276   0.48392 
 Bq                   -3.46175   0.50551   0.96824 
 Bq                   -3.4387    0.35821   0.38706 
 Bq                   -3.46559   0.53005   1.0651 
 Bq                   -3.43485   0.33366   0.2902 
 Bq                   -3.46943   0.5546    1.16197 
 Bq                   -3.43101   0.30911   0.19333 
 Bq                   -3.45022   0.43186   0.67765 
 Bq                   -3.45309   0.55335   0.74998 
 Bq                   -3.44541   0.50425   0.55626 
 Bq                   -3.45693   0.5779    0.84685 
 Bq                   -3.44157   0.4797    0.45939 
 Bq                   -3.46078   0.60245   0.94371 
 Bq                   -3.43772   0.45515   0.36253 
 Bq                   -3.46462   0.62699   1.04057 
 Bq                   -3.43388   0.4306    0.26567 
 Bq                   -3.46846   0.65154   1.13744 
 Bq                   -3.43004   0.40605   0.1688 
 Bq                   -3.44925   0.5288    0.65312 
 Bq                   -3.45212   0.65029   0.72545 
 Bq                   -3.44443   0.60119   0.53173 
 Bq                   -3.45596   0.67484   0.82232 
 Bq                   -3.44059   0.57664   0.43486 
 Bq                   -3.4598    0.69939   0.91918 
 Bq                   -3.43675   0.55209   0.338 
 Bq                   -3.46364   0.72393   1.01604 
 Bq                   -3.43291   0.52754   0.24114 
 Bq                   -3.46749   0.74848   1.11291 
 Bq                   -3.42907   0.50299   0.14427 
 Bq                   -3.44828   0.62574   0.62859 
 Bq                   -3.45115   0.74723   0.70092 
 Bq                   -3.44346   0.69813   0.5072 
 Bq                   -3.45499   0.77178   0.79779 
 Bq                   -3.43962   0.67358   0.41033 
 Bq                   -3.45883   0.79632   0.89465 
 Bq                   -3.43578   0.64903   0.31347 
 Bq                   -3.46267   0.82087   0.99151 
 Bq                   -3.43194   0.62448   0.2166 
 Bq                   -3.46651   0.84542   1.08838 
 Bq                   -3.42809   0.59993   0.11974 
 Bq                   -3.4473    0.72268   0.60406 
 Bq                   -3.45017   0.84417   0.67639 
 Bq                   -3.44249   0.79507   0.48267 
 Bq                   -3.45401   0.86872   0.77326 
 Bq                   -3.43865   0.77052   0.3858 
 Bq                   -3.45786   0.89326   0.87012 
 Bq                   -3.4348    0.74597   0.28894 
 Bq                   -3.4617    0.91781   0.96698 
 Bq                   -3.43096   0.72142   0.19207 
 Bq                   -3.46554   0.94236   1.06385 
 Bq                   -3.42712   0.69687   0.09521 
 Bq                   -3.44633   0.81962   0.57953 
 Bq                   -3.4492    0.94111   0.65186 
 Bq                   -3.44152   0.89201   0.45814 
 Bq                   -3.45304   0.96566   0.74873 
 Bq                   -3.43767   0.86746   0.36127 
 Bq                   -3.45688   0.9902    0.84559 
 Bq                   -3.43383   0.84291   0.26441 
 Bq                   -3.46073   1.01475   0.94245 
 Bq                   -3.42999   0.81836   0.16754 
 Bq                   -3.46457   1.0393    1.03932 
 Bq                   -3.42615   0.79381   0.07068 
 Bq                   -3.44536   0.91656   0.555 
 Bq                   -3.44823   1.03805   0.62733 
 Bq                   -3.44054   0.98895   0.43361 
 Bq                   -3.45207   1.0626    0.7242 
 Bq                   -3.4367    0.9644    0.33674 
 Bq                   -3.45591   1.08714   0.82106 
 Bq                   -3.43286   0.93985   0.23988 
 Bq                   -3.45975   1.11169   0.91792 
 Bq                   -3.42902   0.9153    0.14301 
 Bq                   -3.46359   1.13624   1.01479 
 Bq                   -3.42518   0.89075   0.04615 
 Bq                   -3.44439   1.0135    0.53047 
 Bq                   -3.44725   1.13499   0.6028 
 Bq                   -3.43957   1.08589   0.40908 
 Bq                   -3.4511    1.15953   0.69967 
 Bq                   -3.43573   1.06134   0.31221 
 Bq                   -3.45494   1.18408   0.79653 
 Bq                   -3.43189   1.03679   0.21535 
 Bq                   -3.45878   1.20863   0.89339 
 Bq                   -3.42804   1.01224   0.11848 
 Bq                   -3.46262   1.23318   0.99026 
 Bq                   -3.4242    0.98769   0.02162 
 Bq                   -3.44341   1.11044   0.50594 
 Bq                   -3.44628   1.23193   0.57827 
 Bq                   -3.4386    1.18283   0.38455 
 Bq                   -3.45012   1.25647   0.67514 
 Bq                   -3.43476   1.15828   0.28768 
 Bq                   -3.45397   1.28102   0.772 
 Bq                   -3.43091   1.13373   0.19082 
 Bq                   -3.45781   1.30557   0.86886 
 
 Symmetry turned off:
 Cannot cope with ghost atoms or with translation vectors.
 Stoichiometry    C22H14
 Framework group  C1[X(C22H14)]
 NUMDOF-- NAT=    36 NAtoms=   236
 Deg. of freedom     0
 Full point group                 C1      NOp   1
                          Input orientation:                          
 ---------------------------------------------------------------------
 Center     Atomic      Atomic             Coordinates (Angstroms)
 Number     Number       Type             X           Y           Z
 ---------------------------------------------------------------------
      1          6           0       -4.050056   -0.577186    0.813671
      2          1           0       -5.026380   -1.008273    1.002476
      3          6           0       -3.938155    0.661780    0.240088
      4          1           0       -4.825242    1.233889   -0.011130
      5          6           0       -2.676841    1.243325    0.005758
      6          6           0       -1.497412    0.505153    0.284825
      7          6           0       -1.650833   -0.733873    0.940403
      8          1           0       -0.771365   -1.273097    1.263375
      9          6           0       -2.889855   -1.262404    1.199431
     10          1           0       -2.968371   -2.212456    1.715268
     11          6           0       -2.577319    2.596370   -0.419293
     12          1           0       -3.487073    3.141224   -0.647406
     13          6           0       -1.374190    3.214790   -0.436403
     14          1           0       -1.299732    4.274202   -0.657814
     15          6           0       -0.171949    2.499409   -0.173459
     16          6           0       -0.204392    1.101844    0.019269
     17          6           0        1.051349    3.204256   -0.067622
     18          1           0        1.042734    4.281950   -0.189700
     19          6           0        2.194209    2.548745    0.257958
     20          1           0        3.116853    3.091285    0.433473
     21          6           0        2.221647    1.133656    0.293499
     22          6           0        1.048693    0.394553    0.030241
     23          6           0        3.448336    0.461463    0.557394
     24          1           0        4.309579    1.060605    0.833485
     25          6           0        3.542735   -0.885593    0.474946
     26          1           0        4.473147   -1.393970    0.703882
     27          6           0        2.449005   -1.647445   -0.019632
     28          6           0        1.215070   -1.005726   -0.301357
     29          6           0        0.253111   -1.743444   -1.021659
     30          1           0       -0.654136   -1.253505   -1.346285
     31          6           0        0.449419   -3.062860   -1.341378
     32          1           0       -0.308316   -3.594431   -1.905406
     33          6           0        1.625173   -3.720797   -0.955254
     34          1           0        1.767005   -4.768740   -1.192702
     35          6           0        2.610987   -3.014418   -0.318305
     36          1           0        3.552561   -3.490281   -0.064637
     37          0           0       -3.498727    4.332743   -0.622636
     38          0           0       -3.525621    4.504588    0.055410
     39          0           0       -3.494885    4.308193   -0.719499
     40          0           0       -3.529463    4.529137    0.152274
     41          0           0       -3.491043    4.283644   -0.816363
     42          0           0       -3.510253    4.406391   -0.332045
     43          0           0       -3.462821   -0.416052    0.995284
     44          0           0       -3.455137   -0.465150    0.801556
     45          0           0       -3.466663   -0.391502    1.092147
     46          0           0       -3.451295   -0.489700    0.704693
     47          0           0       -3.470505   -0.366953    1.189011
     48          0           0       -3.447453   -0.514249    0.607829
     49          0           0       -3.474347   -0.342404    1.285875
     50          0           0       -3.443611   -0.538798    0.510965
     51          0           0       -3.478189   -0.317854    1.382738
     52          0           0       -3.439769   -0.563348    0.414102
     53          0           0       -3.458979   -0.440601    0.898420
     54          0           0       -3.461848   -0.319112    0.970754
     55          0           0       -3.454164   -0.368210    0.777026
     56          0           0       -3.465690   -0.294563    1.067617
     57          0           0       -3.450322   -0.392760    0.680163
     58          0           0       -3.469532   -0.270013    1.164481
     59          0           0       -3.446480   -0.417309    0.583299
     60          0           0       -3.473374   -0.245464    1.261345
     61          0           0       -3.442638   -0.441858    0.486435
     62          0           0       -3.477216   -0.220915    1.358208
     63          0           0       -3.438796   -0.466408    0.389572
     64          0           0       -3.458006   -0.343661    0.873890
     65          0           0       -3.460875   -0.222172    0.946224
     66          0           0       -3.453191   -0.271271    0.752496
     67          0           0       -3.464717   -0.197623    1.043087
     68          0           0       -3.449349   -0.295820    0.655633
     69          0           0       -3.468559   -0.173073    1.139951
     70          0           0       -3.445507   -0.320369    0.558769
     71          0           0       -3.472401   -0.148524    1.236815
     72          0           0       -3.441665   -0.344919    0.461905
     73          0           0       -3.476243   -0.123975    1.333678
     74          0           0       -3.437824   -0.369468    0.365042
     75          0           0       -3.457033   -0.246721    0.849360
     76          0           0       -3.459902   -0.125232    0.921694
     77          0           0       -3.452218   -0.174331    0.727966
     78          0           0       -3.463744   -0.100683    1.018557
     79          0           0       -3.448377   -0.198880    0.631103
     80          0           0       -3.467586   -0.076134    1.115421
     81          0           0       -3.444535   -0.223429    0.534239
     82          0           0       -3.471428   -0.051584    1.212285
     83          0           0       -3.440693   -0.247979    0.437375
     84          0           0       -3.475270   -0.027035    1.309148
     85          0           0       -3.436851   -0.272528    0.340512
     86          0           0       -3.456060   -0.149782    0.824830
     87          0           0       -3.458929   -0.028292    0.897164
     88          0           0       -3.451246   -0.077391    0.703436
     89          0           0       -3.462771   -0.003743    0.994027
     90          0           0       -3.447404   -0.101940    0.606573
     91          0           0       -3.466613    0.020806    1.090891
     92          0           0       -3.443562   -0.126490    0.509709
     93          0           0       -3.470455    0.045356    1.187755
     94          0           0       -3.439720   -0.151039    0.412845
     95          0           0       -3.474297    0.069905    1.284618
     96          0           0       -3.435878   -0.175588    0.315982
     97          0           0       -3.455088   -0.052842    0.800300
     98          0           0       -3.457957    0.068647    0.872634
     99          0           0       -3.450273    0.019549    0.678906
    100          0           0       -3.461799    0.093197    0.969497
    101          0           0       -3.446431   -0.005000    0.582043
    102          0           0       -3.465641    0.117746    1.066361
    103          0           0       -3.442589   -0.029550    0.485179
    104          0           0       -3.469482    0.142295    1.163225
    105          0           0       -3.438747   -0.054099    0.388315
    106          0           0       -3.473324    0.166845    1.260088
    107          0           0       -3.434905   -0.078648    0.291452
    108          0           0       -3.454115    0.044098    0.775770
    109          0           0       -3.456984    0.165587    0.848103
    110          0           0       -3.449300    0.116489    0.654376
    111          0           0       -3.460826    0.190137    0.944967
    112          0           0       -3.445458    0.091939    0.557512
    113          0           0       -3.464668    0.214686    1.041831
    114          0           0       -3.441616    0.067390    0.460649
    115          0           0       -3.468510    0.239235    1.138694
    116          0           0       -3.437774    0.042841    0.363785
    117          0           0       -3.472352    0.263785    1.235558
    118          0           0       -3.433932    0.018291    0.266921
    119          0           0       -3.453142    0.141038    0.751240
    120          0           0       -3.456011    0.262527    0.823573
    121          0           0       -3.448327    0.213428    0.629846
    122          0           0       -3.459853    0.287076    0.920437
    123          0           0       -3.444485    0.188879    0.532982
    124          0           0       -3.463695    0.311626    1.017301
    125          0           0       -3.440643    0.164330    0.436119
    126          0           0       -3.467537    0.336175    1.114164
    127          0           0       -3.436801    0.139781    0.339255
    128          0           0       -3.471379    0.360724    1.211028
    129          0           0       -3.432959    0.115231    0.242391
    130          0           0       -3.452169    0.237978    0.726710
    131          0           0       -3.455038    0.359467    0.799043
    132          0           0       -3.447354    0.310368    0.605316
    133          0           0       -3.458880    0.384016    0.895907
    134          0           0       -3.443512    0.285819    0.508452
    135          0           0       -3.462722    0.408566    0.992771
    136          0           0       -3.439670    0.261270    0.411589
    137          0           0       -3.466564    0.433115    1.089634
    138          0           0       -3.435828    0.236720    0.314725
    139          0           0       -3.470406    0.457664    1.186498
    140          0           0       -3.431986    0.212171    0.217861
    141          0           0       -3.451196    0.334918    0.702180
    142          0           0       -3.454065    0.456407    0.774513
    143          0           0       -3.446381    0.407308    0.580786
    144          0           0       -3.457907    0.480956    0.871377
    145          0           0       -3.442539    0.382759    0.483922
    146          0           0       -3.461749    0.505505    0.968241
    147          0           0       -3.438697    0.358210    0.387059
    148          0           0       -3.465591    0.530055    1.065104
    149          0           0       -3.434855    0.333660    0.290195
    150          0           0       -3.469433    0.554604    1.161968
    151          0           0       -3.431013    0.309111    0.193331
    152          0           0       -3.450223    0.431857    0.677650
    153          0           0       -3.453092    0.553347    0.749983
    154          0           0       -3.445408    0.504248    0.556256
    155          0           0       -3.456934    0.577896    0.846847
    156          0           0       -3.441566    0.479699    0.459392
    157          0           0       -3.460776    0.602445    0.943711
    158          0           0       -3.437724    0.455149    0.362529
    159          0           0       -3.464618    0.626995    1.040574
    160          0           0       -3.433882    0.430600    0.265665
    161          0           0       -3.468460    0.651544    1.137438
    162          0           0       -3.430040    0.406051    0.168801
    163          0           0       -3.449250    0.528797    0.653120
    164          0           0       -3.452119    0.650286    0.725453
    165          0           0       -3.444435    0.601188    0.531726
    166          0           0       -3.455961    0.674836    0.822317
    167          0           0       -3.440593    0.576639    0.434862
    168          0           0       -3.459803    0.699385    0.919181
    169          0           0       -3.436751    0.552089    0.337999
    170          0           0       -3.463645    0.723934    1.016044
    171          0           0       -3.432909    0.527540    0.241135
    172          0           0       -3.467487    0.748484    1.112908
    173          0           0       -3.429067    0.502991    0.144271
    174          0           0       -3.448277    0.625737    0.628590
    175          0           0       -3.451146    0.747226    0.700923
    176          0           0       -3.443462    0.698128    0.507196
    177          0           0       -3.454988    0.771776    0.797787
    178          0           0       -3.439620    0.673578    0.410332
    179          0           0       -3.458830    0.796325    0.894651
    180          0           0       -3.435778    0.649029    0.313469
    181          0           0       -3.462672    0.820874    0.991514
    182          0           0       -3.431936    0.624480    0.216605
    183          0           0       -3.466514    0.845424    1.088378
    184          0           0       -3.428094    0.599930    0.119741
    185          0           0       -3.447304    0.722677    0.604060
    186          0           0       -3.450173    0.844166    0.676393
    187          0           0       -3.442489    0.795067    0.482666
    188          0           0       -3.454015    0.868715    0.773257
    189          0           0       -3.438647    0.770518    0.385802
    190          0           0       -3.457857    0.893265    0.870121
    191          0           0       -3.434805    0.745969    0.288939
    192          0           0       -3.461699    0.917814    0.966984
    193          0           0       -3.430963    0.721420    0.192075
    194          0           0       -3.465541    0.942363    1.063848
    195          0           0       -3.427121    0.696870    0.095211
    196          0           0       -3.446331    0.819617    0.579530
    197          0           0       -3.449200    0.941106    0.651863
    198          0           0       -3.441516    0.892007    0.458136
    199          0           0       -3.453042    0.965655    0.748727
    200          0           0       -3.437674    0.867458    0.361272
    201          0           0       -3.456884    0.990205    0.845591
    202          0           0       -3.433832    0.842909    0.264409
    203          0           0       -3.460726    1.014754    0.942454
    204          0           0       -3.429990    0.818359    0.167545
    205          0           0       -3.464568    1.039303    1.039318
    206          0           0       -3.426148    0.793810    0.070681
    207          0           0       -3.445358    0.916557    0.555000
    208          0           0       -3.448227    1.038046    0.627333
    209          0           0       -3.440543    0.988947    0.433606
    210          0           0       -3.452069    1.062595    0.724197
    211          0           0       -3.436701    0.964398    0.336742
    212          0           0       -3.455911    1.087144    0.821061
    213          0           0       -3.432859    0.939849    0.239879
    214          0           0       -3.459753    1.111694    0.917924
    215          0           0       -3.429017    0.915299    0.143015
    216          0           0       -3.463595    1.136243    1.014788
    217          0           0       -3.425175    0.890750    0.046151
    218          0           0       -3.444385    1.013496    0.530470
    219          0           0       -3.447254    1.134986    0.602803
    220          0           0       -3.439570    1.085887    0.409076
    221          0           0       -3.451096    1.159535    0.699667
    222          0           0       -3.435728    1.061338    0.312212
    223          0           0       -3.454938    1.184084    0.796531
    224          0           0       -3.431886    1.036788    0.215349
    225          0           0       -3.458780    1.208634    0.893394
    226          0           0       -3.428044    1.012239    0.118485
    227          0           0       -3.462622    1.233183    0.990258
    228          0           0       -3.424202    0.987690    0.021621
    229          0           0       -3.443412    1.110436    0.505940
    230          0           0       -3.446281    1.231925    0.578273
    231          0           0       -3.438597    1.182827    0.384546
    232          0           0       -3.450123    1.256475    0.675137
    233          0           0       -3.434755    1.158277    0.287682
    234          0           0       -3.453965    1.281024    0.772001
    235          0           0       -3.430913    1.133728    0.190818
    236          0           0       -3.457807    1.305573    0.868864
 ---------------------------------------------------------------------
 Rotational constants (GHZ):      0.4529074      0.2836956      0.1879557
 Standard basis: 6-311+G(d,p) (5D, 7F)
 Warning:  center  37 has no basis functions!
 Warning:  center  38 has no basis functions!
 Warning:  center  39 has no basis functions!
 Warning:  center  40 has no basis functions!
 Warning:  center  41 has no basis functions!
 Warning:  center  42 has no basis functions!
 Warning:  center  43 has no basis functions!
 Warning:  center  44 has no basis functions!
 Warning:  center  45 has no basis functions!
 Warning:  center  46 has no basis functions!
 Warning:  center  47 has no basis functions!
 Warning:  center  48 has no basis functions!
 Warning:  center  49 has no basis functions!
 Warning:  center  50 has no basis functions!
 Warning:  center  51 has no basis functions!
 Warning:  center  52 has no basis functions!
 Warning:  center  53 has no basis functions!
 Warning:  center  54 has no basis functions!
 Warning:  center  55 has no basis functions!
 Warning:  center  56 has no basis functions!
 Warning:  center  57 has no basis functions!
 Warning:  center  58 has no basis functions!
 Warning:  center  59 has no basis functions!
 Warning:  center  60 has no basis functions!
 Warning:  center  61 has no basis functions!
 Warning:  center  62 has no basis functions!
 Warning:  center  63 has no basis functions!
 Warning:  center  64 has no basis functions!
 Warning:  center  65 has no basis functions!
 Warning:  center  66 has no basis functions!
 Warning:  center  67 has no basis functions!
 Warning:  center  68 has no basis functions!
 Warning:  center  69 has no basis functions!
 Warning:  center  70 has no basis functions!
 Warning:  center  71 has no basis functions!
 Warning:  center  72 has no basis functions!
 Warning:  center  73 has no basis functions!
 Warning:  center  74 has no basis functions!
 Warning:  center  75 has no basis functions!
 Warning:  center  76 has no basis functions!
 Warning:  center  77 has no basis functions!
 Warning:  center  78 has no basis functions!
 Warning:  center  79 has no basis functions!
 Warning:  center  80 has no basis functions!
 Warning:  center  81 has no basis functions!
 Warning:  center  82 has no basis functions!
 Warning:  center  83 has no basis functions!
 Warning:  center  84 has no basis functions!
 Warning:  center  85 has no basis functions!
 Warning:  center  86 has no basis functions!
 Warning:  center  87 has no basis functions!
 Warning:  center  88 has no basis functions!
 Warning:  center  89 has no basis functions!
 Warning:  center  90 has no basis functions!
 Warning:  center  91 has no basis functions!
 Warning:  center  92 has no basis functions!
 Warning:  center  93 has no basis functions!
 Warning:  center  94 has no basis functions!
 Warning:  center  95 has no basis functions!
 Warning:  center  96 has no basis functions!
 Warning:  center  97 has no basis functions!
 Warning:  center  98 has no basis functions!
 Warning:  center  99 has no basis functions!
 Warning:  center 100 has no basis functions!
 Warning:  center 101 has no basis functions!
 Warning:  center 102 has no basis functions!
 Warning:  center 103 has no basis functions!
 Warning:  center 104 has no basis functions!
 Warning:  center 105 has no basis functions!
 Warning:  center 106 has no basis functions!
 Warning:  center 107 has no basis functions!
 Warning:  center 108 has no basis functions!
 Warning:  center 109 has no basis functions!
 Warning:  center 110 has no basis functions!
 Warning:  center 111 has no basis functions!
 Warning:  center 112 has no basis functions!
 Warning:  center 113 has no basis functions!
 Warning:  center 114 has no basis functions!
 Warning:  center 115 has no basis functions!
 Warning:  center 116 has no basis functions!
 Warning:  center 117 has no basis functions!
 Warning:  center 118 has no basis functions!
 Warning:  center 119 has no basis functions!
 Warning:  center 120 has no basis functions!
 Warning:  center 121 has no basis functions!
 Warning:  center 122 has no basis functions!
 Warning:  center 123 has no basis functions!
 Warning:  center 124 has no basis functions!
 Warning:  center 125 has no basis functions!
 Warning:  center 126 has no basis functions!
 Warning:  center 127 has no basis functions!
 Warning:  center 128 has no basis functions!
 Warning:  center 129 has no basis functions!
 Warning:  center 130 has no basis functions!
 Warning:  center 131 has no basis functions!
 Warning:  center 132 has no basis functions!
 Warning:  center 133 has no basis functions!
 Warning:  center 134 has no basis functions!
 Warning:  center 135 has no basis functions!
 Warning:  center 136 has no basis functions!
 Warning:  center 137 has no basis functions!
 Warning:  center 138 has no basis functions!
 Warning:  center 139 has no basis functions!
 Warning:  center 140 has no basis functions!
 Warning:  center 141 has no basis functions!
 Warning:  center 142 has no basis functions!
 Warning:  center 143 has no basis functions!
 Warning:  center 144 has no basis functions!
 Warning:  center 145 has no basis functions!
 Warning:  center 146 has no basis functions!
 Warning:  center 147 has no basis functions!
 Warning:  center 148 has no basis functions!
 Warning:  center 149 has no basis functions!
 Warning:  center 150 has no basis functions!
 Warning:  center 151 has no basis functions!
 Warning:  center 152 has no basis functions!
 Warning:  center 153 has no basis functions!
 Warning:  center 154 has no basis functions!
 Warning:  center 155 has no basis functions!
 Warning:  center 156 has no basis functions!
 Warning:  center 157 has no basis functions!
 Warning:  center 158 has no basis functions!
 Warning:  center 159 has no basis functions!
 Warning:  center 160 has no basis functions!
 Warning:  center 161 has no basis functions!
 Warning:  center 162 has no basis functions!
 Warning:  center 163 has no basis functions!
 Warning:  center 164 has no basis functions!
 Warning:  center 165 has no basis functions!
 Warning:  center 166 has no basis functions!
 Warning:  center 167 has no basis functions!
 Warning:  center 168 has no basis functions!
 Warning:  center 169 has no basis functions!
 Warning:  center 170 has no basis functions!
 Warning:  center 171 has no basis functions!
 Warning:  center 172 has no basis functions!
 Warning:  center 173 has no basis functions!
 Warning:  center 174 has no basis functions!
 Warning:  center 175 has no basis functions!
 Warning:  center 176 has no basis functions!
 Warning:  center 177 has no basis functions!
 Warning:  center 178 has no basis functions!
 Warning:  center 179 has no basis functions!
 Warning:  center 180 has no basis functions!
 Warning:  center 181 has no basis functions!
 Warning:  center 182 has no basis functions!
 Warning:  center 183 has no basis functions!
 Warning:  center 184 has no basis functions!
 Warning:  center 185 has no basis functions!
 Warning:  center 186 has no basis functions!
 Warning:  center 187 has no basis functions!
 Warning:  center 188 has no basis functions!
 Warning:  center 189 has no basis functions!
 Warning:  center 190 has no basis functions!
 Warning:  center 191 has no basis functions!
 Warning:  center 192 has no basis functions!
 Warning:  center 193 has no basis functions!
 Warning:  center 194 has no basis functions!
 Warning:  center 195 has no basis functions!
 Warning:  center 196 has no basis functions!
 Warning:  center 197 has no basis functions!
 Warning:  center 198 has no basis functions!
 Warning:  center 199 has no basis functions!
 Warning:  center 200 has no basis functions!
 Warning:  center 201 has no basis functions!
 Warning:  center 202 has no basis functions!
 Warning:  center 203 has no basis functions!
 Warning:  center 204 has no basis functions!
 Warning:  center 205 has no basis functions!
 Warning:  center 206 has no basis functions!
 Warning:  center 207 has no basis functions!
 Warning:  center 208 has no basis functions!
 Warning:  center 209 has no basis functions!
 Warning:  center 210 has no basis functions!
 Warning:  center 211 has no basis functions!
 Warning:  center 212 has no basis functions!
 Warning:  center 213 has no basis functions!
 Warning:  center 214 has no basis functions!
 Warning:  center 215 has no basis functions!
 Warning:  center 216 has no basis functions!
 Warning:  center 217 has no basis functions!
 Warning:  center 218 has no basis functions!
 Warning:  center 219 has no basis functions!
 Warning:  center 220 has no basis functions!
 Warning:  center 221 has no basis functions!
 Warning:  center 222 has no basis functions!
 Warning:  center 223 has no basis functions!
 Warning:  center 224 has no basis functions!
 Warning:  center 225 has no basis functions!
 Warning:  center 226 has no basis functions!
 Warning:  center 227 has no basis functions!
 Warning:  center 228 has no basis functions!
 Warning:  center 229 has no basis functions!
 Warning:  center 230 has no basis functions!
 Warning:  center 231 has no basis functions!
 Warning:  center 232 has no basis functions!
 Warning:  center 233 has no basis functions!
 Warning:  center 234 has no basis functions!
 Warning:  center 235 has no basis functions!
 Warning:  center 236 has no basis functions!
   568 basis functions,   904 primitive gaussians,   590 cartesian basis functions
    73 alpha electrons       73 beta electrons
       nuclear repulsion energy      1610.9176155625 Hartrees.
 NAtoms=  236 NActive=  236 NUniq=  236 SFac= 1.00D+00 NAtFMM=   60 NAOKFM=T Big=T
 Integral buffers will be    131072 words long.
 Raffenetti 2 integral format.
 Two-electron integral symmetry is turned off.
 One-electron integrals computed using PRISM.
 NBasis=   568 RedAO= T EigKep=  1.78D-06  NBF=   568
 NBsUse=   556 1.00D-06 EigRej=  9.09D-07 NBFU=   556
 ExpMin= 4.38D-02 ExpMax= 4.56D+03 ExpMxC= 6.82D+02 IAcc=2 IRadAn=         4 AccDes= 0.00D+00
 Harris functional with IExCor=  402 and IRadAn=       4 diagonalized for initial guess.
 HarFok:  IExCor=  402 AccDes= 0.00D+00 IRadAn=         4 IDoV= 1 UseB2=F ITyADJ=14
 ICtDFT=  3500011 ScaDFX=  1.000000  1.000000  1.000000  1.000000
 FoFCou: FMM=F IPFlag=           0 FMFlag=      100000 FMFlg1=        2001
         NFxFlg=           0 DoJE=T BraDBF=F KetDBF=T FulRan=T
         wScrn=  0.000000 ICntrl=     500 IOpCl=  0 I1Cent=   200000004 NGrid=           0
         NMat0=    1 NMatS0=      1 NMatT0=    0 NMatD0=    1 NMtDS0=    0 NMtDT0=    0
 Symmetry not used in FoFCou.
 Requested convergence on RMS density matrix=1.00D-08 within 128 cycles.
 Requested convergence on MAX density matrix=1.00D-06.
 Requested convergence on             energy=1.00D-06.
 No special actions if energy rises.
 SCF Done:  E(RB3LYP) =  -847.003289848     A.U. after   15 cycles
            NFock= 15  Conv=0.76D-08     -V/T= 2.0040
 DoSCS=F DFT=T ScalE2(SS,OS)=  1.000000  1.000000
 Range of M.O.s used for correlation:     1   556
 NBasis=   568 NAE=    73 NBE=    73 NFC=     0 NFV=     0
 NROrb=    556 NOA=    73 NOB=    73 NVA=   483 NVB=   483

 **** Warning!!: The largest alpha MO coefficient is  0.10971036D+03

          Differentiating once with respect to magnetic field using GIAOs.
          Electric field/nuclear overlap derivatives assumed to be zero.
 FoFCou: FMM=F IPFlag=           0 FMFlag=      100000 FMFlg1=        2001
         NFxFlg=           0 DoJE=F BraDBF=F KetDBF=T FulRan=T
         wScrn=  0.000000 ICntrl=    6100 IOpCl=  0 I1Cent=           7 NGrid=         236
         NMat0=    1 NMatS0=      1 NMatT0=    0 NMatD0=    1 NMtDS0=    0 NMtDT0=    0
 Symmetry not used in FoFCou.
 FoFJK:  IHMeth= 1 ICntrl=    6127 DoSepK=F KAlg= 0 I1Cent=   0 FoldK=F
 IRaf=         1 NMat=   1 IRICut=       1 DoRegI=T DoRafI=F ISym2E= 0.
          There are     3 degrees of freedom in the 1st order CPHF.  IDoFFX=0 NUNeed=     3.
      3 vectors produced by pass  0 Test12= 1.18D-12 3.33D-08 XBig12= 2.07D+03 9.18D+00.
 AX will form     3 AO Fock derivatives at one time.
      3 vectors produced by pass  1 Test12= 1.18D-12 3.33D-08 XBig12= 3.56D+00 8.03D-01.
      3 vectors produced by pass  2 Test12= 1.18D-12 3.33D-08 XBig12= 2.10D-02 6.92D-02.
      3 vectors produced by pass  3 Test12= 1.18D-12 3.33D-08 XBig12= 5.45D-05 1.89D-03.
      3 vectors produced by pass  4 Test12= 1.18D-12 3.33D-08 XBig12= 1.20D-07 7.79D-05.
      3 vectors produced by pass  5 Test12= 1.18D-12 3.33D-08 XBig12= 4.02D-10 4.73D-06.
      3 vectors produced by pass  6 Test12= 1.18D-12 3.33D-08 XBig12= 1.32D-12 2.61D-07.
 InvSVY:  IOpt=1 It=  1 EMax= 7.11D-15
 Solved reduced A of dimension    21 with     3 vectors.
 Calculating GIAO nuclear magnetic shielding tensors.
 SCF GIAO Magnetic shielding tensor (ppm):
      1  C    Isotropic =    53.8139   Anisotropy =   178.0260
   XX=   -41.4327   YX=   -32.3458   ZX=    10.0287
   XY=   -28.3572   YY=    59.0527   ZY=    55.1899
   XZ=    13.1759   YZ=    58.7550   ZZ=   143.8218
   Eigenvalues:   -53.8775    42.8214   172.4979
      2  H    Isotropic =    24.3095   Anisotropy =     4.8536
   XX=    25.5771   YX=    -1.0289   ZX=     0.5661
   XY=    -0.7431   YY=    26.1829   ZY=    -2.3306
   XZ=    -0.1707   YZ=    -2.4411   ZZ=    21.1687
   Eigenvalues:    20.2108    25.1725    27.5453
      3  C    Isotropic =    51.4055   Anisotropy =   157.8639
   XX=   -31.5399   YX=    38.5015   ZX=   -17.9316
   XY=    34.3519   YY=    49.9437   ZY=    49.6392
   XZ=    -9.8383   YZ=    44.6006   ZZ=   135.8127
   Eigenvalues:   -50.5747    48.1432   156.6481
      4  H    Isotropic =    23.8290   Anisotropy =     7.1838
   XX=    25.3635   YX=     1.8486   ZX=    -0.3559
   XY=     1.9656   YY=    26.4581   ZY=    -2.4103
   XZ=    -1.2941   YZ=    -2.6614   ZZ=    19.6654
   Eigenvalues:    18.8176    24.0511    28.6182
      5  C    Isotropic =    46.0697   Anisotropy =   207.6751
   XX=   -19.2123   YX=    -4.8852   ZX=    -1.6475
   XY=     2.8938   YY=    -2.9860   ZY=    66.5656
   XZ=     2.5356   YZ=    67.9144   ZZ=   160.4073
   Eigenvalues:   -27.2455   -19.0652   184.5197
      6  C    Isotropic =    47.5218   Anisotropy =   196.9389
   XX=   -28.1552   YX=    -2.7889   ZX=    12.0660
   XY=   -14.3886   YY=    21.2063   ZY=    74.2521
   XZ=   -18.6356   YZ=    61.1113   ZZ=   149.5144
   Eigenvalues:   -30.2925    -5.9564   178.8144
      7  C    Isotropic =    49.3915   Anisotropy =   179.8333
   XX=   -12.5211   YX=    28.7048   ZX=   -24.6745
   XY=    31.5123   YY=    29.7000   ZY=    77.7459
   XZ=   -40.0095   YZ=    65.3072   ZZ=   130.9956
   Eigenvalues:   -52.1299    31.0240   169.2804
      8  H    Isotropic =    23.1586   Anisotropy =    13.5525
   XX=    28.5711   YX=     1.5482   ZX=    -3.6986
   XY=     3.2466   YY=    22.7592   ZY=    -2.1157
   XZ=    -8.3753   YZ=    -1.0821   ZZ=    18.1456
   Eigenvalues:    15.3521    21.9301    32.1936
      9  C    Isotropic =    55.1460   Anisotropy =   174.7426
   XX=    46.7071   YX=    -2.6162   ZX=    -2.8420
   XY=     0.6223   YY=    -1.6258   ZY=    92.8272
   XZ=     0.5159   YZ=    95.6598   ZZ=   120.3568
   Eigenvalues:   -52.8932    46.6901   171.6411
     10  H    Isotropic =    24.6278   Anisotropy =     7.1815
   XX=    29.1040   YX=     0.1399   ZX=    -0.3694
   XY=     0.3642   YY=    23.4778   ZY=    -1.0805
   XZ=    -2.4493   YZ=    -2.9465   ZZ=    21.3016
   Eigenvalues:    19.9703    24.4977    29.4155
     11  C    Isotropic =    51.5607   Anisotropy =   151.2142
   XX=     2.1639   YX=    40.9287   ZX=   -26.0048
   XY=    49.9131   YY=    12.2331   ZY=    42.1342
   XZ=   -15.6145   YZ=    38.6614   ZZ=   140.2851
   Eigenvalues:   -48.1951    50.5071   152.3701
     12  H    Isotropic =    23.8537   Anisotropy =     7.3815
   XX=    25.9672   YX=     2.3738   ZX=    -0.2390
   XY=     2.4320   YY=    26.3975   ZY=    -1.8291
   XZ=     0.3529   YZ=    -1.7731   ZZ=    19.1964
   Eigenvalues:    18.7149    24.0714    28.7747
     13  C    Isotropic =    52.8653   Anisotropy =   147.4265
   XX=    51.2944   YX=    19.9221   ZX=   -13.4678
   XY=    11.5478   YY=   -34.0176   ZY=    42.5079
   XZ=    -9.2241   YZ=    40.0716   ZZ=   141.3192
   Eigenvalues:   -46.5152    53.9616   151.1497
     14  H    Isotropic =    24.0156   Anisotropy =     7.3485
   XX=    28.6644   YX=     0.6281   ZX=     1.0808
   XY=     0.5926   YY=    24.4325   ZY=    -1.0823
   XZ=     1.6846   YZ=    -0.3842   ZZ=    18.9500
   Eigenvalues:    18.6430    24.4892    28.9146
     15  C    Isotropic =    46.2221   Anisotropy =   203.9048
   XX=   -27.2215   YX=    -0.0442   ZX=   -28.9124
   XY=     4.6427   YY=   -10.5571   ZY=    28.3830
   XZ=   -10.2704   YZ=    26.7376   ZZ=   176.4448
   Eigenvalues:   -30.5512   -12.9411   182.1586
     16  C    Isotropic =    51.9375   Anisotropy =   188.2004
   XX=   -19.4441   YX=     5.5046   ZX=    15.7858
   XY=    -8.3874   YY=     2.4863   ZY=    22.9264
   XZ=   -50.6243   YZ=    23.3340   ZZ=   172.7704
   Eigenvalues:   -21.0294    -0.5625   177.4045
     17  C    Isotropic =    51.9482   Anisotropy =   149.1264
   XX=    50.7296   YX=   -23.9353   ZX=   -18.4207
   XY=   -16.7271   YY=   -41.8764   ZY=    17.8662
   XZ=   -14.3278   YZ=    11.4871   ZZ=   146.9915
   Eigenvalues:   -46.7796    51.2584   151.3658
     18  H    Isotropic =    24.0122   Anisotropy =     7.5163
   XX=    28.5811   YX=    -0.0866   ZX=     1.5071
   XY=    -0.2466   YY=    24.3342   ZY=    -0.7657
   XZ=     2.5088   YZ=    -1.5208   ZZ=    19.1214
   Eigenvalues:    18.5094    24.5041    29.0231
     19  C    Isotropic =    51.7356   Anisotropy =   148.5924
   XX=     2.4559   YX=   -45.6913   ZX=   -31.2531
   XY=   -53.4448   YY=     7.4698   ZY=    -1.8888
   XZ=   -23.5601   YZ=    -1.2765   ZZ=   145.2810
   Eigenvalues:   -46.9894    51.3989   150.7972
     20  H    Isotropic =    23.9071   Anisotropy =     7.6651
   XX=    25.5796   YX=    -2.0226   ZX=     1.4905
   XY=    -1.9998   YY=    27.3706   ZY=    -0.5164
   XZ=     2.7276   YZ=    -1.1179   ZZ=    18.7711
   Eigenvalues:    18.1643    24.5398    29.0172
     21  C    Isotropic =    45.9767   Anisotropy =   203.9316
   XX=   -16.2108   YX=    13.1802   ZX=   -44.5913
   XY=     6.5714   YY=   -20.6329   ZY=     0.0949
   XZ=   -28.8984   YZ=   -13.0883   ZZ=   174.7736
   Eigenvalues:   -30.5796   -13.4215   181.9311
     22  C    Isotropic =    52.0450   Anisotropy =   188.1157
   XX=    -0.0787   YX=     2.5023   ZX=   -16.3451
   XY=    18.9327   YY=   -14.4798   ZY=   -34.4335
   XZ=   -50.6032   YZ=    19.9104   ZZ=   170.6934
   Eigenvalues:   -20.7705    -0.5500   177.4554
     23  C    Isotropic =    53.2392   Anisotropy =   146.7412
   XX=   -22.0674   YX=   -32.0012   ZX=   -49.4857
   XY=   -23.2043   YY=    44.3661   ZY=   -15.6400
   XZ=   -43.8090   YZ=   -20.2525   ZZ=   137.4189
   Eigenvalues:   -45.6776    54.3286   151.0667
     24  H    Isotropic =    23.8249   Anisotropy =     7.5289
   XX=    25.1073   YX=    -1.7330   ZX=     1.5380
   XY=    -1.5944   YY=    28.0047   ZY=     0.0879
   XZ=     1.2557   YZ=    -0.8283   ZZ=    18.3628
   Eigenvalues:    18.0848    24.5458    28.8442
     25  C    Isotropic =    51.4969   Anisotropy =   150.1066
   XX=   -28.4915   YX=    33.9684   ZX=   -52.3137
   XY=    22.0311   YY=    46.6072   ZY=    -3.8075
   XZ=   -44.5594   YZ=   -10.6355   ZZ=   136.3748
   Eigenvalues:   -48.3857    51.3083   151.5679
     26  H    Isotropic =    23.7431   Anisotropy =     7.4052
   XX=    24.0663   YX=     1.1141   ZX=     1.9989
   XY=     0.9693   YY=    28.1000   ZY=     1.6568
   XZ=     2.0795   YZ=     0.8886   ZZ=    19.0630
   Eigenvalues:    18.2615    24.2880    28.6799
     27  C    Isotropic =    45.8108   Anisotropy =   207.2710
   XX=    -2.7702   YX=    13.7697   ZX=   -61.4651
   XY=     6.5593   YY=   -12.0335   ZY=   -41.6456
   XZ=   -62.6381   YZ=   -44.9232   ZZ=   152.2361
   Eigenvalues:   -28.0803   -18.4787   183.9915
     28  C    Isotropic =    47.8398   Anisotropy =   197.2870
   XX=    19.6900   YX=    14.4398   ZX=   -60.5682
   XY=    28.5650   YY=   -19.3566   ZY=   -56.7015
   XZ=   -63.1331   YZ=   -24.4782   ZZ=   143.1859
   Eigenvalues:   -30.5979    -5.2472   179.3644
     29  C    Isotropic =    49.3441   Anisotropy =   179.7793
   XX=    -3.4110   YX=    38.3775   ZX=   -80.8875
   XY=    36.1252   YY=    25.9805   ZY=   -23.7573
   XZ=   -78.1065   YZ=    -3.9802   ZZ=   125.4627
   Eigenvalues:   -51.6645    30.4997   169.1970
     30  H    Isotropic =    23.1387   Anisotropy =    13.3222
   XX=    22.4354   YX=    -0.7013   ZX=    -0.2375
   XY=    -2.1539   YY=    28.3546   ZY=     4.5555
   XZ=    -3.4181   YZ=     8.3231   ZZ=    18.6259
   Eigenvalues:    15.2751    22.1208    32.0201
     31  C    Isotropic =    55.4410   Anisotropy =   174.9390
   XX=    17.1871   YX=   -14.0890   ZX=   -84.0024
   XY=   -17.9030   YY=    37.4745   ZY=   -50.3662
   XZ=   -84.6557   YZ=   -54.8325   ZZ=   111.6615
   Eigenvalues:   -51.9248    46.1808   172.0670
     32  H    Isotropic =    24.5337   Anisotropy =     7.2554
   XX=    24.6185   YX=    -2.5264   ZX=     0.7632
   XY=    -2.7385   YY=    27.4630   ZY=     1.0335
   XZ=     1.1913   YZ=     3.7573   ZZ=    21.5194
   Eigenvalues:    19.8987    24.3316    29.3706
     33  C    Isotropic =    53.1814   Anisotropy =   179.0596
   XX=    60.9231   YX=    35.2256   ZX=   -42.9515
   XY=    32.0226   YY=   -38.1801   ZY=   -45.5652
   XZ=   -44.2248   YZ=   -50.7831   ZZ=   136.8014
   Eigenvalues:   -55.1197    42.1095   172.5545
     34  H    Isotropic =    24.2825   Anisotropy =     5.1861
   XX=    26.7643   YX=    -0.0934   ZX=     2.5955
   XY=    -0.2993   YY=    24.8157   ZY=     0.8589
   XZ=     2.3715   YZ=     1.4580   ZZ=    21.2676
   Eigenvalues:    20.0339    25.0737    27.7399
     35  C    Isotropic =    51.5295   Anisotropy =   155.1748
   XX=    -0.5131   YX=    52.5760   ZX=   -52.1551
   XY=    55.6135   YY=    25.1843   ZY=   -14.2643
   XZ=   -45.7255   YZ=   -17.1625   ZZ=   129.9171
   Eigenvalues:   -48.3147    47.9237   154.9793
     36  H    Isotropic =    23.8384   Anisotropy =     7.3073
   XX=    24.2302   YX=     1.4459   ZX=     2.1759
   XY=     1.2147   YY=    27.1572   ZY=     2.0665
   XZ=     1.6853   YZ=     2.7775   ZZ=    20.1277
   Eigenvalues:    18.9464    23.8588    28.7099
     37  Bq   Isotropic =    -0.8745   Anisotropy =     9.7259
   XX=     0.7239   YX=    -1.7885   ZX=     0.8360
   XY=    -2.6578   YY=     4.4159   ZY=    -2.0482
   XZ=     0.2220   YZ=    -0.5830   ZZ=    -7.7633
   Eigenvalues:    -7.9140    -0.3189     5.6095
     38  Bq   Isotropic =    -0.7886   Anisotropy =     8.6082
   XX=     0.5047   YX=    -1.9497   ZX=    -0.0872
   XY=    -2.5596   YY=     3.3663   ZY=     0.0849
   XZ=    -1.9833   YZ=     3.2561   ZZ=    -6.2369
   Eigenvalues:    -6.5829    -0.7331     4.9502
     39  Bq   Isotropic =    -0.8647   Anisotropy =     9.7985
   XX=     0.7208   YX=    -1.7221   ZX=     0.9573
   XY=    -2.5976   YY=     4.3443   ZY=    -2.4610
   XZ=     0.5843   YZ=    -1.3486   ZZ=    -7.6592
   Eigenvalues:    -7.9766    -0.2851     5.6676
     40  Bq   Isotropic =    -0.7440   Anisotropy =     8.4155
   XX=     0.4532   YX=    -1.9232   ZX=    -0.1942
   XY=    -2.4871   YY=     3.1663   ZY=     0.2451
   XZ=    -2.2029   YZ=     3.5434   ZZ=    -5.8516
   Eigenvalues:    -6.3216    -0.7768     4.8663
     41  Bq   Isotropic =    -0.8554   Anisotropy =     9.8314
   XX=     0.7051   YX=    -1.6504   ZX=     1.0684
   XY=    -2.5183   YY=     4.1747   ZY=    -2.8610
   XZ=     0.9439   YZ=    -2.1184   ZZ=    -7.4461
   Eigenvalues:    -7.9957    -0.2694     5.6988
     42  Bq   Isotropic =    -0.8841   Anisotropy =     9.3311
   XX=     0.6704   YX=    -1.9329   ZX=     0.4319
   XY=    -2.7202   YY=     4.1657   ZY=    -0.9119
   XZ=    -0.8313   YZ=     1.4619   ZZ=    -7.4884
   Eigenvalues:    -7.4976    -0.4914     5.3366
     43  Bq   Isotropic =    24.2252   Anisotropy =    34.0630
   XX=     0.0286   YX=   -10.3792   ZX=    -9.0001
   XY=    -5.8879   YY=    30.8760   ZY=     2.9377
   XZ=     4.7157   YZ=    13.5460   ZZ=    41.7710
   Eigenvalues:    -1.9848    27.7266    46.9339
     44  Bq   Isotropic =    19.6686   Anisotropy =    32.6650
   XX=    -7.1407   YX=    -9.0442   ZX=     0.6533
   XY=    -9.9722   YY=    27.8802   ZY=     5.3039
   XZ=     3.8849   YZ=     7.5787   ZZ=    38.2664
   Eigenvalues:    -9.8584    27.4190    41.4453
     45  Bq   Isotropic =    26.6850   Anisotropy =    33.6501
   XX=     5.4999   YX=    -9.6462   ZX=   -10.8127
   XY=    -4.0852   YY=    31.2482   ZY=     3.1779
   XZ=     3.4886   YZ=    14.8955   ZZ=    43.3068
   Eigenvalues:     3.7326    27.2039    49.1184
     46  Bq   Isotropic =    19.2255   Anisotropy =    30.6758
   XX=    -6.0320   YX=    -7.3292   ZX=     6.2163
   XY=   -11.1344   YY=    26.6397   ZY=     7.1949
   XZ=     2.1182   YZ=     4.4649   ZZ=    37.0688
   Eigenvalues:    -9.1260    27.1264    39.6760
     47  Bq   Isotropic =    28.0449   Anisotropy =    33.1024
   XX=     9.8982   YX=    -8.3273   ZX=   -10.6128
   XY=    -3.0062   YY=    30.0978   ZY=     4.2903
   XZ=     1.4789   YZ=    14.9012   ZZ=    44.1387
   Eigenvalues:     8.2898    25.7318    50.1132
     48  Bq   Isotropic =    19.9880   Anisotropy =    28.3424
   XX=    -2.1552   YX=    -5.5912   ZX=    10.1894
   XY=   -11.3068   YY=    25.7770   ZY=     8.9040
   XZ=     0.1359   YZ=     2.4948   ZZ=    36.3422
   Eigenvalues:    -5.5345    26.6154    38.8829
     49  Bq   Isotropic =    27.9751   Anisotropy =    32.7617
   XX=    12.4024   YX=    -6.8404   ZX=    -9.1694
   XY=    -2.6944   YY=    27.4639   ZY=     5.8873
   XZ=    -0.9084   YZ=    13.8459   ZZ=    44.0591
   Eigenvalues:    10.8558    23.2533    49.8162
     50  Bq   Isotropic =    21.1631   Anisotropy =    26.2920
   XX=     2.7492   YX=    -4.2472   ZX=    11.8159
   XY=   -10.5995   YY=    24.9012   ZY=    10.1733
   XZ=    -1.4833   YZ=     2.1307   ZZ=    35.8390
   Eigenvalues:    -0.7702    25.5684    38.6911
     51  Bq   Isotropic =    26.6401   Anisotropy =    32.6635
   XX=    13.0482   YX=    -5.4863   ZX=    -7.2702
   XY=    -2.9537   YY=    23.7990   ZY=     7.5512
   XZ=    -3.3012   YZ=    12.1427   ZZ=    43.0731
   Eigenvalues:    11.4509    20.0537    48.4158
     52  Bq   Isotropic =    21.9535   Anisotropy =    25.1027
   XX=     6.9769   YX=    -3.4272   ZX=    11.3166
   XY=    -9.3015   YY=    23.6331   ZY=    10.9862
   XZ=    -2.3774   YZ=     3.2486   ZZ=    35.2504
   Eigenvalues:     3.4344    23.7374    38.6886
     53  Bq   Isotropic =    21.5358   Anisotropy =    33.8374
   XX=    -4.8134   YX=   -10.1851   ZX=    -4.9356
   XY=    -8.0462   YY=    29.4853   ZY=     3.7198
   XZ=     4.8587   YZ=    10.9198   ZZ=    39.9357
   Eigenvalues:    -7.1512    27.6646    44.0941
     54  Bq   Isotropic =    21.9483   Anisotropy =    29.6007
   XX=     1.1501   YX=   -14.0687   ZX=    -6.5930
   XY=    -7.5417   YY=    26.7295   ZY=     1.9395
   XZ=     6.5404   YZ=    11.4435   ZZ=    37.9653
   Eigenvalues:    -2.9334    27.0962    41.6821
     55  Bq   Isotropic =    17.8702   Anisotropy =    27.4261
   XX=    -4.3614   YX=   -13.5836   ZX=     2.0700
   XY=   -11.3962   YY=    24.3080   ZY=     3.9667
   XZ=     5.4960   YZ=     6.6332   ZZ=    33.6639
   Eigenvalues:    -9.7173    27.1736    36.1542
     56  Bq   Isotropic =    24.2133   Anisotropy =    30.1544
   XX=     5.5194   YX=   -12.6640   ZX=    -8.4361
   XY=    -5.7127   YY=    27.1893   ZY=     2.4459
   XZ=     5.1791   YZ=    12.8497   ZZ=    39.9313
   Eigenvalues:     2.1137    26.2100    44.3163
     57  Bq   Isotropic =    17.5123   Anisotropy =    25.6846
   XX=    -3.2088   YX=   -11.7781   ZX=     6.8755
   XY=   -12.4272   YY=    23.4630   ZY=     5.8780
   XZ=     3.3364   YZ=     4.3587   ZZ=    32.2827
   Eigenvalues:    -8.9465    26.8481    34.6353
     58  Bq   Isotropic =    25.5548   Anisotropy =    30.6829
   XX=     9.0415   YX=   -10.6737   ZX=    -8.5300
   XY=    -4.4688   YY=    26.4525   ZY=     3.8173
   XZ=     2.9538   YZ=    13.3010   ZZ=    41.1705
   Eigenvalues:     6.2049    24.4495    46.0101
     59  Bq   Isotropic =    18.2951   Anisotropy =    23.9081
   XX=     0.2511   YX=    -9.5622   ZX=    10.2235
   XY=   -12.4905   YY=    22.9764   ZY=     7.7306
   XZ=     0.8284   YZ=     3.0339   ZZ=    31.6577
   Eigenvalues:    -5.5986    26.2500    34.2338
     60  Bq   Isotropic =    25.6581   Anisotropy =    31.2927
   XX=    11.0183   YX=    -8.5806   ZX=    -7.4886
   XY=    -3.8855   YY=    24.4743   ZY=     5.6337
   XZ=     0.3262   YZ=    12.9068   ZZ=    41.4815
   Eigenvalues:     8.5747    21.8796    46.5199
     61  Bq   Isotropic =    19.5365   Anisotropy =    22.6372
   XX=     4.5614   YX=    -7.4752   ZX=    11.4714
   XY=   -11.6718   YY=    22.4790   ZY=     9.2124
   XZ=    -1.3474   YZ=     2.9735   ZZ=    31.5692
   Eigenvalues:    -1.1406    25.1223    34.6280
     62  Bq   Isotropic =    24.6352   Anisotropy =    31.8964
   XX=    11.4595   YX=    -6.7146   ZX=    -5.9798
   XY=    -3.8280   YY=    21.5684   ZY=     7.4660
   XZ=    -2.2957   YZ=    11.9014   ZZ=    40.8776
   Eigenvalues:     9.2109    18.7951    45.8995
     63  Bq   Isotropic =    20.5025   Anisotropy =    22.2998
   XX=     8.2550   YX=    -5.8270   ZX=    10.8117
   XY=   -10.2364   YY=    21.6130   ZY=    10.2506
   XZ=    -2.7270   YZ=     4.0727   ZZ=    31.6397
   Eigenvalues:     2.8705    23.2681    35.3691
     64  Bq   Isotropic =    19.5284   Anisotropy =    28.7583
   XX=    -2.6577   YX=   -14.4319   ZX=    -2.8655
   XY=    -9.6104   YY=    25.5454   ZY=     2.5003
   XZ=     6.6719   YZ=     9.2205   ZZ=    35.6976
   Eigenvalues:    -7.4280    27.3127    38.7006
     65  Bq   Isotropic =    21.0609   Anisotropy =    25.6002
   XX=     4.6521   YX=   -15.2831   ZX=    -4.3778
   XY=    -7.3558   YY=    23.1092   ZY=     2.0887
   XZ=     7.5472   YZ=     9.8360   ZZ=    35.4213
   Eigenvalues:    -1.1680    26.2230    38.1277
     66  Bq   Isotropic =    17.8190   Anisotropy =    22.7155
   XX=     1.2293   YX=   -15.2294   ZX=     2.6465
   XY=   -10.6491   YY=    21.3680   ZY=     3.5980
   XZ=     6.0853   YZ=     6.1244   ZZ=    30.8598
   Eigenvalues:    -6.0946    26.5890    32.9627
     67  Bq   Isotropic =    22.8242   Anisotropy =    26.9872
   XX=     7.4691   YX=   -13.6432   ZX=    -6.0147
   XY=    -5.8110   YY=    23.5035   ZY=     2.7153
   XZ=     6.2212   YZ=    11.1997   ZZ=    37.5001
   Eigenvalues:     2.6002    25.0567    40.8157
     68  Bq   Isotropic =    17.4973   Anisotropy =    21.2352
   XX=     2.2710   YX=   -13.4794   ZX=     6.4451
   XY=   -11.5999   YY=    20.8505   ZY=     5.2537
   XZ=     3.5726   YZ=     4.6059   ZZ=    29.3703
   Eigenvalues:    -5.3402    26.1779    31.6541
     69  Bq   Isotropic =    23.8403   Anisotropy =    28.4059
   XX=     9.6466   YX=   -11.4395   ZX=    -6.2731
   XY=    -4.7356   YY=    23.0112   ZY=     4.1018
   XZ=     3.9376   YZ=    11.9310   ZZ=    38.8632
   Eigenvalues:     5.6547    23.0887    42.7776
     70  Bq   Isotropic =    18.1018   Anisotropy =    20.0749
   XX=     4.9436   YX=   -11.1302   ZX=     9.0653
   XY=   -11.7441   YY=    20.6228   ZY=     6.9542
   XZ=     0.6718   YZ=     3.8733   ZZ=    28.7391
   Eigenvalues:    -2.5830    25.4035    31.4851
     71  Bq   Isotropic =    23.8518   Anisotropy =    29.7858
   XX=    10.6834   YX=    -9.1515   ZX=    -5.5954
   XY=    -4.1897   YY=    21.5413   ZY=     5.8689
   XZ=     1.1945   YZ=    12.0151   ZZ=    39.3307
   Eigenvalues:     7.3858    20.4606    43.7090
     72  Bq   Isotropic =    19.1215   Anisotropy =    19.6257
   XX=     8.1786   YX=    -8.7418   ZX=     9.9902
   XY=   -11.0981   YY=    20.3783   ZY=     8.4037
   XZ=    -1.8762   YZ=     4.1055   ZZ=    28.8075
   Eigenvalues:     1.0397    24.1194    32.2053
     73  Bq   Isotropic =    22.9355   Anisotropy =    30.9625
   XX=    10.5946   YX=    -7.1080   ZX=    -4.4959
   XY=    -4.0722   YY=    19.2879   ZY=     7.6310
   XZ=    -1.5667   YZ=    11.5517   ZZ=    38.9238
   Eigenvalues:     7.7682    17.4610    43.5771
     74  Bq   Isotropic =    19.9588   Anisotropy =    20.0772
   XX=    10.8592   YX=    -6.7062   ZX=     9.3438
   XY=    -9.8444   YY=    19.8128   ZY=     9.5021
   XZ=    -3.5508   YZ=     5.1980   ZZ=    29.2042
   Eigenvalues:     4.2841    22.2486    33.3436
     75  Bq   Isotropic =    19.1537   Anisotropy =    24.1980
   XX=     2.2047   YX=   -15.8875   ZX=    -1.3062
   XY=    -9.1045   YY=    22.2265   ZY=     2.4193
   XZ=     7.5272   YZ=     8.0232   ZZ=    33.0298
   Eigenvalues:    -4.4858    26.6612    35.2856
     76  Bq   Isotropic =    21.1135   Anisotropy =    22.7307
   XX=     8.9811   YX=   -14.1371   ZX=    -2.8839
   XY=    -5.7401   YY=    20.4134   ZY=     3.1496
   XZ=     7.7367   YZ=     8.7684   ZZ=    33.9462
   Eigenvalues:     2.3955    24.6778    36.2674
     77  Bq   Isotropic =    18.7623   Anisotropy =    19.1826
   XX=     7.4677   YX=   -14.0093   ZX=     2.2691
   XY=    -8.2349   YY=    19.2972   ZY=     4.0017
   XZ=     5.8431   YZ=     5.9339   ZZ=    29.5220
   Eigenvalues:    -0.4376    25.1738    31.5507
     78  Bq   Isotropic =    22.2730   Anisotropy =    24.7142
   XX=    10.2676   YX=   -12.6853   ZX=    -4.1200
   XY=    -4.6893   YY=    20.6347   ZY=     3.8051
   XZ=     6.5419   YZ=    10.0496   ZZ=    35.9166
   Eigenvalues:     4.6643    23.4055    38.7491
     79  Bq   Isotropic =    18.4380   Anisotropy =    17.8622
   XX=     8.3162   YX=   -12.3625   ZX=     5.0696
   XY=    -9.1109   YY=    18.9844   ZY=     5.1913
   XZ=     3.0728   YZ=     5.0015   ZZ=    28.0134
   Eigenvalues:     0.2900    24.6778    30.3461
     80  Bq   Isotropic =    22.8210   Anisotropy =    26.7280
   XX=    11.0481   YX=   -10.6997   ZX=    -4.3592
   XY=    -4.0173   YY=    20.2116   ZY=     5.0442
   XZ=     4.3216   YZ=    10.9350   ZZ=    37.2034
   Eigenvalues:     6.4293    21.3941    40.6397
     81  Bq   Isotropic =    18.7837   Anisotropy =    17.2269
   XX=    10.1333   YX=   -10.1296   ZX=     7.0406
   XY=    -9.4291   YY=    18.8737   ZY=     6.4960
   XZ=    -0.0792   YZ=     4.7420   ZZ=    27.3441
   Eigenvalues:     2.3428    23.7400    30.2683
     82  Bq   Isotropic =    22.5807   Anisotropy =    28.6050
   XX=    11.0364   YX=    -8.6032   ZX=    -3.9049
   XY=    -3.7389   YY=    19.0508   ZY=     6.5717
   XZ=     1.5837   YZ=    11.3336   ZZ=    37.6549
   Eigenvalues:     7.2740    18.8174    41.6507
     83  Bq   Isotropic =    19.4630   Anisotropy =    17.4486
   XX=    12.2216   YX=    -7.8215   ZX=     7.7710
   XY=    -9.1238   YY=    18.7466   ZY=     7.6913
   XZ=    -2.8420   YZ=     5.2268   ZZ=    27.4207
   Eigenvalues:     4.9157    22.3779    31.0954
     84  Bq   Isotropic =    21.6171   Anisotropy =    30.1480
   XX=    10.2845   YX=    -6.6982   ZX=    -3.1248
   XY=    -3.7638   YY=    17.2674   ZY=     8.0826
   XZ=    -1.2122   YZ=    11.2554   ZZ=    37.2995
   Eigenvalues:     7.1825    15.9531    41.7158
     85  Bq   Isotropic =    20.0326   Anisotropy =    18.4867
   XX=    13.8097   YX=    -5.8267   ZX=     7.2976
   XY=    -8.2675   YY=    18.3705   ZY=     8.6856
   XZ=    -4.6645   YZ=     6.3362   ZZ=    27.9176
   Eigenvalues:     7.1088    20.6319    32.3571
     86  Bq   Isotropic =    19.7700   Anisotropy =    20.8670
   XX=     7.8129   YX=   -14.6458   ZX=    -0.6235
   XY=    -7.0127   YY=    19.8467   ZY=     3.2363
   XZ=     7.5227   YZ=     7.2970   ZZ=    31.6503
   Eigenvalues:     0.4116    25.2169    33.6813
     87  Bq   Isotropic =    21.5923   Anisotropy =    21.1222
   XX=    12.8413   YX=   -11.2801   ZX=    -2.3661
   XY=    -3.2574   YY=    18.7257   ZY=     4.7756
   XZ=     7.2249   YZ=     8.1329   ZZ=    33.2100
   Eigenvalues:     6.7054    22.3979    35.6738
     88  Bq   Isotropic =    19.9453   Anisotropy =    17.0876
   XX=    12.6524   YX=   -10.6285   ZX=     1.0042
   XY=    -4.8003   YY=    18.0629   ZY=     4.9284
   XZ=     5.0120   YZ=     5.9161   ZZ=    29.1207
   Eigenvalues:     5.8178    22.6811    31.3371
     89  Bq   Isotropic =    22.2126   Anisotropy =    23.4536
   XX=    12.9387   YX=   -10.3147   ZX=    -3.0786
   XY=    -2.8046   YY=    18.7349   ZY=     5.4053
   XZ=     6.1875   YZ=     9.3357   ZZ=    34.9641
   Eigenvalues:     7.5563    21.2331    37.8483
     90  Bq   Isotropic =    19.5743   Anisotropy =    15.8224
   XX=    13.2465   YX=    -9.0238   ZX=     2.9897
   XY=    -5.5549   YY=    17.8200   ZY=     5.5353
   XZ=     2.0997   YZ=     5.3953   ZZ=    27.6564
   Eigenvalues:     6.5381    22.0622    30.1226
     91  Bq   Isotropic =    22.2981   Anisotropy =    25.7755
   XX=    12.5747   YX=    -8.8425   ZX=    -3.1188
   XY=    -2.6568   YY=    18.2512   ZY=     6.4119
   XZ=     4.1011   YZ=    10.3017   ZZ=    36.0685
   Eigenvalues:     8.0538    19.3588    39.4818
     92  Bq   Isotropic =    19.6597   Anisotropy =    15.4504
   XX=    14.3112   YX=    -6.9909   ZX=     4.5154
   XY=    -6.0378   YY=    17.7037   ZY=     6.2778
   XZ=    -1.1766   YZ=     5.4839   ZZ=    26.9641
   Eigenvalues:     7.9422    21.0768    29.9599
     93  Bq   Isotropic =    21.7562   Anisotropy =    27.8867
   XX=    11.6528   YX=    -7.2052   ZX=    -2.7058
   XY=    -2.7742   YY=    17.2141   ZY=     7.5990
   XZ=     1.4619   YZ=    10.8982   ZZ=    36.4018
   Eigenvalues:     7.9662    16.9552    40.3474
     94  Bq   Isotropic =    20.0163   Anisotropy =    16.0371
   XX=    15.4479   YX=    -4.9767   ZX=     5.2360
   XY=    -6.1167   YY=    17.5957   ZY=     7.0386
   XZ=    -4.0327   YZ=     6.1764   ZZ=    27.0054
   Eigenvalues:     9.4893    19.8520    30.7077
     95  Bq   Isotropic =    20.6620   Anisotropy =    29.5901
   XX=    10.2814   YX=    -5.6648   ZX=    -2.0945
   XY=    -3.0644   YY=    15.7040   ZY=     8.7564
   XZ=    -1.2723   YZ=    11.0810   ZZ=    36.0005
   Eigenvalues:     7.3043    14.2929    40.3887
     96  Bq   Isotropic =    20.3339   Anisotropy =    17.4075
   XX=    16.1586   YX=    -3.3204   ZX=     5.0875
   XY=    -5.7557   YY=    17.3368   ZY=     7.7752
   XZ=    -5.8960   YZ=     7.3289   ZZ=    27.5063
   Eigenvalues:    10.5674    18.4954    31.9389
     97  Bq   Isotropic =    20.7138   Anisotropy =    18.9450
   XX=    12.6062   YX=   -11.4284   ZX=    -0.9322
   XY=    -3.9688   YY=    18.4202   ZY=     4.6274
   XZ=     6.8473   YZ=     6.9072   ZZ=    31.1149
   Eigenvalues:     5.9591    22.8385    33.3438
     98  Bq   Isotropic =    22.1112   Anisotropy =    20.5778
   XX=    15.4712   YX=    -7.5184   ZX=    -2.8595
   XY=    -0.3911   YY=    17.9428   ZY=     6.6723
   XZ=     6.1539   YZ=     7.7569   ZZ=    32.9196
   Eigenvalues:    10.9626    19.5413    35.8297
     99  Bq   Isotropic =    20.8391   Anisotropy =    16.4073
   XX=    15.8098   YX=    -5.9938   ZX=    -1.0225
   XY=    -0.8557   YY=    17.5063   ZY=     6.1878
   XZ=     3.7749   YZ=     5.9381   ZZ=    29.2010
   Eigenvalues:    11.6537    19.0862    31.7772
    100  Bq   Isotropic =    22.3505   Anisotropy =    23.0356
   XX=    14.8623   YX=    -7.1963   ZX=    -2.9851
   XY=    -0.5742   YY=    17.7554   ZY=     7.2300
   XZ=     5.2588   YZ=     8.9126   ZZ=    34.4339
   Eigenvalues:    10.6405    18.7035    37.7076
    101  Bq   Isotropic =    20.3537   Anisotropy =    15.2090
   XX=    16.0437   YX=    -4.2896   ZX=     0.4135
   XY=    -1.3965   YY=    17.2081   ZY=     6.1737
   XZ=     0.8279   YZ=     5.7002   ZZ=    27.8093
   Eigenvalues:    12.3447    18.2234    30.4930
    102  Bq   Isotropic =    22.0703   Anisotropy =    25.4454
   XX=    13.7532   YX=    -6.3779   ZX=    -2.6793
   XY=    -0.9897   YY=    17.1379   ZY=     7.9644
   XZ=     3.3356   YZ=     9.9344   ZZ=    35.3198
   Eigenvalues:    10.0567    17.1204    39.0339
    103  Bq   Isotropic =    20.2019   Anisotropy =    14.9143
   XX=    16.4791   YX=    -2.3939   ZX=     1.7709
   XY=    -1.9613   YY=    16.9989   ZY=     6.2504
   XZ=    -2.4650   YZ=     6.0492   ZZ=    27.1276
   Eigenvalues:    13.0907    17.3702    30.1447
    104  Bq   Isotropic =    21.2550   Anisotropy =    27.5952
   XX=    12.1954   YX=    -5.3263   ZX=    -2.1313
   XY=    -1.5493   YY=    16.0838   ZY=     8.7752
   XZ=     0.8566   YZ=    10.6661   ZZ=    35.4858
   Eigenvalues:     9.1324    14.9807    39.6518
    105  Bq   Isotropic =    20.3265   Anisotropy =    15.5489
   XX=    16.9535   YX=    -0.7182   ZX=     2.7180
   XY=    -2.3842   YY=    16.8675   ZY=     6.4310
   XZ=    -5.3131   YZ=     6.9236   ZZ=    27.1586
   Eigenvalues:    13.3839    16.9032    30.6925
    106  Bq   Isotropic =    20.0057   Anisotropy =    29.3023
   XX=    10.3610   YX=    -4.2636   ZX=    -1.5249
   XY=    -2.1564   YY=    14.6759   ZY=     9.5422
   XZ=    -1.7391   YZ=    11.0313   ZZ=    34.9803
   Eigenvalues:     7.9126    12.5640    39.5406
    107  Bq   Isotropic =    20.5128   Anisotropy =    16.9290
   XX=    17.1547   YX=     0.4517   ZX=     3.0644
   XY=    -2.5382   YY=    16.7173   ZY=     6.7670
   XZ=    -7.1254   YZ=     8.1479   ZZ=    27.6663
   Eigenvalues:    12.9406    16.7989    31.7988
    108  Bq   Isotropic =    21.5160   Anisotropy =    18.2886
   XX=    15.7018   YX=    -7.1326   ZX=    -2.1900
   XY=    -0.4900   YY=    17.8045   ZY=     6.3336
   XZ=     5.6730   YZ=     6.6863   ZZ=    31.0418
   Eigenvalues:    11.2237    19.6159    33.7084
    109  Bq   Isotropic =    22.4737   Anisotropy =    20.9170
   XX=    16.5813   YX=    -3.5917   ZX=    -4.2719
   XY=     2.5223   YY=    17.9300   ZY=     8.6477
   XZ=     4.6269   YZ=     7.4602   ZZ=    32.9097
   Eigenvalues:    14.2844    16.7183    36.4183
    110  Bq   Isotropic =    21.1824   Anisotropy =    17.0822
   XX=    16.5276   YX=    -0.9599   ZX=    -3.6956
   XY=     3.2834   YY=    17.5024   ZY=     7.6777
   XZ=     2.2142   YZ=     5.8815   ZZ=    29.5173
   Eigenvalues:    13.7756    17.2011    32.5706
    111  Bq   Isotropic =    22.5180   Anisotropy =    23.2741
   XX=    15.7763   YX=    -3.9505   ZX=    -3.7750
   XY=     1.6902   YY=    17.5793   ZY=     9.0755
   XZ=     3.8506   YZ=     8.6186   ZZ=    34.1984
   Eigenvalues:    13.3025    16.2174    38.0340
    112  Bq   Isotropic =    20.4802   Anisotropy =    16.0557
   XX=    16.1944   YX=     1.0196   ZX=    -2.5236
   XY=     3.0861   YY=    17.0432   ZY=     7.0579
   XZ=    -0.6751   YZ=     5.8623   ZZ=    28.2030
   Eigenvalues:    12.3920    17.8646    31.1840
    113  Bq   Isotropic =    21.9997   Anisotropy =    25.5898
   XX=    14.3511   YX=    -3.7958   ZX=    -3.0098
   XY=     0.7160   YY=    16.7879   ZY=     9.5125
   XZ=     2.1016   YZ=     9.7121   ZZ=    34.8601
   Eigenvalues:    11.9793    14.9602    39.0596
    114  Bq   Isotropic =    20.0987   Anisotropy =    15.7929
   XX=    16.0426   YX=     2.9291   ZX=    -1.0146
   XY=     2.5632   YY=    16.6868   ZY=     6.4051
   XZ=    -3.8821   YZ=     6.4444   ZZ=    27.5668
   Eigenvalues:    11.1457    18.5232    30.6274
    115  Bq   Isotropic =    20.9735   Anisotropy =    27.6372
   XX=    12.4706   YX=    -3.3344   ZX=    -2.1797
   XY=    -0.2801   YY=    15.6161   ZY=     9.9444
   XZ=    -0.1771   YZ=    10.5644   ZZ=    34.8338
   Eigenvalues:    10.4359    13.0863    39.3983
    116  Bq   Isotropic =    20.1038   Anisotropy =    16.2636
   XX=    16.1283   YX=     4.3381   ZX=     0.4501
   XY=     1.8725   YY=    16.5409   ZY=     5.8821
   XZ=    -6.6134   YZ=     7.5137   ZZ=    27.6424
   Eigenvalues:    10.3817    18.9836    30.9462
    117  Bq   Isotropic =    19.5785   Anisotropy =    29.2397
   XX=    10.3743   YX=    -2.7590   ZX=    -1.4329
   XY=    -1.2040   YY=    14.1758   ZY=    10.3262
   XZ=    -2.5758   YZ=    11.0775   ZZ=    34.1855
   Eigenvalues:     8.7728    10.8912    39.0717
    118  Bq   Isotropic =    20.3381   Anisotropy =    17.3369
   XX=    16.2511   YX=     4.9913   ZX=     1.5022
   XY=     1.2101   YY=    16.5539   ZY=     5.6837
   XZ=    -8.2670   YZ=     8.8518   ZZ=    28.2094
   Eigenvalues:    10.0673    19.0510    31.8960
    119  Bq   Isotropic =    21.9509   Anisotropy =    18.7701
   XX=    16.7653   YX=    -2.5832   ZX=    -4.2899
   XY=     3.0861   YY=    17.8637   ZY=     8.1997
   XZ=     4.0974   YZ=     6.4693   ZZ=    31.2238
   Eigenvalues:    14.5899    16.7985    34.4644
    120  Bq   Isotropic =    22.6627   Anisotropy =    22.0334
   XX=    16.2050   YX=    -0.1261   ZX=    -6.4291
   XY=     5.2316   YY=    18.6120   ZY=    10.5729
   XZ=     2.6951   YZ=     7.0840   ZZ=    33.1713
   Eigenvalues:    12.0948    18.5417    37.3517
    121  Bq   Isotropic =    20.9547   Anisotropy =    19.0927
   XX=    14.7381   YX=     3.6778   ZX=    -6.8934
   XY=     7.3793   YY=    18.0528   ZY=     9.3434
   XZ=     0.3403   YZ=     5.6312   ZZ=    30.0734
   Eigenvalues:     8.1906    20.9905    33.6832
    122  Bq   Isotropic =    22.6766   Anisotropy =    24.0528
   XX=    15.6873   YX=    -1.0939   ZX=    -5.2794
   XY=     3.7529   YY=    18.1072   ZY=    10.7987
   XZ=     2.0290   YZ=     8.3139   ZZ=    34.2353
   Eigenvalues:    12.5253    16.7927    38.7118
    123  Bq   Isotropic =    19.8970   Anisotropy =    18.4345
   XX=    13.4960   YX=     6.0806   ZX=    -5.7115
   XY=     7.6737   YY=    17.3583   ZY=     8.1792
   XZ=    -2.4017   YZ=     5.8278   ZZ=    28.8368
   Eigenvalues:     5.8029    21.7015    32.1867
    124  Bq   Isotropic =    22.0313   Anisotropy =    26.1040
   XX=    14.3382   YX=    -1.5055   ZX=    -3.9703
   XY=     2.2531   YY=    17.1001   ZY=    10.9156
   XZ=     0.4680   YZ=     9.5292   ZZ=    34.6555
   Eigenvalues:    11.9156    14.7443    39.4339
    125  Bq   Isotropic =    19.2593   Anisotropy =    18.2699
[...]
   141  Bq   0.000000
   142  Bq   0.000000
   143  Bq   0.000000
   144  Bq   0.000000
   145  Bq   0.000000
   146  Bq   0.000000
   147  Bq   0.000000
   148  Bq   0.000000
   149  Bq   0.000000
   150  Bq   0.000000
   151  Bq   0.000000
   152  Bq   0.000000
   153  Bq   0.000000
   154  Bq   0.000000
   155  Bq   0.000000
   156  Bq   0.000000
   157  Bq   0.000000
   158  Bq   0.000000
   159  Bq   0.000000
   160  Bq   0.000000
   161  Bq   0.000000
   162  Bq   0.000000
   163  Bq   0.000000
   164  Bq   0.000000
   165  Bq   0.000000
   166  Bq   0.000000
   167  Bq   0.000000
   168  Bq   0.000000
   169  Bq   0.000000
   170  Bq   0.000000
   171  Bq   0.000000
   172  Bq   0.000000
   173  Bq   0.000000
   174  Bq   0.000000
   175  Bq   0.000000
   176  Bq   0.000000
   177  Bq   0.000000
   178  Bq   0.000000
   179  Bq   0.000000
   180  Bq   0.000000
   181  Bq   0.000000
   182  Bq   0.000000
   183  Bq   0.000000
   184  Bq   0.000000
   185  Bq   0.000000
   186  Bq   0.000000
   187  Bq   0.000000
   188  Bq   0.000000
   189  Bq   0.000000
   190  Bq   0.000000
   191  Bq   0.000000
   192  Bq   0.000000
   193  Bq   0.000000
   194  Bq   0.000000
   195  Bq   0.000000
   196  Bq   0.000000
   197  Bq   0.000000
   198  Bq   0.000000
   199  Bq   0.000000
   200  Bq   0.000000
   201  Bq   0.000000
   202  Bq   0.000000
   203  Bq   0.000000
   204  Bq   0.000000
   205  Bq   0.000000
   206  Bq   0.000000
   207  Bq   0.000000
   208  Bq   0.000000
   209  Bq   0.000000
   210  Bq   0.000000
   211  Bq   0.000000
   212  Bq   0.000000
   213  Bq   0.000000
   214  Bq   0.000000
   215  Bq   0.000000
   216  Bq   0.000000
   217  Bq   0.000000
   218  Bq   0.000000
   219  Bq   0.000000
   220  Bq   0.000000
   221  Bq   0.000000
   222  Bq   0.000000
   223  Bq   0.000000
   224  Bq   0.000000
   225  Bq   0.000000
   226  Bq   0.000000
   227  Bq   0.000000
   228  Bq   0.000000
   229  Bq   0.000000
   230  Bq   0.000000
   231  Bq   0.000000
   232  Bq   0.000000
   233  Bq   0.000000
   234  Bq   0.000000
   235  Bq   0.000000
   236  Bq   0.000000
 Sum of Mulliken charges =   0.00000
 Mulliken charges with hydrogens summed into heavy atoms:
               1
     1  C   -0.255498
     3  C    0.169409
     5  C    0.448258
     6  C    0.064351
     7  C   -0.333926
     9  C   -0.139521
    11  C   -0.205988
    13  C   -0.119315
    15  C    0.653397
    16  C    0.034822
    17  C   -0.317410
    19  C   -0.316854
    21  C    0.651066
    22  C    0.037784
    23  C   -0.117289
    25  C   -0.205316
    27  C    0.448331
    28  C    0.061983
    29  C   -0.333381
    31  C   -0.139505
    33  C   -0.255977
    35  C    0.170579
    37  Bq   0.000000
    38  Bq   0.000000
    39  Bq   0.000000
    40  Bq   0.000000
    41  Bq   0.000000
    42  Bq   0.000000
    43  Bq   0.000000
    44  Bq   0.000000
    45  Bq   0.000000
    46  Bq   0.000000
    47  Bq   0.000000
    48  Bq   0.000000
    49  Bq   0.000000
    50  Bq   0.000000
    51  Bq   0.000000
    52  Bq   0.000000
    53  Bq   0.000000
    54  Bq   0.000000
    55  Bq   0.000000
    56  Bq   0.000000
    57  Bq   0.000000
    58  Bq   0.000000
    59  Bq   0.000000
    60  Bq   0.000000
    61  Bq   0.000000
    62  Bq   0.000000
    63  Bq   0.000000
    64  Bq   0.000000
    65  Bq   0.000000
    66  Bq   0.000000
    67  Bq   0.000000
    68  Bq   0.000000
    69  Bq   0.000000
    70  Bq   0.000000
    71  Bq   0.000000
    72  Bq   0.000000
    73  Bq   0.000000
    74  Bq   0.000000
    75  Bq   0.000000
    76  Bq   0.000000
    77  Bq   0.000000
    78  Bq   0.000000
    79  Bq   0.000000
    80  Bq   0.000000
    81  Bq   0.000000
    82  Bq   0.000000
    83  Bq   0.000000
    84  Bq   0.000000
    85  Bq   0.000000
    86  Bq   0.000000
    87  Bq   0.000000
    88  Bq   0.000000
    89  Bq   0.000000
    90  Bq   0.000000
    91  Bq   0.000000
    92  Bq   0.000000
    93  Bq   0.000000
    94  Bq   0.000000
    95  Bq   0.000000
    96  Bq   0.000000
    97  Bq   0.000000
    98  Bq   0.000000
    99  Bq   0.000000
   100  Bq   0.000000
   101  Bq   0.000000
   102  Bq   0.000000
   103  Bq   0.000000
   104  Bq   0.000000
   105  Bq   0.000000
   106  Bq   0.000000
   107  Bq   0.000000
   108  Bq   0.000000
   109  Bq   0.000000
   110  Bq   0.000000
   111  Bq   0.000000
   112  Bq   0.000000
   113  Bq   0.000000
   114  Bq   0.000000
   115  Bq   0.000000
   116  Bq   0.000000
   117  Bq   0.000000
   118  Bq   0.000000
   119  Bq   0.000000
   120  Bq   0.000000
   121  Bq   0.000000
   122  Bq   0.000000
   123  Bq   0.000000
   124  Bq   0.000000
   125  Bq   0.000000
   126  Bq   0.000000
   127  Bq   0.000000
   128  Bq   0.000000
   129  Bq   0.000000
   130  Bq   0.000000
   131  Bq   0.000000
   132  Bq   0.000000
   133  Bq   0.000000
   134  Bq   0.000000
   135  Bq   0.000000
   136  Bq   0.000000
   137  Bq   0.000000
   138  Bq   0.000000
   139  Bq   0.000000
   140  Bq   0.000000
   141  Bq   0.000000
   142  Bq   0.000000
   143  Bq   0.000000
   144  Bq   0.000000
   145  Bq   0.000000
   146  Bq   0.000000
   147  Bq   0.000000
   148  Bq   0.000000
   149  Bq   0.000000
   150  Bq   0.000000
   151  Bq   0.000000
   152  Bq   0.000000
   153  Bq   0.000000
   154  Bq   0.000000
   155  Bq   0.000000
   156  Bq   0.000000
   157  Bq   0.000000
   158  Bq   0.000000
   159  Bq   0.000000
   160  Bq   0.000000
   161  Bq   0.000000
   162  Bq   0.000000
   163  Bq   0.000000
   164  Bq   0.000000
   165  Bq   0.000000
   166  Bq   0.000000
   167  Bq   0.000000
   168  Bq   0.000000
   169  Bq   0.000000
   170  Bq   0.000000
   171  Bq   0.000000
   172  Bq   0.000000
   173  Bq   0.000000
   174  Bq   0.000000
   175  Bq   0.000000
   176  Bq   0.000000
   177  Bq   0.000000
   178  Bq   0.000000
   179  Bq   0.000000
   180  Bq   0.000000
   181  Bq   0.000000
   182  Bq   0.000000
   183  Bq   0.000000
   184  Bq   0.000000
   185  Bq   0.000000
   186  Bq   0.000000
   187  Bq   0.000000
   188  Bq   0.000000
   189  Bq   0.000000
   190  Bq   0.000000
   191  Bq   0.000000
   192  Bq   0.000000
   193  Bq   0.000000
   194  Bq   0.000000
   195  Bq   0.000000
   196  Bq   0.000000
   197  Bq   0.000000
   198  Bq   0.000000
   199  Bq   0.000000
   200  Bq   0.000000
   201  Bq   0.000000
   202  Bq   0.000000
   203  Bq   0.000000
   204  Bq   0.000000
   205  Bq   0.000000
   206  Bq   0.000000
   207  Bq   0.000000
   208  Bq   0.000000
   209  Bq   0.000000
   210  Bq   0.000000
   211  Bq   0.000000
   212  Bq   0.000000
   213  Bq   0.000000
   214  Bq   0.000000
   215  Bq   0.000000
   216  Bq   0.000000
   217  Bq   0.000000
   218  Bq   0.000000
   219  Bq   0.000000
   220  Bq   0.000000
   221  Bq   0.000000
   222  Bq   0.000000
   223  Bq   0.000000
   224  Bq   0.000000
   225  Bq   0.000000
   226  Bq   0.000000
   227  Bq   0.000000
   228  Bq   0.000000
   229  Bq   0.000000
   230  Bq   0.000000
   231  Bq   0.000000
   232  Bq   0.000000
   233  Bq   0.000000
   234  Bq   0.000000
   235  Bq   0.000000
   236  Bq   0.000000
 Electronic spatial extent (au):  <R**2>=           5736.9264
 Charge=              0.0000 electrons
 Dipole moment (field-independent basis, Debye):
    X=              0.0475    Y=              0.0856    Z=              0.0029  Tot=              0.0979
 Quadrupole moment (field-independent basis, Debye-Ang):
   XX=           -113.7056   YY=           -113.9456   ZZ=           -133.2669
   XY=             -0.3834   XZ=              3.2102   YZ=             -1.1839
 Traceless Quadrupole moment (field-independent basis, Debye-Ang):
   XX=              6.6005   YY=              6.3604   ZZ=            -12.9609
   XY=             -0.3834   XZ=              3.2102   YZ=             -1.1839
 Octapole moment (field-independent basis, Debye-Ang**2):
  XXX=            -16.4668  YYY=            -16.1860  ZZZ=             -1.7007  XYY=              2.5576
  XXY=             -6.5650  XXZ=             13.6547  XZZ=             -8.9478  YZZ=            -17.7168
  YYZ=            -13.2941  XYZ=              8.8036
 Hexadecapole moment (field-independent basis, Debye-Ang**3):
 XXXX=          -3951.1638 YYYY=          -3112.2161 ZZZZ=           -504.8311 XXXY=            340.6935
 XXXZ=            156.4968 YYYX=            335.5625 YYYZ=            -87.0893 ZZZX=            120.2262
 ZZZY=           -108.7373 XXYY=          -1176.4844 XXZZ=           -856.7291 YYZZ=           -665.7275
 XXYZ=            -68.9016 YYXZ=             48.1602 ZZXY=            153.0375
 N-N= 1.610917615562D+03 E-N=-5.186891130729D+03  KE= 8.436329774449D+02
 1\1\GINC-PLANA\SP\RB3LYP\6-311+G(d,p)\C22H14\YANNICK\21-Aug-2020\0\\# 
 rb3lyp/6-311+g** NMR geom=connectivity\\Title\\0,1\C,0,-4.0500558,-0.5
 771862,0.8136712\H,0,-5.0263804,-1.0082727,1.002476\C,0,-3.9381552,0.6
 617804,0.2400876\H,0,-4.8252424,1.233889,-0.0111295\C,0,-2.676841,1.24
 33246,0.0057578\C,0,-1.4974121,0.5051527,0.2848253\C,0,-1.6508332,-0.7
 338728,0.9404026\H,0,-0.7713646,-1.2730967,1.2633753\C,0,-2.8898548,-1
 .2624035,1.1994307\H,0,-2.9683706,-2.2124563,1.7152676\C,0,-2.5773185,
 2.5963696,-0.419293\H,0,-3.4870728,3.1412239,-0.6474055\C,0,-1.3741895
 ,3.2147896,-0.436403\H,0,-1.2997315,4.2742019,-0.6578144\C,0,-0.171948
 8,2.499409,-0.1734588\C,0,-0.2043917,1.1018437,0.0192689\C,0,1.0513491
 ,3.204256,-0.0676222\H,0,1.0427344,4.2819499,-0.1896997\C,0,2.1942091,
 2.5487446,0.2579577\H,0,3.1168527,3.0912848,0.4334727\C,0,2.2216473,1.
 1336562,0.293499\C,0,1.0486931,0.3945528,0.0302412\C,0,3.4483363,0.461
 4633,0.5573939\H,0,4.3095794,1.0606054,0.8334846\C,0,3.5427346,-0.8855
 926,0.4749463\H,0,4.4731467,-1.3939704,0.7038822\C,0,2.4490052,-1.6474
 447,-0.0196319\C,0,1.2150704,-1.0057258,-0.3013573\C,0,0.2531113,-1.74
 3444,-1.0216591\H,0,-0.6541356,-1.2535051,-1.3462847\C,0,0.4494193,-3.
 0628597,-1.3413779\H,0,-0.3083162,-3.5944309,-1.905406\C,0,1.6251726,-
 3.7207967,-0.9552541\H,0,1.7670048,-4.7687404,-1.1927019\C,0,2.6109872
 ,-3.0144177,-0.318305\H,0,3.5525612,-3.4902813,-0.0646367\Bq,0,-3.4987
 271089,4.3327426332,-0.6226357406\Bq,0,-3.5256209782,4.5045878549,0.05
 5409936\Bq,0,-3.4948851275,4.3081933159,-0.7194994087\Bq,0,-3.52946295
 95,4.5291371722,0.1522736041\Bq,0,-3.4910431462,4.2836439985,-0.816363
 0768\Bq,0,-3.5102530529,4.4063905854,-0.3320447364\Bq,0,-3.4628213136,
 -0.4160516942,0.9952836669\Bq,0,-3.4551373509,-0.465150329,0.801556330
 8\Bq,0,-3.4666632949,-0.3915023768,1.092147335\Bq,0,-3.4512953696,-0.4
 896996464,0.7046926627\Bq,0,-3.4705052762,-0.3669530595,1.1890110031\B
 q,0,-3.4474533883,-0.5142489637,0.6078289946\Bq,0,-3.4743472576,-0.342
 4037421,1.2858746712\Bq,0,-3.4436114069,-0.5387982811,0.5109653265\Bq,
 0,-3.4781892389,-0.3178544247,1.3827383393\Bq,0,-3.4397694256,-0.56334
 75985,0.4141016584\Bq,0,-3.4589793322,-0.4406010116,0.8984199988\Bq,0,
 -3.4618483594,-0.3191118623,0.9707536375\Bq,0,-3.4541643967,-0.3682104
 97,0.7770263013\Bq,0,-3.4656903407,-0.2945625449,1.0676173056\Bq,0,-3.
 4503224154,-0.3927598144,0.6801626332\Bq,0,-3.469532322,-0.2700132275,
 1.1644809737\Bq,0,-3.446480434,-0.4173091318,0.5832989651\Bq,0,-3.4733
 743033,-0.2454639102,1.2613446418\Bq,0,-3.4426384527,-0.4418584492,0.4
 864352971\Bq,0,-3.4772162847,-0.2209145928,1.3582083099\Bq,0,-3.438796
 4714,-0.4664077665,0.389571629\Bq,0,-3.458006378,-0.3436611797,0.87388
 99694\Bq,0,-3.4608754051,-0.2221720303,0.9462236081\Bq,0,-3.4531914425
 ,-0.2712706651,0.7524962719\Bq,0,-3.4647173865,-0.197622713,1.04308727
 62\Bq,0,-3.4493494611,-0.2958199825,0.6556326038\Bq,0,-3.4685593678,-0
 .1730733956,1.1399509443\Bq,0,-3.4455074798,-0.3203692998,0.5587689357
 \Bq,0,-3.4724013491,-0.1485240782,1.2368146124\Bq,0,-3.4416654985,-0.3
 449186172,0.4619052676\Bq,0,-3.4762433304,-0.1239747608,1.3336782804\B
 q,0,-3.4378235172,-0.3694679346,0.3650415995\Bq,0,-3.4570334238,-0.246
 7213477,0.84935994\Bq,0,-3.4599024509,-0.1252321984,0.9216935787\Bq,0,
 -3.4522184882,-0.1743308332,0.7279662425\Bq,0,-3.4637444322,-0.1006828
 81,1.0185572467\Bq,0,-3.4483765069,-0.1988801505,0.6311025744\Bq,0,-3.
 4675864136,-0.0761335637,1.1154209148\Bq,0,-3.4445345256,-0.2234294679
 ,0.5342389063\Bq,0,-3.4714283949,-0.0515842463,1.2122845829\Bq,0,-3.44
 06925443,-0.2479787853,0.4373752382\Bq,0,-3.4752703762,-0.0270349289,1
 .309148251\Bq,0,-3.4368505629,-0.2725281027,0.3405115701\Bq,0,-3.45606
 04696,-0.1497815158,0.8248299106\Bq,0,-3.4589294967,-0.0282923665,0.89
 71635492\Bq,0,-3.451245534,-0.0773910012,0.703436213\Bq,0,-3.462771478
 ,-0.0037430491,0.9940272173\Bq,0,-3.4474035527,-0.1019403186,0.6065725
 45\Bq,0,-3.4666134593,0.0208062683,1.0908908854\Bq,0,-3.4435615714,-0.
 126489636,0.5097088769\Bq,0,-3.4704554407,0.0453555857,1.1877545535\Bq
 ,0,-3.43971959,-0.1510389533,0.4128452088\Bq,0,-3.474297422,0.06990490
 3,1.2846182216\Bq,0,-3.4358776087,-0.1755882707,0.3159815407\Bq,0,-3.4
 550875154,-0.0528416838,0.8002998811\Bq,0,-3.4579565425,0.0686474655,0
 .8726335198\Bq,0,-3.4502725798,0.0195488307,0.6789061836\Bq,0,-3.46179
 85238,0.0931967828,0.9694971879\Bq,0,-3.4464305985,-0.0050004867,0.582
 0425155\Bq,0,-3.4656405051,0.1177461002,1.066360856\Bq,0,-3.4425886171
 ,-0.029549804,0.4851788474\Bq,0,-3.4694824864,0.1422954176,1.163224524
 1\Bq,0,-3.4387466358,-0.0540991214,0.3883151794\Bq,0,-3.4733244678,0.1
 66844735,1.2600881922\Bq,0,-3.4349046545,-0.0786484388,0.2914515113\Bq
 ,0,-3.4541145611,0.0440981481,0.7757698517\Bq,0,-3.4569835882,0.165587
 2974,0.8481034904\Bq,0,-3.4492996256,0.1164886627,0.6543761542\Bq,0,-3
 .4608255696,0.1901366148,0.9449671585\Bq,0,-3.4454576442,0.0919393453,
 0.5575124861\Bq,0,-3.4646675509,0.2146859322,1.0418308266\Bq,0,-3.4416
 156629,0.0673900279,0.460648818\Bq,0,-3.4685095322,0.2392352495,1.1386
 944946\Bq,0,-3.4377736816,0.0428407105,0.3637851499\Bq,0,-3.4723515135
 ,0.2637845669,1.2355581627\Bq,0,-3.4339317003,0.0182913932,0.266921481
 8\Bq,0,-3.4531416069,0.14103798,0.7512398223\Bq,0,-3.456010634,0.26252
 71294,0.8235734609\Bq,0,-3.4483266713,0.2134284946,0.6298461248\Bq,0,-
 3.4598526153,0.2870764467,0.920437129\Bq,0,-3.44448469,0.1888791772,0.
 5329824567\Bq,0,-3.4636945967,0.3116257641,1.0173007971\Bq,0,-3.440642
 7087,0.1643298598,0.4361187886\Bq,0,-3.467536578,0.3361750815,1.114164
 4652\Bq,0,-3.4368007274,0.1397805425,0.3392551205\Bq,0,-3.4713785593,0
 .3607243989,1.2110281333\Bq,0,-3.432958746,0.1152312251,0.2423914524\B
 q,0,-3.4521686527,0.237977812,0.7267097929\Bq,0,-3.4550376798,0.359466
 9613,0.7990434315\Bq,0,-3.4473537171,0.3103683265,0.6053160953\Bq,0,-3
 .4588796611,0.3840162787,0.8959070996\Bq,0,-3.4435117358,0.2858190092,
 0.5084524272\Bq,0,-3.4627216424,0.408565596,0.9927707677\Bq,0,-3.43966
 97545,0.2612696918,0.4115887592\Bq,0,-3.4665636238,0.4331149134,1.0896
 344358\Bq,0,-3.4358277731,0.2367203744,0.3147250911\Bq,0,-3.4704056051
 ,0.4576642308,1.1864981039\Bq,0,-3.4319857918,0.212171057,0.217861423\
 Bq,0,-3.4511956985,0.3349176439,0.7021797634\Bq,0,-3.4540647256,0.4564
 067932,0.7745134021\Bq,0,-3.4463807629,0.4073081585,0.5807860659\Bq,0,
 -3.4579067069,0.4809561106,0.8713770702\Bq,0,-3.4425387816,0.382758841
 1,0.4839223978\Bq,0,-3.4617486882,0.505505428,0.9682407383\Bq,0,-3.438
 6968002,0.3582095237,0.3870587297\Bq,0,-3.4655906695,0.5300547454,1.06
 51044064\Bq,0,-3.4348548189,0.3336602064,0.2901950616\Bq,0,-3.46943265
 09,0.5546040627,1.1619680745\Bq,0,-3.4310128376,0.309110889,0.19333139
 36\Bq,0,-3.4502227442,0.4318574759,0.677649734\Bq,0,-3.4530917713,0.55
 33466252,0.7499833727\Bq,0,-3.4454078087,0.5042479904,0.5562560365\Bq,
 0,-3.4569337527,0.5778959425,0.8468470408\Bq,0,-3.4415658273,0.4796986
 73,0.4593923684\Bq,0,-3.460775734,0.6024452599,0.9437107088\Bq,0,-3.43
 7723846,0.4551493557,0.3625287003\Bq,0,-3.4646177153,0.6269945773,1.04
 05743769\Bq,0,-3.4338818647,0.4306000383,0.2656650322\Bq,0,-3.46845969
 66,0.6515438947,1.137438045\Bq,0,-3.4300398834,0.4060507209,0.16880136
 41\Bq,0,-3.44924979,0.5287973078,0.6531197046\Bq,0,-3.4521188171,0.650
 2864571,0.7254533432\Bq,0,-3.4444348545,0.6011878224,0.5317260071\Bq,0
 ,-3.4559607984,0.6748357745,0.8223170113\Bq,0,-3.4405928731,0.57663850
 5,0.434862339\Bq,0,-3.4598027798,0.6993850919,0.9191806794\Bq,0,-3.436
 7508918,0.5520891876,0.3379986709\Bq,0,-3.4636447611,0.7239344092,1.01
 60443475\Bq,0,-3.4329089105,0.5275398702,0.2411350028\Bq,0,-3.46748674
 24,0.7484837266,1.1129080156\Bq,0,-3.4290669291,0.5029905529,0.1442713
 347\Bq,0,-3.4482768358,0.6257371397,0.6285896751\Bq,0,-3.4511458629,0.
 747226289,0.7009233138\Bq,0,-3.4434619002,0.6981276543,0.5071959776\Bq
 ,0,-3.4549878442,0.7717756064,0.7977869819\Bq,0,-3.4396199189,0.673578
 3369,0.4103323095\Bq,0,-3.4588298255,0.7963249238,0.89465065\Bq,0,-3.4
 357779376,0.6490290195,0.3134686415\Bq,0,-3.4626718069,0.8208742412,0.
 9915143181\Bq,0,-3.4319359562,0.6244797022,0.2166049734\Bq,0,-3.466513
 7882,0.8454235585,1.0883779862\Bq,0,-3.4280939749,0.5999303848,0.11974
 13053\Bq,0,-3.4473038816,0.7226769717,0.6040596457\Bq,0,-3.4501729087,
 0.844166121,0.6763932844\Bq,0,-3.442488946,0.7950674862,0.4826659482\B
 q,0,-3.45401489,0.8687154384,0.7732569525\Bq,0,-3.4386469647,0.7705181
 689,0.3858022801\Bq,0,-3.4578568713,0.8932647557,0.8701206206\Bq,0,-3.
 4348049833,0.7459688515,0.288938612\Bq,0,-3.4616988526,0.9178140731,0.
 9669842887\Bq,0,-3.430963002,0.7214195341,0.1920749439\Bq,0,-3.4655408
 34,0.9423633905,1.0638479567\Bq,0,-3.4271210207,0.6968702167,0.0952112
 758\Bq,0,-3.4463309273,0.8196168036,0.5795296163\Bq,0,-3.4491999544,0.
 9411059529,0.651863255\Bq,0,-3.4415159918,0.8920073182,0.4581359188\Bq
 ,0,-3.4530419358,0.9656552703,0.748726923\Bq,0,-3.4376740104,0.8674580
 008,0.3612722507\Bq,0,-3.4568839171,0.9902045877,0.8455905911\Bq,0,-3.
 4338320291,0.8429086834,0.2644085826\Bq,0,-3.4607258984,1.0147539051,0
 .9424542592\Bq,0,-3.4299900478,0.818359366,0.1675449145\Bq,0,-3.464567
 8798,1.0393032224,1.0393179273\Bq,0,-3.4261480665,0.7938100487,0.07068
 12464\Bq,0,-3.4453579731,0.9165566355,0.5549995869\Bq,0,-3.4482270002,
 1.0380457849,0.6273332255\Bq,0,-3.4405430376,0.9889471501,0.4336058893
 \Bq,0,-3.4520689815,1.0625951022,0.7241968936\Bq,0,-3.4367010562,0.964
 3978327,0.3367422213\Bq,0,-3.4559109629,1.0871444196,0.8210605617\Bq,0
 ,-3.4328590749,0.9398485154,0.2398785532\Bq,0,-3.4597529442,1.11169373
 7,0.9179242298\Bq,0,-3.4290170936,0.915299198,0.1430148851\Bq,0,-3.463
 5949255,1.1362430544,1.0147878979\Bq,0,-3.4251751122,0.8907498806,0.04
 6151217\Bq,0,-3.4443850189,1.0134964675,0.5304695574\Bq,0,-3.447254046
 ,1.1349856168,0.6028031961\Bq,0,-3.4395700833,1.0858869821,0.409075859
 9\Bq,0,-3.4510960273,1.1595349342,0.6996668642\Bq,0,-3.435728102,1.061
 3376647,0.3122121918\Bq,0,-3.4549380086,1.1840842516,0.7965305323\Bq,0
 ,-3.4318861207,1.0367883473,0.2153485237\Bq,0,-3.45877999,1.2086335689
 ,0.8933942004\Bq,0,-3.4280441393,1.0122390299,0.1184848557\Bq,0,-3.462
 6219713,1.2331828863,0.9902578685\Bq,0,-3.424202158,0.9876897125,0.021
 6211876\Bq,0,-3.4434120647,1.1104362994,0.505939528\Bq,0,-3.4462810918
 ,1.2319254487,0.5782731667\Bq,0,-3.4385971291,1.182826814,0.3845458305
 \Bq,0,-3.4501230731,1.2564747661,0.6751368348\Bq,0,-3.4347551478,1.158
 2774966,0.2876821624\Bq,0,-3.4539650544,1.2810240835,0.7720005029\Bq,0
 ,-3.4309131664,1.1337281792,0.1908184943\Bq,0,-3.4578070357,1.30557340
 09,0.8688641709\\Version=ES64L-G09RevD.01\HF=-847.0032898\RMSD=7.561e-
 09\Dipole=0.0186808,0.0336671,0.0011595\Quadrupole=4.9072795,4.7288219
 ,-9.6361014,-0.2850201,2.3867064,-0.880172\PG=C01 [X(C22H14)]\\@


 Human beings, who are almost unique in having the
 ability to learn from the experience of others, are
 also remarkable for their apparent disinclination to do so.
                               -- Douglas Adams,
                                Last Chance to See
 Job cpu time:       0 days  3 hours 56 minutes 11.9 seconds.
 File lengths (MBytes):  RWF=    184 Int=      0 D2E=      0 Chk=     19 Scr=      1
 Normal termination of Gaussian 09 at Fri Aug 21 20:24:52 2020.
