 Entering Gaussian System, Link 0=g09
 Input=input_cycle_02_batch_03800.com
 Output=input_cycle_02_batch_03800.log
 Initial command:
 /share/programs/GAUSSIAN/64/g09/l1.exe "/scratch/yannick.30058/Gau-2258354.inp" -scrdir="/scratch/yannick.30058/"
 Entering Link 1 = /share/programs/GAUSSIAN/64/g09/l1.exe PID=   2258355.
  
 Copyright (c) 1988,1990,1992,1993,1995,1998,2003,2009,2013,
            Gaussian, Inc.  All Rights Reserved.
  
 This is part of the Gaussian(R) 09 program.  It is based on
 the Gaussian(R) 03 system (copyright 2003, Gaussian, Inc.),
 the Gaussian(R) 98 system (copyright 1998, Gaussian, Inc.),
 the Gaussian(R) 94 system (copyright 1995, Gaussian, Inc.),
 the Gaussian 92(TM) system (copyright 1992, Gaussian, Inc.),
 the Gaussian 90(TM) system (copyright 1990, Gaussian, Inc.),
 the Gaussian 88(TM) system (copyright 1988, Gaussian, Inc.),
 the Gaussian 86(TM) system (copyright 1986, Carnegie Mellon
 University), and the Gaussian 82(TM) system (copyright 1983,
 Carnegie Mellon University). Gaussian is a federally registered
 trademark of Gaussian, Inc.
  
 This software contains proprietary and confidential information,
 including trade secrets, belonging to Gaussian, Inc.
  
 This software is provided under written license and may be
 used, copied, transmitted, or stored only in accord with that
 written license.
  
 The following legend is applicable only to US Government
 contracts under FAR:
  
                    RESTRICTED RIGHTS LEGEND
  
 Use, reproduction and disclosure by the US Government is
 subject to restrictions as set forth in subparagraphs (a)
 and (c) of the Commercial Computer Software - Restricted
 Rights clause in FAR 52.227-19.
  
 Gaussian, Inc.
 340 Quinnipiac St., Bldg. 40, Wallingford CT 06492
  
  
 ---------------------------------------------------------------
 Warning -- This program may not be used in any manner that
 competes with the business of Gaussian, Inc. or will provide
 assistance to any competitor of Gaussian, Inc.  The licensee
 of this program is prohibited from giving any competitor of
 Gaussian, Inc. access to this program.  By using this program,
 the user acknowledges that Gaussian, Inc. is engaged in the
 business of creating and licensing software in the field of
 computational chemistry and represents and warrants to the
 licensee that it is not a competitor of Gaussian, Inc. and that
 it will not use this program in any manner prohibited above.
 ---------------------------------------------------------------
  

 Cite this work as:
 Gaussian 09, Revision D.01,
 M. J. Frisch, G. W. Trucks, H. B. Schlegel, G. E. Scuseria, 
 M. A. Robb, J. R. Cheeseman, G. Scalmani, V. Barone, B. Mennucci, 
 G. A. Petersson, H. Nakatsuji, M. Caricato, X. Li, H. P. Hratchian, 
 A. F. Izmaylov, J. Bloino, G. Zheng, J. L. Sonnenberg, M. Hada, 
 M. Ehara, K. Toyota, R. Fukuda, J. Hasegawa, M. Ishida, T. Nakajima, 
 Y. Honda, O. Kitao, H. Nakai, T. Vreven, J. A. Montgomery, Jr., 
 J. E. Peralta, F. Ogliaro, M. Bearpark, J. J. Heyd, E. Brothers, 
 K. N. Kudin, V. N. Staroverov, T. Keith, R. Kobayashi, J. Normand, 
 K. Raghavachari, A. Rendell, J. C. Burant, S. S. Iyengar, J. Tomasi, 
 M. Cossi, N. Rega, J. M. Millam, M. Klene, J. E. Knox, J. B. Cross, 
 V. Bakken, C. Adamo, J. Jaramillo, R. Gomperts, R. E. Stratmann, 
 O. Yazyev, A. J. Austin, R. Cammi, C. Pomelli, J. W. Ochterski, 
 R. L. Martin, K. Morokuma, V. G. Zakrzewski, G. A. Voth, 
 P. Salvador, J. J. Dannenberg, S. Dapprich, A. D. Daniels, 
 O. Farkas, J. B. Foresman, J. V. Ortiz, J. Cioslowski, 
 and D. J. Fox, Gaussian, Inc., Wallingford CT, 2013.
 
 ******************************************
 Gaussian 09:  ES64L-G09RevD.01 24-Apr-2013
                21-Aug-2020 
 ******************************************
 %nproc=8
 Will use up to    8 processors via shared memory.
 %mem=1000MB
 ----------------------------------------
 # rb3lyp/6-311+g** NMR geom=connectivity
 ----------------------------------------
 1/38=1,57=2/1;
 2/12=2,17=6,18=5,40=1/2;
 3/5=4,6=6,7=111,11=2,16=1,25=1,30=1,74=-5,116=1/1,2,8,3;
 4//1;
 5/5=2,38=5/2;
 8/6=1,10=90,11=11/1;
 10/13=100,45=16/2;
 6/7=2,8=2,9=2,10=2,28=1/1;
 99/9=1/99;
 -----
 Title
 -----
 Symbolic Z-matrix:
 Charge =  0 Multiplicity = 1
 C                    -4.05006  -0.57719   0.81367 
 H                    -5.02638  -1.00827   1.00248 
 C                    -3.93816   0.66178   0.24009 
 H                    -4.82524   1.23389  -0.01113 
 C                    -2.67684   1.24332   0.00576 
 C                    -1.49741   0.50515   0.28483 
 C                    -1.65083  -0.73387   0.9404 
 H                    -0.77136  -1.2731    1.26338 
 C                    -2.88985  -1.2624    1.19943 
 H                    -2.96837  -2.21246   1.71527 
 C                    -2.57732   2.59637  -0.41929 
 H                    -3.48707   3.14122  -0.64741 
 C                    -1.37419   3.21479  -0.4364 
 H                    -1.29973   4.2742   -0.65781 
 C                    -0.17195   2.49941  -0.17346 
 C                    -0.20439   1.10184   0.01927 
 C                     1.05135   3.20426  -0.06762 
 H                     1.04273   4.28195  -0.1897 
 C                     2.19421   2.54874   0.25796 
 H                     3.11685   3.09128   0.43347 
 C                     2.22165   1.13366   0.2935 
 C                     1.04869   0.39455   0.03024 
 C                     3.44834   0.46146   0.55739 
 H                     4.30958   1.06061   0.83348 
 C                     3.54273  -0.88559   0.47495 
 H                     4.47315  -1.39397   0.70388 
 C                     2.44901  -1.64744  -0.01963 
 C                     1.21507  -1.00573  -0.30136 
 C                     0.25311  -1.74344  -1.02166 
 H                    -0.65414  -1.25351  -1.34628 
 C                     0.44942  -3.06286  -1.34138 
 H                    -0.30832  -3.59443  -1.90541 
 C                     1.62517  -3.7208   -0.95525 
 H                     1.767    -4.76874  -1.1927 
 C                     2.61099  -3.01442  -0.31831 
 H                     3.55256  -3.49028  -0.06464 
 Bq                   -3.33264   3.4137    0.2363 
 Bq                   -3.30959   3.2664   -0.34488 
 Bq                   -3.33648   3.43825   0.33317 
 Bq                   -3.30574   3.24186  -0.44174 
 Bq                   -3.34032   3.4628    0.43003 
 Bq                   -3.3019    3.21731  -0.53861 
 Bq                   -3.32111   3.34005  -0.05429 
 Bq                   -3.32398   3.46154   0.01805 
 Bq                   -3.3163    3.41244  -0.17568 
 Bq                   -3.32782   3.48609   0.11491 
 Bq                   -3.31246   3.38789  -0.27255 
 Bq                   -3.33167   3.51064   0.21177 
 Bq                   -3.30861   3.36334  -0.36941 
 Bq                   -3.33551   3.53519   0.30864 
 Bq                   -3.30477   3.33879  -0.46627 
 Bq                   -3.33935   3.55974   0.4055 
 Bq                   -3.30093   3.31425  -0.56314 
 Bq                   -3.32014   3.43699  -0.07882 
 Bq                   -3.32301   3.55848  -0.00648 
 Bq                   -3.31532   3.50938  -0.20021 
 Bq                   -3.32685   3.58303   0.09038 
 Bq                   -3.31148   3.48483  -0.29708 
 Bq                   -3.33069   3.60758   0.18724 
 Bq                   -3.30764   3.46028  -0.39394 
 Bq                   -3.33453   3.63213   0.28411 
 Bq                   -3.3038    3.43573  -0.4908 
 Bq                   -3.33838   3.65668   0.38097 
 Bq                   -3.29996   3.41119  -0.58767 
 Bq                   -3.31917   3.53393  -0.10335 
 Bq                   -3.32204   3.65542  -0.03101 
 Bq                   -3.31435   3.60632  -0.22474 
 Bq                   -3.32588   3.67997   0.06585 
 Bq                   -3.31051   3.58177  -0.32161 
 Bq                   -3.32972   3.70452   0.16271 
 Bq                   -3.30667   3.55722  -0.41847 
 Bq                   -3.33356   3.72907   0.25958 
 Bq                   -3.30283   3.53267  -0.51533 
 Bq                   -3.3374    3.75362   0.35644 
 Bq                   -3.29898   3.50813  -0.6122 
 Bq                   -3.31819   3.63087  -0.12788 
 Bq                   -3.32106   3.75236  -0.05554 
 Bq                   -3.31338   3.70326  -0.24927 
 Bq                   -3.3249    3.77691   0.04132 
 Bq                   -3.30954   3.67871  -0.34614 
 Bq                   -3.32875   3.80146   0.13818 
 Bq                   -3.30569   3.65416  -0.443 
 Bq                   -3.33259   3.82601   0.23505 
 Bq                   -3.30185   3.62961  -0.53986 
 Bq                   -3.33643   3.85056   0.33191 
 Bq                   -3.29801   3.60507  -0.63673 
 Bq                   -3.31722   3.72781  -0.15241 
 Bq                   -3.32009   3.8493   -0.08007 
 Bq                   -3.31241   3.8002   -0.2738 
 Bq                   -3.32393   3.87385   0.01679 
 Bq                   -3.30856   3.77565  -0.37067 
 Bq                   -3.32777   3.8984    0.11365 
 Bq                   -3.30472   3.7511   -0.46753 
 Bq                   -3.33162   3.92295   0.21052 
 Bq                   -3.30088   3.72655  -0.56439 
 Bq                   -3.33546   3.9475    0.30738 
 Bq                   -3.29704   3.70201  -0.66126 
 Bq                   -3.31625   3.82475  -0.17694 
 Bq                   -3.31912   3.94624  -0.1046 
 Bq                   -3.31143   3.89714  -0.29833 
 Bq                   -3.32296   3.97079  -0.00774 
 Bq                   -3.30759   3.87259  -0.3952 
 Bq                   -3.3268    3.99534   0.08912 
 Bq                   -3.30375   3.84804  -0.49206 
 Bq                   -3.33064   4.01989   0.18599 
 Bq                   -3.29991   3.82349  -0.58892 
 Bq                   -3.33448   4.04444   0.28285 
 Bq                   -3.29607   3.79894  -0.68579 
 Bq                   -3.31527   3.92169  -0.20147 
 Bq                   -3.31814   4.04318  -0.12913 
 Bq                   -3.31046   3.99408  -0.32286 
 Bq                   -3.32199   4.06773  -0.03227 
 Bq                   -3.30662   3.96953  -0.41973 
 Bq                   -3.32583   4.09228   0.06459 
 Bq                   -3.30278   3.94498  -0.51659 
 Bq                   -3.32967   4.11683   0.16146 
 Bq                   -3.29893   3.92043  -0.61345 
 Bq                   -3.33351   4.14138   0.25832 
 Bq                   -3.29509   3.89588  -0.71032 
 Bq                   -3.3143    4.01863  -0.226 
 Bq                   -3.31717   4.14012  -0.15366 
 Bq                   -3.30949   4.09102  -0.34739 
 Bq                   -3.32101   4.16467  -0.0568 
 Bq                   -3.30565   4.06647  -0.44426 
 Bq                   -3.32485   4.18922   0.04006 
 Bq                   -3.3018    4.04192  -0.54112 
 Bq                   -3.3287    4.21377   0.13693 
 Bq                   -3.29796   4.01737  -0.63798 
 Bq                   -3.33254   4.23832   0.23379 
 Bq                   -3.29412   3.99282  -0.73485 
 Bq                   -3.31333   4.11557  -0.25053 
 Bq                   -3.3162    4.23706  -0.17819 
 Bq                   -3.30851   4.18796  -0.37192 
 Bq                   -3.32004   4.26161  -0.08133 
 Bq                   -3.30467   4.16341  -0.46879 
 Bq                   -3.32388   4.28616   0.01553 
 Bq                   -3.30083   4.13886  -0.56565 
 Bq                   -3.32772   4.31071   0.1124 
 Bq                   -3.29699   4.11431  -0.66251 
 Bq                   -3.33157   4.33526   0.20926 
 Bq                   -3.29315   4.08976  -0.75938 
 Bq                   -3.31236   4.21251  -0.27506 
 Bq                   -3.31523   4.334    -0.20272 
 Bq                   -3.30754   4.2849   -0.39645 
 Bq                   -3.31907   4.35855  -0.10586 
 Bq                   -3.3037    4.26035  -0.49332 
 Bq                   -3.32291   4.3831   -0.009 
 Bq                   -3.29986   4.2358   -0.59018 
 Bq                   -3.32675   4.40765   0.08787 
 Bq                   -3.29602   4.21125  -0.68704 
 Bq                   -3.33059   4.4322    0.18473 
 Bq                   -3.29217   4.1867   -0.78391 
 Bq                   -3.31138   4.30945  -0.29959 
 Bq                   -3.31425   4.43094  -0.22725 
 Bq                   -3.30657   4.38184  -0.42098 
 Bq                   -3.31809   4.45549  -0.13039 
 Bq                   -3.30273   4.35729  -0.51785 
 Bq                   -3.32194   4.48004  -0.03353 
 Bq                   -3.29888   4.33274  -0.61471 
 Bq                   -3.32578   4.50459   0.06334 
 Bq                   -3.29504   4.30819  -0.71157 
 Bq                   -3.32962   4.52914   0.1602 
 Bq                   -3.2912    4.28364  -0.80844 
 Bq                   -3.31041   4.40639  -0.32412 
 Bq                   -3.26298  -0.41605   1.00321 
 Bq                   -3.25529  -0.46515   0.80948 
 Bq                   -3.26682  -0.3915    1.10007 
 Bq                   -3.25145  -0.4897    0.71262 
 Bq                   -3.27066  -0.36695   1.19694 
 Bq                   -3.24761  -0.51425   0.61576 
 Bq                   -3.2745   -0.3424    1.2938 
 Bq                   -3.24377  -0.5388    0.51889 
 Bq                   -3.27835  -0.31785   1.39066 
 Bq                   -3.23993  -0.56335   0.42203 
 Bq                   -3.25914  -0.4406    0.90635 
 Bq                   -3.26201  -0.31911   0.97868 
 Bq                   -3.25432  -0.36821   0.78495 
 Bq                   -3.26585  -0.29456   1.07554 
 Bq                   -3.25048  -0.39276   0.68809 
 Bq                   -3.26969  -0.27001   1.17241 
 Bq                   -3.24664  -0.41731   0.59123 
 Bq                   -3.27353  -0.24546   1.26927 
 Bq                   -3.2428   -0.44186   0.49436 
 Bq                   -3.27737  -0.22091   1.36613 
 Bq                   -3.23895  -0.46641   0.3975 
 Bq                   -3.25816  -0.34366   0.88182 
 Bq                   -3.26103  -0.22217   0.95415 
 Bq                   -3.25335  -0.27127   0.76042 
 Bq                   -3.26487  -0.19762   1.05101 
 Bq                   -3.24951  -0.29582   0.66356 
 Bq                   -3.26872  -0.17307   1.14788 
 Bq                   -3.24566  -0.32037   0.5667 
 Bq                   -3.27256  -0.14852   1.24474 
 Bq                   -3.24182  -0.34492   0.46983 
 Bq                   -3.2764   -0.12397   1.3416 
 Bq                   -3.23798  -0.36947   0.37297 
 Bq                   -3.25719  -0.24672   0.85729 
 Bq                   -3.26006  -0.12523   0.92962 
 Bq                   -3.25238  -0.17433   0.73589 
 Bq                   -3.2639   -0.10068   1.02648 
 Bq                   -3.24853  -0.19888   0.63903 
 Bq                   -3.26774  -0.07613   1.12335 
 Bq                   -3.24469  -0.22343   0.54217 
 Bq                   -3.27159  -0.05158   1.22021 
 Bq                   -3.24085  -0.24798   0.4453 
 Bq                   -3.27543  -0.02703   1.31707 
 Bq                   -3.23701  -0.27253   0.34844 
 Bq                   -3.25622  -0.14978   0.83276 
 Bq                   -3.25909  -0.02829   0.90509 
 Bq                   -3.2514   -0.07739   0.71136 
 Bq                   -3.26293  -0.00374   1.00195 
 Bq                   -3.24756  -0.10194   0.6145 
 Bq                   -3.26677   0.02081   1.09882 
 Bq                   -3.24372  -0.12649   0.51764 
 Bq                   -3.27061   0.04536   1.19568 
 Bq                   -3.23988  -0.15104   0.42077 
 Bq                   -3.27445   0.0699    1.29254 
 Bq                   -3.23603  -0.17559   0.32391 
 Bq                   -3.25524  -0.05284   0.80823 
 Bq                   -3.25811   0.06865   0.88056 
 Bq                   -3.25043   0.01955   0.68683 
 Bq                   -3.26196   0.0932    0.97742 
 Bq                   -3.24659  -0.005     0.58997 
 Bq                   -3.2658    0.11775   1.07429 
 Bq                   -3.24275  -0.02955   0.49311 
 Bq                   -3.26964   0.1423    1.17115 
 Bq                   -3.2389   -0.0541    0.39624 
 Bq                   -3.27348   0.16684   1.26801 
 Bq                   -3.23506  -0.07865   0.29938 
 Bq                   -3.25427   0.0441    0.7837 
 Bq                   -3.25714   0.16559   0.85603 
 Bq                   -3.24946   0.11649   0.6623 
 Bq                   -3.26098   0.19014   0.95289 
 Bq                   -3.24561   0.09194   0.56544 
 Bq                   -3.26482   0.21469   1.04976 
 Bq                   -3.24177   0.06739   0.46858 
 
 Symmetry turned off:
 Cannot cope with ghost atoms or with translation vectors.
 Stoichiometry    C22H14
 Framework group  C1[X(C22H14)]
 NUMDOF-- NAT=    36 NAtoms=   236
 Deg. of freedom     0
 Full point group                 C1      NOp   1
                          Input orientation:                          
 ---------------------------------------------------------------------
 Center     Atomic      Atomic             Coordinates (Angstroms)
 Number     Number       Type             X           Y           Z
 ---------------------------------------------------------------------
      1          6           0       -4.050056   -0.577186    0.813671
      2          1           0       -5.026380   -1.008273    1.002476
      3          6           0       -3.938155    0.661780    0.240088
      4          1           0       -4.825242    1.233889   -0.011130
      5          6           0       -2.676841    1.243325    0.005758
      6          6           0       -1.497412    0.505153    0.284825
      7          6           0       -1.650833   -0.733873    0.940403
      8          1           0       -0.771365   -1.273097    1.263375
      9          6           0       -2.889855   -1.262404    1.199431
     10          1           0       -2.968371   -2.212456    1.715268
     11          6           0       -2.577319    2.596370   -0.419293
     12          1           0       -3.487073    3.141224   -0.647406
     13          6           0       -1.374190    3.214790   -0.436403
     14          1           0       -1.299732    4.274202   -0.657814
     15          6           0       -0.171949    2.499409   -0.173459
     16          6           0       -0.204392    1.101844    0.019269
     17          6           0        1.051349    3.204256   -0.067622
     18          1           0        1.042734    4.281950   -0.189700
     19          6           0        2.194209    2.548745    0.257958
     20          1           0        3.116853    3.091285    0.433473
     21          6           0        2.221647    1.133656    0.293499
     22          6           0        1.048693    0.394553    0.030241
     23          6           0        3.448336    0.461463    0.557394
     24          1           0        4.309579    1.060605    0.833485
     25          6           0        3.542735   -0.885593    0.474946
     26          1           0        4.473147   -1.393970    0.703882
     27          6           0        2.449005   -1.647445   -0.019632
     28          6           0        1.215070   -1.005726   -0.301357
     29          6           0        0.253111   -1.743444   -1.021659
     30          1           0       -0.654136   -1.253505   -1.346285
     31          6           0        0.449419   -3.062860   -1.341378
     32          1           0       -0.308316   -3.594431   -1.905406
     33          6           0        1.625173   -3.720797   -0.955254
     34          1           0        1.767005   -4.768740   -1.192702
     35          6           0        2.610987   -3.014418   -0.318305
     36          1           0        3.552561   -3.490281   -0.064637
     37          0           0       -3.332639    3.413700    0.236303
     38          0           0       -3.309587    3.266404   -0.344879
     39          0           0       -3.336481    3.438250    0.333167
     40          0           0       -3.305745    3.241855   -0.441743
     41          0           0       -3.340323    3.462799    0.430030
     42          0           0       -3.301903    3.217306   -0.538606
     43          0           0       -3.321113    3.340052   -0.054288
     44          0           0       -3.323982    3.461542    0.018046
     45          0           0       -3.316298    3.412443   -0.175682
     46          0           0       -3.327824    3.486091    0.114909
     47          0           0       -3.312456    3.387894   -0.272545
     48          0           0       -3.331666    3.510640    0.211773
     49          0           0       -3.308614    3.363344   -0.369409
     50          0           0       -3.335508    3.535190    0.308637
     51          0           0       -3.304772    3.338795   -0.466273
     52          0           0       -3.339350    3.559739    0.405500
     53          0           0       -3.300930    3.314246   -0.563136
     54          0           0       -3.320140    3.436992   -0.078818
     55          0           0       -3.323009    3.558481   -0.006484
     56          0           0       -3.315325    3.509383   -0.200212
     57          0           0       -3.326851    3.583031    0.090379
     58          0           0       -3.311483    3.484833   -0.297075
     59          0           0       -3.330693    3.607580    0.187243
     60          0           0       -3.307641    3.460284   -0.393939
     61          0           0       -3.334535    3.632129    0.284107
     62          0           0       -3.303799    3.435735   -0.490803
     63          0           0       -3.338377    3.656679    0.380970
     64          0           0       -3.299957    3.411186   -0.587666
     65          0           0       -3.319167    3.533932   -0.103348
     66          0           0       -3.322036    3.655421   -0.031014
     67          0           0       -3.314352    3.606323   -0.224742
     68          0           0       -3.325878    3.679971    0.065849
     69          0           0       -3.310510    3.581773   -0.321605
     70          0           0       -3.329720    3.704520    0.162713
     71          0           0       -3.306668    3.557224   -0.418469
     72          0           0       -3.333562    3.729069    0.259577
     73          0           0       -3.302826    3.532675   -0.515333
     74          0           0       -3.337404    3.753619    0.356440
     75          0           0       -3.298984    3.508125   -0.612196
     76          0           0       -3.318194    3.630872   -0.127878
     77          0           0       -3.321063    3.752361   -0.055544
     78          0           0       -3.313379    3.703262   -0.249272
     79          0           0       -3.324905    3.776910    0.041319
     80          0           0       -3.309537    3.678713   -0.346135
     81          0           0       -3.328747    3.801460    0.138183
     82          0           0       -3.305695    3.654164   -0.442999
     83          0           0       -3.332589    3.826009    0.235047
     84          0           0       -3.301853    3.629614   -0.539863
     85          0           0       -3.336431    3.850558    0.331910
     86          0           0       -3.298011    3.605065   -0.636726
     87          0           0       -3.317221    3.727812   -0.152408
     88          0           0       -3.320090    3.849301   -0.080074
     89          0           0       -3.312406    3.800202   -0.273802
     90          0           0       -3.323932    3.873850    0.016789
     91          0           0       -3.308564    3.775653   -0.370665
     92          0           0       -3.327774    3.898400    0.113653
     93          0           0       -3.304722    3.751104   -0.467529
     94          0           0       -3.331616    3.922949    0.210517
     95          0           0       -3.300880    3.726554   -0.564393
     96          0           0       -3.335458    3.947498    0.307380
     97          0           0       -3.297038    3.702005   -0.661256
     98          0           0       -3.316248    3.824752   -0.176938
     99          0           0       -3.319117    3.946241   -0.104604
    100          0           0       -3.311433    3.897142   -0.298332
    101          0           0       -3.322959    3.970790   -0.007741
    102          0           0       -3.307591    3.872593   -0.395195
    103          0           0       -3.326801    3.995339    0.089123
    104          0           0       -3.303749    3.848043   -0.492059
    105          0           0       -3.330643    4.019889    0.185987
    106          0           0       -3.299907    3.823494   -0.588923
    107          0           0       -3.334485    4.044438    0.282850
    108          0           0       -3.296065    3.798945   -0.685786
    109          0           0       -3.315275    3.921691   -0.201468
    110          0           0       -3.318144    4.043181   -0.129134
    111          0           0       -3.310460    3.994082   -0.322862
    112          0           0       -3.321986    4.067730   -0.032271
    113          0           0       -3.306618    3.969533   -0.419725
    114          0           0       -3.325828    4.092279    0.064593
    115          0           0       -3.302776    3.944983   -0.516589
    116          0           0       -3.329670    4.116829    0.161457
    117          0           0       -3.298934    3.920434   -0.613453
    118          0           0       -3.333512    4.141378    0.258320
    119          0           0       -3.295092    3.895885   -0.710316
    120          0           0       -3.314302    4.018631   -0.225998
    121          0           0       -3.317171    4.140120   -0.153664
    122          0           0       -3.309487    4.091022   -0.347392
    123          0           0       -3.321013    4.164670   -0.056801
    124          0           0       -3.305645    4.066472   -0.444255
    125          0           0       -3.324855    4.189219    0.040063
    126          0           0       -3.301803    4.041923   -0.541119
    127          0           0       -3.328697    4.213768    0.136927
    128          0           0       -3.297961    4.017374   -0.637983
    129          0           0       -3.332539    4.238318    0.233790
    130          0           0       -3.294119    3.992825   -0.734846
    131          0           0       -3.313329    4.115571   -0.250528
    132          0           0       -3.316198    4.237060   -0.178194
    133          0           0       -3.308514    4.187962   -0.371922
    134          0           0       -3.320040    4.261610   -0.081331
    135          0           0       -3.304672    4.163412   -0.468785
    136          0           0       -3.323882    4.286159    0.015533
    137          0           0       -3.300830    4.138863   -0.565649
    138          0           0       -3.327724    4.310708    0.112397
    139          0           0       -3.296988    4.114314   -0.662513
    140          0           0       -3.331566    4.335258    0.209260
    141          0           0       -3.293146    4.089764   -0.759376
    142          0           0       -3.312356    4.212511   -0.275058
    143          0           0       -3.315225    4.334000   -0.202725
    144          0           0       -3.307541    4.284901   -0.396452
    145          0           0       -3.319067    4.358549   -0.105861
    146          0           0       -3.303699    4.260352   -0.493316
    147          0           0       -3.322909    4.383099   -0.008997
    148          0           0       -3.299857    4.235803   -0.590179
    149          0           0       -3.326751    4.407648    0.087866
    150          0           0       -3.296015    4.211253   -0.687043
    151          0           0       -3.330593    4.432197    0.184730
    152          0           0       -3.292173    4.186704   -0.783907
    153          0           0       -3.311383    4.309451   -0.299588
    154          0           0       -3.314252    4.430940   -0.227255
    155          0           0       -3.306568    4.381841   -0.420982
    156          0           0       -3.318094    4.455489   -0.130391
    157          0           0       -3.302726    4.357292   -0.517846
    158          0           0       -3.321936    4.480039   -0.033527
    159          0           0       -3.298884    4.332743   -0.614709
    160          0           0       -3.325778    4.504588    0.063336
    161          0           0       -3.295042    4.308193   -0.711573
    162          0           0       -3.329620    4.529137    0.160200
    163          0           0       -3.291200    4.283644   -0.808437
    164          0           0       -3.310410    4.406391   -0.324118
    165          0           0       -3.262978   -0.416052    1.003210
    166          0           0       -3.255294   -0.465150    0.809483
    167          0           0       -3.266820   -0.391502    1.100074
    168          0           0       -3.251453   -0.489700    0.712619
    169          0           0       -3.270662   -0.366953    1.196938
    170          0           0       -3.247611   -0.514249    0.615756
    171          0           0       -3.274504   -0.342404    1.293801
    172          0           0       -3.243769   -0.538798    0.518892
    173          0           0       -3.278346   -0.317854    1.390665
    174          0           0       -3.239927   -0.563348    0.422028
    175          0           0       -3.259136   -0.440601    0.906347
    176          0           0       -3.262005   -0.319112    0.978680
    177          0           0       -3.254322   -0.368210    0.784953
    178          0           0       -3.265847   -0.294563    1.075544
    179          0           0       -3.250480   -0.392760    0.688089
    180          0           0       -3.269689   -0.270013    1.172408
    181          0           0       -3.246638   -0.417309    0.591225
    182          0           0       -3.273531   -0.245464    1.269271
    183          0           0       -3.242796   -0.441858    0.494362
    184          0           0       -3.277373   -0.220915    1.366135
    185          0           0       -3.238954   -0.466408    0.397498
    186          0           0       -3.258164   -0.343661    0.881816
    187          0           0       -3.261033   -0.222172    0.954150
    188          0           0       -3.253349   -0.271271    0.760423
    189          0           0       -3.264875   -0.197623    1.051014
    190          0           0       -3.249507   -0.295820    0.663559
    191          0           0       -3.268717   -0.173073    1.147877
    192          0           0       -3.245665   -0.320369    0.566695
    193          0           0       -3.272558   -0.148524    1.244741
    194          0           0       -3.241823   -0.344919    0.469832
    195          0           0       -3.276400   -0.123975    1.341605
    196          0           0       -3.237981   -0.369468    0.372968
    197          0           0       -3.257191   -0.246721    0.857286
    198          0           0       -3.260060   -0.125232    0.929620
    199          0           0       -3.252376   -0.174331    0.735893
    200          0           0       -3.263902   -0.100683    1.026484
    201          0           0       -3.248534   -0.198880    0.639029
    202          0           0       -3.267744   -0.076134    1.123347
    203          0           0       -3.244692   -0.223429    0.542165
    204          0           0       -3.271586   -0.051584    1.220211
    205          0           0       -3.240850   -0.247979    0.445302
    206          0           0       -3.275428   -0.027035    1.317075
    207          0           0       -3.237008   -0.272528    0.348438
    208          0           0       -3.256218   -0.149782    0.832756
    209          0           0       -3.259087   -0.028292    0.905090
    210          0           0       -3.251403   -0.077391    0.711363
    211          0           0       -3.262929   -0.003743    1.001954
    212          0           0       -3.247561   -0.101940    0.614499
    213          0           0       -3.266771    0.020806    1.098817
    214          0           0       -3.243719   -0.126490    0.517635
    215          0           0       -3.270613    0.045356    1.195681
    216          0           0       -3.239877   -0.151039    0.420772
    217          0           0       -3.274455    0.069905    1.292545
    218          0           0       -3.236035   -0.175588    0.323908
    219          0           0       -3.255245   -0.052842    0.808226
    220          0           0       -3.258114    0.068647    0.880560
    221          0           0       -3.250430    0.019549    0.686833
    222          0           0       -3.261956    0.093197    0.977424
    223          0           0       -3.246588   -0.005000    0.589969
    224          0           0       -3.265798    0.117746    1.074287
    225          0           0       -3.242746   -0.029550    0.493105
    226          0           0       -3.269640    0.142295    1.171151
    227          0           0       -3.238904   -0.054099    0.396242
    228          0           0       -3.273482    0.166845    1.268015
    229          0           0       -3.235062   -0.078648    0.299378
    230          0           0       -3.254272    0.044098    0.783696
    231          0           0       -3.257141    0.165587    0.856030
    232          0           0       -3.249457    0.116489    0.662303
    233          0           0       -3.260983    0.190137    0.952894
    234          0           0       -3.245615    0.091939    0.565439
    235          0           0       -3.264825    0.214686    1.049757
    236          0           0       -3.241773    0.067390    0.468575
 ---------------------------------------------------------------------
 Rotational constants (GHZ):      0.4529074      0.2836956      0.1879557
 Standard basis: 6-311+G(d,p) (5D, 7F)
 Warning:  center  37 has no basis functions!
 Warning:  center  38 has no basis functions!
 Warning:  center  39 has no basis functions!
 Warning:  center  40 has no basis functions!
 Warning:  center  41 has no basis functions!
 Warning:  center  42 has no basis functions!
 Warning:  center  43 has no basis functions!
 Warning:  center  44 has no basis functions!
 Warning:  center  45 has no basis functions!
 Warning:  center  46 has no basis functions!
 Warning:  center  47 has no basis functions!
 Warning:  center  48 has no basis functions!
 Warning:  center  49 has no basis functions!
 Warning:  center  50 has no basis functions!
 Warning:  center  51 has no basis functions!
 Warning:  center  52 has no basis functions!
 Warning:  center  53 has no basis functions!
 Warning:  center  54 has no basis functions!
 Warning:  center  55 has no basis functions!
 Warning:  center  56 has no basis functions!
 Warning:  center  57 has no basis functions!
 Warning:  center  58 has no basis functions!
 Warning:  center  59 has no basis functions!
 Warning:  center  60 has no basis functions!
 Warning:  center  61 has no basis functions!
 Warning:  center  62 has no basis functions!
 Warning:  center  63 has no basis functions!
 Warning:  center  64 has no basis functions!
 Warning:  center  65 has no basis functions!
 Warning:  center  66 has no basis functions!
 Warning:  center  67 has no basis functions!
 Warning:  center  68 has no basis functions!
 Warning:  center  69 has no basis functions!
 Warning:  center  70 has no basis functions!
 Warning:  center  71 has no basis functions!
 Warning:  center  72 has no basis functions!
 Warning:  center  73 has no basis functions!
 Warning:  center  74 has no basis functions!
 Warning:  center  75 has no basis functions!
 Warning:  center  76 has no basis functions!
 Warning:  center  77 has no basis functions!
 Warning:  center  78 has no basis functions!
 Warning:  center  79 has no basis functions!
 Warning:  center  80 has no basis functions!
 Warning:  center  81 has no basis functions!
 Warning:  center  82 has no basis functions!
 Warning:  center  83 has no basis functions!
 Warning:  center  84 has no basis functions!
 Warning:  center  85 has no basis functions!
 Warning:  center  86 has no basis functions!
 Warning:  center  87 has no basis functions!
 Warning:  center  88 has no basis functions!
 Warning:  center  89 has no basis functions!
 Warning:  center  90 has no basis functions!
 Warning:  center  91 has no basis functions!
 Warning:  center  92 has no basis functions!
 Warning:  center  93 has no basis functions!
 Warning:  center  94 has no basis functions!
 Warning:  center  95 has no basis functions!
 Warning:  center  96 has no basis functions!
 Warning:  center  97 has no basis functions!
 Warning:  center  98 has no basis functions!
 Warning:  center  99 has no basis functions!
 Warning:  center 100 has no basis functions!
 Warning:  center 101 has no basis functions!
 Warning:  center 102 has no basis functions!
 Warning:  center 103 has no basis functions!
 Warning:  center 104 has no basis functions!
 Warning:  center 105 has no basis functions!
 Warning:  center 106 has no basis functions!
 Warning:  center 107 has no basis functions!
 Warning:  center 108 has no basis functions!
 Warning:  center 109 has no basis functions!
 Warning:  center 110 has no basis functions!
 Warning:  center 111 has no basis functions!
 Warning:  center 112 has no basis functions!
 Warning:  center 113 has no basis functions!
 Warning:  center 114 has no basis functions!
 Warning:  center 115 has no basis functions!
 Warning:  center 116 has no basis functions!
 Warning:  center 117 has no basis functions!
 Warning:  center 118 has no basis functions!
 Warning:  center 119 has no basis functions!
 Warning:  center 120 has no basis functions!
 Warning:  center 121 has no basis functions!
 Warning:  center 122 has no basis functions!
 Warning:  center 123 has no basis functions!
 Warning:  center 124 has no basis functions!
 Warning:  center 125 has no basis functions!
 Warning:  center 126 has no basis functions!
 Warning:  center 127 has no basis functions!
 Warning:  center 128 has no basis functions!
 Warning:  center 129 has no basis functions!
 Warning:  center 130 has no basis functions!
 Warning:  center 131 has no basis functions!
 Warning:  center 132 has no basis functions!
 Warning:  center 133 has no basis functions!
 Warning:  center 134 has no basis functions!
 Warning:  center 135 has no basis functions!
 Warning:  center 136 has no basis functions!
 Warning:  center 137 has no basis functions!
 Warning:  center 138 has no basis functions!
 Warning:  center 139 has no basis functions!
 Warning:  center 140 has no basis functions!
 Warning:  center 141 has no basis functions!
 Warning:  center 142 has no basis functions!
 Warning:  center 143 has no basis functions!
 Warning:  center 144 has no basis functions!
 Warning:  center 145 has no basis functions!
 Warning:  center 146 has no basis functions!
 Warning:  center 147 has no basis functions!
 Warning:  center 148 has no basis functions!
 Warning:  center 149 has no basis functions!
 Warning:  center 150 has no basis functions!
 Warning:  center 151 has no basis functions!
 Warning:  center 152 has no basis functions!
 Warning:  center 153 has no basis functions!
 Warning:  center 154 has no basis functions!
 Warning:  center 155 has no basis functions!
 Warning:  center 156 has no basis functions!
 Warning:  center 157 has no basis functions!
 Warning:  center 158 has no basis functions!
 Warning:  center 159 has no basis functions!
 Warning:  center 160 has no basis functions!
 Warning:  center 161 has no basis functions!
 Warning:  center 162 has no basis functions!
 Warning:  center 163 has no basis functions!
 Warning:  center 164 has no basis functions!
 Warning:  center 165 has no basis functions!
 Warning:  center 166 has no basis functions!
 Warning:  center 167 has no basis functions!
 Warning:  center 168 has no basis functions!
 Warning:  center 169 has no basis functions!
 Warning:  center 170 has no basis functions!
 Warning:  center 171 has no basis functions!
 Warning:  center 172 has no basis functions!
 Warning:  center 173 has no basis functions!
 Warning:  center 174 has no basis functions!
 Warning:  center 175 has no basis functions!
 Warning:  center 176 has no basis functions!
 Warning:  center 177 has no basis functions!
 Warning:  center 178 has no basis functions!
 Warning:  center 179 has no basis functions!
 Warning:  center 180 has no basis functions!
 Warning:  center 181 has no basis functions!
 Warning:  center 182 has no basis functions!
 Warning:  center 183 has no basis functions!
 Warning:  center 184 has no basis functions!
 Warning:  center 185 has no basis functions!
 Warning:  center 186 has no basis functions!
 Warning:  center 187 has no basis functions!
 Warning:  center 188 has no basis functions!
 Warning:  center 189 has no basis functions!
 Warning:  center 190 has no basis functions!
 Warning:  center 191 has no basis functions!
 Warning:  center 192 has no basis functions!
 Warning:  center 193 has no basis functions!
 Warning:  center 194 has no basis functions!
 Warning:  center 195 has no basis functions!
 Warning:  center 196 has no basis functions!
 Warning:  center 197 has no basis functions!
 Warning:  center 198 has no basis functions!
 Warning:  center 199 has no basis functions!
 Warning:  center 200 has no basis functions!
 Warning:  center 201 has no basis functions!
 Warning:  center 202 has no basis functions!
 Warning:  center 203 has no basis functions!
 Warning:  center 204 has no basis functions!
 Warning:  center 205 has no basis functions!
 Warning:  center 206 has no basis functions!
 Warning:  center 207 has no basis functions!
 Warning:  center 208 has no basis functions!
 Warning:  center 209 has no basis functions!
 Warning:  center 210 has no basis functions!
 Warning:  center 211 has no basis functions!
 Warning:  center 212 has no basis functions!
 Warning:  center 213 has no basis functions!
 Warning:  center 214 has no basis functions!
 Warning:  center 215 has no basis functions!
 Warning:  center 216 has no basis functions!
 Warning:  center 217 has no basis functions!
 Warning:  center 218 has no basis functions!
 Warning:  center 219 has no basis functions!
 Warning:  center 220 has no basis functions!
 Warning:  center 221 has no basis functions!
 Warning:  center 222 has no basis functions!
 Warning:  center 223 has no basis functions!
 Warning:  center 224 has no basis functions!
 Warning:  center 225 has no basis functions!
 Warning:  center 226 has no basis functions!
 Warning:  center 227 has no basis functions!
 Warning:  center 228 has no basis functions!
 Warning:  center 229 has no basis functions!
 Warning:  center 230 has no basis functions!
 Warning:  center 231 has no basis functions!
 Warning:  center 232 has no basis functions!
 Warning:  center 233 has no basis functions!
 Warning:  center 234 has no basis functions!
 Warning:  center 235 has no basis functions!
 Warning:  center 236 has no basis functions!
   568 basis functions,   904 primitive gaussians,   590 cartesian basis functions
    73 alpha electrons       73 beta electrons
       nuclear repulsion energy      1610.9176155625 Hartrees.
 NAtoms=  236 NActive=  236 NUniq=  236 SFac= 1.00D+00 NAtFMM=   60 NAOKFM=T Big=T
 Integral buffers will be    131072 words long.
 Raffenetti 2 integral format.
 Two-electron integral symmetry is turned off.
 One-electron integrals computed using PRISM.
 NBasis=   568 RedAO= T EigKep=  1.78D-06  NBF=   568
 NBsUse=   556 1.00D-06 EigRej=  9.09D-07 NBFU=   556
 ExpMin= 4.38D-02 ExpMax= 4.56D+03 ExpMxC= 6.82D+02 IAcc=2 IRadAn=         4 AccDes= 0.00D+00
 Harris functional with IExCor=  402 and IRadAn=       4 diagonalized for initial guess.
 HarFok:  IExCor=  402 AccDes= 0.00D+00 IRadAn=         4 IDoV= 1 UseB2=F ITyADJ=14
 ICtDFT=  3500011 ScaDFX=  1.000000  1.000000  1.000000  1.000000
 FoFCou: FMM=F IPFlag=           0 FMFlag=      100000 FMFlg1=        2001
         NFxFlg=           0 DoJE=T BraDBF=F KetDBF=T FulRan=T
         wScrn=  0.000000 ICntrl=     500 IOpCl=  0 I1Cent=   200000004 NGrid=           0
         NMat0=    1 NMatS0=      1 NMatT0=    0 NMatD0=    1 NMtDS0=    0 NMtDT0=    0
 Symmetry not used in FoFCou.
 Requested convergence on RMS density matrix=1.00D-08 within 128 cycles.
 Requested convergence on MAX density matrix=1.00D-06.
 Requested convergence on             energy=1.00D-06.
 No special actions if energy rises.
 SCF Done:  E(RB3LYP) =  -847.003289847     A.U. after   15 cycles
            NFock= 15  Conv=0.75D-08     -V/T= 2.0040
 DoSCS=F DFT=T ScalE2(SS,OS)=  1.000000  1.000000
 Range of M.O.s used for correlation:     1   556
 NBasis=   568 NAE=    73 NBE=    73 NFC=     0 NFV=     0
 NROrb=    556 NOA=    73 NOB=    73 NVA=   483 NVB=   483

 **** Warning!!: The largest alpha MO coefficient is  0.10971036D+03

          Differentiating once with respect to magnetic field using GIAOs.
          Electric field/nuclear overlap derivatives assumed to be zero.
 FoFCou: FMM=F IPFlag=           0 FMFlag=      100000 FMFlg1=        2001
         NFxFlg=           0 DoJE=F BraDBF=F KetDBF=T FulRan=T
         wScrn=  0.000000 ICntrl=    6100 IOpCl=  0 I1Cent=           7 NGrid=         236
         NMat0=    1 NMatS0=      1 NMatT0=    0 NMatD0=    1 NMtDS0=    0 NMtDT0=    0
 Symmetry not used in FoFCou.
 FoFJK:  IHMeth= 1 ICntrl=    6127 DoSepK=F KAlg= 0 I1Cent=   0 FoldK=F
 IRaf=         1 NMat=   1 IRICut=       1 DoRegI=T DoRafI=F ISym2E= 0.
          There are     3 degrees of freedom in the 1st order CPHF.  IDoFFX=0 NUNeed=     3.
      3 vectors produced by pass  0 Test12= 1.18D-12 3.33D-08 XBig12= 2.07D+03 9.18D+00.
 AX will form     3 AO Fock derivatives at one time.
      3 vectors produced by pass  1 Test12= 1.18D-12 3.33D-08 XBig12= 3.56D+00 8.03D-01.
      3 vectors produced by pass  2 Test12= 1.18D-12 3.33D-08 XBig12= 2.10D-02 6.92D-02.
      3 vectors produced by pass  3 Test12= 1.18D-12 3.33D-08 XBig12= 5.45D-05 1.89D-03.
      3 vectors produced by pass  4 Test12= 1.18D-12 3.33D-08 XBig12= 1.20D-07 7.79D-05.
      3 vectors produced by pass  5 Test12= 1.18D-12 3.33D-08 XBig12= 4.02D-10 4.73D-06.
      3 vectors produced by pass  6 Test12= 1.18D-12 3.33D-08 XBig12= 1.32D-12 2.61D-07.
 InvSVY:  IOpt=1 It=  1 EMax= 3.55D-15
 Solved reduced A of dimension    21 with     3 vectors.
 Calculating GIAO nuclear magnetic shielding tensors.
 SCF GIAO Magnetic shielding tensor (ppm):
      1  C    Isotropic =    53.8139   Anisotropy =   178.0260
   XX=   -41.4327   YX=   -32.3458   ZX=    10.0287
   XY=   -28.3572   YY=    59.0527   ZY=    55.1899
   XZ=    13.1759   YZ=    58.7550   ZZ=   143.8218
   Eigenvalues:   -53.8775    42.8214   172.4979
      2  H    Isotropic =    24.3095   Anisotropy =     4.8536
   XX=    25.5771   YX=    -1.0289   ZX=     0.5661
   XY=    -0.7431   YY=    26.1829   ZY=    -2.3306
   XZ=    -0.1707   YZ=    -2.4411   ZZ=    21.1687
   Eigenvalues:    20.2108    25.1725    27.5453
      3  C    Isotropic =    51.4055   Anisotropy =   157.8639
   XX=   -31.5399   YX=    38.5015   ZX=   -17.9316
   XY=    34.3519   YY=    49.9437   ZY=    49.6392
   XZ=    -9.8383   YZ=    44.6006   ZZ=   135.8127
   Eigenvalues:   -50.5747    48.1432   156.6481
      4  H    Isotropic =    23.8290   Anisotropy =     7.1838
   XX=    25.3635   YX=     1.8486   ZX=    -0.3559
   XY=     1.9656   YY=    26.4581   ZY=    -2.4103
   XZ=    -1.2941   YZ=    -2.6614   ZZ=    19.6654
   Eigenvalues:    18.8176    24.0511    28.6182
      5  C    Isotropic =    46.0697   Anisotropy =   207.6751
   XX=   -19.2123   YX=    -4.8852   ZX=    -1.6475
   XY=     2.8938   YY=    -2.9860   ZY=    66.5656
   XZ=     2.5356   YZ=    67.9144   ZZ=   160.4073
   Eigenvalues:   -27.2455   -19.0652   184.5197
      6  C    Isotropic =    47.5218   Anisotropy =   196.9389
   XX=   -28.1552   YX=    -2.7889   ZX=    12.0660
   XY=   -14.3886   YY=    21.2063   ZY=    74.2521
   XZ=   -18.6356   YZ=    61.1113   ZZ=   149.5144
   Eigenvalues:   -30.2925    -5.9564   178.8144
      7  C    Isotropic =    49.3915   Anisotropy =   179.8333
   XX=   -12.5211   YX=    28.7048   ZX=   -24.6745
   XY=    31.5123   YY=    29.7000   ZY=    77.7459
   XZ=   -40.0095   YZ=    65.3072   ZZ=   130.9956
   Eigenvalues:   -52.1299    31.0240   169.2804
      8  H    Isotropic =    23.1586   Anisotropy =    13.5525
   XX=    28.5711   YX=     1.5482   ZX=    -3.6986
   XY=     3.2466   YY=    22.7592   ZY=    -2.1157
   XZ=    -8.3753   YZ=    -1.0821   ZZ=    18.1456
   Eigenvalues:    15.3521    21.9301    32.1936
      9  C    Isotropic =    55.1460   Anisotropy =   174.7426
   XX=    46.7071   YX=    -2.6162   ZX=    -2.8420
   XY=     0.6223   YY=    -1.6258   ZY=    92.8272
   XZ=     0.5159   YZ=    95.6598   ZZ=   120.3568
   Eigenvalues:   -52.8932    46.6901   171.6411
     10  H    Isotropic =    24.6278   Anisotropy =     7.1815
   XX=    29.1040   YX=     0.1399   ZX=    -0.3694
   XY=     0.3642   YY=    23.4778   ZY=    -1.0805
   XZ=    -2.4493   YZ=    -2.9465   ZZ=    21.3016
   Eigenvalues:    19.9703    24.4977    29.4155
     11  C    Isotropic =    51.5607   Anisotropy =   151.2142
   XX=     2.1639   YX=    40.9287   ZX=   -26.0048
   XY=    49.9131   YY=    12.2331   ZY=    42.1342
   XZ=   -15.6145   YZ=    38.6614   ZZ=   140.2851
   Eigenvalues:   -48.1951    50.5071   152.3701
     12  H    Isotropic =    23.8537   Anisotropy =     7.3815
   XX=    25.9672   YX=     2.3738   ZX=    -0.2390
   XY=     2.4320   YY=    26.3975   ZY=    -1.8291
   XZ=     0.3529   YZ=    -1.7731   ZZ=    19.1964
   Eigenvalues:    18.7149    24.0714    28.7747
     13  C    Isotropic =    52.8653   Anisotropy =   147.4265
   XX=    51.2944   YX=    19.9221   ZX=   -13.4678
   XY=    11.5478   YY=   -34.0176   ZY=    42.5079
   XZ=    -9.2241   YZ=    40.0716   ZZ=   141.3192
   Eigenvalues:   -46.5152    53.9616   151.1497
     14  H    Isotropic =    24.0156   Anisotropy =     7.3485
   XX=    28.6644   YX=     0.6281   ZX=     1.0808
   XY=     0.5926   YY=    24.4325   ZY=    -1.0823
   XZ=     1.6846   YZ=    -0.3842   ZZ=    18.9500
   Eigenvalues:    18.6430    24.4892    28.9146
     15  C    Isotropic =    46.2221   Anisotropy =   203.9048
   XX=   -27.2215   YX=    -0.0442   ZX=   -28.9124
   XY=     4.6427   YY=   -10.5571   ZY=    28.3830
   XZ=   -10.2704   YZ=    26.7376   ZZ=   176.4448
   Eigenvalues:   -30.5512   -12.9411   182.1586
     16  C    Isotropic =    51.9375   Anisotropy =   188.2004
   XX=   -19.4441   YX=     5.5046   ZX=    15.7858
   XY=    -8.3874   YY=     2.4863   ZY=    22.9264
   XZ=   -50.6243   YZ=    23.3340   ZZ=   172.7704
   Eigenvalues:   -21.0294    -0.5625   177.4045
     17  C    Isotropic =    51.9482   Anisotropy =   149.1264
   XX=    50.7296   YX=   -23.9353   ZX=   -18.4207
   XY=   -16.7271   YY=   -41.8764   ZY=    17.8662
   XZ=   -14.3278   YZ=    11.4871   ZZ=   146.9915
   Eigenvalues:   -46.7796    51.2584   151.3658
     18  H    Isotropic =    24.0122   Anisotropy =     7.5163
   XX=    28.5811   YX=    -0.0866   ZX=     1.5071
   XY=    -0.2466   YY=    24.3342   ZY=    -0.7657
   XZ=     2.5088   YZ=    -1.5208   ZZ=    19.1214
   Eigenvalues:    18.5094    24.5041    29.0231
     19  C    Isotropic =    51.7356   Anisotropy =   148.5924
   XX=     2.4559   YX=   -45.6913   ZX=   -31.2531
   XY=   -53.4448   YY=     7.4698   ZY=    -1.8888
   XZ=   -23.5601   YZ=    -1.2765   ZZ=   145.2810
   Eigenvalues:   -46.9894    51.3989   150.7972
     20  H    Isotropic =    23.9071   Anisotropy =     7.6651
   XX=    25.5796   YX=    -2.0226   ZX=     1.4905
   XY=    -1.9998   YY=    27.3706   ZY=    -0.5164
   XZ=     2.7276   YZ=    -1.1179   ZZ=    18.7711
   Eigenvalues:    18.1643    24.5398    29.0172
     21  C    Isotropic =    45.9767   Anisotropy =   203.9316
   XX=   -16.2108   YX=    13.1802   ZX=   -44.5913
   XY=     6.5714   YY=   -20.6329   ZY=     0.0949
   XZ=   -28.8984   YZ=   -13.0883   ZZ=   174.7736
   Eigenvalues:   -30.5796   -13.4215   181.9311
     22  C    Isotropic =    52.0450   Anisotropy =   188.1157
   XX=    -0.0787   YX=     2.5023   ZX=   -16.3451
   XY=    18.9327   YY=   -14.4798   ZY=   -34.4335
   XZ=   -50.6032   YZ=    19.9104   ZZ=   170.6934
   Eigenvalues:   -20.7705    -0.5500   177.4554
     23  C    Isotropic =    53.2392   Anisotropy =   146.7412
   XX=   -22.0674   YX=   -32.0012   ZX=   -49.4857
   XY=   -23.2043   YY=    44.3661   ZY=   -15.6400
   XZ=   -43.8090   YZ=   -20.2525   ZZ=   137.4189
   Eigenvalues:   -45.6776    54.3286   151.0667
     24  H    Isotropic =    23.8249   Anisotropy =     7.5289
   XX=    25.1073   YX=    -1.7330   ZX=     1.5380
   XY=    -1.5944   YY=    28.0047   ZY=     0.0879
   XZ=     1.2557   YZ=    -0.8283   ZZ=    18.3628
   Eigenvalues:    18.0848    24.5458    28.8442
     25  C    Isotropic =    51.4969   Anisotropy =   150.1066
   XX=   -28.4915   YX=    33.9684   ZX=   -52.3137
   XY=    22.0311   YY=    46.6072   ZY=    -3.8075
   XZ=   -44.5594   YZ=   -10.6355   ZZ=   136.3748
   Eigenvalues:   -48.3857    51.3083   151.5679
     26  H    Isotropic =    23.7431   Anisotropy =     7.4052
   XX=    24.0663   YX=     1.1141   ZX=     1.9989
   XY=     0.9693   YY=    28.1000   ZY=     1.6568
   XZ=     2.0795   YZ=     0.8886   ZZ=    19.0630
   Eigenvalues:    18.2615    24.2880    28.6799
     27  C    Isotropic =    45.8108   Anisotropy =   207.2710
   XX=    -2.7702   YX=    13.7697   ZX=   -61.4651
   XY=     6.5593   YY=   -12.0335   ZY=   -41.6456
   XZ=   -62.6381   YZ=   -44.9232   ZZ=   152.2361
   Eigenvalues:   -28.0803   -18.4787   183.9915
     28  C    Isotropic =    47.8398   Anisotropy =   197.2870
   XX=    19.6900   YX=    14.4398   ZX=   -60.5682
   XY=    28.5650   YY=   -19.3566   ZY=   -56.7015
   XZ=   -63.1331   YZ=   -24.4782   ZZ=   143.1859
   Eigenvalues:   -30.5979    -5.2472   179.3644
     29  C    Isotropic =    49.3441   Anisotropy =   179.7793
   XX=    -3.4110   YX=    38.3775   ZX=   -80.8875
   XY=    36.1252   YY=    25.9805   ZY=   -23.7573
   XZ=   -78.1065   YZ=    -3.9802   ZZ=   125.4627
   Eigenvalues:   -51.6645    30.4997   169.1970
     30  H    Isotropic =    23.1387   Anisotropy =    13.3222
   XX=    22.4354   YX=    -0.7013   ZX=    -0.2375
   XY=    -2.1539   YY=    28.3546   ZY=     4.5555
   XZ=    -3.4181   YZ=     8.3231   ZZ=    18.6259
   Eigenvalues:    15.2751    22.1208    32.0201
     31  C    Isotropic =    55.4410   Anisotropy =   174.9390
   XX=    17.1871   YX=   -14.0890   ZX=   -84.0024
   XY=   -17.9030   YY=    37.4745   ZY=   -50.3662
   XZ=   -84.6557   YZ=   -54.8325   ZZ=   111.6615
   Eigenvalues:   -51.9248    46.1808   172.0670
     32  H    Isotropic =    24.5337   Anisotropy =     7.2554
   XX=    24.6185   YX=    -2.5264   ZX=     0.7632
   XY=    -2.7385   YY=    27.4630   ZY=     1.0335
   XZ=     1.1913   YZ=     3.7573   ZZ=    21.5194
   Eigenvalues:    19.8987    24.3316    29.3706
     33  C    Isotropic =    53.1814   Anisotropy =   179.0596
   XX=    60.9231   YX=    35.2256   ZX=   -42.9515
   XY=    32.0226   YY=   -38.1801   ZY=   -45.5652
   XZ=   -44.2248   YZ=   -50.7831   ZZ=   136.8014
   Eigenvalues:   -55.1197    42.1095   172.5545
     34  H    Isotropic =    24.2825   Anisotropy =     5.1861
   XX=    26.7643   YX=    -0.0934   ZX=     2.5955
   XY=    -0.2993   YY=    24.8157   ZY=     0.8589
   XZ=     2.3715   YZ=     1.4580   ZZ=    21.2676
   Eigenvalues:    20.0339    25.0737    27.7399
     35  C    Isotropic =    51.5295   Anisotropy =   155.1748
   XX=    -0.5131   YX=    52.5760   ZX=   -52.1551
   XY=    55.6135   YY=    25.1843   ZY=   -14.2643
   XZ=   -45.7255   YZ=   -17.1625   ZZ=   129.9171
   Eigenvalues:   -48.3147    47.9237   154.9793
     36  H    Isotropic =    23.8384   Anisotropy =     7.3073
   XX=    24.2302   YX=     1.4459   ZX=     2.1759
   XY=     1.2147   YY=    27.1572   ZY=     2.0665
   XZ=     1.6853   YZ=     2.7775   ZZ=    20.1277
   Eigenvalues:    18.9464    23.8588    28.7099
     37  Bq   Isotropic =     3.5483   Anisotropy =    13.0728
   XX=     5.3060   YX=    -1.5572   ZX=    -0.7922
   XY=    -3.6222   YY=     6.2485   ZY=     0.7900
   XZ=    -8.2914   YZ=    10.1904   ZZ=    -0.9096
   Eigenvalues:    -4.7637     3.1451    12.2635
     38  Bq   Isotropic =    17.3602   Anisotropy =     8.8529
   XX=    18.2258   YX=     3.9979   ZX=     0.8924
   XY=     1.5304   YY=    20.9614   ZY=    -0.3597
   XZ=    -4.4162   YZ=     7.8225   ZZ=    12.8933
   Eigenvalues:    10.4876    18.3309    23.2621
     39  Bq   Isotropic =     2.6866   Anisotropy =    13.5721
   XX=     4.2803   YX=    -1.8430   ZX=    -1.1616
   XY=    -3.7368   YY=     5.3299   ZY=     0.9928
   XZ=    -8.5878   YZ=    10.0726   ZZ=    -1.5505
   Eigenvalues:    -5.6449     1.9700    11.7347
     40  Bq   Isotropic =    20.8929   Anisotropy =    10.0995
   XX=    21.5452   YX=     5.2287   ZX=     0.4501
   XY=     2.8550   YY=    24.6930   ZY=    -0.5920
   XZ=    -3.4047   YZ=     5.8221   ZZ=    16.4406
   Eigenvalues:    14.5765    20.4763    27.6259
     41  Bq   Isotropic =     2.0560   Anisotropy =    13.8172
   XX=     3.4263   YX=    -2.0031   ZX=    -1.4562
   XY=    -3.7253   YY=     4.6295   ZY=     1.1735
   XZ=    -8.7594   YZ=     9.9214   ZZ=    -1.8878
   Eigenvalues:    -6.2180     1.1186    11.2675
     42  Bq   Isotropic =    23.8116   Anisotropy =    11.1048
   XX=    24.3553   YX=     6.1443   ZX=    -0.3881
   XY=     3.9656   YY=    27.4890   ZY=    -0.8980
   XZ=    -2.1095   YZ=     2.8964   ZZ=    19.5904
   Eigenvalues:    18.4294    21.7905    31.2147
     43  Bq   Isotropic =     8.2707   Anisotropy =     9.8497
   XX=     9.9437   YX=     0.3933   ZX=     0.5174
   XY=    -2.0709   YY=    11.1941   ZY=     0.1608
   XZ=    -6.7091   YZ=    10.1283   ZZ=     3.6742
   Eigenvalues:     0.4430     9.5318    14.8371
     44  Bq   Isotropic =     5.1407   Anisotropy =    11.9963
   XX=     7.2065   YX=    -0.7963   ZX=     0.1881
   XY=    -3.1654   YY=     8.9676   ZY=     0.9166
   XZ=    -6.1386   YZ=    10.2880   ZZ=    -0.7520
   Eigenvalues:    -3.6549     5.9388    13.1382
     45  Bq   Isotropic =     8.9055   Anisotropy =    10.2400
   XX=    10.8915   YX=     0.8608   ZX=     0.9035
   XY=    -1.8586   YY=    13.4070   ZY=     0.5519
   XZ=    -4.7498   YZ=     9.7355   ZZ=     2.4179
   Eigenvalues:     0.1442    10.8401    15.7322
     46  Bq   Isotropic =     3.8551   Anisotropy =    12.7183
   XX=     5.8625   YX=    -1.3447   ZX=    -0.2299
   XY=    -3.5252   YY=     7.4392   ZY=     1.0592
   XZ=    -6.7126   YZ=    10.2673   ZZ=    -1.7365
   Eigenvalues:    -4.8791     4.1105    12.3339
     47  Bq   Isotropic =    11.4058   Anisotropy =     9.7587
   XX=    13.2985   YX=     1.9390   ZX=     1.0788
   XY=    -0.9425   YY=    16.3395   ZY=     0.2639
   XZ=    -3.9653   YZ=     8.8926   ZZ=     4.5794
   Eigenvalues:     2.7855    13.5203    17.9116
     48  Bq   Isotropic =     2.8861   Anisotropy =    13.2261
   XX=     4.7638   YX=    -1.7244   ZX=    -0.6259
   XY=    -3.7148   YY=     6.2671   ZY=     1.1922
   XZ=    -7.1820   YZ=    10.1595   ZZ=    -2.3726
   Eigenvalues:    -5.7472     2.7020    11.7036
     49  Bq   Isotropic =    14.1761   Anisotropy =    10.0153
   XX=    15.9853   YX=     3.1075   ZX=     1.0428
   XY=     0.0651   YY=    19.5409   ZY=    -0.1695
   XZ=    -3.1087   YZ=     7.4274   ZZ=     7.0022
   Eigenvalues:     5.8300    15.8453    20.8530
     50  Bq   Isotropic =     2.1679   Anisotropy =    13.5205
   XX=     3.8556   YX=    -1.9639   ZX=    -0.9720
   XY=    -3.7685   YY=     5.3683   ZY=     1.3150
   XZ=    -7.5358   YZ=    10.0037   ZZ=    -2.7203
   Eigenvalues:    -6.3261     1.6482    11.1815
     51  Bq   Isotropic =    16.9189   Anisotropy =    10.7505
   XX=    18.6872   YX=     4.2428   ZX=     0.7210
   XY=     1.0616   YY=    22.5585   ZY=    -0.8198
   XZ=    -2.1321   YZ=     5.1191   ZZ=     9.5111
   Eigenvalues:     9.0305    17.6403    24.0859
     52  Bq   Isotropic =     1.6438   Anisotropy =    13.6258
   XX=     3.0988   YX=    -2.0940   ZX=    -1.2543
   XY=    -3.7218   YY=     4.6742   ZY=     1.4241
   XZ=    -7.7722   YZ=     9.8182   ZZ=    -2.8417
   Eigenvalues:    -6.6724     0.8761    10.7276
     53  Bq   Isotropic =    19.1064   Anisotropy =    11.3997
   XX=    20.8728   YX=     5.1276   ZX=     0.0663
   XY=     1.9157   YY=    24.5776   ZY=    -1.6939
   XZ=    -0.9840   YZ=     1.8610   ZZ=    11.8687
   Eigenvalues:    11.8393    18.7736    26.7062
     54  Bq   Isotropic =     6.8097   Anisotropy =    11.1128
   XX=     8.8630   YX=    -0.0608   ZX=     0.5850
   XY=    -2.6107   YY=    10.9385   ZY=     0.7555
   XZ=    -5.4777   YZ=    10.1490   ZZ=     0.6277
   Eigenvalues:    -2.0005     8.2115    14.2183
     55  Bq   Isotropic =     3.9794   Anisotropy =    12.5990
   XX=     6.2107   YX=    -1.0747   ZX=     0.2873
   XY=    -3.3941   YY=     8.7920   ZY=     1.1609
   XZ=    -5.0619   YZ=     9.8099   ZZ=    -3.0644
   Eigenvalues:    -5.3920     4.9515    12.3788
     56  Bq   Isotropic =     6.8762   Anisotropy =    11.6073
   XX=     9.1975   YX=     0.3167   ZX=     0.9608
   XY=    -2.4723   YY=    12.7198   ZY=     0.6867
   XZ=    -3.6384   YZ=     9.0107   ZZ=    -1.2887
   Eigenvalues:    -2.8797     8.8939    14.6145
     57  Bq   Isotropic =     2.9731   Anisotropy =    12.9963
   XX=     5.0934   YX=    -1.5335   ZX=    -0.0989
   XY=    -3.6342   YY=     7.3783   ZY=     1.2948
   XZ=    -5.6634   YZ=     9.8592   ZZ=    -3.5525
   Eigenvalues:    -6.1572     3.4391    11.6372
     58  Bq   Isotropic =     8.7559   Anisotropy =    11.2763
   XX=    11.0888   YX=     1.2253   ZX=     1.1454
   XY=    -1.8129   YY=    15.1852   ZY=     0.2408
   XZ=    -2.8474   YZ=     7.9801   ZZ=    -0.0065
   Eigenvalues:    -1.0939    11.0881    16.2734
     59  Bq   Isotropic =     2.2097   Anisotropy =    13.2567
   XX=     4.1687   YX=    -1.8502   ZX=    -0.4662
   XY=    -3.7448   YY=     6.2687   ZY=     1.3994
   XZ=    -6.1684   YZ=     9.7971   ZZ=    -3.8084
   Eigenvalues:    -6.6653     2.2469    11.0474
     60  Bq   Isotropic =    10.7859   Anisotropy =    11.2769
   XX=    13.1337   YX=     2.2104   ZX=     1.1521
   XY=    -1.0804   YY=    17.7459   ZY=    -0.4352
   XZ=    -2.0056   YZ=     6.3007   ZZ=     1.4780
   Eigenvalues:     0.9434    13.1104    18.3038
     61  Bq   Isotropic =     1.6424   Anisotropy =    13.3739
   XX=     3.3969   YX=    -2.0481   ZX=    -0.7914
   XY=    -3.7506   YY=     5.4007   ZY=     1.4857
   XZ=    -6.5665   YZ=     9.6707   ZZ=    -3.8704
   Eigenvalues:    -6.9669     1.3359    10.5583
     62  Bq   Isotropic =    12.7211   Anisotropy =    11.5677
   XX=    15.0955   YX=     3.1651   ZX=     0.9271
   XY=    -0.3484   YY=    19.9794   ZY=    -1.3936
   XZ=    -1.0959   YZ=     3.8217   ZZ=     3.0885
   Eigenvalues:     2.9988    14.7317    20.4329
     63  Bq   Isotropic =     1.2294   Anisotropy =    13.3593
   XX=     2.7482   YX=    -2.1525   ZX=    -1.0618
   XY=    -3.6780   YY=     4.7193   ZY=     1.5574
   XZ=    -6.8546   YZ=     9.5050   ZZ=    -3.7792
   Eigenvalues:    -7.1038     0.6565    10.1357
     64  Bq   Isotropic =    14.1952   Anisotropy =    11.8608
   XX=    16.5907   YX=     3.9127   ZX=     0.4521
   XY=     0.2924   YY=    21.2475   ZY=    -2.5954
   XZ=    -0.1039   YZ=     0.5468   ZZ=     4.7473
   Eigenvalues:     4.6761    15.8070    22.1024
     65  Bq   Isotropic =     5.2731   Anisotropy =    12.1042
   XX=     7.5670   YX=    -0.4579   ZX=     0.6564
   XY=    -3.0072   YY=    10.5660   ZY=     0.9729
   XZ=    -4.3808   YZ=     9.5679   ZZ=    -2.3139
   Eigenvalues:    -4.3141     6.7907    13.3425
     66  Bq   Isotropic =     2.8788   Anisotropy =    12.9417
   XX=     5.1941   YX=    -1.2937   ZX=     0.3687
   XY=    -3.5049   YY=     8.5117   ZY=     1.1476
   XZ=    -4.1399   YZ=     8.9696   ZZ=    -5.0693
   Eigenvalues:    -6.8391     3.9690    11.5066
     67  Bq   Isotropic =     4.9713   Anisotropy =    12.5579
   XX=     7.4606   YX=    -0.1512   ZX=     0.9930
   XY=    -2.8717   YY=    11.8527   ZY=     0.5072
   XZ=    -2.7279   YZ=     7.8594   ZZ=    -4.3995
   Eigenvalues:    -5.4317     7.0023    13.3432
     68  Bq   Isotropic =     2.1352   Anisotropy =    13.0846
   XX=     4.3122   YX=    -1.6726   ZX=     0.0144
   XY=    -3.6564   YY=     7.2430   ZY=     1.3157
   XZ=    -4.7495   YZ=     9.1414   ZZ=    -5.1497
   Eigenvalues:    -7.2187     2.7659    10.8582
     69  Bq   Isotropic =     6.2915   Anisotropy =    12.4340
   XX=     8.8373   YX=     0.5880   ZX=     1.1775
   XY=    -2.4051   YY=    13.8227   ZY=    -0.0787
   XZ=    -1.9602   YZ=     6.6687   ZZ=    -3.7854
   Eigenvalues:    -4.3856     8.6793    14.5809
     70  Bq   Isotropic =     1.5662   Anisotropy =    13.1497
   XX=     3.5669   YX=    -1.9344   ZX=    -0.3248
   XY=    -3.7099   YY=     6.2186   ZY=     1.4327
   XZ=    -5.2723   YZ=     9.1764   ZZ=    -5.0870
   Eigenvalues:    -7.4271     1.7930    10.3327
     71  Bq   Isotropic =     7.6819   Anisotropy =    12.4299
   XX=    10.2769   YX=     1.3793   ZX=     1.2160
   XY=    -1.8791   YY=    15.7512   ZY=    -0.9197
   XZ=    -1.1653   YZ=     4.8761   ZZ=    -2.9824
   Eigenvalues:    -3.1892    10.2664    15.9685
     72  Bq   Isotropic =     1.1423   Anisotropy =    13.1268
   XX=     2.9341   YX=    -2.0970   ZX=    -0.6288
   XY=    -3.6832   YY=     5.3981   ZY=     1.5178
   XZ=    -5.6978   YZ=     9.1256   ZZ=    -4.9051
   Eigenvalues:    -7.4981     1.0316     9.8935
     73  Bq   Isotropic =     8.9646   Anisotropy =    12.5256
   XX=    11.6001   YX=     2.1325   ZX=     1.0751
   XY=    -1.3457   YY=    17.2855   ZY=    -2.0327
   XZ=    -0.3439   YZ=     2.4106   ZZ=    -1.9918
   Eigenvalues:    -2.0033    11.5821    17.3150
     74  Bq   Isotropic =     0.8350   Anisotropy =    13.0183
   XX=     2.3942   YX=    -2.1804   ZX=    -0.8859
   XY=    -3.5953   YY=     4.7409   ZY=     1.5812
   XZ=    -6.0219   YZ=     9.0192   ZZ=    -4.6300
   Eigenvalues:    -7.4599     0.4512     9.5139
     75  Bq   Isotropic =     9.9053   Anisotropy =    12.6057
   XX=    12.5552   YX=     2.7176   ZX=     0.7572
   XY=    -0.8673   YY=    17.9731   ZY=    -3.3391
   XZ=     0.5028   YZ=    -0.6412   ZZ=    -0.8125
   Eigenvalues:    -1.0595    12.4662    18.3091
     76  Bq   Isotropic =     3.8221   Anisotropy =    12.7494
   XX=     6.2387   YX=    -0.7860   ZX=     0.7081
   XY=    -3.2437   YY=    10.0522   ZY=     0.8950
   XZ=    -3.4598   YZ=     8.5803   ZZ=    -4.8246
   Eigenvalues:    -6.2523     5.3969    12.3217
     77  Bq   Isotropic =     1.9103   Anisotropy =    13.0164
   XX=     4.2443   YX=    -1.4578   ZX=     0.4241
   XY=    -3.5099   YY=     8.1213   ZY=     0.9581
   XZ=    -3.3806   YZ=     7.9276   ZZ=    -6.6346
   Eigenvalues:    -7.9183     3.0613    10.5879
     78  Bq   Isotropic =     3.3388   Anisotropy =    13.0573
   XX=     5.8784   YX=    -0.5374   ZX=     0.9945
   XY=    -3.0784   YY=    10.8594   ZY=     0.1581
   XZ=    -2.0236   YZ=     6.5393   ZZ=    -6.7213
   Eigenvalues:    -7.3400     5.3128    12.0437
     79  Bq   Isotropic =     1.3902   Anisotropy =    12.9808
   XX=     3.5760   YX=    -1.7674   ZX=     0.1024
   XY=    -3.6014   YY=     7.0179   ZY=     1.1793
   XZ=    -3.9788   YZ=     8.2348   ZZ=    -6.4234
   Eigenvalues:    -8.0065     2.1329    10.0440
     80  Bq   Isotropic =     4.2137   Anisotropy =    13.1099
   XX=     6.8218   YX=     0.0478   ZX=     1.1750
   XY=    -2.7490   YY=    12.3645   ZY=    -0.5181
   XZ=    -1.3019   YZ=     5.2602   ZZ=    -6.5450
   Eigenvalues:    -6.8386     6.5261    12.9537
     81  Bq   Isotropic =     0.9893   Anisotropy =    12.9070
   XX=     2.9958   YX=    -1.9824   ZX=    -0.2078
   XY=    -3.6184   YY=     6.0986   ZY=     1.3318
   XZ=    -4.5012   YZ=     8.3872   ZZ=    -6.1266
   Eigenvalues:    -7.9879     1.3617     9.5939
     82  Bq   Isotropic =     5.1144   Anisotropy =    13.1951
   XX=     7.7748   YX=     0.6641   ZX=     1.2403
   XY=    -2.3714   YY=    13.7450   ZY=    -1.4301
   XZ=    -0.5718   YZ=     3.4736   ZZ=    -6.1765
   Eigenvalues:    -6.2389     7.6711    13.9111
     83  Bq   Isotropic =     0.6909   Anisotropy =    12.7839
   XX=     2.4919   YX=    -2.1158   ZX=    -0.4892
   XY=    -3.5732   YY=     5.3423   ZY=     1.4387
   XZ=    -4.9370   YZ=     8.4345   ZZ=    -5.7614
   Eigenvalues:    -7.8834     0.7426     9.2135
     84  Bq   Isotropic =     5.9256   Anisotropy =    13.2848
   XX=     8.6191   YX=     1.2406   ZX=     1.1713
   XY=    -1.9812   YY=    14.7330   ZY=    -2.5657
   XZ=     0.1580   YZ=     1.1678   ZZ=    -5.5753
   Eigenvalues:    -5.6291     8.6238    14.7821
     85  Bq   Isotropic =     0.4771   Anisotropy =    12.6089
   XX=     2.0536   YX=    -2.1827   ZX=    -0.7310
   XY=    -3.4797   YY=     4.7229   ZY=     1.5143
   XZ=    -5.2811   YZ=     8.4093   ZZ=    -5.3453
   Eigenvalues:    -7.7113     0.2595     8.8830
     86  Bq   Isotropic =     6.5065   Anisotropy =    13.3227
   XX=     9.2018   YX=     1.6872   ZX=     0.9782
   XY=    -1.6205   YY=    15.0281   ZY=    -3.8319
   XZ=     0.8822   YZ=    -1.5393   ZZ=    -4.7104
   Eigenvalues:    -5.1291     9.2604    15.3883
     87  Bq   Isotropic =     2.5609   Anisotropy =    13.0334
   XX=     5.0113   YX=    -1.0464   ZX=     0.7322
   XY=    -3.3357   YY=     9.4128   ZY=     0.6332
   XZ=    -2.7225   YZ=     7.3939   ZZ=    -6.7415
   Eigenvalues:    -7.7014     4.1342    11.2498
     88  Bq   Isotropic =     1.1070   Anisotropy =    12.8505
   XX=     3.4116   YX=    -1.5763   ZX=     0.4539
   XY=    -3.4331   YY=     7.6396   ZY=     0.6744
   XZ=    -2.7728   YZ=     6.8246   ZZ=    -7.7302
   Eigenvalues:    -8.6237     2.2707     9.6740
     89  Bq   Isotropic =     2.0336   Anisotropy =    13.1443
   XX=     4.5477   YX=    -0.8456   ZX=     0.9704
   XY=    -3.1351   YY=     9.8112   ZY=    -0.2399
   XZ=    -1.5015   YZ=     5.2437   ZZ=    -8.2582
   Eigenvalues:    -8.5982     3.9025    10.7965
     90  Bq   Isotropic =     0.7629   Anisotropy =    12.7051
   XX=     2.9200   YX=    -1.8269   ZX=     0.1647
   XY=    -3.4874   YY=     6.7083   ZY=     0.9483
   XZ=    -3.3440   YZ=     7.2510   ZZ=    -7.3397
   Eigenvalues:    -8.5135     1.5692     9.2329
     91  Bq   Isotropic =     2.5854   Anisotropy =    13.3067
   XX=     5.1661   YX=    -0.3906   ZX=     1.1453
   XY=    -2.8994   YY=    10.9186   ZY=    -0.9512
   XZ=    -0.8380   YZ=     3.9515   ZZ=    -8.3284
   Eigenvalues:    -8.4505     4.7502    11.4565
     92  Bq   Isotropic =     0.4973   Anisotropy =    12.5440
   XX=     2.4800   YX=    -2.0026   ZX=    -0.1163
   XY=    -3.4839   YY=     5.9062   ZY=     1.1431
   XZ=    -3.8506   YZ=     7.5160   ZZ=    -6.8944
   Eigenvalues:    -8.3387     0.9706     8.8600
     93  Bq   Isotropic =     3.1419   Anisotropy =    13.4666
   XX=     5.7669   YX=     0.0815   ZX=     1.2324
   XY=    -2.6247   YY=    11.8646   ZY=    -1.8573
   XZ=    -0.1778   YZ=     2.2609   ZZ=    -8.2059
   Eigenvalues:    -8.2289     5.5349    12.1196
     94  Bq   Isotropic =     0.3018   Anisotropy =    12.3580
   XX=     2.0877   YX=    -2.1118   ZX=    -0.3741
   XY=    -3.4312   YY=     5.2275   ZY=     1.2820
   XZ=    -4.2818   YZ=     7.6638   ZZ=    -6.4097
   Eigenvalues:    -8.1127     0.4777     8.5405
     95  Bq   Isotropic =     3.6336   Anisotropy =    13.5932
   XX=     6.2792   YX=     0.5184   ZX=     1.2210
   XY=    -2.3351   YY=    12.4588   ZY=    -2.9300
   XZ=     0.4682   YZ=     0.1932   ZZ=    -7.8370
   Eigenvalues:    -7.9719     6.1771    12.6958
     96  Bq   Isotropic =     0.1657   Anisotropy =    12.1422
   XX=     1.7388   YX=    -2.1655   ZX=    -0.5988
   XY=    -3.3394   YY=     4.6579   ZY=     1.3811
   XZ=    -4.6319   YZ=     7.7258   ZZ=    -5.8997
   Eigenvalues:    -7.8474     0.0840     8.2605
     97  Bq   Isotropic =     3.9809   Anisotropy =    13.6477
   XX=     6.6165   YX=     0.8595   ZX=     1.1216
   XY=    -2.0584   YY=    12.5101   ZY=    -4.0808
   XZ=     1.0944   YZ=    -2.1362   ZZ=    -7.1838
   Eigenvalues:    -7.7331     6.5965    13.0794
     98  Bq   Isotropic =     1.5329   Anisotropy =    12.9931
   XX=     3.9560   YX=    -1.2472   ZX=     0.7309
   XY=    -3.3156   YY=     8.6882   ZY=     0.2906
   XZ=    -2.1526   YZ=     6.1787   ZZ=    -8.0456
   Eigenvalues:    -8.6555     3.0592    10.1949
     99  Bq   Isotropic =     0.4719   Anisotropy =    12.4933
   XX=     2.7141   YX=    -1.6593   ZX=     0.4632
   XY=    -3.3017   YY=     7.0980   ZY=     0.3625
   XZ=    -2.2947   YZ=     5.7623   ZZ=    -8.3964
   Eigenvalues:    -8.9965     1.6114     8.8008
    100  Bq   Isotropic =     1.0433   Anisotropy =    12.9057
   XX=     3.4863   YX=    -1.0848   ZX=     0.9295
   XY=    -3.0885   YY=     8.7731   ZY=    -0.6086
   XZ=    -1.1250   YZ=     4.0863   ZZ=    -9.1295
   Eigenvalues:    -9.2977     2.7805     9.6471
    101  Bq   Isotropic =     0.2583   Anisotropy =    12.2919
   XX=     2.3596   YX=    -1.8606   ZX=     0.2046
   XY=    -3.3346   YY=     6.3330   ZY=     0.6765
   XZ=    -2.8287   YZ=     6.2767   ZZ=    -7.9177
   Eigenvalues:    -8.7659     1.0880     8.4529
    102  Bq   Isotropic =     1.3767   Anisotropy =    13.1147
   XX=     3.8802   YX=    -0.7346   ZX=     1.0981
   XY=    -2.9148   YY=     9.5623   ZY=    -1.3098
   XZ=    -0.5231   YZ=     2.8398   ZZ=    -9.3125
   Eigenvalues:    -9.3534     3.3636    10.1198
    103  Bq   Isotropic =     0.0957   Anisotropy =    12.0854
   XX=     2.0318   YX=    -2.0031   ZX=    -0.0481
   XY=    -3.3216   YY=     5.6515   ZY=     0.9090
   XZ=    -3.3086   YZ=     6.6342   ZZ=    -7.3963
   Eigenvalues:    -8.4954     0.6298     8.1526
    104  Bq   Isotropic =     1.7071   Anisotropy =    13.3058
   XX=     4.2460   YX=    -0.3753   ZX=     1.2014
   XY=    -2.7097   YY=    10.1844   ZY=    -2.1603
   XZ=     0.0698   YZ=     1.2957   ZZ=    -9.3091
   Eigenvalues:    -9.3456     3.8892    10.5776
    105  Bq   Isotropic =    -0.0199   Anisotropy =    11.8670
   XX=     1.7313   YX=    -2.0919   ZX=    -0.2820
   XY=    -3.2687   YY=     5.0576   ZY=     1.0804
   XZ=    -3.7240   YZ=     6.8707   ZZ=    -6.8487
   Eigenvalues:    -8.1946     0.2434     7.8914
    106  Bq   Isotropic =     1.9948   Anisotropy =    13.4503
   XX=     4.5435   YX=    -0.0441   ZX=     1.2332
   XY=    -2.4894   YY=    10.5098   ZY=    -3.1261
   XZ=     0.6434   YZ=    -0.5103   ZZ=    -9.0690
   Eigenvalues:    -9.2852     4.3079    10.9616
    107  Bq   Isotropic =    -0.0948   Anisotropy =    11.6321
   XX=     1.4572   YX=    -2.1345   ZX=    -0.4885
   XY=    -3.1831   YY=     4.5467   ZY=     1.2061
   XZ=    -4.0688   YZ=     7.0140   ZZ=    -6.2882
   Eigenvalues:    -7.8718    -0.0724     7.6600
    108  Bq   Isotropic =     2.1963   Anisotropy =    13.5174
   XX=     4.7265   YX=     0.2190   ZX=     1.2018
   XY=    -2.2722   YY=    10.4202   ZY=    -4.1318
   XZ=     1.1928   YZ=    -2.4795   ZZ=    -8.5580
   Eigenvalues:    -9.1908     4.5717    11.2079
    109  Bq   Isotropic =     0.7360   Anisotropy =    12.6967
   XX=     3.0923   YX=    -1.3985   ZX=     0.7113
   XY=    -3.2194   YY=     7.9262   ZY=    -0.0574
   XZ=    -1.7212   YZ=     5.0476   ZZ=    -8.8105
   Eigenvalues:    -9.1768     2.1843     9.2005
    110  Bq   Isotropic =    -0.0103   Anisotropy =    12.0007
   XX=     2.1482   YX=    -1.7158   ZX=     0.4582
   XY=    -3.1397   YY=     6.5302   ZY=     0.0659
   XZ=    -1.9208   YZ=     4.8007   ZZ=    -8.7092
   Eigenvalues:    -9.0995     1.0785     7.9902
    111  Bq   Isotropic =     0.3213   Anisotropy =    12.4424
   XX=     2.6669   YX=    -1.2665   ZX=     0.8801
   XY=    -2.9796   YY=     7.7920   ZY=    -0.9098
   XZ=    -0.8568   YZ=     3.1142   ZZ=    -9.4951
   Eigenvalues:    -9.5669     1.9145     8.6162
    112  Bq   Isotropic =    -0.1314   Anisotropy =    11.7809
   XX=     1.8954   YX=    -1.8762   ZX=     0.2274
   XY=    -3.1612   YY=     5.9166   ZY=     0.4033
   XZ=    -2.4125   YZ=     5.3689   ZZ=    -8.2062
   Eigenvalues:    -8.8069     0.6901     7.7225
    113  Bq   Isotropic =     0.5141   Anisotropy =    12.6550
   XX=     2.9139   YX=    -0.9976   ZX=     1.0423
   XY=    -2.8465   YY=     8.3385   ZY=    -1.5706
   XZ=    -0.3141   YZ=     1.9507   ZZ=    -9.7102
   Eigenvalues:    -9.7241     2.3156     8.9508
    114  Bq   Isotropic =    -0.2193   Anisotropy =    11.5591
   XX=     1.6538   YX=    -1.9907   ZX=     0.0013
   XY=    -3.1453   YY=     5.3510   ZY=     0.6629
   XZ=    -2.8594   YZ=     5.7925   ZZ=    -7.6628
   Eigenvalues:    -8.4870     0.3423     7.4867
    115  Bq   Isotropic =     0.7034   Anisotropy =    12.8423
   XX=     3.1317   YX=    -0.7238   ZX=     1.1565
   XY=    -2.6879   YY=     8.7295   ZY=    -2.3399
   XZ=     0.2179   YZ=     0.5723   ZZ=    -9.7510
   Eigenvalues:    -9.8218     2.6670     9.2649
    116  Bq   Isotropic =    -0.2758   Anisotropy =    11.3311
   XX=     1.4257   YX=    -2.0619   ZX=    -0.2095
   XY=    -3.0961   YY=     4.8435   ZY=     0.8610
   XZ=    -3.2516   YZ=     6.0988   ZZ=    -7.0966
   Eigenvalues:    -8.1480     0.0423     7.2783
    117  Bq   Isotropic =     0.8669   Anisotropy =    12.9806
   XX=     3.2981   YX=    -0.4708   ZX=     1.2191
   XY=    -2.5147   YY=     8.8791   ZY=    -3.1841
   XZ=     0.7305   YZ=    -0.9820   ZZ=    -9.5765
   Eigenvalues:    -9.8583     2.9384     9.5206
    118  Bq   Isotropic =    -0.3046   Anisotropy =    11.0935
   XX=     1.2121   YX=    -2.0949   ZX=    -0.3976
   XY=    -3.0191   YY=     4.3955   ZY=     1.0112
   XZ=    -3.5830   YZ=     6.3104   ZZ=    -6.5212
   Eigenvalues:    -7.7968    -0.2080     7.0911
    119  Bq   Isotropic =     0.9815   Anisotropy =    13.0458
   XX=     3.3894   YX=    -0.2650   ZX=     1.2357
   XY=    -2.3393   YY=     8.7154   ZY=    -4.0426
   XZ=     1.2195   YZ=    -2.6330   ZZ=    -9.1603
   Eigenvalues:    -9.8360     3.1017     9.6787
    120  Bq   Isotropic =     0.1426   Anisotropy =    12.2215
   XX=     2.4078   YX=    -1.5104   ZX=     0.6807
   XY=    -3.0789   YY=     7.1689   ZY=    -0.3667
   XZ=    -1.3973   YZ=     4.0583   ZZ=    -9.1489
   Eigenvalues:    -9.3559     1.4935     8.2903
    121  Bq   Isotropic =    -0.3630   Anisotropy =    11.4251
   XX=     1.6989   YX=    -1.7527   ZX=     0.4449
   XY=    -2.9657   YY=     5.9650   ZY=    -0.1921
   XZ=    -1.6268   YZ=     3.9662   ZZ=    -8.7530
   Eigenvalues:    -8.9993     0.6565     7.2537
    122  Bq   Isotropic =    -0.1884   Anisotropy =    11.8452
   XX=     2.0458   YX=    -1.4023   ZX=     0.8284
   XY=    -2.8392   YY=     6.8954   ZY=    -1.1334
   XZ=    -0.6648   YZ=     2.3309   ZZ=    -9.5064
   Eigenvalues:    -9.5304     1.2569     7.7085
    123  Bq   Isotropic =    -0.4211   Anisotropy =    11.2100
   XX=     1.5195   YX=    -1.8795   ZX=     0.2385
   XY=    -2.9813   YY=     5.4829   ZY=     0.1527
   XZ=    -2.0752   YZ=     4.5577   ZZ=    -8.2656
   Eigenvalues:    -8.6841     0.3686     7.0523
    124  Bq   Isotropic =    -0.0834   Anisotropy =    12.0387
   XX=     2.1994   YX=    -1.1950   ZX=     0.9842
   XY=    -2.7331   YY=     7.2628   ZY=    -1.7374
   XZ=    -0.1762   YZ=     1.2685   ZZ=    -9.7123
   Eigenvalues:    -9.7277     1.5352     7.9424
    125  Bq   Isotropic =    -0.4569   Anisotropy =    10.9923
[...]
   138  Bq   0.000000
   139  Bq   0.000000
   140  Bq   0.000000
   141  Bq   0.000000
   142  Bq   0.000000
   143  Bq   0.000000
   144  Bq   0.000000
   145  Bq   0.000000
   146  Bq   0.000000
   147  Bq   0.000000
   148  Bq   0.000000
   149  Bq   0.000000
   150  Bq   0.000000
   151  Bq   0.000000
   152  Bq   0.000000
   153  Bq   0.000000
   154  Bq   0.000000
   155  Bq   0.000000
   156  Bq   0.000000
   157  Bq   0.000000
   158  Bq   0.000000
   159  Bq   0.000000
   160  Bq   0.000000
   161  Bq   0.000000
   162  Bq   0.000000
   163  Bq   0.000000
   164  Bq   0.000000
   165  Bq   0.000000
   166  Bq   0.000000
   167  Bq   0.000000
   168  Bq   0.000000
   169  Bq   0.000000
   170  Bq   0.000000
   171  Bq   0.000000
   172  Bq   0.000000
   173  Bq   0.000000
   174  Bq   0.000000
   175  Bq   0.000000
   176  Bq   0.000000
   177  Bq   0.000000
   178  Bq   0.000000
   179  Bq   0.000000
   180  Bq   0.000000
   181  Bq   0.000000
   182  Bq   0.000000
   183  Bq   0.000000
   184  Bq   0.000000
   185  Bq   0.000000
   186  Bq   0.000000
   187  Bq   0.000000
   188  Bq   0.000000
   189  Bq   0.000000
   190  Bq   0.000000
   191  Bq   0.000000
   192  Bq   0.000000
   193  Bq   0.000000
   194  Bq   0.000000
   195  Bq   0.000000
   196  Bq   0.000000
   197  Bq   0.000000
   198  Bq   0.000000
   199  Bq   0.000000
   200  Bq   0.000000
   201  Bq   0.000000
   202  Bq   0.000000
   203  Bq   0.000000
   204  Bq   0.000000
   205  Bq   0.000000
   206  Bq   0.000000
   207  Bq   0.000000
   208  Bq   0.000000
   209  Bq   0.000000
   210  Bq   0.000000
   211  Bq   0.000000
   212  Bq   0.000000
   213  Bq   0.000000
   214  Bq   0.000000
   215  Bq   0.000000
   216  Bq   0.000000
   217  Bq   0.000000
   218  Bq   0.000000
   219  Bq   0.000000
   220  Bq   0.000000
   221  Bq   0.000000
   222  Bq   0.000000
   223  Bq   0.000000
   224  Bq   0.000000
   225  Bq   0.000000
   226  Bq   0.000000
   227  Bq   0.000000
   228  Bq   0.000000
   229  Bq   0.000000
   230  Bq   0.000000
   231  Bq   0.000000
   232  Bq   0.000000
   233  Bq   0.000000
   234  Bq   0.000000
   235  Bq   0.000000
   236  Bq   0.000000
 Sum of Mulliken charges =   0.00000
 Mulliken charges with hydrogens summed into heavy atoms:
               1
     1  C   -0.255498
     3  C    0.169409
     5  C    0.448258
     6  C    0.064351
     7  C   -0.333926
     9  C   -0.139521
    11  C   -0.322216
    13  C   -0.119315
    15  C    0.653397
    16  C    0.034822
    17  C   -0.317410
    19  C   -0.316854
    21  C    0.651066
    22  C    0.037784
    23  C   -0.117289
    25  C   -0.205316
    27  C    0.448331
    28  C    0.061983
    29  C   -0.333381
    31  C   -0.139505
    33  C   -0.255977
    35  C    0.170579
    37  Bq   0.000000
    38  Bq   0.000000
    39  Bq   0.000000
    40  Bq   0.000000
    41  Bq   0.000000
    42  Bq   0.116228
    43  Bq   0.000000
    44  Bq   0.000000
    45  Bq   0.000000
    46  Bq   0.000000
    47  Bq   0.000000
    48  Bq   0.000000
    49  Bq   0.000000
    50  Bq   0.000000
    51  Bq   0.000000
    52  Bq   0.000000
    53  Bq   0.000000
    54  Bq   0.000000
    55  Bq   0.000000
    56  Bq   0.000000
    57  Bq   0.000000
    58  Bq   0.000000
    59  Bq   0.000000
    60  Bq   0.000000
    61  Bq   0.000000
    62  Bq   0.000000
    63  Bq   0.000000
    64  Bq   0.000000
    65  Bq   0.000000
    66  Bq   0.000000
    67  Bq   0.000000
    68  Bq   0.000000
    69  Bq   0.000000
    70  Bq   0.000000
    71  Bq   0.000000
    72  Bq   0.000000
    73  Bq   0.000000
    74  Bq   0.000000
    75  Bq   0.000000
    76  Bq   0.000000
    77  Bq   0.000000
    78  Bq   0.000000
    79  Bq   0.000000
    80  Bq   0.000000
    81  Bq   0.000000
    82  Bq   0.000000
    83  Bq   0.000000
    84  Bq   0.000000
    85  Bq   0.000000
    86  Bq   0.000000
    87  Bq   0.000000
    88  Bq   0.000000
    89  Bq   0.000000
    90  Bq   0.000000
    91  Bq   0.000000
    92  Bq   0.000000
    93  Bq   0.000000
    94  Bq   0.000000
    95  Bq   0.000000
    96  Bq   0.000000
    97  Bq   0.000000
    98  Bq   0.000000
    99  Bq   0.000000
   100  Bq   0.000000
   101  Bq   0.000000
   102  Bq   0.000000
   103  Bq   0.000000
   104  Bq   0.000000
   105  Bq   0.000000
   106  Bq   0.000000
   107  Bq   0.000000
   108  Bq   0.000000
   109  Bq   0.000000
   110  Bq   0.000000
   111  Bq   0.000000
   112  Bq   0.000000
   113  Bq   0.000000
   114  Bq   0.000000
   115  Bq   0.000000
   116  Bq   0.000000
   117  Bq   0.000000
   118  Bq   0.000000
   119  Bq   0.000000
   120  Bq   0.000000
   121  Bq   0.000000
   122  Bq   0.000000
   123  Bq   0.000000
   124  Bq   0.000000
   125  Bq   0.000000
   126  Bq   0.000000
   127  Bq   0.000000
   128  Bq   0.000000
   129  Bq   0.000000
   130  Bq   0.000000
   131  Bq   0.000000
   132  Bq   0.000000
   133  Bq   0.000000
   134  Bq   0.000000
   135  Bq   0.000000
   136  Bq   0.000000
   137  Bq   0.000000
   138  Bq   0.000000
   139  Bq   0.000000
   140  Bq   0.000000
   141  Bq   0.000000
   142  Bq   0.000000
   143  Bq   0.000000
   144  Bq   0.000000
   145  Bq   0.000000
   146  Bq   0.000000
   147  Bq   0.000000
   148  Bq   0.000000
   149  Bq   0.000000
   150  Bq   0.000000
   151  Bq   0.000000
   152  Bq   0.000000
   153  Bq   0.000000
   154  Bq   0.000000
   155  Bq   0.000000
   156  Bq   0.000000
   157  Bq   0.000000
   158  Bq   0.000000
   159  Bq   0.000000
   160  Bq   0.000000
   161  Bq   0.000000
   162  Bq   0.000000
   163  Bq   0.000000
   164  Bq   0.000000
   165  Bq   0.000000
   166  Bq   0.000000
   167  Bq   0.000000
   168  Bq   0.000000
   169  Bq   0.000000
   170  Bq   0.000000
   171  Bq   0.000000
   172  Bq   0.000000
   173  Bq   0.000000
   174  Bq   0.000000
   175  Bq   0.000000
   176  Bq   0.000000
   177  Bq   0.000000
   178  Bq   0.000000
   179  Bq   0.000000
   180  Bq   0.000000
   181  Bq   0.000000
   182  Bq   0.000000
   183  Bq   0.000000
   184  Bq   0.000000
   185  Bq   0.000000
   186  Bq   0.000000
   187  Bq   0.000000
   188  Bq   0.000000
   189  Bq   0.000000
   190  Bq   0.000000
   191  Bq   0.000000
   192  Bq   0.000000
   193  Bq   0.000000
   194  Bq   0.000000
   195  Bq   0.000000
   196  Bq   0.000000
   197  Bq   0.000000
   198  Bq   0.000000
   199  Bq   0.000000
   200  Bq   0.000000
   201  Bq   0.000000
   202  Bq   0.000000
   203  Bq   0.000000
   204  Bq   0.000000
   205  Bq   0.000000
   206  Bq   0.000000
   207  Bq   0.000000
   208  Bq   0.000000
   209  Bq   0.000000
   210  Bq   0.000000
   211  Bq   0.000000
   212  Bq   0.000000
   213  Bq   0.000000
   214  Bq   0.000000
   215  Bq   0.000000
   216  Bq   0.000000
   217  Bq   0.000000
   218  Bq   0.000000
   219  Bq   0.000000
   220  Bq   0.000000
   221  Bq   0.000000
   222  Bq   0.000000
   223  Bq   0.000000
   224  Bq   0.000000
   225  Bq   0.000000
   226  Bq   0.000000
   227  Bq   0.000000
   228  Bq   0.000000
   229  Bq   0.000000
   230  Bq   0.000000
   231  Bq   0.000000
   232  Bq   0.000000
   233  Bq   0.000000
   234  Bq   0.000000
   235  Bq   0.000000
   236  Bq   0.000000
 Electronic spatial extent (au):  <R**2>=           5736.9264
 Charge=              0.0000 electrons
 Dipole moment (field-independent basis, Debye):
    X=              0.0475    Y=              0.0856    Z=              0.0029  Tot=              0.0979
 Quadrupole moment (field-independent basis, Debye-Ang):
   XX=           -113.7056   YY=           -113.9456   ZZ=           -133.2669
   XY=             -0.3834   XZ=              3.2102   YZ=             -1.1839
 Traceless Quadrupole moment (field-independent basis, Debye-Ang):
   XX=              6.6005   YY=              6.3604   ZZ=            -12.9609
   XY=             -0.3834   XZ=              3.2102   YZ=             -1.1839
 Octapole moment (field-independent basis, Debye-Ang**2):
  XXX=            -16.4668  YYY=            -16.1860  ZZZ=             -1.7007  XYY=              2.5576
  XXY=             -6.5650  XXZ=             13.6547  XZZ=             -8.9478  YZZ=            -17.7168
  YYZ=            -13.2941  XYZ=              8.8036
 Hexadecapole moment (field-independent basis, Debye-Ang**3):
 XXXX=          -3951.1638 YYYY=          -3112.2161 ZZZZ=           -504.8311 XXXY=            340.6935
 XXXZ=            156.4968 YYYX=            335.5625 YYYZ=            -87.0893 ZZZX=            120.2262
 ZZZY=           -108.7373 XXYY=          -1176.4844 XXZZ=           -856.7291 YYZZ=           -665.7275
 XXYZ=            -68.9016 YYXZ=             48.1602 ZZXY=            153.0375
 N-N= 1.610917615562D+03 E-N=-5.186891130729D+03  KE= 8.436329774448D+02
 1\1\GINC-PLANA\SP\RB3LYP\6-311+G(d,p)\C22H14\YANNICK\21-Aug-2020\0\\# 
 rb3lyp/6-311+g** NMR geom=connectivity\\Title\\0,1\C,0,-4.0500558,-0.5
 771862,0.8136712\H,0,-5.0263804,-1.0082727,1.002476\C,0,-3.9381552,0.6
 617804,0.2400876\H,0,-4.8252424,1.233889,-0.0111295\C,0,-2.676841,1.24
 33246,0.0057578\C,0,-1.4974121,0.5051527,0.2848253\C,0,-1.6508332,-0.7
 338728,0.9404026\H,0,-0.7713646,-1.2730967,1.2633753\C,0,-2.8898548,-1
 .2624035,1.1994307\H,0,-2.9683706,-2.2124563,1.7152676\C,0,-2.5773185,
 2.5963696,-0.419293\H,0,-3.4870728,3.1412239,-0.6474055\C,0,-1.3741895
 ,3.2147896,-0.436403\H,0,-1.2997315,4.2742019,-0.6578144\C,0,-0.171948
 8,2.499409,-0.1734588\C,0,-0.2043917,1.1018437,0.0192689\C,0,1.0513491
 ,3.204256,-0.0676222\H,0,1.0427344,4.2819499,-0.1896997\C,0,2.1942091,
 2.5487446,0.2579577\H,0,3.1168527,3.0912848,0.4334727\C,0,2.2216473,1.
 1336562,0.293499\C,0,1.0486931,0.3945528,0.0302412\C,0,3.4483363,0.461
 4633,0.5573939\H,0,4.3095794,1.0606054,0.8334846\C,0,3.5427346,-0.8855
 926,0.4749463\H,0,4.4731467,-1.3939704,0.7038822\C,0,2.4490052,-1.6474
 447,-0.0196319\C,0,1.2150704,-1.0057258,-0.3013573\C,0,0.2531113,-1.74
 3444,-1.0216591\H,0,-0.6541356,-1.2535051,-1.3462847\C,0,0.4494193,-3.
 0628597,-1.3413779\H,0,-0.3083162,-3.5944309,-1.905406\C,0,1.6251726,-
 3.7207967,-0.9552541\H,0,1.7670048,-4.7687404,-1.1927019\C,0,2.6109872
 ,-3.0144177,-0.318305\H,0,3.5525612,-3.4902813,-0.0646367\Bq,0,-3.3326
 386297,3.4137003862,0.2363031193\Bq,0,-3.3095867417,3.2664044819,-0.34
 48788892\Bq,0,-3.336480611,3.4382497035,0.3331667874\Bq,0,-3.305744760
 3,3.2418551645,-0.4417425573\Bq,0,-3.3403225923,3.4627990209,0.4300304
 555\Bq,0,-3.301902779,3.2173058471,-0.5386062254\Bq,0,-3.3211126857,3.
 340052434,-0.0542878849\Bq,0,-3.3239817128,3.4615415833,0.0180457537\B
 q,0,-3.3162977501,3.4124429486,-0.1756815825\Bq,0,-3.3278236941,3.4860
 909007,0.1149094218\Bq,0,-3.3124557688,3.3878936312,-0.2725452506\Bq,0
 ,-3.3316656754,3.5106402181,0.2117730899\Bq,0,-3.3086137875,3.36334431
 38,-0.3694089186\Bq,0,-3.3355076568,3.5351895355,0.308636758\Bq,0,-3.3
 047718061,3.3387949965,-0.4662725867\Bq,0,-3.3393496381,3.5597388528,0
 .4055004261\Bq,0,-3.3009298248,3.3142456791,-0.5631362548\Bq,0,-3.3201
 397314,3.436992266,-0.0788179144\Bq,0,-3.3230087585,3.5584814153,-0.00
 64842757\Bq,0,-3.3153247959,3.5093827805,-0.2002116119\Bq,0,-3.3268507
 399,3.5830307327,0.0903793924\Bq,0,-3.3114828146,3.4848334632,-0.29707
 528\Bq,0,-3.3306927212,3.60758005,0.1872430605\Bq,0,-3.3076408332,3.46
 02841458,-0.3939389481\Bq,0,-3.3345347025,3.6321293674,0.2841067286\Bq
 ,0,-3.3037988519,3.4357348284,-0.4908026162\Bq,0,-3.3383766839,3.65667
 86848,0.3809703966\Bq,0,-3.2999568706,3.411185511,-0.5876662843\Bq,0,-
 3.3191667772,3.5339320979,-0.1033479438\Bq,0,-3.3220358043,3.655421247
 2,-0.0310143051\Bq,0,-3.3143518417,3.6063226125,-0.2247416413\Bq,0,-3.
 3258777856,3.6799705646,0.065849363\Bq,0,-3.3105098603,3.5817732951,-0
 .3216053094\Bq,0,-3.329719767,3.704519882,0.162713031\Bq,0,-3.30666787
 9,3.5572239777,-0.4184689775\Bq,0,-3.3335617483,3.7290691993,0.2595766
 991\Bq,0,-3.3028258977,3.5326746603,-0.5153326456\Bq,0,-3.3374037296,3
 .7536185167,0.3564403672\Bq,0,-3.2989839163,3.508125343,-0.6121963137\
 Bq,0,-3.318193823,3.6308719298,-0.1278779732\Bq,0,-3.3210628501,3.7523
 610792,-0.0555443346\Bq,0,-3.3133788874,3.7032624444,-0.2492716707\Bq,
 0,-3.3249048314,3.7769103965,0.0413193335\Bq,0,-3.3095369061,3.6787131
 27,-0.3461353388\Bq,0,-3.3287468128,3.8014597139,0.1381830016\Bq,0,-3.
 3056949248,3.6541638097,-0.4429990069\Bq,0,-3.3325887941,3.8260090313,
 0.2350466697\Bq,0,-3.3018529434,3.6296144923,-0.539862675\Bq,0,-3.3364
 307754,3.8505583487,0.3319103378\Bq,0,-3.2980109621,3.6050651749,-0.63
 67263431\Bq,0,-3.3172208688,3.7278117618,-0.1524080027\Bq,0,-3.3200898
 959,3.8493009111,-0.080074364\Bq,0,-3.3124059332,3.8002022763,-0.27380
 17002\Bq,0,-3.3239318772,3.8738502285,0.0167893041\Bq,0,-3.3085639519,
 3.775652959,-0.3706653683\Bq,0,-3.3277738585,3.8983995458,0.1136529722
 \Bq,0,-3.3047219706,3.7511036416,-0.4675290364\Bq,0,-3.3316158399,3.92
 29488632,0.2105166403\Bq,0,-3.3008799892,3.7265543242,-0.5643927044\Bq
 ,0,-3.3354578212,3.9474981806,0.3073803084\Bq,0,-3.2970380079,3.702005
 0068,-0.6612563725\Bq,0,-3.3162479145,3.8247515937,-0.1769380321\Bq,0,
 -3.3191169416,3.946240743,-0.1046043934\Bq,0,-3.311432979,3.8971421083
 ,-0.2983317296\Bq,0,-3.322958923,3.9707900604,-0.0077407253\Bq,0,-3.30
 75909977,3.8725927909,-0.3951953977\Bq,0,-3.3268009043,3.9953393778,0.
 0891229428\Bq,0,-3.3037490163,3.8480434735,-0.4920590658\Bq,0,-3.33064
 28856,4.0198886952,0.1859866109\Bq,0,-3.299907035,3.8234941562,-0.5889
 227339\Bq,0,-3.334484867,4.0444380125,0.2828502789\Bq,0,-3.2960650537,
 3.7989448388,-0.685786402\Bq,0,-3.3152749603,3.9216914257,-0.201468061
 5\Bq,0,-3.3181439874,4.043180575,-0.1291344228\Bq,0,-3.3104600248,3.99
 40819402,-0.322861759\Bq,0,-3.3219859687,4.0677298924,-0.0322707548\Bq
 ,0,-3.3066180434,3.9695326228,-0.4197254271\Bq,0,-3.3258279501,4.09227
 92097,0.0645929133\Bq,0,-3.3027760621,3.9449833055,-0.5165890952\Bq,0,
 -3.3296699314,4.1168285271,0.1614565814\Bq,0,-3.2989340808,3.920433988
 1,-0.6134527633\Bq,0,-3.3335119127,4.1413778445,0.2583202495\Bq,0,-3.2
 950920994,3.8958846707,-0.7103164314\Bq,0,-3.3143020061,4.0186312576,-
 0.2259980909\Bq,0,-3.3171710332,4.1401204069,-0.1536644523\Bq,0,-3.309
 4870705,4.0910217722,-0.3473917885\Bq,0,-3.3210130145,4.1646697243,-0.
 0568007842\Bq,0,-3.3056450892,4.0664724548,-0.4442554565\Bq,0,-3.32485
 49959,4.1892190417,0.0400628839\Bq,0,-3.3018031079,4.0419231374,-0.541
 1191246\Bq,0,-3.3286969772,4.213768359,0.136926552\Bq,0,-3.2979611266,
 4.01737382,-0.6379827927\Bq,0,-3.3325389585,4.2383176764,0.2337902201\
 Bq,0,-3.2941191452,3.9928245027,-0.7348464608\Bq,0,-3.3133290519,4.115
 5710895,-0.2505281204\Bq,0,-3.316198079,4.2370602389,-0.1781944817\Bq,
 0,-3.3085141163,4.1879616041,-0.3719218179\Bq,0,-3.3200400603,4.261609
 5562,-0.0813308136\Bq,0,-3.304672135,4.1634122867,-0.468785486\Bq,0,-3
 .3238820416,4.2861588736,0.0155328545\Bq,0,-3.3008301537,4.1388629694,
 -0.5656491541\Bq,0,-3.327724023,4.310708191,0.1123965226\Bq,0,-3.29698
 81723,4.114313652,-0.6625128222\Bq,0,-3.3315660043,4.3352575084,0.2092
 601907\Bq,0,-3.293146191,4.0897643346,-0.7593764902\Bq,0,-3.3123560976
 ,4.2125109215,-0.2750581498\Bq,0,-3.3152251247,4.3340000708,-0.2027245
 111\Bq,0,-3.3075411621,4.284901436,-0.3964518473\Bq,0,-3.3190671061,4.
 3585493882,-0.105860843\Bq,0,-3.3036991808,4.2603521187,-0.4933155154\
 Bq,0,-3.3229090874,4.3830987055,-0.0089971749\Bq,0,-3.2998571994,4.235
 8028013,-0.5901791835\Bq,0,-3.3267510687,4.4076480229,0.0878664931\Bq,
 0,-3.2960152181,4.2112534839,-0.6870428516\Bq,0,-3.3305930501,4.432197
 3403,0.1847301612\Bq,0,-3.2921732368,4.1867041665,-0.7839065197\Bq,0,-
 3.3113831434,4.3094507534,-0.2995881792\Bq,0,-3.3142521705,4.430939902
 7,-0.2272545406\Bq,0,-3.3065682079,4.381841268,-0.4209818767\Bq,0,-3.3
 180941519,4.4554892201,-0.1303908725\Bq,0,-3.3027262265,4.3572919506,-
 0.5178455448\Bq,0,-3.3219361332,4.4800385375,-0.0335272044\Bq,0,-3.298
 8842452,4.3327426332,-0.6147092129\Bq,0,-3.3257781145,4.5045878549,0.0
 633364637\Bq,0,-3.2950422639,4.3081933159,-0.711572881\Bq,0,-3.3296200
 958,4.5291371722,0.1602001318\Bq,0,-3.2912002825,4.2836439985,-0.80843
 65491\Bq,0,-3.3104101892,4.4063905854,-0.3241182086\Bq,0,-3.2629784499
 ,-0.4160516942,1.0032101947\Bq,0,-3.2552944873,-0.465150329,0.80948285
 85\Bq,0,-3.2668204312,-0.3915023768,1.1000738628\Bq,0,-3.2514525059,-0
 .4896996464,0.7126191904\Bq,0,-3.2706624126,-0.3669530595,1.1969375308
 \Bq,0,-3.2476105246,-0.5142489637,0.6157555223\Bq,0,-3.2745043939,-0.3
 424037421,1.2938011989\Bq,0,-3.2437685433,-0.5387982811,0.5188918542\B
 q,0,-3.2783463752,-0.3178544247,1.390664867\Bq,0,-3.2399265619,-0.5633
 475985,0.4220281861\Bq,0,-3.2591364686,-0.4406010116,0.9063465266\Bq,0
 ,-3.2620054957,-0.3191118623,0.9786801652\Bq,0,-3.254321533,-0.3682104
 97,0.7849528291\Bq,0,-3.265847477,-0.2945625449,1.0755438333\Bq,0,-3.2
 504795517,-0.3927598144,0.688089161\Bq,0,-3.2696894583,-0.2700132275,1
 .1724075014\Bq,0,-3.2466375704,-0.4173091318,0.5912254929\Bq,0,-3.2735
 314397,-0.2454639102,1.2692711695\Bq,0,-3.242795589,-0.4418584492,0.49
 43618248\Bq,0,-3.277373421,-0.2209145928,1.3661348376\Bq,0,-3.23895360
 77,-0.4664077665,0.3974981567\Bq,0,-3.2581635144,-0.3436611797,0.88181
 64971\Bq,0,-3.2610325415,-0.2221720303,0.9541501358\Bq,0,-3.2533485788
 ,-0.2712706651,0.7604227996\Bq,0,-3.2648745228,-0.197622713,1.05101380
 39\Bq,0,-3.2495065975,-0.2958199825,0.6635591315\Bq,0,-3.2687165041,-0
 .1730733956,1.147877472\Bq,0,-3.2456646161,-0.3203692998,0.5666954635\
 Bq,0,-3.2725584855,-0.1485240782,1.2447411401\Bq,0,-3.2418226348,-0.34
 49186172,0.4698317954\Bq,0,-3.2764004668,-0.1239747608,1.3416048082\Bq
 ,0,-3.2379806535,-0.3694679346,0.3729681273\Bq,0,-3.2571905601,-0.2467
 213477,0.8572864677\Bq,0,-3.2600595872,-0.1252321984,0.9296201064\Bq,0
 ,-3.2523756246,-0.1743308332,0.7358927702\Bq,0,-3.2639015686,-0.100682
 881,1.0264837745\Bq,0,-3.2485336433,-0.1988801505,0.6390291021\Bq,0,-3
 .2677435499,-0.0761335637,1.1233474426\Bq,0,-3.2446916619,-0.223429467
 9,0.542165434\Bq,0,-3.2715855312,-0.0515842463,1.2202111107\Bq,0,-3.24
 08496806,-0.2479787853,0.4453017659\Bq,0,-3.2754275126,-0.0270349289,1
 .3170747787\Bq,0,-3.2370076993,-0.2725281027,0.3484380978\Bq,0,-3.2562
 176059,-0.1497815158,0.8327564383\Bq,0,-3.259086633,-0.0282923665,0.90
 5090077\Bq,0,-3.2514026704,-0.0773910012,0.7113627408\Bq,0,-3.26292861
 43,-0.0037430491,1.001953745\Bq,0,-3.247560689,-0.1019403186,0.6144990
 727\Bq,0,-3.2667705957,0.0208062683,1.0988174131\Bq,0,-3.2437187077,-0
 .126489636,0.5176354046\Bq,0,-3.270612577,0.0453555857,1.1956810812\Bq
 ,0,-3.2398767264,-0.1510389533,0.4207717365\Bq,0,-3.2744545583,0.06990
 4903,1.2925447493\Bq,0,-3.236034745,-0.1755882707,0.3239080684\Bq,0,-3
 .2552446517,-0.0528416838,0.8082264089\Bq,0,-3.2581136788,0.0686474655
 ,0.8805600475\Bq,0,-3.2504297161,0.0195488307,0.6868327113\Bq,0,-3.261
 9556601,0.0931967828,0.9774237156\Bq,0,-3.2465877348,-0.0050004867,0.5
 899690433\Bq,0,-3.2657976414,0.1177461002,1.0742873837\Bq,0,-3.2427457
 535,-0.029549804,0.4931053752\Bq,0,-3.2696396228,0.1422954176,1.171151
 0518\Bq,0,-3.2389037721,-0.0540991214,0.3962417071\Bq,0,-3.2734816041,
 0.166844735,1.2680147199\Bq,0,-3.2350617908,-0.0786484388,0.299378039\
 Bq,0,-3.2542716975,0.0440981481,0.7836963794\Bq,0,-3.2571407246,0.1655
 872974,0.8560300181\Bq,0,-3.2494567619,0.1164886627,0.6623026819\Bq,0,
 -3.2609827059,0.1901366148,0.9528936862\Bq,0,-3.2456147806,0.091939345
 3,0.5654390138\Bq,0,-3.2648246872,0.2146859322,1.0497573543\Bq,0,-3.24
 17727992,0.0673900279,0.4685753457\\Version=ES64L-G09RevD.01\HF=-847.0
 032898\RMSD=7.493e-09\Dipole=0.0186808,0.0336671,0.0011595\Quadrupole=
 4.9072795,4.7288219,-9.6361014,-0.2850201,2.3867064,-0.880172\PG=C01 [
 X(C22H14)]\\@


 EDUCATION DOESN'T COST 
           ... IT PAYS!

 -- POSTMARK, UNIV. OF MISSISSIPPI, DEC 78
 Job cpu time:       0 days  3 hours 56 minutes 24.9 seconds.
 File lengths (MBytes):  RWF=    184 Int=      0 D2E=      0 Chk=     19 Scr=      1
 Normal termination of Gaussian 09 at Fri Aug 21 20:46:54 2020.
