 Entering Gaussian System, Link 0=g09
 Input=input_cycle_02_batch_01000.com
 Output=input_cycle_02_batch_01000.log
 Initial command:
 /share/programs/GAUSSIAN/64/g09/l1.exe "/scratch/yannick.30042/Gau-2239640.inp" -scrdir="/scratch/yannick.30042/"
 Entering Link 1 = /share/programs/GAUSSIAN/64/g09/l1.exe PID=   2239641.
  
 Copyright (c) 1988,1990,1992,1993,1995,1998,2003,2009,2013,
            Gaussian, Inc.  All Rights Reserved.
  
 This is part of the Gaussian(R) 09 program.  It is based on
 the Gaussian(R) 03 system (copyright 2003, Gaussian, Inc.),
 the Gaussian(R) 98 system (copyright 1998, Gaussian, Inc.),
 the Gaussian(R) 94 system (copyright 1995, Gaussian, Inc.),
 the Gaussian 92(TM) system (copyright 1992, Gaussian, Inc.),
 the Gaussian 90(TM) system (copyright 1990, Gaussian, Inc.),
 the Gaussian 88(TM) system (copyright 1988, Gaussian, Inc.),
 the Gaussian 86(TM) system (copyright 1986, Carnegie Mellon
 University), and the Gaussian 82(TM) system (copyright 1983,
 Carnegie Mellon University). Gaussian is a federally registered
 trademark of Gaussian, Inc.
  
 This software contains proprietary and confidential information,
 including trade secrets, belonging to Gaussian, Inc.
  
 This software is provided under written license and may be
 used, copied, transmitted, or stored only in accord with that
 written license.
  
 The following legend is applicable only to US Government
 contracts under FAR:
  
                    RESTRICTED RIGHTS LEGEND
  
 Use, reproduction and disclosure by the US Government is
 subject to restrictions as set forth in subparagraphs (a)
 and (c) of the Commercial Computer Software - Restricted
 Rights clause in FAR 52.227-19.
  
 Gaussian, Inc.
 340 Quinnipiac St., Bldg. 40, Wallingford CT 06492
  
  
 ---------------------------------------------------------------
 Warning -- This program may not be used in any manner that
 competes with the business of Gaussian, Inc. or will provide
 assistance to any competitor of Gaussian, Inc.  The licensee
 of this program is prohibited from giving any competitor of
 Gaussian, Inc. access to this program.  By using this program,
 the user acknowledges that Gaussian, Inc. is engaged in the
 business of creating and licensing software in the field of
 computational chemistry and represents and warrants to the
 licensee that it is not a competitor of Gaussian, Inc. and that
 it will not use this program in any manner prohibited above.
 ---------------------------------------------------------------
  

 Cite this work as:
 Gaussian 09, Revision D.01,
 M. J. Frisch, G. W. Trucks, H. B. Schlegel, G. E. Scuseria, 
 M. A. Robb, J. R. Cheeseman, G. Scalmani, V. Barone, B. Mennucci, 
 G. A. Petersson, H. Nakatsuji, M. Caricato, X. Li, H. P. Hratchian, 
 A. F. Izmaylov, J. Bloino, G. Zheng, J. L. Sonnenberg, M. Hada, 
 M. Ehara, K. Toyota, R. Fukuda, J. Hasegawa, M. Ishida, T. Nakajima, 
 Y. Honda, O. Kitao, H. Nakai, T. Vreven, J. A. Montgomery, Jr., 
 J. E. Peralta, F. Ogliaro, M. Bearpark, J. J. Heyd, E. Brothers, 
 K. N. Kudin, V. N. Staroverov, T. Keith, R. Kobayashi, J. Normand, 
 K. Raghavachari, A. Rendell, J. C. Burant, S. S. Iyengar, J. Tomasi, 
 M. Cossi, N. Rega, J. M. Millam, M. Klene, J. E. Knox, J. B. Cross, 
 V. Bakken, C. Adamo, J. Jaramillo, R. Gomperts, R. E. Stratmann, 
 O. Yazyev, A. J. Austin, R. Cammi, C. Pomelli, J. W. Ochterski, 
 R. L. Martin, K. Morokuma, V. G. Zakrzewski, G. A. Voth, 
 P. Salvador, J. J. Dannenberg, S. Dapprich, A. D. Daniels, 
 O. Farkas, J. B. Foresman, J. V. Ortiz, J. Cioslowski, 
 and D. J. Fox, Gaussian, Inc., Wallingford CT, 2013.
 
 ******************************************
 Gaussian 09:  ES64L-G09RevD.01 24-Apr-2013
                21-Aug-2020 
 ******************************************
 %nproc=8
 Will use up to    8 processors via shared memory.
 %mem=1000MB
 ----------------------------------------
 # rb3lyp/6-311+g** NMR geom=connectivity
 ----------------------------------------
 1/38=1,57=2/1;
 2/12=2,17=6,18=5,40=1/2;
 3/5=4,6=6,7=111,11=2,16=1,25=1,30=1,74=-5,116=1/1,2,8,3;
 4//1;
 5/5=2,38=5/2;
 8/6=1,10=90,11=11/1;
 10/13=100,45=16/2;
 6/7=2,8=2,9=2,10=2,28=1/1;
 99/9=1/99;
 -----
 Title
 -----
 Symbolic Z-matrix:
 Charge =  0 Multiplicity = 1
 C                    -4.05006  -0.57719   0.81367 
 H                    -5.02638  -1.00827   1.00248 
 C                    -3.93816   0.66178   0.24009 
 H                    -4.82524   1.23389  -0.01113 
 C                    -2.67684   1.24332   0.00576 
 C                    -1.49741   0.50515   0.28483 
 C                    -1.65083  -0.73387   0.9404 
 H                    -0.77136  -1.2731    1.26338 
 C                    -2.88985  -1.2624    1.19943 
 H                    -2.96837  -2.21246   1.71527 
 C                    -2.57732   2.59637  -0.41929 
 H                    -3.48707   3.14122  -0.64741 
 C                    -1.37419   3.21479  -0.4364 
 H                    -1.29973   4.2742   -0.65781 
 C                    -0.17195   2.49941  -0.17346 
 C                    -0.20439   1.10184   0.01927 
 C                     1.05135   3.20426  -0.06762 
 H                     1.04273   4.28195  -0.1897 
 C                     2.19421   2.54874   0.25796 
 H                     3.11685   3.09128   0.43347 
 C                     2.22165   1.13366   0.2935 
 C                     1.04869   0.39455   0.03024 
 C                     3.44834   0.46146   0.55739 
 H                     4.30958   1.06061   0.83348 
 C                     3.54273  -0.88559   0.47495 
 H                     4.47315  -1.39397   0.70388 
 C                     2.44901  -1.64744  -0.01963 
 C                     1.21507  -1.00573  -0.30136 
 C                     0.25311  -1.74344  -1.02166 
 H                    -0.65414  -1.25351  -1.34628 
 C                     0.44942  -3.06286  -1.34138 
 H                    -0.30832  -3.59443  -1.90541 
 C                     1.62517  -3.7208   -0.95525 
 H                     1.767    -4.76874  -1.1927 
 C                     2.61099  -3.01442  -0.31831 
 H                     3.55256  -3.49028  -0.06464 
 Bq                   -3.80151   3.21731  -0.55842 
 Bq                   -3.82072   3.34005  -0.0741 
 Bq                   -3.82359   3.46154  -0.00177 
 Bq                   -3.8159    3.41244  -0.1955 
 Bq                   -3.82743   3.48609   0.09509 
 Bq                   -3.81206   3.38789  -0.29236 
 Bq                   -3.83127   3.51064   0.19196 
 Bq                   -3.80822   3.36334  -0.38923 
 Bq                   -3.83511   3.53519   0.28882 
 Bq                   -3.80438   3.33879  -0.48609 
 Bq                   -3.83896   3.55974   0.38568 
 Bq                   -3.80054   3.31425  -0.58295 
 Bq                   -3.81975   3.43699  -0.09863 
 Bq                   -3.82262   3.55848  -0.0263 
 Bq                   -3.81493   3.50938  -0.22003 
 Bq                   -3.82646   3.58303   0.07056 
 Bq                   -3.81109   3.48483  -0.31689 
 Bq                   -3.8303    3.60758   0.16743 
 Bq                   -3.80725   3.46028  -0.41376 
 Bq                   -3.83414   3.63213   0.26429 
 Bq                   -3.80341   3.43573  -0.51062 
 Bq                   -3.83798   3.65668   0.36115 
 Bq                   -3.79956   3.41119  -0.60748 
 Bq                   -3.81877   3.53393  -0.12316 
 Bq                   -3.82164   3.65542  -0.05083 
 Bq                   -3.81396   3.60632  -0.24456 
 Bq                   -3.82548   3.67997   0.04603 
 Bq                   -3.81012   3.58177  -0.34142 
 Bq                   -3.82933   3.70452   0.1429 
 Bq                   -3.80628   3.55722  -0.43829 
 Bq                   -3.83317   3.72907   0.23976 
 Bq                   -3.80243   3.53267  -0.53515 
 Bq                   -3.83701   3.75362   0.33662 
 Bq                   -3.79859   3.50813  -0.63201 
 Bq                   -3.8178    3.63087  -0.14769 
 Bq                   -3.82067   3.75236  -0.07536 
 Bq                   -3.81299   3.70326  -0.26909 
 Bq                   -3.82451   3.77691   0.0215 
 Bq                   -3.80914   3.67871  -0.36595 
 Bq                   -3.82835   3.80146   0.11837 
 Bq                   -3.8053    3.65416  -0.46282 
 Bq                   -3.8322    3.82601   0.21523 
 Bq                   -3.80146   3.62961  -0.55968 
 Bq                   -3.83604   3.85056   0.31209 
 Bq                   -3.79762   3.60507  -0.65654 
 Bq                   -3.81683   3.72781  -0.17222 
 Bq                   -3.8197    3.8493   -0.09989 
 Bq                   -3.81201   3.8002   -0.29362 
 Bq                   -3.82354   3.87385  -0.00303 
 Bq                   -3.80817   3.77565  -0.39048 
 Bq                   -3.82738   3.8984    0.09384 
 Bq                   -3.80433   3.7511   -0.48735 
 Bq                   -3.83122   3.92295   0.1907 
 Bq                   -3.80049   3.72655  -0.58421 
 Bq                   -3.83506   3.9475    0.28756 
 Bq                   -3.79665   3.70201  -0.68107 
 Bq                   -3.81586   3.82475  -0.19675 
 Bq                   -3.81872   3.94624  -0.12442 
 Bq                   -3.81104   3.89714  -0.31815 
 Bq                   -3.82257   3.97079  -0.02756 
 Bq                   -3.8072    3.87259  -0.41501 
 Bq                   -3.82641   3.99534   0.06931 
 Bq                   -3.80336   3.84804  -0.51188 
 Bq                   -3.83025   4.01989   0.16617 
 Bq                   -3.79951   3.82349  -0.60874 
 Bq                   -3.83409   4.04444   0.26303 
 Bq                   -3.79567   3.79894  -0.7056 
 Bq                   -3.81488   3.92169  -0.22128 
 Bq                   -3.81775   4.04318  -0.14895 
 Bq                   -3.81007   3.99408  -0.34268 
 Bq                   -3.82159   4.06773  -0.05209 
 Bq                   -3.80623   3.96953  -0.43954 
 Bq                   -3.82544   4.09228   0.04478 
 Bq                   -3.80238   3.94498  -0.53641 
 Bq                   -3.82928   4.11683   0.14164 
 Bq                   -3.79854   3.92043  -0.63327 
 Bq                   -3.83312   4.14138   0.2385 
 Bq                   -3.7947    3.89588  -0.73013 
 Bq                   -3.81391   4.01863  -0.24581 
 Bq                   -3.81678   4.14012  -0.17348 
 Bq                   -3.80909   4.09102  -0.36721 
 Bq                   -3.82062   4.16467  -0.07662 
 Bq                   -3.80525   4.06647  -0.46407 
 Bq                   -3.82446   4.18922   0.02025 
 Bq                   -3.80141   4.04192  -0.56094 
 Bq                   -3.8283    4.21377   0.11711 
 Bq                   -3.79757   4.01737  -0.6578 
 Bq                   -3.83215   4.23832   0.21397 
 Bq                   -3.79373   3.99282  -0.75466 
 Bq                   -3.81294   4.11557  -0.27034 
 Bq                   -3.81581   4.23706  -0.19801 
 Bq                   -3.80812   4.18796  -0.39174 
 Bq                   -3.81965   4.26161  -0.10115 
 Bq                   -3.80428   4.16341  -0.4886 
 Bq                   -3.82349   4.28616  -0.00428 
 Bq                   -3.80044   4.13886  -0.58547 
 Bq                   -3.82733   4.31071   0.09258 
 Bq                   -3.7966    4.11431  -0.68233 
 Bq                   -3.83117   4.33526   0.18944 
 Bq                   -3.79275   4.08976  -0.77919 
 Bq                   -3.81196   4.21251  -0.29487 
 Bq                   -3.81483   4.334    -0.22254 
 Bq                   -3.80715   4.2849   -0.41627 
 Bq                   -3.81867   4.35855  -0.12568 
 Bq                   -3.80331   4.26035  -0.51313 
 Bq                   -3.82252   4.3831   -0.02881 
 Bq                   -3.79946   4.2358   -0.61 
 Bq                   -3.82636   4.40765   0.06805 
 Bq                   -3.79562   4.21125  -0.70686 
 Bq                   -3.8302    4.4322    0.16491 
 Bq                   -3.79178   4.1867   -0.80372 
 Bq                   -3.81099   4.30945  -0.3194 
 Bq                   -3.81386   4.43094  -0.24707 
 Bq                   -3.80618   4.38184  -0.4408 
 Bq                   -3.8177    4.45549  -0.15021 
 Bq                   -3.80233   4.35729  -0.53766 
 Bq                   -3.82154   4.48004  -0.05334 
 Bq                   -3.79849   4.33274  -0.63453 
 Bq                   -3.82539   4.50459   0.04352 
 Bq                   -3.79465   4.30819  -0.73139 
 Bq                   -3.82923   4.52914   0.14038 
 Bq                   -3.79081   4.28364  -0.82825 
 Bq                   -3.81002   4.40639  -0.34393 
 Bq                   -3.76259  -0.41605   0.98339 
 Bq                   -3.7549   -0.46515   0.78967 
 Bq                   -3.76643  -0.3915    1.08026 
 Bq                   -3.75106  -0.4897    0.6928 
 Bq                   -3.77027  -0.36695   1.17712 
 Bq                   -3.74722  -0.51425   0.59594 
 Bq                   -3.77411  -0.3424    1.27398 
 Bq                   -3.74338  -0.5388    0.49908 
 Bq                   -3.77795  -0.31785   1.37085 
 Bq                   -3.73953  -0.56335   0.40221 
 Bq                   -3.75874  -0.4406    0.88653 
 Bq                   -3.76161  -0.31911   0.95886 
 Bq                   -3.75393  -0.36821   0.76514 
 Bq                   -3.76545  -0.29456   1.05573 
 Bq                   -3.75009  -0.39276   0.66827 
 Bq                   -3.7693   -0.27001   1.15259 
 Bq                   -3.74624  -0.41731   0.57141 
 Bq                   -3.77314  -0.24546   1.24945 
 Bq                   -3.7424   -0.44186   0.47455 
 Bq                   -3.77698  -0.22091   1.34632 
 Bq                   -3.73856  -0.46641   0.37768 
 Bq                   -3.75777  -0.34366   0.862 
 Bq                   -3.76064  -0.22217   0.93433 
 Bq                   -3.75296  -0.27127   0.74061 
 Bq                   -3.76448  -0.19762   1.0312 
 Bq                   -3.74911  -0.29582   0.64374 
 Bq                   -3.76832  -0.17307   1.12806 
 Bq                   -3.74527  -0.32037   0.54688 
 Bq                   -3.77217  -0.14852   1.22492 
 Bq                   -3.74143  -0.34492   0.45002 
 Bq                   -3.77601  -0.12397   1.32179 
 Bq                   -3.73759  -0.36947   0.35315 
 Bq                   -3.7568   -0.24672   0.83747 
 Bq                   -3.75967  -0.12523   0.9098 
 Bq                   -3.75198  -0.17433   0.71608 
 Bq                   -3.76351  -0.10068   1.00667 
 Bq                   -3.74814  -0.19888   0.61921 
 Bq                   -3.76735  -0.07613   1.10353 
 Bq                   -3.7443   -0.22343   0.52235 
 Bq                   -3.77119  -0.05158   1.20039 
 Bq                   -3.74046  -0.24798   0.42549 
 Bq                   -3.77503  -0.02703   1.29726 
 Bq                   -3.73661  -0.27253   0.32862 
 Bq                   -3.75582  -0.14978   0.81294 
 Bq                   -3.75869  -0.02829   0.88527 
 Bq                   -3.75101  -0.07739   0.69155 
 Bq                   -3.76254  -0.00374   0.98214 
 Bq                   -3.74717  -0.10194   0.59468 
 Bq                   -3.76638   0.02081   1.079 
 Bq                   -3.74333  -0.12649   0.49782 
 Bq                   -3.77022   0.04536   1.17586 
 Bq                   -3.73948  -0.15104   0.40096 
 Bq                   -3.77406   0.0699    1.27273 
 Bq                   -3.73564  -0.17559   0.30409 
 Bq                   -3.75485  -0.05284   0.78841 
 Bq                   -3.75772   0.06865   0.86074 
 Bq                   -3.75004   0.01955   0.66702 
 Bq                   -3.76156   0.0932    0.95761 
 Bq                   -3.74619  -0.005     0.57015 
 Bq                   -3.7654    0.11775   1.05447 
 Bq                   -3.74235  -0.02955   0.47329 
 Bq                   -3.76925   0.1423    1.15133 
 Bq                   -3.73851  -0.0541    0.37643 
 Bq                   -3.77309   0.16684   1.2482 
 Bq                   -3.73467  -0.07865   0.27956 
 Bq                   -3.75388   0.0441    0.76388 
 Bq                   -3.75675   0.16559   0.83621 
 Bq                   -3.74906   0.11649   0.64249 
 Bq                   -3.76059   0.19014   0.93308 
 Bq                   -3.74522   0.09194   0.54562 
 Bq                   -3.76443   0.21469   1.02994 
 Bq                   -3.74138   0.06739   0.44876 
 Bq                   -3.76827   0.23924   1.1268 
 Bq                   -3.73754   0.04284   0.3519 
 Bq                   -3.77212   0.26378   1.22367 
 Bq                   -3.7337    0.01829   0.25503 
 Bq                   -3.75291   0.14104   0.73935 
 
 Symmetry turned off:
 Cannot cope with ghost atoms or with translation vectors.
 Stoichiometry    C22H14
 Framework group  C1[X(C22H14)]
 NUMDOF-- NAT=    36 NAtoms=   236
 Deg. of freedom     0
 Full point group                 C1      NOp   1
                          Input orientation:                          
 ---------------------------------------------------------------------
 Center     Atomic      Atomic             Coordinates (Angstroms)
 Number     Number       Type             X           Y           Z
 ---------------------------------------------------------------------
      1          6           0       -4.050056   -0.577186    0.813671
      2          1           0       -5.026380   -1.008273    1.002476
      3          6           0       -3.938155    0.661780    0.240088
      4          1           0       -4.825242    1.233889   -0.011130
      5          6           0       -2.676841    1.243325    0.005758
      6          6           0       -1.497412    0.505153    0.284825
      7          6           0       -1.650833   -0.733873    0.940403
      8          1           0       -0.771365   -1.273097    1.263375
      9          6           0       -2.889855   -1.262404    1.199431
     10          1           0       -2.968371   -2.212456    1.715268
     11          6           0       -2.577319    2.596370   -0.419293
     12          1           0       -3.487073    3.141224   -0.647406
     13          6           0       -1.374190    3.214790   -0.436403
     14          1           0       -1.299732    4.274202   -0.657814
     15          6           0       -0.171949    2.499409   -0.173459
     16          6           0       -0.204392    1.101844    0.019269
     17          6           0        1.051349    3.204256   -0.067622
     18          1           0        1.042734    4.281950   -0.189700
     19          6           0        2.194209    2.548745    0.257958
     20          1           0        3.116853    3.091285    0.433473
     21          6           0        2.221647    1.133656    0.293499
     22          6           0        1.048693    0.394553    0.030241
     23          6           0        3.448336    0.461463    0.557394
     24          1           0        4.309579    1.060605    0.833485
     25          6           0        3.542735   -0.885593    0.474946
     26          1           0        4.473147   -1.393970    0.703882
     27          6           0        2.449005   -1.647445   -0.019632
     28          6           0        1.215070   -1.005726   -0.301357
     29          6           0        0.253111   -1.743444   -1.021659
     30          1           0       -0.654136   -1.253505   -1.346285
     31          6           0        0.449419   -3.062860   -1.341378
     32          1           0       -0.308316   -3.594431   -1.905406
     33          6           0        1.625173   -3.720797   -0.955254
     34          1           0        1.767005   -4.768740   -1.192702
     35          6           0        2.610987   -3.014418   -0.318305
     36          1           0        3.552561   -3.490281   -0.064637
     37          0           0       -3.801510    3.217306   -0.558423
     38          0           0       -3.820720    3.340052   -0.074104
     39          0           0       -3.823589    3.461542   -0.001771
     40          0           0       -3.815905    3.412443   -0.195498
     41          0           0       -3.827431    3.486091    0.095093
     42          0           0       -3.812063    3.387894   -0.292362
     43          0           0       -3.831273    3.510640    0.191957
     44          0           0       -3.808221    3.363344   -0.389225
     45          0           0       -3.835115    3.535190    0.288820
     46          0           0       -3.804379    3.338795   -0.486089
     47          0           0       -3.838957    3.559739    0.385684
     48          0           0       -3.800537    3.314246   -0.582953
     49          0           0       -3.819747    3.436992   -0.098634
     50          0           0       -3.822616    3.558481   -0.026301
     51          0           0       -3.814932    3.509383   -0.220028
     52          0           0       -3.826458    3.583031    0.070563
     53          0           0       -3.811090    3.484833   -0.316892
     54          0           0       -3.830300    3.607580    0.167427
     55          0           0       -3.807248    3.460284   -0.413755
     56          0           0       -3.834142    3.632129    0.264290
     57          0           0       -3.803406    3.435735   -0.510619
     58          0           0       -3.837984    3.656679    0.361154
     59          0           0       -3.799564    3.411186   -0.607483
     60          0           0       -3.818774    3.533932   -0.123164
     61          0           0       -3.821643    3.655421   -0.050831
     62          0           0       -3.813959    3.606323   -0.244558
     63          0           0       -3.825485    3.679971    0.046033
     64          0           0       -3.810117    3.581773   -0.341422
     65          0           0       -3.829327    3.704520    0.142897
     66          0           0       -3.806275    3.557224   -0.438285
     67          0           0       -3.833169    3.729069    0.239760
     68          0           0       -3.802433    3.532675   -0.535149
     69          0           0       -3.837011    3.753619    0.336624
     70          0           0       -3.798591    3.508125   -0.632013
     71          0           0       -3.817801    3.630872   -0.147694
     72          0           0       -3.820670    3.752361   -0.075361
     73          0           0       -3.812986    3.703262   -0.269088
     74          0           0       -3.824512    3.776910    0.021503
     75          0           0       -3.809144    3.678713   -0.365952
     76          0           0       -3.828354    3.801460    0.118367
     77          0           0       -3.805302    3.654164   -0.462815
     78          0           0       -3.832196    3.826009    0.215230
     79          0           0       -3.801460    3.629614   -0.559679
     80          0           0       -3.836038    3.850558    0.312094
     81          0           0       -3.797618    3.605065   -0.656543
     82          0           0       -3.816828    3.727812   -0.172224
     83          0           0       -3.819697    3.849301   -0.099891
     84          0           0       -3.812013    3.800202   -0.293618
     85          0           0       -3.823539    3.873850   -0.003027
     86          0           0       -3.808171    3.775653   -0.390482
     87          0           0       -3.827381    3.898400    0.093837
     88          0           0       -3.804329    3.751104   -0.487345
     89          0           0       -3.831223    3.922949    0.190700
     90          0           0       -3.800487    3.726554   -0.584209
     91          0           0       -3.835065    3.947498    0.287564
     92          0           0       -3.796645    3.702005   -0.681073
     93          0           0       -3.815855    3.824752   -0.196754
     94          0           0       -3.818724    3.946241   -0.124421
     95          0           0       -3.811040    3.897142   -0.318148
     96          0           0       -3.822566    3.970790   -0.027557
     97          0           0       -3.807198    3.872593   -0.415012
     98          0           0       -3.826408    3.995339    0.069307
     99          0           0       -3.803356    3.848043   -0.511875
    100          0           0       -3.830250    4.019889    0.166170
    101          0           0       -3.799514    3.823494   -0.608739
    102          0           0       -3.834092    4.044438    0.263034
    103          0           0       -3.795672    3.798945   -0.705603
    104          0           0       -3.814882    3.921691   -0.221284
    105          0           0       -3.817751    4.043181   -0.148951
    106          0           0       -3.810067    3.994082   -0.342678
    107          0           0       -3.821593    4.067730   -0.052087
    108          0           0       -3.806225    3.969533   -0.439542
    109          0           0       -3.825435    4.092279    0.044777
    110          0           0       -3.802383    3.944983   -0.536405
    111          0           0       -3.829277    4.116829    0.141640
    112          0           0       -3.798541    3.920434   -0.633269
    113          0           0       -3.833119    4.141378    0.238504
    114          0           0       -3.794699    3.895885   -0.730133
    115          0           0       -3.813909    4.018631   -0.245814
    116          0           0       -3.816778    4.140120   -0.173481
    117          0           0       -3.809094    4.091022   -0.367208
    118          0           0       -3.820620    4.164670   -0.076617
    119          0           0       -3.805252    4.066472   -0.464072
    120          0           0       -3.824462    4.189219    0.020247
    121          0           0       -3.801410    4.041923   -0.560935
    122          0           0       -3.828304    4.213768    0.117110
    123          0           0       -3.797568    4.017374   -0.657799
    124          0           0       -3.832146    4.238318    0.213974
    125          0           0       -3.793726    3.992825   -0.754663
    126          0           0       -3.812936    4.115571   -0.270344
    127          0           0       -3.815805    4.237060   -0.198011
    128          0           0       -3.808121    4.187962   -0.391738
    129          0           0       -3.819647    4.261610   -0.101147
    130          0           0       -3.804279    4.163412   -0.488602
    131          0           0       -3.823489    4.286159   -0.004283
    132          0           0       -3.800437    4.138863   -0.585465
    133          0           0       -3.827331    4.310708    0.092580
    134          0           0       -3.796595    4.114314   -0.682329
    135          0           0       -3.831173    4.335258    0.189444
    136          0           0       -3.792753    4.089764   -0.779193
    137          0           0       -3.811963    4.212511   -0.294874
    138          0           0       -3.814832    4.334000   -0.222541
    139          0           0       -3.807148    4.284901   -0.416268
    140          0           0       -3.818674    4.358549   -0.125677
    141          0           0       -3.803306    4.260352   -0.513132
    142          0           0       -3.822516    4.383099   -0.028813
    143          0           0       -3.799464    4.235803   -0.609996
    144          0           0       -3.826358    4.407648    0.068050
    145          0           0       -3.795622    4.211253   -0.706859
    146          0           0       -3.830200    4.432197    0.164914
    147          0           0       -3.791780    4.186704   -0.803723
    148          0           0       -3.810990    4.309451   -0.319404
    149          0           0       -3.813859    4.430940   -0.247071
    150          0           0       -3.806175    4.381841   -0.440798
    151          0           0       -3.817701    4.455489   -0.150207
    152          0           0       -3.802333    4.357292   -0.537662
    153          0           0       -3.821543    4.480039   -0.053344
    154          0           0       -3.798491    4.332743   -0.634526
    155          0           0       -3.825385    4.504588    0.043520
    156          0           0       -3.794649    4.308193   -0.731389
    157          0           0       -3.829227    4.529137    0.140384
    158          0           0       -3.790807    4.283644   -0.828253
    159          0           0       -3.810017    4.406391   -0.343935
    160          0           0       -3.762586   -0.416052    0.983394
    161          0           0       -3.754902   -0.465150    0.789667
    162          0           0       -3.766428   -0.391502    1.080258
    163          0           0       -3.751060   -0.489700    0.692803
    164          0           0       -3.770270   -0.366953    1.177121
    165          0           0       -3.747218   -0.514249    0.595939
    166          0           0       -3.774112   -0.342404    1.273985
    167          0           0       -3.743376   -0.538798    0.499076
    168          0           0       -3.777954   -0.317854    1.370849
    169          0           0       -3.739534   -0.563348    0.402212
    170          0           0       -3.758744   -0.440601    0.886530
    171          0           0       -3.761613   -0.319112    0.958864
    172          0           0       -3.753929   -0.368210    0.765137
    173          0           0       -3.765455   -0.294563    1.055728
    174          0           0       -3.750087   -0.392760    0.668273
    175          0           0       -3.769297   -0.270013    1.152591
    176          0           0       -3.746245   -0.417309    0.571409
    177          0           0       -3.773139   -0.245464    1.249455
    178          0           0       -3.742403   -0.441858    0.474546
    179          0           0       -3.776981   -0.220915    1.346319
    180          0           0       -3.738561   -0.466408    0.377682
    181          0           0       -3.757771   -0.343661    0.862000
    182          0           0       -3.760640   -0.222172    0.934334
    183          0           0       -3.752956   -0.271271    0.740606
    184          0           0       -3.764482   -0.197623    1.031197
    185          0           0       -3.749114   -0.295820    0.643743
    186          0           0       -3.768324   -0.173073    1.128061
    187          0           0       -3.745272   -0.320369    0.546879
    188          0           0       -3.772166   -0.148524    1.224925
    189          0           0       -3.741430   -0.344919    0.450015
    190          0           0       -3.776008   -0.123975    1.321788
    191          0           0       -3.737588   -0.369468    0.353152
    192          0           0       -3.756798   -0.246721    0.837470
    193          0           0       -3.759667   -0.125232    0.909804
    194          0           0       -3.751983   -0.174331    0.716076
    195          0           0       -3.763509   -0.100683    1.006667
    196          0           0       -3.748141   -0.198880    0.619213
    197          0           0       -3.767351   -0.076134    1.103531
    198          0           0       -3.744299   -0.223429    0.522349
    199          0           0       -3.771193   -0.051584    1.200395
    200          0           0       -3.740457   -0.247979    0.425485
    201          0           0       -3.775035   -0.027035    1.297258
    202          0           0       -3.736615   -0.272528    0.328622
    203          0           0       -3.755825   -0.149782    0.812940
    204          0           0       -3.758694   -0.028292    0.885274
    205          0           0       -3.751010   -0.077391    0.691546
    206          0           0       -3.762536   -0.003743    0.982137
    207          0           0       -3.747168   -0.101940    0.594683
    208          0           0       -3.766378    0.020806    1.079001
    209          0           0       -3.743326   -0.126490    0.497819
    210          0           0       -3.770220    0.045356    1.175865
    211          0           0       -3.739484   -0.151039    0.400955
    212          0           0       -3.774062    0.069905    1.272728
    213          0           0       -3.735642   -0.175588    0.304092
    214          0           0       -3.754852   -0.052842    0.788410
    215          0           0       -3.757721    0.068647    0.860744
    216          0           0       -3.750037    0.019549    0.667016
    217          0           0       -3.761563    0.093197    0.957607
    218          0           0       -3.746195   -0.005000    0.570153
    219          0           0       -3.765405    0.117746    1.054471
    220          0           0       -3.742353   -0.029550    0.473289
    221          0           0       -3.769247    0.142295    1.151335
    222          0           0       -3.738511   -0.054099    0.376425
    223          0           0       -3.773089    0.166845    1.248198
    224          0           0       -3.734669   -0.078648    0.279562
    225          0           0       -3.753879    0.044098    0.763880
    226          0           0       -3.756748    0.165587    0.836214
    227          0           0       -3.749064    0.116489    0.642486
    228          0           0       -3.760590    0.190137    0.933077
    229          0           0       -3.745222    0.091939    0.545623
    230          0           0       -3.764432    0.214686    1.029941
    231          0           0       -3.741380    0.067390    0.448759
    232          0           0       -3.768274    0.239235    1.126805
    233          0           0       -3.737538    0.042841    0.351895
    234          0           0       -3.772116    0.263785    1.223668
    235          0           0       -3.733696    0.018291    0.255032
    236          0           0       -3.752906    0.141038    0.739350
 ---------------------------------------------------------------------
 Rotational constants (GHZ):      0.4529074      0.2836956      0.1879557
 Standard basis: 6-311+G(d,p) (5D, 7F)
 Warning:  center  37 has no basis functions!
 Warning:  center  38 has no basis functions!
 Warning:  center  39 has no basis functions!
 Warning:  center  40 has no basis functions!
 Warning:  center  41 has no basis functions!
 Warning:  center  42 has no basis functions!
 Warning:  center  43 has no basis functions!
 Warning:  center  44 has no basis functions!
 Warning:  center  45 has no basis functions!
 Warning:  center  46 has no basis functions!
 Warning:  center  47 has no basis functions!
 Warning:  center  48 has no basis functions!
 Warning:  center  49 has no basis functions!
 Warning:  center  50 has no basis functions!
 Warning:  center  51 has no basis functions!
 Warning:  center  52 has no basis functions!
 Warning:  center  53 has no basis functions!
 Warning:  center  54 has no basis functions!
 Warning:  center  55 has no basis functions!
 Warning:  center  56 has no basis functions!
 Warning:  center  57 has no basis functions!
 Warning:  center  58 has no basis functions!
 Warning:  center  59 has no basis functions!
 Warning:  center  60 has no basis functions!
 Warning:  center  61 has no basis functions!
 Warning:  center  62 has no basis functions!
 Warning:  center  63 has no basis functions!
 Warning:  center  64 has no basis functions!
 Warning:  center  65 has no basis functions!
 Warning:  center  66 has no basis functions!
 Warning:  center  67 has no basis functions!
 Warning:  center  68 has no basis functions!
 Warning:  center  69 has no basis functions!
 Warning:  center  70 has no basis functions!
 Warning:  center  71 has no basis functions!
 Warning:  center  72 has no basis functions!
 Warning:  center  73 has no basis functions!
 Warning:  center  74 has no basis functions!
 Warning:  center  75 has no basis functions!
 Warning:  center  76 has no basis functions!
 Warning:  center  77 has no basis functions!
 Warning:  center  78 has no basis functions!
 Warning:  center  79 has no basis functions!
 Warning:  center  80 has no basis functions!
 Warning:  center  81 has no basis functions!
 Warning:  center  82 has no basis functions!
 Warning:  center  83 has no basis functions!
 Warning:  center  84 has no basis functions!
 Warning:  center  85 has no basis functions!
 Warning:  center  86 has no basis functions!
 Warning:  center  87 has no basis functions!
 Warning:  center  88 has no basis functions!
 Warning:  center  89 has no basis functions!
 Warning:  center  90 has no basis functions!
 Warning:  center  91 has no basis functions!
 Warning:  center  92 has no basis functions!
 Warning:  center  93 has no basis functions!
 Warning:  center  94 has no basis functions!
 Warning:  center  95 has no basis functions!
 Warning:  center  96 has no basis functions!
 Warning:  center  97 has no basis functions!
 Warning:  center  98 has no basis functions!
 Warning:  center  99 has no basis functions!
 Warning:  center 100 has no basis functions!
 Warning:  center 101 has no basis functions!
 Warning:  center 102 has no basis functions!
 Warning:  center 103 has no basis functions!
 Warning:  center 104 has no basis functions!
 Warning:  center 105 has no basis functions!
 Warning:  center 106 has no basis functions!
 Warning:  center 107 has no basis functions!
 Warning:  center 108 has no basis functions!
 Warning:  center 109 has no basis functions!
 Warning:  center 110 has no basis functions!
 Warning:  center 111 has no basis functions!
 Warning:  center 112 has no basis functions!
 Warning:  center 113 has no basis functions!
 Warning:  center 114 has no basis functions!
 Warning:  center 115 has no basis functions!
 Warning:  center 116 has no basis functions!
 Warning:  center 117 has no basis functions!
 Warning:  center 118 has no basis functions!
 Warning:  center 119 has no basis functions!
 Warning:  center 120 has no basis functions!
 Warning:  center 121 has no basis functions!
 Warning:  center 122 has no basis functions!
 Warning:  center 123 has no basis functions!
 Warning:  center 124 has no basis functions!
 Warning:  center 125 has no basis functions!
 Warning:  center 126 has no basis functions!
 Warning:  center 127 has no basis functions!
 Warning:  center 128 has no basis functions!
 Warning:  center 129 has no basis functions!
 Warning:  center 130 has no basis functions!
 Warning:  center 131 has no basis functions!
 Warning:  center 132 has no basis functions!
 Warning:  center 133 has no basis functions!
 Warning:  center 134 has no basis functions!
 Warning:  center 135 has no basis functions!
 Warning:  center 136 has no basis functions!
 Warning:  center 137 has no basis functions!
 Warning:  center 138 has no basis functions!
 Warning:  center 139 has no basis functions!
 Warning:  center 140 has no basis functions!
 Warning:  center 141 has no basis functions!
 Warning:  center 142 has no basis functions!
 Warning:  center 143 has no basis functions!
 Warning:  center 144 has no basis functions!
 Warning:  center 145 has no basis functions!
 Warning:  center 146 has no basis functions!
 Warning:  center 147 has no basis functions!
 Warning:  center 148 has no basis functions!
 Warning:  center 149 has no basis functions!
 Warning:  center 150 has no basis functions!
 Warning:  center 151 has no basis functions!
 Warning:  center 152 has no basis functions!
 Warning:  center 153 has no basis functions!
 Warning:  center 154 has no basis functions!
 Warning:  center 155 has no basis functions!
 Warning:  center 156 has no basis functions!
 Warning:  center 157 has no basis functions!
 Warning:  center 158 has no basis functions!
 Warning:  center 159 has no basis functions!
 Warning:  center 160 has no basis functions!
 Warning:  center 161 has no basis functions!
 Warning:  center 162 has no basis functions!
 Warning:  center 163 has no basis functions!
 Warning:  center 164 has no basis functions!
 Warning:  center 165 has no basis functions!
 Warning:  center 166 has no basis functions!
 Warning:  center 167 has no basis functions!
 Warning:  center 168 has no basis functions!
 Warning:  center 169 has no basis functions!
 Warning:  center 170 has no basis functions!
 Warning:  center 171 has no basis functions!
 Warning:  center 172 has no basis functions!
 Warning:  center 173 has no basis functions!
 Warning:  center 174 has no basis functions!
 Warning:  center 175 has no basis functions!
 Warning:  center 176 has no basis functions!
 Warning:  center 177 has no basis functions!
 Warning:  center 178 has no basis functions!
 Warning:  center 179 has no basis functions!
 Warning:  center 180 has no basis functions!
 Warning:  center 181 has no basis functions!
 Warning:  center 182 has no basis functions!
 Warning:  center 183 has no basis functions!
 Warning:  center 184 has no basis functions!
 Warning:  center 185 has no basis functions!
 Warning:  center 186 has no basis functions!
 Warning:  center 187 has no basis functions!
 Warning:  center 188 has no basis functions!
 Warning:  center 189 has no basis functions!
 Warning:  center 190 has no basis functions!
 Warning:  center 191 has no basis functions!
 Warning:  center 192 has no basis functions!
 Warning:  center 193 has no basis functions!
 Warning:  center 194 has no basis functions!
 Warning:  center 195 has no basis functions!
 Warning:  center 196 has no basis functions!
 Warning:  center 197 has no basis functions!
 Warning:  center 198 has no basis functions!
 Warning:  center 199 has no basis functions!
 Warning:  center 200 has no basis functions!
 Warning:  center 201 has no basis functions!
 Warning:  center 202 has no basis functions!
 Warning:  center 203 has no basis functions!
 Warning:  center 204 has no basis functions!
 Warning:  center 205 has no basis functions!
 Warning:  center 206 has no basis functions!
 Warning:  center 207 has no basis functions!
 Warning:  center 208 has no basis functions!
 Warning:  center 209 has no basis functions!
 Warning:  center 210 has no basis functions!
 Warning:  center 211 has no basis functions!
 Warning:  center 212 has no basis functions!
 Warning:  center 213 has no basis functions!
 Warning:  center 214 has no basis functions!
 Warning:  center 215 has no basis functions!
 Warning:  center 216 has no basis functions!
 Warning:  center 217 has no basis functions!
 Warning:  center 218 has no basis functions!
 Warning:  center 219 has no basis functions!
 Warning:  center 220 has no basis functions!
 Warning:  center 221 has no basis functions!
 Warning:  center 222 has no basis functions!
 Warning:  center 223 has no basis functions!
 Warning:  center 224 has no basis functions!
 Warning:  center 225 has no basis functions!
 Warning:  center 226 has no basis functions!
 Warning:  center 227 has no basis functions!
 Warning:  center 228 has no basis functions!
 Warning:  center 229 has no basis functions!
 Warning:  center 230 has no basis functions!
 Warning:  center 231 has no basis functions!
 Warning:  center 232 has no basis functions!
 Warning:  center 233 has no basis functions!
 Warning:  center 234 has no basis functions!
 Warning:  center 235 has no basis functions!
 Warning:  center 236 has no basis functions!
   568 basis functions,   904 primitive gaussians,   590 cartesian basis functions
    73 alpha electrons       73 beta electrons
       nuclear repulsion energy      1610.9176155625 Hartrees.
 NAtoms=  236 NActive=  236 NUniq=  236 SFac= 1.00D+00 NAtFMM=   60 NAOKFM=T Big=T
 Integral buffers will be    131072 words long.
 Raffenetti 2 integral format.
 Two-electron integral symmetry is turned off.
 One-electron integrals computed using PRISM.
 NBasis=   568 RedAO= T EigKep=  1.78D-06  NBF=   568
 NBsUse=   556 1.00D-06 EigRej=  9.09D-07 NBFU=   556
 ExpMin= 4.38D-02 ExpMax= 4.56D+03 ExpMxC= 6.82D+02 IAcc=2 IRadAn=         4 AccDes= 0.00D+00
 Harris functional with IExCor=  402 and IRadAn=       4 diagonalized for initial guess.
 HarFok:  IExCor=  402 AccDes= 0.00D+00 IRadAn=         4 IDoV= 1 UseB2=F ITyADJ=14
 ICtDFT=  3500011 ScaDFX=  1.000000  1.000000  1.000000  1.000000
 FoFCou: FMM=F IPFlag=           0 FMFlag=      100000 FMFlg1=        2001
         NFxFlg=           0 DoJE=T BraDBF=F KetDBF=T FulRan=T
         wScrn=  0.000000 ICntrl=     500 IOpCl=  0 I1Cent=   200000004 NGrid=           0
         NMat0=    1 NMatS0=      1 NMatT0=    0 NMatD0=    1 NMtDS0=    0 NMtDT0=    0
 Symmetry not used in FoFCou.
 Requested convergence on RMS density matrix=1.00D-08 within 128 cycles.
 Requested convergence on MAX density matrix=1.00D-06.
 Requested convergence on             energy=1.00D-06.
 No special actions if energy rises.
 SCF Done:  E(RB3LYP) =  -847.003289847     A.U. after   15 cycles
            NFock= 15  Conv=0.75D-08     -V/T= 2.0040
 DoSCS=F DFT=T ScalE2(SS,OS)=  1.000000  1.000000
 Range of M.O.s used for correlation:     1   556
 NBasis=   568 NAE=    73 NBE=    73 NFC=     0 NFV=     0
 NROrb=    556 NOA=    73 NOB=    73 NVA=   483 NVB=   483

 **** Warning!!: The largest alpha MO coefficient is  0.10971037D+03

          Differentiating once with respect to magnetic field using GIAOs.
          Electric field/nuclear overlap derivatives assumed to be zero.
 FoFCou: FMM=F IPFlag=           0 FMFlag=      100000 FMFlg1=        2001
         NFxFlg=           0 DoJE=F BraDBF=F KetDBF=T FulRan=T
         wScrn=  0.000000 ICntrl=    6100 IOpCl=  0 I1Cent=           7 NGrid=         236
         NMat0=    1 NMatS0=      1 NMatT0=    0 NMatD0=    1 NMtDS0=    0 NMtDT0=    0
 Symmetry not used in FoFCou.
 FoFJK:  IHMeth= 1 ICntrl=    6127 DoSepK=F KAlg= 0 I1Cent=   0 FoldK=F
 IRaf=         1 NMat=   1 IRICut=       1 DoRegI=T DoRafI=F ISym2E= 0.
          There are     3 degrees of freedom in the 1st order CPHF.  IDoFFX=0 NUNeed=     3.
      3 vectors produced by pass  0 Test12= 1.18D-12 3.33D-08 XBig12= 2.07D+03 9.18D+00.
 AX will form     3 AO Fock derivatives at one time.
      3 vectors produced by pass  1 Test12= 1.18D-12 3.33D-08 XBig12= 3.56D+00 8.03D-01.
      3 vectors produced by pass  2 Test12= 1.18D-12 3.33D-08 XBig12= 2.10D-02 6.92D-02.
      3 vectors produced by pass  3 Test12= 1.18D-12 3.33D-08 XBig12= 5.45D-05 1.89D-03.
      3 vectors produced by pass  4 Test12= 1.18D-12 3.33D-08 XBig12= 1.20D-07 7.79D-05.
      3 vectors produced by pass  5 Test12= 1.18D-12 3.33D-08 XBig12= 4.02D-10 4.73D-06.
      3 vectors produced by pass  6 Test12= 1.18D-12 3.33D-08 XBig12= 1.32D-12 2.61D-07.
 InvSVY:  IOpt=1 It=  1 EMax= 2.13D-14
 Solved reduced A of dimension    21 with     3 vectors.
 Calculating GIAO nuclear magnetic shielding tensors.
 SCF GIAO Magnetic shielding tensor (ppm):
      1  C    Isotropic =    53.8139   Anisotropy =   178.0260
   XX=   -41.4327   YX=   -32.3458   ZX=    10.0287
   XY=   -28.3572   YY=    59.0527   ZY=    55.1899
   XZ=    13.1759   YZ=    58.7550   ZZ=   143.8218
   Eigenvalues:   -53.8775    42.8214   172.4979
      2  H    Isotropic =    24.3095   Anisotropy =     4.8536
   XX=    25.5771   YX=    -1.0289   ZX=     0.5661
   XY=    -0.7431   YY=    26.1829   ZY=    -2.3306
   XZ=    -0.1707   YZ=    -2.4411   ZZ=    21.1687
   Eigenvalues:    20.2108    25.1725    27.5453
      3  C    Isotropic =    51.4055   Anisotropy =   157.8639
   XX=   -31.5399   YX=    38.5015   ZX=   -17.9316
   XY=    34.3519   YY=    49.9437   ZY=    49.6392
   XZ=    -9.8383   YZ=    44.6006   ZZ=   135.8127
   Eigenvalues:   -50.5747    48.1432   156.6481
      4  H    Isotropic =    23.8290   Anisotropy =     7.1838
   XX=    25.3635   YX=     1.8486   ZX=    -0.3559
   XY=     1.9656   YY=    26.4581   ZY=    -2.4103
   XZ=    -1.2941   YZ=    -2.6614   ZZ=    19.6654
   Eigenvalues:    18.8176    24.0511    28.6182
      5  C    Isotropic =    46.0697   Anisotropy =   207.6751
   XX=   -19.2123   YX=    -4.8852   ZX=    -1.6475
   XY=     2.8938   YY=    -2.9860   ZY=    66.5656
   XZ=     2.5356   YZ=    67.9144   ZZ=   160.4073
   Eigenvalues:   -27.2455   -19.0652   184.5197
      6  C    Isotropic =    47.5218   Anisotropy =   196.9389
   XX=   -28.1552   YX=    -2.7889   ZX=    12.0660
   XY=   -14.3886   YY=    21.2063   ZY=    74.2521
   XZ=   -18.6356   YZ=    61.1113   ZZ=   149.5144
   Eigenvalues:   -30.2925    -5.9564   178.8144
      7  C    Isotropic =    49.3915   Anisotropy =   179.8333
   XX=   -12.5211   YX=    28.7048   ZX=   -24.6745
   XY=    31.5123   YY=    29.7000   ZY=    77.7459
   XZ=   -40.0095   YZ=    65.3072   ZZ=   130.9956
   Eigenvalues:   -52.1299    31.0240   169.2804
      8  H    Isotropic =    23.1586   Anisotropy =    13.5525
   XX=    28.5711   YX=     1.5482   ZX=    -3.6986
   XY=     3.2466   YY=    22.7592   ZY=    -2.1157
   XZ=    -8.3753   YZ=    -1.0821   ZZ=    18.1456
   Eigenvalues:    15.3521    21.9301    32.1936
      9  C    Isotropic =    55.1460   Anisotropy =   174.7426
   XX=    46.7071   YX=    -2.6162   ZX=    -2.8420
   XY=     0.6223   YY=    -1.6258   ZY=    92.8272
   XZ=     0.5159   YZ=    95.6598   ZZ=   120.3568
   Eigenvalues:   -52.8932    46.6901   171.6411
     10  H    Isotropic =    24.6278   Anisotropy =     7.1815
   XX=    29.1040   YX=     0.1399   ZX=    -0.3694
   XY=     0.3642   YY=    23.4778   ZY=    -1.0805
   XZ=    -2.4493   YZ=    -2.9465   ZZ=    21.3016
   Eigenvalues:    19.9703    24.4977    29.4155
     11  C    Isotropic =    51.5607   Anisotropy =   151.2142
   XX=     2.1639   YX=    40.9287   ZX=   -26.0048
   XY=    49.9131   YY=    12.2331   ZY=    42.1342
   XZ=   -15.6145   YZ=    38.6614   ZZ=   140.2851
   Eigenvalues:   -48.1951    50.5071   152.3701
     12  H    Isotropic =    23.8537   Anisotropy =     7.3815
   XX=    25.9672   YX=     2.3738   ZX=    -0.2390
   XY=     2.4320   YY=    26.3975   ZY=    -1.8291
   XZ=     0.3529   YZ=    -1.7731   ZZ=    19.1964
   Eigenvalues:    18.7149    24.0714    28.7747
     13  C    Isotropic =    52.8653   Anisotropy =   147.4265
   XX=    51.2944   YX=    19.9221   ZX=   -13.4678
   XY=    11.5478   YY=   -34.0176   ZY=    42.5079
   XZ=    -9.2241   YZ=    40.0716   ZZ=   141.3192
   Eigenvalues:   -46.5152    53.9616   151.1497
     14  H    Isotropic =    24.0156   Anisotropy =     7.3485
   XX=    28.6644   YX=     0.6281   ZX=     1.0808
   XY=     0.5926   YY=    24.4325   ZY=    -1.0823
   XZ=     1.6846   YZ=    -0.3842   ZZ=    18.9500
   Eigenvalues:    18.6430    24.4892    28.9146
     15  C    Isotropic =    46.2221   Anisotropy =   203.9048
   XX=   -27.2215   YX=    -0.0442   ZX=   -28.9124
   XY=     4.6427   YY=   -10.5571   ZY=    28.3830
   XZ=   -10.2704   YZ=    26.7376   ZZ=   176.4448
   Eigenvalues:   -30.5512   -12.9411   182.1586
     16  C    Isotropic =    51.9375   Anisotropy =   188.2004
   XX=   -19.4441   YX=     5.5046   ZX=    15.7858
   XY=    -8.3874   YY=     2.4863   ZY=    22.9264
   XZ=   -50.6243   YZ=    23.3340   ZZ=   172.7704
   Eigenvalues:   -21.0294    -0.5625   177.4045
     17  C    Isotropic =    51.9482   Anisotropy =   149.1264
   XX=    50.7296   YX=   -23.9353   ZX=   -18.4207
   XY=   -16.7271   YY=   -41.8764   ZY=    17.8662
   XZ=   -14.3278   YZ=    11.4871   ZZ=   146.9915
   Eigenvalues:   -46.7796    51.2584   151.3658
     18  H    Isotropic =    24.0122   Anisotropy =     7.5163
   XX=    28.5811   YX=    -0.0866   ZX=     1.5071
   XY=    -0.2466   YY=    24.3342   ZY=    -0.7657
   XZ=     2.5088   YZ=    -1.5208   ZZ=    19.1214
   Eigenvalues:    18.5094    24.5041    29.0231
     19  C    Isotropic =    51.7356   Anisotropy =   148.5924
   XX=     2.4559   YX=   -45.6913   ZX=   -31.2531
   XY=   -53.4448   YY=     7.4698   ZY=    -1.8888
   XZ=   -23.5601   YZ=    -1.2765   ZZ=   145.2810
   Eigenvalues:   -46.9894    51.3989   150.7972
     20  H    Isotropic =    23.9071   Anisotropy =     7.6651
   XX=    25.5796   YX=    -2.0226   ZX=     1.4905
   XY=    -1.9998   YY=    27.3706   ZY=    -0.5164
   XZ=     2.7276   YZ=    -1.1179   ZZ=    18.7711
   Eigenvalues:    18.1643    24.5398    29.0172
     21  C    Isotropic =    45.9767   Anisotropy =   203.9316
   XX=   -16.2108   YX=    13.1802   ZX=   -44.5913
   XY=     6.5714   YY=   -20.6329   ZY=     0.0949
   XZ=   -28.8984   YZ=   -13.0883   ZZ=   174.7736
   Eigenvalues:   -30.5796   -13.4215   181.9311
     22  C    Isotropic =    52.0450   Anisotropy =   188.1157
   XX=    -0.0787   YX=     2.5023   ZX=   -16.3451
   XY=    18.9327   YY=   -14.4798   ZY=   -34.4335
   XZ=   -50.6032   YZ=    19.9104   ZZ=   170.6934
   Eigenvalues:   -20.7705    -0.5500   177.4554
     23  C    Isotropic =    53.2392   Anisotropy =   146.7412
   XX=   -22.0674   YX=   -32.0012   ZX=   -49.4857
   XY=   -23.2043   YY=    44.3661   ZY=   -15.6400
   XZ=   -43.8090   YZ=   -20.2525   ZZ=   137.4189
   Eigenvalues:   -45.6776    54.3286   151.0667
     24  H    Isotropic =    23.8249   Anisotropy =     7.5289
   XX=    25.1073   YX=    -1.7330   ZX=     1.5380
   XY=    -1.5944   YY=    28.0047   ZY=     0.0879
   XZ=     1.2557   YZ=    -0.8283   ZZ=    18.3628
   Eigenvalues:    18.0848    24.5458    28.8442
     25  C    Isotropic =    51.4969   Anisotropy =   150.1066
   XX=   -28.4915   YX=    33.9684   ZX=   -52.3137
   XY=    22.0311   YY=    46.6072   ZY=    -3.8075
   XZ=   -44.5594   YZ=   -10.6355   ZZ=   136.3748
   Eigenvalues:   -48.3857    51.3083   151.5679
     26  H    Isotropic =    23.7431   Anisotropy =     7.4052
   XX=    24.0663   YX=     1.1141   ZX=     1.9989
   XY=     0.9693   YY=    28.1000   ZY=     1.6568
   XZ=     2.0795   YZ=     0.8886   ZZ=    19.0630
   Eigenvalues:    18.2615    24.2880    28.6799
     27  C    Isotropic =    45.8108   Anisotropy =   207.2710
   XX=    -2.7702   YX=    13.7697   ZX=   -61.4651
   XY=     6.5593   YY=   -12.0335   ZY=   -41.6456
   XZ=   -62.6381   YZ=   -44.9232   ZZ=   152.2361
   Eigenvalues:   -28.0803   -18.4787   183.9915
     28  C    Isotropic =    47.8398   Anisotropy =   197.2870
   XX=    19.6900   YX=    14.4398   ZX=   -60.5682
   XY=    28.5650   YY=   -19.3566   ZY=   -56.7015
   XZ=   -63.1331   YZ=   -24.4782   ZZ=   143.1859
   Eigenvalues:   -30.5979    -5.2472   179.3644
     29  C    Isotropic =    49.3441   Anisotropy =   179.7793
   XX=    -3.4110   YX=    38.3775   ZX=   -80.8875
   XY=    36.1252   YY=    25.9805   ZY=   -23.7573
   XZ=   -78.1065   YZ=    -3.9802   ZZ=   125.4627
   Eigenvalues:   -51.6645    30.4997   169.1970
     30  H    Isotropic =    23.1387   Anisotropy =    13.3222
   XX=    22.4354   YX=    -0.7013   ZX=    -0.2375
   XY=    -2.1539   YY=    28.3546   ZY=     4.5555
   XZ=    -3.4181   YZ=     8.3231   ZZ=    18.6259
   Eigenvalues:    15.2751    22.1208    32.0201
     31  C    Isotropic =    55.4410   Anisotropy =   174.9390
   XX=    17.1871   YX=   -14.0890   ZX=   -84.0024
   XY=   -17.9030   YY=    37.4745   ZY=   -50.3662
   XZ=   -84.6557   YZ=   -54.8325   ZZ=   111.6615
   Eigenvalues:   -51.9248    46.1808   172.0670
     32  H    Isotropic =    24.5337   Anisotropy =     7.2554
   XX=    24.6185   YX=    -2.5264   ZX=     0.7632
   XY=    -2.7385   YY=    27.4630   ZY=     1.0335
   XZ=     1.1913   YZ=     3.7573   ZZ=    21.5194
   Eigenvalues:    19.8987    24.3316    29.3706
     33  C    Isotropic =    53.1814   Anisotropy =   179.0596
   XX=    60.9231   YX=    35.2256   ZX=   -42.9515
   XY=    32.0226   YY=   -38.1801   ZY=   -45.5652
   XZ=   -44.2248   YZ=   -50.7831   ZZ=   136.8014
   Eigenvalues:   -55.1197    42.1095   172.5545
     34  H    Isotropic =    24.2825   Anisotropy =     5.1861
   XX=    26.7643   YX=    -0.0934   ZX=     2.5955
   XY=    -0.2993   YY=    24.8157   ZY=     0.8589
   XZ=     2.3715   YZ=     1.4580   ZZ=    21.2676
   Eigenvalues:    20.0339    25.0737    27.7399
     35  C    Isotropic =    51.5295   Anisotropy =   155.1748
   XX=    -0.5131   YX=    52.5760   ZX=   -52.1551
   XY=    55.6135   YY=    25.1843   ZY=   -14.2643
   XZ=   -45.7255   YZ=   -17.1625   ZZ=   129.9171
   Eigenvalues:   -48.3147    47.9237   154.9793
     36  H    Isotropic =    23.8384   Anisotropy =     7.3073
   XX=    24.2302   YX=     1.4459   ZX=     2.1759
   XY=     1.2147   YY=    27.1572   ZY=     2.0665
   XZ=     1.6853   YZ=     2.7775   ZZ=    20.1277
   Eigenvalues:    18.9464    23.8588    28.7099
     37  Bq   Isotropic =     7.8600   Anisotropy =    13.0084
   XX=    15.8374   YX=    -2.3135   ZX=     0.0654
   XY=    -2.1976   YY=     9.0634   ZY=    -2.6150
   XZ=    -2.0961   YZ=    -0.8743   ZZ=    -1.3209
   Eigenvalues:    -1.7149     8.7626    16.5323
     38  Bq   Isotropic =     2.5683   Anisotropy =    12.6629
   XX=     6.8011   YX=    -2.5634   ZX=    -2.3507
   XY=    -3.8210   YY=     4.3987   ZY=    -0.7494
   XZ=    -8.1306   YZ=     4.3661   ZZ=    -3.4949
   Eigenvalues:    -5.7134     2.4081    11.0102
     39  Bq   Isotropic =     1.4798   Anisotropy =    12.5859
   XX=     4.9583   YX=    -2.8312   ZX=    -1.9827
   XY=    -4.2241   YY=     3.8738   ZY=    -0.0562
   XZ=    -7.2912   YZ=     5.0984   ZZ=    -4.3927
   Eigenvalues:    -6.4113     0.9803     9.8704
     40  Bq   Isotropic =     2.9908   Anisotropy =    13.1411
   XX=     7.5138   YX=    -3.1356   ZX=    -1.8656
   XY=    -4.4572   YY=     5.5134   ZY=    -0.5445
   XZ=    -6.7927   YZ=     4.1542   ZZ=    -4.0549
   Eigenvalues:    -5.5224     2.7432    11.7515
     41  Bq   Isotropic =     0.9519   Anisotropy =    12.2755
   XX=     4.0223   YX=    -2.6874   ZX=    -1.9641
   XY=    -4.0720   YY=     3.2939   ZY=     0.1076
   XZ=    -7.3393   YZ=     5.3678   ZZ=    -4.4605
   Eigenvalues:    -6.6656     0.3857     9.1355
     42  Bq   Isotropic =     3.9530   Anisotropy =    13.3403
   XX=     9.1335   YX=    -3.2785   ZX=    -1.6343
   XY=    -4.5016   YY=     6.5291   ZY=    -0.9154
   XZ=    -6.1603   YZ=     3.3619   ZZ=    -3.8036
   Eigenvalues:    -4.8888     3.9012    12.8465
     43  Bq   Isotropic =     0.5560   Anisotropy =    11.9647
   XX=     3.2698   YX=    -2.5531   ZX=    -1.9296
   XY=    -3.9096   YY=     2.8535   ZY=     0.2427
   XZ=    -7.3240   YZ=     5.5574   ZZ=    -4.4553
   Eigenvalues:    -6.8115    -0.0530     8.5325
     44  Bq   Isotropic =     4.9694   Anisotropy =    13.4705
   XX=    10.8728   YX=    -3.3905   ZX=    -1.2004
   XY=    -4.4589   YY=     7.5459   ZY=    -1.3930
   XZ=    -5.1042   YZ=     2.2720   ZZ=    -3.5104
   Eigenvalues:    -4.1840     5.1425    13.9498
     45  Bq   Isotropic =     0.2711   Anisotropy =    11.6588
   XX=     2.6644   YX=    -2.4279   ZX=    -1.8900
   XY=    -3.7416   YY=     2.5269   ZY=     0.3599
   XZ=    -7.2697   YZ=     5.6906   ZZ=    -4.3779
   Eigenvalues:    -6.8630    -0.3673     8.0437
     46  Bq   Isotropic =     5.9107   Anisotropy =    13.5405
   XX=    12.5180   YX=    -3.4327   ZX=    -0.4993
   XY=    -4.2809   YY=     8.3725   ZY=    -1.9665
   XZ=    -3.4914   YZ=     0.8477   ZZ=    -3.1584
   Eigenvalues:    -3.5056     6.3000    14.9377
     47  Bq   Isotropic =     0.0771   Anisotropy =    11.3575
   XX=     2.1753   YX=    -2.3105   ZX=    -1.8488
   XY=    -3.5709   YY=     2.2896   ZY=     0.4651
   XZ=    -7.1881   YZ=     5.7810   ZZ=    -4.2335
   Eigenvalues:    -6.8327    -0.5848     7.6488
     48  Bq   Isotropic =     6.6056   Anisotropy =    13.5705
   XX=    13.7292   YX=    -3.3438   ZX=     0.4837
   XY=    -3.9076   YY=     8.7653   ZY=    -2.5754
   XZ=    -1.2722   YZ=    -0.8675   ZZ=    -2.6779
   Eigenvalues:    -2.9850     7.1491    15.6526
     49  Bq   Isotropic =     2.1578   Anisotropy =    12.8821
   XX=     6.1148   YX=    -2.9826   ZX=    -1.9629
   XY=    -4.3574   YY=     4.6135   ZY=    -0.2659
   XZ=    -7.1340   YZ=     4.7117   ZZ=    -4.2550
   Eigenvalues:    -6.0335     1.7610    10.7458
     50  Bq   Isotropic =     1.1096   Anisotropy =    12.5773
   XX=     4.3360   YX=    -3.0421   ZX=    -1.6184
   XY=    -4.4685   YY=     4.0706   ZY=     0.2102
   XZ=    -6.3325   YZ=     5.1299   ZZ=    -5.0777
   Eigenvalues:    -6.6934     0.5277     9.4945
     51  Bq   Isotropic =     2.3297   Anisotropy =    13.2758
   XX=     6.4281   YX=    -3.4521   ZX=    -1.3958
   XY=    -4.9043   YY=     5.6353   ZY=    -0.2859
   XZ=    -5.6792   YZ=     4.1629   ZZ=    -5.0743
   Eigenvalues:    -6.1269     1.9358    11.1802
     52  Bq   Isotropic =     0.6753   Anisotropy =    12.2124
   XX=     3.5486   YX=    -2.8576   ZX=    -1.6483
   XY=    -4.2454   YY=     3.4875   ZY=     0.3562
   XZ=    -6.4598   YZ=     5.3903   ZZ=    -5.0102
   Eigenvalues:    -6.8356     0.0446     8.8169
     53  Bq   Isotropic =     3.0908   Anisotropy =    13.5647
   XX=     7.7153   YX=    -3.6565   ZX=    -1.1252
   XY=    -5.0816   YY=     6.5552   ZY=    -0.6962
   XZ=    -5.0012   YZ=     3.3314   ZZ=    -4.9980
   Eigenvalues:    -5.7066     2.8451    12.1339
     54  Bq   Isotropic =     0.3472   Anisotropy =    11.8557
   XX=     2.9064   YX=    -2.6901   ZX=    -1.6551
   XY=    -4.0283   YY=     3.0301   ZY=     0.4660
   XZ=    -6.5167   YZ=     5.5629   ZZ=    -4.8949
   Eigenvalues:    -6.8951    -0.3143     8.2510
     55  Bq   Isotropic =     3.8825   Anisotropy =    13.7887
   XX=     9.0631   YX=    -3.8294   ZX=    -0.6834
   XY=    -5.1876   YY=     7.4370   ZY=    -1.2461
   XZ=    -3.9596   YZ=     2.1840   ZZ=    -4.8527
   Eigenvalues:    -5.2358     3.8083    13.0750
     56  Bq   Isotropic =     0.1109   Anisotropy =    11.5109
   XX=     2.3838   YX=    -2.5381   ZX=    -1.6495
   XY=    -3.8189   YY=     2.6799   ZY=     0.5540
   XZ=    -6.5267   YZ=     5.6749   ZZ=    -4.7311
   Eigenvalues:    -6.8810    -0.5713     7.7848
     57  Bq   Isotropic =     4.6020   Anisotropy =    13.9439
   XX=    10.2977   YX=    -3.9276   ZX=    -0.0332
   XY=    -5.1667   YY=     8.1032   ZY=    -1.9281
   XZ=    -2.4719   YZ=     0.6949   ZZ=    -4.5949
   Eigenvalues:    -4.7847     4.6928    13.8979
     58  Bq   Isotropic =    -0.0488   Anisotropy =    11.1775
   XX=     1.9578   YX=    -2.3993   ZX=    -1.6363
   XY=    -3.6172   YY=     2.4170   ZY=     0.6288
   XZ=    -6.5021   YZ=     5.7427   ZZ=    -4.5211
   Eigenvalues:    -6.8021    -0.7472     7.4029
     59  Bq   Isotropic =     5.1216   Anisotropy =    14.0344
   XX=    11.1706   YX=    -3.8909   ZX=     0.8159
   XY=    -4.9496   YY=     8.3415   ZY=    -2.6799
   XZ=    -0.5380   YZ=    -1.0762   ZZ=    -4.1471
   Eigenvalues:    -4.4415     5.3285    14.4779
     60  Bq   Isotropic =     1.6611   Anisotropy =    12.9387
   XX=     5.2927   YX=    -3.2424   ZX=    -1.5452
   XY=    -4.6923   YY=     4.7899   ZY=     0.0059
   XZ=    -6.0937   YZ=     4.7399   ZZ=    -5.0991
   Eigenvalues:    -6.4590     1.1555    10.2869
     61  Bq   Isotropic =     0.7200   Anisotropy =    12.4155
   XX=     3.6808   YX=    -3.1350   ZX=    -1.2607
   XY=    -4.5589   YY=     4.2074   ZY=     0.3152
   XZ=    -5.4025   YZ=     4.9326   ZZ=    -5.7281
   Eigenvalues:    -6.9759     0.1390     8.9971
     62  Bq   Isotropic =     1.6486   Anisotropy =    13.2008
   XX=     5.3005   YX=    -3.5720   ZX=    -0.9544
   XY=    -5.0833   YY=     5.6456   ZY=    -0.2285
   XZ=    -4.6197   YZ=     3.8911   ZZ=    -6.0003
   Eigenvalues:    -6.7104     1.2070    10.4492
     63  Bq   Isotropic =     0.3821   Anisotropy =    12.0207
   XX=     3.0483   YX=    -2.9368   ZX=    -1.3339
   XY=    -4.3026   YY=     3.6408   ZY=     0.4681
   XZ=    -5.6037   YZ=     5.2172   ZZ=    -5.5427
   Eigenvalues:    -7.0109    -0.2387     8.3959
     64  Bq   Isotropic =     2.2132   Anisotropy =    13.5504
   XX=     6.2585   YX=    -3.7864   ZX=    -0.6639
   XY=    -5.3147   YY=     6.4412   ZY=    -0.6806
   XZ=    -3.9220   YZ=     3.0187   ZZ=    -6.0603
   Eigenvalues:    -6.4838     1.8765    11.2468
     65  Bq   Isotropic =     0.1253   Anisotropy =    11.6395
   XX=     2.5224   YX=    -2.7566   ZX=    -1.3791
   XY=    -4.0590   YY=     3.1818   ZY=     0.5759
   XZ=    -5.7298   YZ=     5.4045   ZZ=    -5.3282
   Eigenvalues:    -6.9862    -0.5228     7.8850
     66  Bq   Isotropic =     2.7898   Anisotropy =    13.8411
   XX=     7.2317   YX=    -3.9644   ZX=    -0.2399
   XY=    -5.4787   YY=     7.1644   ZY=    -1.2813
   XZ=    -2.9321   YZ=     1.8436   ZZ=    -6.0266
   Eigenvalues:    -6.2200     2.5723    12.0173
     67  Bq   Isotropic =    -0.0589   Anisotropy =    11.2744
   XX=     2.0877   YX=    -2.5932   ZX=    -1.4061
   XY=    -3.8290   YY=     2.8195   ZY=     0.6554
   XZ=    -5.8021   YZ=     5.5236   ZZ=    -5.0840
   Eigenvalues:    -6.9070    -0.7272     7.4573
     68  Bq   Isotropic =     3.3045   Anisotropy =    14.0570
   XX=     8.0923   YX=    -4.0649   ZX=     0.3334
   XY=    -5.5209   YY=     7.6626   ZY=    -2.0175
   XZ=    -1.6091   YZ=     0.3595   ZZ=    -5.8414
   Eigenvalues:    -5.9617     3.1993    12.6758
     69  Bq   Isotropic =    -0.1810   Anisotropy =    10.9244
   XX=     1.7289   YX=    -2.4446   ZX=    -1.4203
   XY=    -3.6117   YY=     2.5392   ZY=     0.7175
   XZ=    -5.8331   YZ=     5.5934   ZZ=    -4.8111
   Eigenvalues:    -6.7790    -0.8660     7.1020
     70  Bq   Isotropic =     3.6693   Anisotropy =    14.1882
   XX=     8.6746   YX=    -4.0395   ZX=     1.0342
   XY=    -5.3807   YY=     7.7675   ZY=    -2.8231
   XZ=     0.0184   YZ=    -1.3595   ZZ=    -5.4343
   Eigenvalues:    -5.7607     3.6405    13.1281
     71  Bq   Isotropic =     1.1437   Anisotropy =    12.8148
   XX=     4.4318   YX=    -3.3493   ZX=    -1.1427
   XY=    -4.8234   YY=     4.8823   ZY=     0.0932
   XZ=    -5.0915   YZ=     4.5089   ZZ=    -5.8831
   Eigenvalues:    -6.8765     0.6207     9.6868
     72  Bq   Isotropic =     0.3473   Anisotropy =    12.1141
   XX=     3.0463   YX=    -3.1290   ZX=    -0.9350
   XY=    -4.5152   YY=     4.2616   ZY=     0.2961
   XZ=    -4.5481   YZ=     4.5714   ZZ=    -6.2659
   Eigenvalues:    -7.1980    -0.1834     8.4234
     73  Bq   Isotropic =     1.0180   Anisotropy =    12.9221
   XX=     4.2443   YX=    -3.5375   ZX=    -0.5762
   XY=    -5.0407   YY=     5.5317   ZY=    -0.3061
   XZ=    -3.6829   YZ=     3.4459   ZZ=    -6.7219
   Eigenvalues:    -7.1725     0.5938     9.6328
     74  Bq   Isotropic =     0.0983   Anisotropy =    11.7138
   XX=     2.5580   YX=    -2.9378   ZX=    -1.0414
   XY=    -4.2564   YY=     3.7315   ZY=     0.4697
   XZ=    -4.8077   YZ=     4.8966   ZZ=    -5.9947
   Eigenvalues:    -7.1442    -0.4685     7.9075
     75  Bq   Isotropic =     1.4146   Anisotropy =    13.2937
   XX=     4.9207   YX=    -3.7297   ZX=    -0.2858
   XY=    -5.2710   YY=     6.1886   ZY=    -0.7868
   XZ=    -2.9969   YZ=     2.5519   ZZ=    -6.8654
   Eigenvalues:    -7.0958     1.0626    10.2771
     76  Bq   Isotropic =    -0.0911   Anisotropy =    11.3284
   XX=     2.1428   YX=    -2.7611   ZX=    -1.1178
   XY=    -4.0100   YY=     3.2881   ZY=     0.5906
   XZ=    -4.9914   YZ=     5.1173   ZZ=    -5.7043
   Eigenvalues:    -7.0483    -0.6862     7.4611
     77  Bq   Isotropic =     1.8119   Anisotropy =    13.6119
   XX=     5.5854   YX=    -3.8825   ZX=     0.1018
   XY=    -5.4359   YY=     6.7489   ZY=    -1.4060
   XZ=    -2.0889   YZ=     1.3911   ZZ=    -6.8987
   Eigenvalues:    -6.9889     1.5381    10.8865
     78  Bq   Isotropic =    -0.2250   Anisotropy =    10.9598
   XX=     1.7934   YX=    -2.5991   ZX=    -1.1725
   XY=    -3.7773   YY=     2.9277   ZY=     0.6764
   XZ=    -5.1175   YZ=     5.2622   ZZ=    -5.3961
   Eigenvalues:    -6.9131    -0.8435     7.0815
     79  Bq   Isotropic =     2.1603   Anisotropy =    13.8537
   XX=     6.1528   YX=    -3.9618   ZX=     0.5891
   XY=    -5.4889   YY=     7.0907   ZY=    -2.1432
   XZ=    -0.9457   YZ=    -0.0250   ZZ=    -6.7625
   Eigenvalues:    -6.8727     1.9575    11.3961
     80  Bq   Isotropic =    -0.3101   Anisotropy =    10.6074
   XX=     1.5004   YX=    -2.4505   ZX=    -1.2106
   XY=    -3.5581   YY=     2.6406   ZY=     0.7394
   XZ=    -5.1978   YZ=     5.3515   ZZ=    -5.0713
   Eigenvalues:    -6.7423    -0.9495     6.7615
     81  Bq   Isotropic =     2.4037   Anisotropy =    14.0010
   XX=     6.5200   YX=    -3.9327   ZX=     1.1524
   XY=    -5.3836   YY=     7.0904   ZY=    -2.9341
   XZ=     0.3960   YZ=    -1.6187   ZZ=    -6.3993
   Eigenvalues:    -6.7731     2.2465    11.7377
     82  Bq   Isotropic =     0.6562   Anisotropy =    12.5217
   XX=     3.6107   YX=    -3.3317   ZX=    -0.7858
   XY=    -4.7809   YY=     4.8706   ZY=     0.0465
   XZ=    -4.1855   YZ=     4.1034   ZZ=    -6.5128
   Eigenvalues:    -7.2077     0.1722     9.0040
     83  Bq   Isotropic =     0.0154   Anisotropy =    11.6989
   XX=     2.4688   YX=    -3.0504   ZX=    -0.6552
   XY=    -4.3691   YY=     4.2294   ZY=     0.1959
   XZ=    -3.7957   YZ=     4.1149   ZZ=    -6.6520
   Eigenvalues:    -7.3273    -0.4412     7.8147
     84  Bq   Isotropic =     0.4773   Anisotropy =    12.4764
   XX=     3.3236   YX=    -3.4007   ZX=    -0.2739
   XY=    -4.8425   YY=     5.3095   ZY=    -0.4533
   XZ=    -2.8982   YZ=     2.9265   ZZ=    -7.2012
   Eigenvalues:    -7.4698     0.1068     8.7949
     85  Bq   Isotropic =    -0.1580   Anisotropy =    11.3131
   XX=     2.1044   YX=    -2.8788   ZX=    -0.7831
   XY=    -4.1287   YY=     3.7518   ZY=     0.3937
   XZ=    -4.0941   YZ=     4.4822   ZZ=    -6.3301
   Eigenvalues:    -7.2085    -0.6495     7.3841
     86  Bq   Isotropic =     0.7438   Anisotropy =    12.8366
   XX=     3.7828   YX=    -3.5564   ZX=     0.0017
   XY=    -5.0421   YY=     5.8292   ZY=    -0.9426
   XZ=    -2.2485   YZ=     2.0381   ZZ=    -7.3806
   Eigenvalues:    -7.4938     0.4236     9.3015
     87  Bq   Isotropic =    -0.2883   Anisotropy =    10.9398
   XX=     1.7872   YX=    -2.7164   ZX=    -0.8817
   XY=    -3.8961   YY=     3.3393   ZY=     0.5345
   XZ=    -4.3200   YZ=     4.7426   ZZ=    -5.9914
   Eigenvalues:    -7.0592    -0.8106     7.0049
     88  Bq   Isotropic =     1.0056   Anisotropy =    13.1479
   XX=     4.2181   YX=    -3.6731   ZX=     0.3443
   XY=    -5.1801   YY=     6.2411   ZY=    -1.5493
   XZ=    -1.4374   YZ=     0.9294   ZZ=    -7.4424
   Eigenvalues:    -7.4901     0.7360     9.7708
     89  Bq   Isotropic =    -0.3771   Anisotropy =    10.5816
   XX=     1.5149   YX=    -2.5646   ZX=    -0.9575
   XY=    -3.6742   YY=     2.9940   ZY=     0.6349
   XZ=    -4.4880   YZ=     4.9221   ZZ=    -5.6402
   Eigenvalues:    -6.8813    -0.9273     6.6773
     90  Bq   Isotropic =     1.2313   Anisotropy =    13.3860
   XX=     4.5759   YX=    -3.7253   ZX=     0.7498
   XY=    -5.2207   YY=     6.4529   ZY=    -2.2488
   XZ=    -0.4663   YZ=    -0.3771   ZZ=    -7.3348
   Eigenvalues:    -7.4661     1.0047    10.1553
     91  Bq   Isotropic =    -0.4284   Anisotropy =    10.2383
   XX=     1.2826   YX=    -2.4233   ZX=    -1.0147
   XY=    -3.4636   YY=     2.7114   ZY=     0.7075
   XZ=    -4.6081   YZ=     5.0405   ZZ=    -5.2792
   Eigenvalues:    -6.6776    -1.0048     6.3971
     92  Bq   Isotropic =     1.3870   Anisotropy =    13.5299
   XX=     4.7960   YX=    -3.6896   ZX=     1.1975
   XY=    -5.1314   YY=     6.3785   ZY=    -2.9831
   XZ=     0.6302   YZ=    -1.8092   ZZ=    -7.0134
   Eigenvalues:    -7.4312     1.1853    10.4070
     93  Bq   Isotropic =     0.2296   Anisotropy =    12.0909
   XX=     2.8784   YX=    -3.2272   ZX=    -0.4891
   XY=    -4.6112   YY=     4.7587   ZY=    -0.0793
   XZ=    -3.4053   YZ=     3.6083   ZZ=    -6.9482
   Eigenvalues:    -7.4146    -0.1868     8.2902
     94  Bq   Isotropic =    -0.2636   Anisotropy =    11.2013
   XX=     1.9673   YX=    -2.9254   ZX=    -0.4252
   XY=    -4.1548   YY=     4.1214   ZY=     0.0533
   XZ=    -3.1540   YZ=     3.6216   ZZ=    -6.8796
   Eigenvalues:    -7.3554    -0.6393     7.2039
     95  Bq   Isotropic =     0.0391   Anisotropy =    11.9136
   XX=     2.5602   YX=    -3.2085   ZX=    -0.0449
   XY=    -4.5527   YY=     5.0091   ZY=    -0.6200
   XZ=    -2.2654   YZ=     2.4057   ZZ=    -7.4519
   Eigenvalues:    -7.6015    -0.2626     7.9815
     96  Bq   Isotropic =    -0.3761   Anisotropy =    10.8431
   XX=     1.7034   YX=    -2.7789   ZX=    -0.5640
   XY=    -3.9436   YY=     3.7057   ZY=     0.2717
   XZ=    -3.4722   YZ=     4.0229   ZZ=    -6.5374
   Eigenvalues:    -7.1943    -0.7866     6.8526
     97  Bq   Isotropic =     0.2115   Anisotropy =    12.2406
   XX=     2.8631   YX=    -3.3255   ZX=     0.2077
   XY=    -4.7109   YY=     5.4050   ZY=    -1.0987
   XZ=    -1.6666   YZ=     1.5481   ZZ=    -7.6336
   Eigenvalues:    -7.6843    -0.0531     8.3719
     98  Bq   Isotropic =    -0.4576   Anisotropy =    10.4935
   XX=     1.4682   YX=    -2.6363   ZX=    -0.6762
   XY=    -3.7348   YY=     3.3351   ZY=     0.4323
   XZ=    -3.7245   YZ=     4.3198   ZZ=    -6.1761
   Eigenvalues:    -7.0096    -0.9013     6.5380
     99  Bq   Isotropic =     0.3782   Anisotropy =    12.5224
   XX=     3.1397   YX=    -3.4065   ZX=     0.5045
   XY=    -4.8132   YY=     5.6928   ZY=    -1.6705
   XZ=    -0.9538   YZ=     0.5169   ZZ=    -7.6978
   Eigenvalues:    -7.7393     0.1475     8.7265
    100  Bq   Isotropic =    -0.5083   Anisotropy =    10.1555
   XX=     1.2620   YX=    -2.4998   ZX=    -0.7661
   XY=    -3.5320   YY=     3.0158   ZY=     0.5498
   XZ=    -3.9214   YZ=     4.5345   ZZ=    -5.8028
   Eigenvalues:    -6.8031    -0.9838     6.2620
    101  Bq   Isotropic =     0.5199   Anisotropy =    12.7370
   XX=     3.3576   YX=    -3.4338   ZX=     0.8390
   XY=    -4.8343   YY=     5.8053   ZY=    -2.3099
   XZ=    -0.1348   YZ=    -0.6606   ZZ=    -7.6032
   Eigenvalues:    -7.7668     0.3153     9.0112
    102  Bq   Isotropic =    -0.5308   Anisotropy =     9.8299
   XX=     1.0827   YX=    -2.3704   ZX=    -0.8372
   XY=    -3.3372   YY=     2.7473   ZY=     0.6361
   XZ=    -4.0712   YZ=     4.6849   ZZ=    -5.4223
   Eigenvalues:    -6.5777    -1.0372     6.0225
    103  Bq   Isotropic =     0.6167   Anisotropy =    12.8649
   XX=     3.4831   YX=    -3.3922   ZX=     1.1949
   XY=    -4.7523   YY=     5.6849   ZY=    -2.9678
   XZ=     0.7617   YZ=    -1.9221   ZZ=    -7.3178
   Eigenvalues:    -7.7678     0.4247     9.1933
    104  Bq   Isotropic =    -0.1230   Anisotropy =    11.5618
   XX=     2.2561   YX=    -3.0711   ZX=    -0.2542
   XY=    -4.3617   YY=     4.5659   ZY=    -0.2390
   XZ=    -2.7566   YZ=     3.0909   ZZ=    -7.1908
   Eigenvalues:    -7.4916    -0.4622     7.5849
    105  Bq   Isotropic =    -0.4864   Anisotropy =    10.6513
   XX=     1.5474   YX=    -2.7754   ZX=    -0.2424
   XY=    -3.9021   YY=     3.9556   ZY=    -0.1025
   XZ=    -2.6183   YZ=     3.1342   ZZ=    -6.9624
   Eigenvalues:    -7.2892    -0.7845     6.6144
    106  Bq   Isotropic =    -0.3005   Anisotropy =    11.2821
   XX=     1.9483   YX=    -2.9949   ZX=     0.1218
   XY=    -4.2212   YY=     4.6632   ZY=    -0.7755
   XZ=    -1.7672   YZ=     1.9268   ZZ=    -7.5129
   Eigenvalues:    -7.5903    -0.5321     7.2209
    107  Bq   Isotropic =    -0.5520   Anisotropy =    10.3279
   XX=     1.3616   YX=    -2.6548   ZX=    -0.3840
   XY=    -3.7238   YY=     3.6047   ZY=     0.1291
   XZ=    -2.9410   YZ=     3.5567   ZZ=    -6.6224
   Eigenvalues:    -7.1045    -0.8848     6.3333
    108  Bq   Isotropic =    -0.1936   Anisotropy =    11.5663
   XX=     2.1435   YX=    -3.0780   ZX=     0.3483
   XY=    -4.3387   YY=     4.9542   ZY=    -1.2290
   XZ=    -1.2252   YZ=     1.1184   ZZ=    -7.6785
   Eigenvalues:    -7.7023    -0.3958     7.5173
    109  Bq   Isotropic =    -0.5950   Anisotropy =    10.0087
   XX=     1.1921   YX=    -2.5335   ZX=    -0.5024
   XY=    -3.5428   YY=     3.2819   ZY=     0.3056
   XZ=    -3.2059   YZ=     3.8817   ZZ=    -6.2590
   Eigenvalues:    -6.8998    -0.9626     6.0775
    110  Bq   Isotropic =    -0.0908   Anisotropy =    11.8085
   XX=     2.3151   YX=    -3.1290   ZX=     0.6030
   XY=    -4.4072   YY=     5.1441   ZY=    -1.7530
   XZ=    -0.6038   YZ=     0.1776   ZZ=    -7.7315
   Eigenvalues:    -7.7854    -0.2684     7.7816
    111  Bq   Isotropic =    -0.6152   Anisotropy =     9.6972
   XX=     1.0403   YX=    -2.4143   ZX=    -0.6004
   XY=    -3.3635   YY=     2.9957   ZY=     0.4388
   XZ=    -3.4201   YZ=     4.1267   ZZ=    -5.8815
   Eigenvalues:    -6.6777    -1.0175     5.8496
    112  Bq   Isotropic =    -0.0039   Anisotropy =    11.9906
   XX=     2.4440   YX=    -3.1365   ZX=     0.8793
   XY=    -4.4095   YY=     5.1853   ZY=    -2.3234
   XZ=     0.0871   YZ=    -0.8680   ZZ=    -7.6412
   Eigenvalues:    -7.8368    -0.1649     7.9898
    113  Bq   Isotropic =    -0.6143   Anisotropy =     9.3952
   XX=     0.9053   YX=    -2.2990   ZX=    -0.6804
   XY=    -3.1883   YY=     2.7485   ZY=     0.5393
   XZ=    -3.5897   YZ=     4.3073   ZZ=    -5.4966
   Eigenvalues:    -6.4409    -1.0511     5.6491
    114  Bq   Isotropic =     0.0553   Anisotropy =    12.0966
   XX=     2.5114   YX=    -3.0910   ZX=     1.1647
   XY=    -4.3317   YY=     5.0400   ZY=    -2.8999
   XZ=     0.8252   YZ=    -1.9671   ZZ=    -7.3856
   Eigenvalues:    -7.8542    -0.0997     8.1197
    115  Bq   Isotropic =    -0.4008   Anisotropy =    10.9726
   XX=     1.7456   YX=    -2.8910   ZX=    -0.0747
   XY=    -4.0712   YY=     4.3176   ZY=    -0.4009
   XZ=    -2.2297   YZ=     2.5961   ZZ=    -7.2656
   Eigenvalues:    -7.4518    -0.6649     6.9142
    116  Bq   Isotropic =    -0.6555   Anisotropy =    10.0747
   XX=     1.2060   YX=    -2.6163   ZX=    -0.1006
   XY=    -3.6339   YY=     3.7515   ZY=    -0.2523
   XZ=    -2.1772   YZ=     2.6791   ZZ=    -6.9239
   Eigenvalues:    -7.1429    -0.8844     6.0610
    117  Bq   Isotropic =    -0.5533   Anisotropy =    10.6209
   XX=     1.4695   YX=    -2.7816   ZX=     0.2391
   XY=    -3.8816   YY=     4.2998   ZY=    -0.9048
   XZ=    -1.3800   YZ=     1.5096   ZZ=    -7.4290
   Eigenvalues:    -7.4662    -0.7209     6.5273
    118  Bq   Isotropic =    -0.6861   Anisotropy =     9.7886
   XX=     1.0790   YX=    -2.5192   ZX=    -0.2393
   XY=    -3.4874   YY=     3.4633   ZY=    -0.0156
   XZ=    -2.4933   YZ=     3.1097   ZZ=    -6.6006
   Eigenvalues:    -6.9486    -0.9493     5.8396
    119  Bq   Isotropic =    -0.4912   Anisotropy =    10.8614
   XX=     1.5921   YX=    -2.8376   ZX=     0.4401
   XY=    -3.9646   YY=     4.5058   ZY=    -1.3242
   XZ=    -0.8944   YZ=     0.7611   ZZ=    -7.5713
   Eigenvalues:    -7.5893    -0.6340     6.7498
    120  Bq   Isotropic =    -0.7000   Anisotropy =     9.5028
   XX=     0.9603   YX=    -2.4183   ZX=    -0.3585
   XY=    -3.3346   YY=     3.1897   ZY=     0.1709
   XZ=    -2.7600   YZ=     3.4525   ZZ=    -6.2498
   Eigenvalues:    -6.7364    -0.9987     5.6352
    121  Bq   Isotropic =    -0.4306   Anisotropy =    11.0631
   XX=     1.6956   YX=    -2.8660   ZX=     0.6584
   XY=    -4.0055   YY=     4.6215   ZY=    -1.7952
   XZ=    -0.3539   YZ=    -0.0864   ZZ=    -7.6089
   Eigenvalues:    -7.6823    -0.5542     6.9448
    122  Bq   Isotropic =    -0.6969   Anisotropy =     9.2211
   XX=     0.8514   YX=    -2.3165   ZX=    -0.4598
   XY=    -3.1797   YY=     2.9401   ZY=     0.3164
   XZ=    -2.9817   YZ=     3.7205   ZZ=    -5.8821
   Eigenvalues:    -6.5092    -1.0320     5.4505
    123  Bq   Isotropic =    -0.3791   Anisotropy =    11.2120
   XX=     1.7690   YX=    -2.8594   ZX=     0.8883
   XY=    -3.9931   YY=     4.6137   ZY=    -2.2962
   XZ=     0.2319   YZ=    -1.0072   ZZ=    -7.5199
   Eigenvalues:    -7.7419    -0.4909     7.0956
    124  Bq   Isotropic =    -0.6782   Anisotropy =     8.9459
   XX=     0.7520   YX=    -2.2157   ZX=    -0.5445
   XY=    -3.0256   YY=     2.7185   ZY=     0.4294
   XZ=    -3.1627   YZ=     3.9262   ZZ=    -5.5052
   Eigenvalues:    -6.2701    -1.0502     5.2857
    125  Bq   Isotropic =    -0.3434   Anisotropy =    11.2960
[...]
   141  Bq   0.000000
   142  Bq   0.000000
   143  Bq   0.000000
   144  Bq   0.000000
   145  Bq   0.000000
   146  Bq   0.000000
   147  Bq   0.000000
   148  Bq   0.000000
   149  Bq   0.000000
   150  Bq   0.000000
   151  Bq   0.000000
   152  Bq   0.000000
   153  Bq   0.000000
   154  Bq   0.000000
   155  Bq   0.000000
   156  Bq   0.000000
   157  Bq   0.000000
   158  Bq   0.000000
   159  Bq   0.000000
   160  Bq   0.000000
   161  Bq   0.000000
   162  Bq   0.000000
   163  Bq   0.000000
   164  Bq   0.000000
   165  Bq   0.000000
   166  Bq   0.000000
   167  Bq   0.000000
   168  Bq   0.000000
   169  Bq   0.000000
   170  Bq   0.000000
   171  Bq   0.000000
   172  Bq   0.000000
   173  Bq   0.000000
   174  Bq   0.000000
   175  Bq   0.000000
   176  Bq   0.000000
   177  Bq   0.000000
   178  Bq   0.000000
   179  Bq   0.000000
   180  Bq   0.000000
   181  Bq   0.000000
   182  Bq   0.000000
   183  Bq   0.000000
   184  Bq   0.000000
   185  Bq   0.000000
   186  Bq   0.000000
   187  Bq   0.000000
   188  Bq   0.000000
   189  Bq   0.000000
   190  Bq   0.000000
   191  Bq   0.000000
   192  Bq   0.000000
   193  Bq   0.000000
   194  Bq   0.000000
   195  Bq   0.000000
   196  Bq   0.000000
   197  Bq   0.000000
   198  Bq   0.000000
   199  Bq   0.000000
   200  Bq   0.000000
   201  Bq   0.000000
   202  Bq   0.000000
   203  Bq   0.000000
   204  Bq   0.000000
   205  Bq   0.000000
   206  Bq   0.000000
   207  Bq   0.000000
   208  Bq   0.000000
   209  Bq   0.000000
   210  Bq   0.000000
   211  Bq   0.000000
   212  Bq   0.000000
   213  Bq   0.000000
   214  Bq   0.000000
   215  Bq   0.000000
   216  Bq   0.000000
   217  Bq   0.000000
   218  Bq   0.000000
   219  Bq   0.000000
   220  Bq   0.000000
   221  Bq   0.000000
   222  Bq   0.000000
   223  Bq   0.000000
   224  Bq   0.000000
   225  Bq   0.000000
   226  Bq   0.000000
   227  Bq   0.000000
   228  Bq   0.000000
   229  Bq   0.000000
   230  Bq   0.000000
   231  Bq   0.000000
   232  Bq   0.000000
   233  Bq   0.000000
   234  Bq   0.000000
   235  Bq   0.000000
   236  Bq   0.000000
 Sum of Mulliken charges =   0.00000
 Mulliken charges with hydrogens summed into heavy atoms:
               1
     1  C   -0.255498
     3  C    0.169409
     5  C    0.448258
     6  C    0.064351
     7  C   -0.333926
     9  C   -0.139521
    11  C   -0.322216
    13  C   -0.119315
    15  C    0.653397
    16  C    0.034822
    17  C   -0.317410
    19  C   -0.316854
    21  C    0.651066
    22  C    0.037784
    23  C   -0.117289
    25  C   -0.205316
    27  C    0.448331
    28  C    0.061983
    29  C   -0.333381
    31  C   -0.139505
    33  C   -0.255977
    35  C    0.170579
    37  Bq   0.116228
    38  Bq   0.000000
    39  Bq   0.000000
    40  Bq   0.000000
    41  Bq   0.000000
    42  Bq   0.000000
    43  Bq   0.000000
    44  Bq   0.000000
    45  Bq   0.000000
    46  Bq   0.000000
    47  Bq   0.000000
    48  Bq   0.000000
    49  Bq   0.000000
    50  Bq   0.000000
    51  Bq   0.000000
    52  Bq   0.000000
    53  Bq   0.000000
    54  Bq   0.000000
    55  Bq   0.000000
    56  Bq   0.000000
    57  Bq   0.000000
    58  Bq   0.000000
    59  Bq   0.000000
    60  Bq   0.000000
    61  Bq   0.000000
    62  Bq   0.000000
    63  Bq   0.000000
    64  Bq   0.000000
    65  Bq   0.000000
    66  Bq   0.000000
    67  Bq   0.000000
    68  Bq   0.000000
    69  Bq   0.000000
    70  Bq   0.000000
    71  Bq   0.000000
    72  Bq   0.000000
    73  Bq   0.000000
    74  Bq   0.000000
    75  Bq   0.000000
    76  Bq   0.000000
    77  Bq   0.000000
    78  Bq   0.000000
    79  Bq   0.000000
    80  Bq   0.000000
    81  Bq   0.000000
    82  Bq   0.000000
    83  Bq   0.000000
    84  Bq   0.000000
    85  Bq   0.000000
    86  Bq   0.000000
    87  Bq   0.000000
    88  Bq   0.000000
    89  Bq   0.000000
    90  Bq   0.000000
    91  Bq   0.000000
    92  Bq   0.000000
    93  Bq   0.000000
    94  Bq   0.000000
    95  Bq   0.000000
    96  Bq   0.000000
    97  Bq   0.000000
    98  Bq   0.000000
    99  Bq   0.000000
   100  Bq   0.000000
   101  Bq   0.000000
   102  Bq   0.000000
   103  Bq   0.000000
   104  Bq   0.000000
   105  Bq   0.000000
   106  Bq   0.000000
   107  Bq   0.000000
   108  Bq   0.000000
   109  Bq   0.000000
   110  Bq   0.000000
   111  Bq   0.000000
   112  Bq   0.000000
   113  Bq   0.000000
   114  Bq   0.000000
   115  Bq   0.000000
   116  Bq   0.000000
   117  Bq   0.000000
   118  Bq   0.000000
   119  Bq   0.000000
   120  Bq   0.000000
   121  Bq   0.000000
   122  Bq   0.000000
   123  Bq   0.000000
   124  Bq   0.000000
   125  Bq   0.000000
   126  Bq   0.000000
   127  Bq   0.000000
   128  Bq   0.000000
   129  Bq   0.000000
   130  Bq   0.000000
   131  Bq   0.000000
   132  Bq   0.000000
   133  Bq   0.000000
   134  Bq   0.000000
   135  Bq   0.000000
   136  Bq   0.000000
   137  Bq   0.000000
   138  Bq   0.000000
   139  Bq   0.000000
   140  Bq   0.000000
   141  Bq   0.000000
   142  Bq   0.000000
   143  Bq   0.000000
   144  Bq   0.000000
   145  Bq   0.000000
   146  Bq   0.000000
   147  Bq   0.000000
   148  Bq   0.000000
   149  Bq   0.000000
   150  Bq   0.000000
   151  Bq   0.000000
   152  Bq   0.000000
   153  Bq   0.000000
   154  Bq   0.000000
   155  Bq   0.000000
   156  Bq   0.000000
   157  Bq   0.000000
   158  Bq   0.000000
   159  Bq   0.000000
   160  Bq   0.000000
   161  Bq   0.000000
   162  Bq   0.000000
   163  Bq   0.000000
   164  Bq   0.000000
   165  Bq   0.000000
   166  Bq   0.000000
   167  Bq   0.000000
   168  Bq   0.000000
   169  Bq   0.000000
   170  Bq   0.000000
   171  Bq   0.000000
   172  Bq   0.000000
   173  Bq   0.000000
   174  Bq   0.000000
   175  Bq   0.000000
   176  Bq   0.000000
   177  Bq   0.000000
   178  Bq   0.000000
   179  Bq   0.000000
   180  Bq   0.000000
   181  Bq   0.000000
   182  Bq   0.000000
   183  Bq   0.000000
   184  Bq   0.000000
   185  Bq   0.000000
   186  Bq   0.000000
   187  Bq   0.000000
   188  Bq   0.000000
   189  Bq   0.000000
   190  Bq   0.000000
   191  Bq   0.000000
   192  Bq   0.000000
   193  Bq   0.000000
   194  Bq   0.000000
   195  Bq   0.000000
   196  Bq   0.000000
   197  Bq   0.000000
   198  Bq   0.000000
   199  Bq   0.000000
   200  Bq   0.000000
   201  Bq   0.000000
   202  Bq   0.000000
   203  Bq   0.000000
   204  Bq   0.000000
   205  Bq   0.000000
   206  Bq   0.000000
   207  Bq   0.000000
   208  Bq   0.000000
   209  Bq   0.000000
   210  Bq   0.000000
   211  Bq   0.000000
   212  Bq   0.000000
   213  Bq   0.000000
   214  Bq   0.000000
   215  Bq   0.000000
   216  Bq   0.000000
   217  Bq   0.000000
   218  Bq   0.000000
   219  Bq   0.000000
   220  Bq   0.000000
   221  Bq   0.000000
   222  Bq   0.000000
   223  Bq   0.000000
   224  Bq   0.000000
   225  Bq   0.000000
   226  Bq   0.000000
   227  Bq   0.000000
   228  Bq   0.000000
   229  Bq   0.000000
   230  Bq   0.000000
   231  Bq   0.000000
   232  Bq   0.000000
   233  Bq   0.000000
   234  Bq   0.000000
   235  Bq   0.000000
   236  Bq   0.000000
 Electronic spatial extent (au):  <R**2>=           5736.9264
 Charge=              0.0000 electrons
 Dipole moment (field-independent basis, Debye):
    X=              0.0475    Y=              0.0856    Z=              0.0029  Tot=              0.0979
 Quadrupole moment (field-independent basis, Debye-Ang):
   XX=           -113.7056   YY=           -113.9456   ZZ=           -133.2669
   XY=             -0.3834   XZ=              3.2102   YZ=             -1.1839
 Traceless Quadrupole moment (field-independent basis, Debye-Ang):
   XX=              6.6005   YY=              6.3604   ZZ=            -12.9609
   XY=             -0.3834   XZ=              3.2102   YZ=             -1.1839
 Octapole moment (field-independent basis, Debye-Ang**2):
  XXX=            -16.4668  YYY=            -16.1860  ZZZ=             -1.7007  XYY=              2.5576
  XXY=             -6.5650  XXZ=             13.6547  XZZ=             -8.9478  YZZ=            -17.7168
  YYZ=            -13.2941  XYZ=              8.8036
 Hexadecapole moment (field-independent basis, Debye-Ang**3):
 XXXX=          -3951.1638 YYYY=          -3112.2161 ZZZZ=           -504.8311 XXXY=            340.6935
 XXXZ=            156.4968 YYYX=            335.5625 YYYZ=            -87.0893 ZZZX=            120.2262
 ZZZY=           -108.7373 XXYY=          -1176.4844 XXZZ=           -856.7291 YYZZ=           -665.7275
 XXYZ=            -68.9016 YYXZ=             48.1602 ZZXY=            153.0375
 N-N= 1.610917615562D+03 E-N=-5.186891130729D+03  KE= 8.436329774449D+02
 1\1\GINC-PLANA\SP\RB3LYP\6-311+G(d,p)\C22H14\YANNICK\21-Aug-2020\0\\# 
 rb3lyp/6-311+g** NMR geom=connectivity\\Title\\0,1\C,0,-4.0500558,-0.5
 771862,0.8136712\H,0,-5.0263804,-1.0082727,1.002476\C,0,-3.9381552,0.6
 617804,0.2400876\H,0,-4.8252424,1.233889,-0.0111295\C,0,-2.676841,1.24
 33246,0.0057578\C,0,-1.4974121,0.5051527,0.2848253\C,0,-1.6508332,-0.7
 338728,0.9404026\H,0,-0.7713646,-1.2730967,1.2633753\C,0,-2.8898548,-1
 .2624035,1.1994307\H,0,-2.9683706,-2.2124563,1.7152676\C,0,-2.5773185,
 2.5963696,-0.419293\H,0,-3.4870728,3.1412239,-0.6474055\C,0,-1.3741895
 ,3.2147896,-0.436403\H,0,-1.2997315,4.2742019,-0.6578144\C,0,-0.171948
 8,2.499409,-0.1734588\C,0,-0.2043917,1.1018437,0.0192689\C,0,1.0513491
 ,3.204256,-0.0676222\H,0,1.0427344,4.2819499,-0.1896997\C,0,2.1942091,
 2.5487446,0.2579577\H,0,3.1168527,3.0912848,0.4334727\C,0,2.2216473,1.
 1336562,0.293499\C,0,1.0486931,0.3945528,0.0302412\C,0,3.4483363,0.461
 4633,0.5573939\H,0,4.3095794,1.0606054,0.8334846\C,0,3.5427346,-0.8855
 926,0.4749463\H,0,4.4731467,-1.3939704,0.7038822\C,0,2.4490052,-1.6474
 447,-0.0196319\C,0,1.2150704,-1.0057258,-0.3013573\C,0,0.2531113,-1.74
 3444,-1.0216591\H,0,-0.6541356,-1.2535051,-1.3462847\C,0,0.4494193,-3.
 0628597,-1.3413779\H,0,-0.3083162,-3.5944309,-1.905406\C,0,1.6251726,-
 3.7207967,-0.9552541\H,0,1.7670048,-4.7687404,-1.1927019\C,0,2.6109872
 ,-3.0144177,-0.318305\H,0,3.5525612,-3.4902813,-0.0646367\Bq,0,-3.8015
 099382,3.2173058471,-0.5584225447\Bq,0,-3.8207198448,3.340052434,-0.07
 41042043\Bq,0,-3.8235888719,3.4615415833,-0.0017705656\Bq,0,-3.8159049
 093,3.4124429486,-0.1954979018\Bq,0,-3.8274308533,3.4860909007,0.09509
 31025\Bq,0,-3.8120629279,3.3878936312,-0.2923615699\Bq,0,-3.8312728346
 ,3.5106402181,0.1919567706\Bq,0,-3.8082209466,3.3633443138,-0.38922523
 8\Bq,0,-3.8351148159,3.5351895355,0.2888204387\Bq,0,-3.8043789653,3.33
 87949965,-0.4860889061\Bq,0,-3.8389567972,3.5597388528,0.3856841068\Bq
 ,0,-3.800536984,3.3142456791,-0.5829525741\Bq,0,-3.8197468906,3.436992
 266,-0.0986342337\Bq,0,-3.8226159177,3.5584814153,-0.026300595\Bq,0,-3
 .814931955,3.5093827805,-0.2200279312\Bq,0,-3.826457899,3.5830307327,0
 .0705630731\Bq,0,-3.8110899737,3.4848334632,-0.3168915993\Bq,0,-3.8302
 998804,3.60758005,0.1674267411\Bq,0,-3.8072479924,3.4602841458,-0.4137
 552674\Bq,0,-3.8341418617,3.6321293674,0.2642904092\Bq,0,-3.8034060111
 ,3.4357348284,-0.5106189355\Bq,0,-3.837983843,3.6566786848,0.361154077
 3\Bq,0,-3.7995640297,3.411185511,-0.6074826036\Bq,0,-3.8187739364,3.53
 39320979,-0.1231642631\Bq,0,-3.8216429635,3.6554212472,-0.0508306245\B
 q,0,-3.8139590008,3.6063226125,-0.2445579606\Bq,0,-3.8254849448,3.6799
 705646,0.0460330436\Bq,0,-3.8101170195,3.5817732951,-0.3414216287\Bq,0
 ,-3.8293269261,3.704519882,0.1428967117\Bq,0,-3.8062750382,3.557223977
 7,-0.4382852968\Bq,0,-3.8331689075,3.7290691993,0.2397603798\Bq,0,-3.8
 024330568,3.5326746603,-0.5351489649\Bq,0,-3.8370108888,3.7536185167,0
 .3366240479\Bq,0,-3.7985910755,3.508125343,-0.632012633\Bq,0,-3.817800
 9822,3.6308719298,-0.1476942925\Bq,0,-3.8206700093,3.7523610792,-0.075
 3606539\Bq,0,-3.8129860466,3.7032624444,-0.2690879901\Bq,0,-3.82451199
 06,3.7769103965,0.0215030142\Bq,0,-3.8091440653,3.678713127,-0.3659516
 582\Bq,0,-3.8283539719,3.8014597139,0.1183666823\Bq,0,-3.8053020839,3.
 6541638097,-0.4628153262\Bq,0,-3.8321959532,3.8260090313,0.2152303504\
 Bq,0,-3.8014601026,3.6296144923,-0.5596789943\Bq,0,-3.8360379346,3.850
 5583487,0.3120940185\Bq,0,-3.7976181213,3.6050651749,-0.6565426624\Bq,
 0,-3.8168280279,3.7278117618,-0.172224322\Bq,0,-3.819697055,3.84930091
 11,-0.0998906833\Bq,0,-3.8120130924,3.8002022763,-0.2936180195\Bq,0,-3
 .8235390364,3.8738502285,-0.0030270152\Bq,0,-3.808171111,3.775652959,-
 0.3904816876\Bq,0,-3.8273810177,3.8983995458,0.0938366529\Bq,0,-3.8043
 291297,3.7511036416,-0.4873453557\Bq,0,-3.831222999,3.9229488632,0.190
 700321\Bq,0,-3.8004871484,3.7265543242,-0.5842090238\Bq,0,-3.835064980
 4,3.9474981806,0.287563989\Bq,0,-3.7966451671,3.7020050068,-0.68107269
 19\Bq,0,-3.8158550737,3.8247515937,-0.1967543514\Bq,0,-3.8187241008,3.
 946240743,-0.1244207127\Bq,0,-3.8110401382,3.8971421083,-0.3181480489\
 Bq,0,-3.8225660821,3.9707900604,-0.0275570447\Bq,0,-3.8071981568,3.872
 5927909,-0.415011717\Bq,0,-3.8264080635,3.9953393778,0.0693066234\Bq,0
 ,-3.8033561755,3.8480434735,-0.5118753851\Bq,0,-3.8302500448,4.0198886
 952,0.1661702915\Bq,0,-3.7995141942,3.8234941562,-0.6087390532\Bq,0,-3
 .8340920261,4.0444380125,0.2630339596\Bq,0,-3.7956722128,3.7989448388,
 -0.7056027213\Bq,0,-3.8148821195,3.9216914257,-0.2212843808\Bq,0,-3.81
 77511466,4.043180575,-0.1489507422\Bq,0,-3.8100671839,3.9940819402,-0.
 3426780783\Bq,0,-3.8215931279,4.0677298924,-0.0520870741\Bq,0,-3.80622
 52026,3.9695326228,-0.4395417464\Bq,0,-3.8254351092,4.0922792097,0.044
 776594\Bq,0,-3.8023832213,3.9449833055,-0.5364054145\Bq,0,-3.829277090
 6,4.1168285271,0.1416402621\Bq,0,-3.7985412399,3.9204339881,-0.6332690
 826\Bq,0,-3.8331190719,4.1413778445,0.2385039302\Bq,0,-3.7946992586,3.
 8958846707,-0.7301327507\Bq,0,-3.8139091653,4.0186312576,-0.2458144103
 \Bq,0,-3.8167781924,4.1401204069,-0.1734807716\Bq,0,-3.8090942297,4.09
 10217722,-0.3672081078\Bq,0,-3.8206201737,4.1646697243,-0.0766171035\B
 q,0,-3.8052522484,4.0664724548,-0.4640717759\Bq,0,-3.824462155,4.18921
 90417,0.0202465646\Bq,0,-3.801410267,4.0419231374,-0.560935444\Bq,0,-3
 .8283041363,4.213768359,0.1171102327\Bq,0,-3.7975682857,4.01737382,-0.
 657799112\Bq,0,-3.8321461177,4.2383176764,0.2139739008\Bq,0,-3.7937263
 044,3.9928245027,-0.7546627801\Bq,0,-3.812936211,4.1155710895,-0.27034
 44397\Bq,0,-3.8158052381,4.2370602389,-0.198010801\Bq,0,-3.8081212755,
 4.1879616041,-0.3917381372\Bq,0,-3.8196472195,4.2616095562,-0.10114713
 29\Bq,0,-3.8042792941,4.1634122867,-0.4886018053\Bq,0,-3.8234892008,4.
 2861588736,-0.0042834648\Bq,0,-3.8004373128,4.1388629694,-0.5854654734
 \Bq,0,-3.8273311821,4.310708191,0.0925802032\Bq,0,-3.7965953315,4.1143
 13652,-0.6823291415\Bq,0,-3.8311731635,4.3352575084,0.1894438713\Bq,0,
 -3.7927533502,4.0897643346,-0.7791928096\Bq,0,-3.8119632568,4.21251092
 15,-0.2948744691\Bq,0,-3.8148322839,4.3340000708,-0.2225408304\Bq,0,-3
 .8071483213,4.284901436,-0.4162681666\Bq,0,-3.8186742652,4.3585493882,
 -0.1256771624\Bq,0,-3.8033063399,4.2603521187,-0.5131318347\Bq,0,-3.82
 25162466,4.3830987055,-0.0288134943\Bq,0,-3.7994643586,4.2358028013,-0
 .6099955028\Bq,0,-3.8263582279,4.4076480229,0.0680501738\Bq,0,-3.79562
 23773,4.2112534839,-0.7068591709\Bq,0,-3.8302002092,4.4321973403,0.164
 9138419\Bq,0,-3.7917803959,4.1867041665,-0.803722839\Bq,0,-3.810990302
 6,4.3094507534,-0.3194044985\Bq,0,-3.8138593297,4.4309399027,-0.247070
 8599\Bq,0,-3.806175367,4.381841268,-0.4407981961\Bq,0,-3.817701311,4.4
 554892201,-0.1502071918\Bq,0,-3.8023333857,4.3572919506,-0.5376618641\
 Bq,0,-3.8215432923,4.4800385375,-0.0533435237\Bq,0,-3.7984914044,4.332
 7426332,-0.6345255322\Bq,0,-3.8253852737,4.5045878549,0.0435201444\Bq,
 0,-3.794649423,4.3081933159,-0.7313892003\Bq,0,-3.829227255,4.52913717
 22,0.1403838125\Bq,0,-3.7908074417,4.2836439985,-0.8282528684\Bq,0,-3.
 8100173484,4.4063905854,-0.343934528\Bq,0,-3.7625856091,-0.4160516942,
 0.9833938753\Bq,0,-3.7549016464,-0.465150329,0.7896665392\Bq,0,-3.7664
 275904,-0.3915023768,1.0802575434\Bq,0,-3.7510596651,-0.4896996464,0.6
 928028711\Bq,0,-3.7702695717,-0.3669530595,1.1771212115\Bq,0,-3.747217
 6838,-0.5142489637,0.595939203\Bq,0,-3.7741115531,-0.3424037421,1.2739
 848796\Bq,0,-3.7433757024,-0.5387982811,0.4990755349\Bq,0,-3.777953534
 4,-0.3178544247,1.3708485477\Bq,0,-3.7395337211,-0.5633475985,0.402211
 8668\Bq,0,-3.7587436277,-0.4406010116,0.8865302073\Bq,0,-3.7616126549,
 -0.3191118623,0.9588638459\Bq,0,-3.7539286922,-0.368210497,0.765136509
 7\Bq,0,-3.7654546362,-0.2945625449,1.055727514\Bq,0,-3.7500867109,-0.3
 927598144,0.6682728416\Bq,0,-3.7692966175,-0.2700132275,1.1525911821\B
 q,0,-3.7462447295,-0.4173091318,0.5714091736\Bq,0,-3.7731385988,-0.245
 4639102,1.2494548502\Bq,0,-3.7424027482,-0.4418584492,0.4745455055\Bq,
 0,-3.7769805802,-0.2209145928,1.3463185183\Bq,0,-3.7385607669,-0.46640
 77665,0.3776818374\Bq,0,-3.7577706735,-0.3436611797,0.8620001778\Bq,0,
 -3.7606397006,-0.2221720303,0.9343338165\Bq,0,-3.752955738,-0.27127066
 51,0.7406064803\Bq,0,-3.764481682,-0.197622713,1.0311974846\Bq,0,-3.74
 91137566,-0.2958199825,0.6437428122\Bq,0,-3.7683236633,-0.1730733956,1
 .1280611527\Bq,0,-3.7452717753,-0.3203692998,0.5468791441\Bq,0,-3.7721
 656446,-0.1485240782,1.2249248208\Bq,0,-3.741429794,-0.3449186172,0.45
 0015476\Bq,0,-3.7760076259,-0.1239747608,1.3217884889\Bq,0,-3.73758781
 27,-0.3694679346,0.353151808\Bq,0,-3.7567977193,-0.2467213477,0.837470
 1484\Bq,0,-3.7596667464,-0.1252321984,0.9098037871\Bq,0,-3.7519827837,
 -0.1743308332,0.7160764509\Bq,0,-3.7635087277,-0.100682881,1.006667455
 2\Bq,0,-3.7481408024,-0.1988801505,0.6192127828\Bq,0,-3.7673507091,-0.
 0761335637,1.1035311232\Bq,0,-3.7442988211,-0.2234294679,0.5223491147\
 Bq,0,-3.7711926904,-0.0515842463,1.2003947913\Bq,0,-3.7404568398,-0.24
 79787853,0.4254854466\Bq,0,-3.7750346717,-0.0270349289,1.2972584594\Bq
 ,0,-3.7366148584,-0.2725281027,0.3286217785\Bq,0,-3.7558247651,-0.1497
 815158,0.812940119\Bq,0,-3.7586937922,-0.0282923665,0.8852737576\Bq,0,
 -3.7510098295,-0.0773910012,0.6915464215\Bq,0,-3.7625357735,-0.0037430
 491,0.9821374257\Bq,0,-3.7471678482,-0.1019403186,0.5946827534\Bq,0,-3
 .7663777548,0.0208062683,1.0790010938\Bq,0,-3.7433258669,-0.126489636,
 0.4978190853\Bq,0,-3.7702197362,0.0453555857,1.1758647619\Bq,0,-3.7394
 838855,-0.1510389533,0.4009554172\Bq,0,-3.7740617175,0.069904903,1.272
 72843\Bq,0,-3.7356419042,-0.1755882707,0.3040917491\Bq,0,-3.7548518108
 ,-0.0528416838,0.7884100895\Bq,0,-3.757720838,0.0686474655,0.860743728
 2\Bq,0,-3.7500368753,0.0195488307,0.667016392\Bq,0,-3.7615628193,0.093
 1967828,0.9576073963\Bq,0,-3.746194894,-0.0050004867,0.5701527239\Bq,0
 ,-3.7654048006,0.1177461002,1.0544710644\Bq,0,-3.7423529126,-0.0295498
 04,0.4732890558\Bq,0,-3.7692467819,0.1422954176,1.1513347325\Bq,0,-3.7
 385109313,-0.0540991214,0.3764253878\Bq,0,-3.7730887633,0.166844735,1.
 2481984006\Bq,0,-3.73466895,-0.0786484388,0.2795617197\Bq,0,-3.7538788
 566,0.0440981481,0.7638800601\Bq,0,-3.7567478837,0.1655872974,0.836213
 6988\Bq,0,-3.7490639211,0.1164886627,0.6424863626\Bq,0,-3.7605898651,0
 .1901366148,0.9330773669\Bq,0,-3.7452219397,0.0919393453,0.5456226945\
 Bq,0,-3.7644318464,0.2146859322,1.029941035\Bq,0,-3.7413799584,0.06739
 00279,0.4487590264\Bq,0,-3.7682738277,0.2392352495,1.1268047031\Bq,0,-
 3.7375379771,0.0428407105,0.3518953583\Bq,0,-3.772115809,0.2637845669,
 1.2236683711\Bq,0,-3.7336959958,0.0182913932,0.2550316902\Bq,0,-3.7529
 059024,0.14103798,0.7393500307\\Version=ES64L-G09RevD.01\HF=-847.00328
 98\RMSD=7.507e-09\Dipole=0.0186808,0.0336671,0.0011595\Quadrupole=4.90
 72795,4.7288219,-9.6361014,-0.2850201,2.3867064,-0.880172\PG=C01 [X(C2
 2H14)]\\@


 ... THIS SEEMS PLAINLY ABSURD; BUT WHOEVER WISHES TO BECOME A 
 PHILOSOPHER MUST LEARN NOT TO BE FRIGHTENED BY ABSURDITIES.

                          -- BERTRAND RUSSELL
 Job cpu time:       0 days  3 hours 57 minutes 23.6 seconds.
 File lengths (MBytes):  RWF=    184 Int=      0 D2E=      0 Chk=     19 Scr=      1
 Normal termination of Gaussian 09 at Fri Aug 21 19:54:38 2020.
