 Entering Gaussian System, Link 0=g09
 Input=input_cycle_03_batch_22800.com
 Output=input_cycle_03_batch_22800.log
 Initial command:
 /share/programs/GAUSSIAN/64/g09/l1.exe "/scratch/yannick.30353/Gau-2563906.inp" -scrdir="/scratch/yannick.30353/"
 Entering Link 1 = /share/programs/GAUSSIAN/64/g09/l1.exe PID=   2563907.
  
 Copyright (c) 1988,1990,1992,1993,1995,1998,2003,2009,2013,
            Gaussian, Inc.  All Rights Reserved.
  
 This is part of the Gaussian(R) 09 program.  It is based on
 the Gaussian(R) 03 system (copyright 2003, Gaussian, Inc.),
 the Gaussian(R) 98 system (copyright 1998, Gaussian, Inc.),
 the Gaussian(R) 94 system (copyright 1995, Gaussian, Inc.),
 the Gaussian 92(TM) system (copyright 1992, Gaussian, Inc.),
 the Gaussian 90(TM) system (copyright 1990, Gaussian, Inc.),
 the Gaussian 88(TM) system (copyright 1988, Gaussian, Inc.),
 the Gaussian 86(TM) system (copyright 1986, Carnegie Mellon
 University), and the Gaussian 82(TM) system (copyright 1983,
 Carnegie Mellon University). Gaussian is a federally registered
 trademark of Gaussian, Inc.
  
 This software contains proprietary and confidential information,
 including trade secrets, belonging to Gaussian, Inc.
  
 This software is provided under written license and may be
 used, copied, transmitted, or stored only in accord with that
 written license.
  
 The following legend is applicable only to US Government
 contracts under FAR:
  
                    RESTRICTED RIGHTS LEGEND
  
 Use, reproduction and disclosure by the US Government is
 subject to restrictions as set forth in subparagraphs (a)
 and (c) of the Commercial Computer Software - Restricted
 Rights clause in FAR 52.227-19.
  
 Gaussian, Inc.
 340 Quinnipiac St., Bldg. 40, Wallingford CT 06492
  
  
 ---------------------------------------------------------------
 Warning -- This program may not be used in any manner that
 competes with the business of Gaussian, Inc. or will provide
 assistance to any competitor of Gaussian, Inc.  The licensee
 of this program is prohibited from giving any competitor of
 Gaussian, Inc. access to this program.  By using this program,
 the user acknowledges that Gaussian, Inc. is engaged in the
 business of creating and licensing software in the field of
 computational chemistry and represents and warrants to the
 licensee that it is not a competitor of Gaussian, Inc. and that
 it will not use this program in any manner prohibited above.
 ---------------------------------------------------------------
  

 Cite this work as:
 Gaussian 09, Revision D.01,
 M. J. Frisch, G. W. Trucks, H. B. Schlegel, G. E. Scuseria, 
 M. A. Robb, J. R. Cheeseman, G. Scalmani, V. Barone, B. Mennucci, 
 G. A. Petersson, H. Nakatsuji, M. Caricato, X. Li, H. P. Hratchian, 
 A. F. Izmaylov, J. Bloino, G. Zheng, J. L. Sonnenberg, M. Hada, 
 M. Ehara, K. Toyota, R. Fukuda, J. Hasegawa, M. Ishida, T. Nakajima, 
 Y. Honda, O. Kitao, H. Nakai, T. Vreven, J. A. Montgomery, Jr., 
 J. E. Peralta, F. Ogliaro, M. Bearpark, J. J. Heyd, E. Brothers, 
 K. N. Kudin, V. N. Staroverov, T. Keith, R. Kobayashi, J. Normand, 
 K. Raghavachari, A. Rendell, J. C. Burant, S. S. Iyengar, J. Tomasi, 
 M. Cossi, N. Rega, J. M. Millam, M. Klene, J. E. Knox, J. B. Cross, 
 V. Bakken, C. Adamo, J. Jaramillo, R. Gomperts, R. E. Stratmann, 
 O. Yazyev, A. J. Austin, R. Cammi, C. Pomelli, J. W. Ochterski, 
 R. L. Martin, K. Morokuma, V. G. Zakrzewski, G. A. Voth, 
 P. Salvador, J. J. Dannenberg, S. Dapprich, A. D. Daniels, 
 O. Farkas, J. B. Foresman, J. V. Ortiz, J. Cioslowski, 
 and D. J. Fox, Gaussian, Inc., Wallingford CT, 2013.
 
 ******************************************
 Gaussian 09:  ES64L-G09RevD.01 24-Apr-2013
                22-Aug-2020 
 ******************************************
 %nproc=8
 Will use up to    8 processors via shared memory.
 %mem=1000MB
 ----------------------------------------
 # rb3lyp/6-311+g** NMR geom=connectivity
 ----------------------------------------
 1/38=1,57=2/1;
 2/12=2,17=6,18=5,40=1/2;
 3/5=4,6=6,7=111,11=2,16=1,25=1,30=1,74=-5,116=1/1,2,8,3;
 4//1;
 5/5=2,38=5/2;
 8/6=1,10=90,11=11/1;
 10/13=100,45=16/2;
 6/7=2,8=2,9=2,10=2,28=1/1;
 99/9=1/99;
 -----
 Title
 -----
 Symbolic Z-matrix:
 Charge =  0 Multiplicity = 1
 C                    -4.05006  -0.57719   0.81367 
 H                    -5.02638  -1.00827   1.00248 
 C                    -3.93816   0.66178   0.24009 
 H                    -4.82524   1.23389  -0.01113 
 C                    -2.67684   1.24332   0.00576 
 C                    -1.49741   0.50515   0.28483 
 C                    -1.65083  -0.73387   0.9404 
 H                    -0.77136  -1.2731    1.26338 
 C                    -2.88985  -1.2624    1.19943 
 H                    -2.96837  -2.21246   1.71527 
 C                    -2.57732   2.59637  -0.41929 
 H                    -3.48707   3.14122  -0.64741 
 C                    -1.37419   3.21479  -0.4364 
 H                    -1.29973   4.2742   -0.65781 
 C                    -0.17195   2.49941  -0.17346 
 C                    -0.20439   1.10184   0.01927 
 C                     1.05135   3.20426  -0.06762 
 H                     1.04273   4.28195  -0.1897 
 C                     2.19421   2.54874   0.25796 
 H                     3.11685   3.09128   0.43347 
 C                     2.22165   1.13366   0.2935 
 C                     1.04869   0.39455   0.03024 
 C                     3.44834   0.46146   0.55739 
 H                     4.30958   1.06061   0.83348 
 C                     3.54273  -0.88559   0.47495 
 H                     4.47315  -1.39397   0.70388 
 C                     2.44901  -1.64744  -0.01963 
 C                     1.21507  -1.00573  -0.30136 
 C                     0.25311  -1.74344  -1.02166 
 H                    -0.65414  -1.25351  -1.34628 
 C                     0.44942  -3.06286  -1.34138 
 H                    -0.30832  -3.59443  -1.90541 
 C                     1.62517  -3.7208   -0.95525 
 H                     1.767    -4.76874  -1.1927 
 C                     2.61099  -3.01442  -0.31831 
 H                     3.55256  -3.49028  -0.06464 
 Bq                    2.49793   2.51781   0.34218 
 Bq                    2.36765   2.56203   1.2316 
 Bq                    2.51241   2.5129    0.24335 
 Bq                    2.44003   2.53747   0.73747 
 Bq                    2.42626   2.64226   0.83144 
 Bq                    2.45521   2.63243   0.63379 
 Bq                    2.41179   2.64717   0.93026 
 Bq                    2.46969   2.62752   0.53496 
 Bq                    2.39731   2.65209   1.02909 
 Bq                    2.48417   2.6226    0.43614 
 Bq                    2.38284   2.657     1.12791 
 Bq                    2.49864   2.61769   0.33731 
 Bq                    2.36836   2.66191   1.22674 
 Bq                    2.51312   2.61278   0.23849 
 Bq                    2.44074   2.63734   0.73261 
 Bq                    2.42698   2.74214   0.82658 
 Bq                    2.45593   2.73231   0.62893 
 Bq                    2.4125    2.74705   0.9254 
 Bq                    2.4704    2.7274    0.5301 
 Bq                    2.39802   2.75196   1.02423 
 Bq                    2.48488   2.72248   0.43128 
 Bq                    2.38355   2.75688   1.12305 
 Bq                    2.49935   2.71757   0.33245 
 Bq                    2.36907   2.76179   1.22187 
 Bq                    2.51383   2.71266   0.23363 
 Bq                    2.44145   2.73722   0.72775 
 Bq                    2.42769   2.84202   0.82171 
 Bq                    2.45664   2.83219   0.62407 
 Bq                    2.41321   2.84693   0.92054 
 Bq                    2.47112   2.82728   0.52524 
 Bq                    2.39874   2.85184   1.01936 
 Bq                    2.48559   2.82236   0.42642 
 Bq                    2.38426   2.85676   1.11819 
 Bq                    2.50007   2.81745   0.32759 
 Bq                    2.36978   2.86167   1.21701 
 Bq                    2.51454   2.81254   0.22877 
 Bq                    2.44216   2.8371    0.72289 
 Bq                    2.4284    2.9419    0.81685 
 Bq                    2.45735   2.93207   0.6192 
 Bq                    2.41392   2.94681   0.91568 
 Bq                    2.47183   2.92716   0.52038 
 Bq                    2.39945   2.95172   1.0145 
 Bq                    2.4863    2.92224   0.42155 
 Bq                    2.38497   2.95664   1.11333 
 Bq                    2.50078   2.91733   0.32273 
 Bq                    2.3705    2.96155   1.21215 
 Bq                    2.51526   2.91242   0.22391 
 Bq                    2.44288   2.93698   0.71803 
 Bq                    2.42911   3.04178   0.81199 
 Bq                    2.45806   3.03195   0.61434 
 Bq                    2.41464   3.04669   0.91082 
 Bq                    2.47254   3.02703   0.51552 
 Bq                    2.40016   3.0516    1.00964 
 Bq                    2.48702   3.02212   0.41669 
 Bq                    2.38568   3.05652   1.10847 
 Bq                    2.50149   3.01721   0.31787 
 Bq                    2.37121   3.06143   1.20729 
 Bq                    2.51597   3.01229   0.21904 
 Bq                    2.44359   3.03686   0.71317 
 Bq                    2.42982   3.14165   0.80713 
 Bq                    2.45878   3.13183   0.60948 
 Bq                    2.41535   3.14657   0.90595 
 Bq                    2.47325   3.12691   0.51066 
 Bq                    2.40087   3.15148   1.00478 
 Bq                    2.48773   3.122     0.41183 
 Bq                    2.3864    3.15639   1.1036 
 Bq                    2.5022    3.11709   0.31301 
 Bq                    2.37192   3.16131   1.20243 
 Bq                    2.51668   3.11217   0.21418 
 Bq                    2.4443    3.13674   0.70831 
 Bq                    2.43054   3.24153   0.80227 
 Bq                    2.45949   3.23171   0.60462 
 Bq                    2.41606   3.24645   0.90109 
 Bq                    2.47396   3.22679   0.50579 
 Bq                    2.40158   3.25136   0.99992 
 Bq                    2.48844   3.22188   0.40697 
 Bq                    2.38711   3.25627   1.09874 
 Bq                    2.50292   3.21697   0.30814 
 Bq                    2.37263   3.26119   1.19757 
 Bq                    2.51739   3.21205   0.20932 
 Bq                    2.44501   3.23662   0.70344 
 Bq                    2.43125   3.34141   0.79741 
 Bq                    2.4602    3.33159   0.59976 
 Bq                    2.41677   3.34633   0.89623 
 Bq                    2.47468   3.32667   0.50093 
 Bq                    2.4023    3.35124   0.99506 
 Bq                    2.48915   3.32176   0.40211 
 Bq                    2.38782   3.35615   1.09388 
 Bq                    2.50363   3.31685   0.30328 
 Bq                    2.37334   3.36107   1.1927 
 Bq                    2.5181    3.31193   0.20446 
 Bq                    2.44572   3.3365    0.69858 
 Bq                    2.43196   3.44129   0.79254 
 Bq                    2.46091   3.43147   0.5949 
 Bq                    2.41748   3.44621   0.89137 
 Bq                    2.47539   3.42655   0.49607 
 Bq                    2.40301   3.45112   0.99019 
 Bq                    2.48986   3.42164   0.39725 
 Bq                    2.38853   3.45603   1.08902 
 Bq                    2.50434   3.41672   0.29842 
 Bq                    2.37406   3.46095   1.18784 
 Bq                    2.51882   3.41181   0.1996 
 Bq                    2.44644   3.43638   0.69372 
 Bq                    2.43267   3.54117   0.78768 
 Bq                    2.46162   3.53134   0.59003 
 Bq                    2.4182    3.54608   0.88651 
 Bq                    2.4761    3.52643   0.49121 
 Bq                    2.40372   3.551     0.98533 
 Bq                    2.49058   3.52152   0.39238 
 Bq                    2.38924   3.55591   1.08416 
 Bq                    2.50505   3.5166    0.29356 
 Bq                    2.37477   3.56083   1.18298 
 Bq                    2.51953   3.51169   0.19474 
 Bq                    2.44715   3.53626   0.68886 
 Bq                    2.43338   3.64105   0.78282 
 Bq                    2.46234   3.63122   0.58517 
 Bq                    2.41891   3.64596   0.88165 
 Bq                    2.47681   3.62631   0.48635 
 Bq                    2.40443   3.65088   0.98047 
 Bq                    2.49129   3.6214    0.38752 
 Bq                    2.38996   3.65579   1.0793 
 Bq                    2.50576   3.61648   0.2887 
 Bq                    2.37548   3.6607    1.17812 
 Bq                    2.52024   3.61157   0.18987 
 Bq                    2.44786   3.63614   0.684 
 Bq                    2.4341    3.74093   0.77796 
 Bq                    2.46305   3.7311    0.58031 
 Bq                    2.41962   3.74584   0.87678 
 Bq                    2.47752   3.72619   0.48149 
 Bq                    2.40514   3.75076   0.97561 
 Bq                    2.492     3.72128   0.38266 
 Bq                    2.39067   3.75567   1.07443 
 Bq                    2.50648   3.71636   0.28384 
 Bq                    2.37619   3.76058   1.17326 
 Bq                    2.52095   3.71145   0.18501 
 Bq                    2.44857   3.73602   0.67914 
 Bq                    2.43481   3.84081   0.7731 
 Bq                    2.46376   3.83098   0.57545 
 Bq                    2.42033   3.84572   0.87192 
 Bq                    2.47824   3.82607   0.47662 
 Bq                    2.40586   3.85064   0.97075 
 Bq                    2.49271   3.82115   0.3778 
 Bq                    2.39138   3.85555   1.06957 
 Bq                    2.50719   3.81624   0.27898 
 Bq                    2.3769    3.86046   1.1684 
 Bq                    2.52166   3.81133   0.18015 
 Bq                    2.44928   3.8359    0.67427 
 Bq                    2.43552   3.94069   0.76824 
 Bq                    2.46447   3.93086   0.57059 
 Bq                    2.42104   3.9456    0.86706 
 Bq                    2.47895   3.92595   0.47176 
 Bq                    2.40657   3.95052   0.96589 
 Bq                    2.49342   3.92103   0.37294 
 Bq                    2.39209   3.95543   1.06471 
 Bq                    2.5079    3.91612   0.27411 
 Bq                    2.37762   3.96034   1.16354 
 Bq                    2.52238   3.91121   0.17529 
 Bq                    2.45      3.93577   0.66941 
 Bq                    2.43623   4.04057   0.76338 
 Bq                    2.46518   4.03074   0.56573 
 Bq                    2.42176   4.04548   0.8622 
 Bq                    2.47966   4.02583   0.4669 
 Bq                    2.40728   4.05039   0.96102 
 Bq                    2.49414   4.02091   0.36808 
 Bq                    2.3928    4.05531   1.05985 
 Bq                    2.50861   4.016     0.26925 
 Bq                    2.37833   4.06022   1.15867 
 Bq                    2.52309   4.01109   0.17043 
 Bq                    2.45071   4.03565   0.66455 
 Bq                    2.43694   4.14045   0.75851 
 Bq                    2.4659    4.13062   0.56086 
 Bq                    2.42247   4.14536   0.85734 
 Bq                    2.48037   4.12571   0.46204 
 Bq                    2.40799   4.15027   0.95616 
 Bq                    2.49485   4.12079   0.36322 
 Bq                    2.39352   4.15519   1.05499 
 Bq                    2.50932   4.11588   0.26439 
 Bq                    2.37904   4.1601    1.15381 
 Bq                    2.5238    4.11097   0.16557 
 Bq                    2.45142   4.13553   0.65969 
 Bq                    2.43766   4.24033   0.75365 
 Bq                    2.46661   4.2305    0.556 
 Bq                    2.42318   4.24524   0.85248 
 Bq                    2.48108   4.22559   0.45718 
 Bq                    2.40871   4.25015   0.9513 
 Bq                    2.49556   4.22067   0.35835 
 Bq                    2.39423   4.25507   1.05013 
 Bq                    2.51004   4.21576   0.25953 
 Bq                    2.37975   4.25998   1.14895 
 Bq                    2.52451   4.21084   0.1607 
 Bq                    2.45213   4.23541   0.65483 
 Bq                    2.43837   4.34021   0.74879 
 Bq                    2.46732   4.33038   0.55114 
 Bq                    2.42389   4.34512   0.84762 
 Bq                    2.4818    4.32546   0.45232 
 Bq                    2.40942   4.35003   0.94644 
 Bq                    2.49627   4.32055   0.35349 
 Bq                    2.39494   4.35495   1.04526 
 Bq                    2.51075   4.31564   0.25467 
 Bq                    2.38047   4.35986   1.14409 
 
 Symmetry turned off:
 Cannot cope with ghost atoms or with translation vectors.
 Stoichiometry    C22H14
 Framework group  C1[X(C22H14)]
 NUMDOF-- NAT=    36 NAtoms=   236
 Deg. of freedom     0
 Full point group                 C1      NOp   1
                          Input orientation:                          
 ---------------------------------------------------------------------
 Center     Atomic      Atomic             Coordinates (Angstroms)
 Number     Number       Type             X           Y           Z
 ---------------------------------------------------------------------
      1          6           0       -4.050056   -0.577186    0.813671
      2          1           0       -5.026380   -1.008273    1.002476
      3          6           0       -3.938155    0.661780    0.240088
      4          1           0       -4.825242    1.233889   -0.011130
      5          6           0       -2.676841    1.243325    0.005758
      6          6           0       -1.497412    0.505153    0.284825
      7          6           0       -1.650833   -0.733873    0.940403
      8          1           0       -0.771365   -1.273097    1.263375
      9          6           0       -2.889855   -1.262404    1.199431
     10          1           0       -2.968371   -2.212456    1.715268
     11          6           0       -2.577319    2.596370   -0.419293
     12          1           0       -3.487073    3.141224   -0.647406
     13          6           0       -1.374190    3.214790   -0.436403
     14          1           0       -1.299732    4.274202   -0.657814
     15          6           0       -0.171949    2.499409   -0.173459
     16          6           0       -0.204392    1.101844    0.019269
     17          6           0        1.051349    3.204256   -0.067622
     18          1           0        1.042734    4.281950   -0.189700
     19          6           0        2.194209    2.548745    0.257958
     20          1           0        3.116853    3.091285    0.433473
     21          6           0        2.221647    1.133656    0.293499
     22          6           0        1.048693    0.394553    0.030241
     23          6           0        3.448336    0.461463    0.557394
     24          1           0        4.309579    1.060605    0.833485
     25          6           0        3.542735   -0.885593    0.474946
     26          1           0        4.473147   -1.393970    0.703882
     27          6           0        2.449005   -1.647445   -0.019632
     28          6           0        1.215070   -1.005726   -0.301357
     29          6           0        0.253111   -1.743444   -1.021659
     30          1           0       -0.654136   -1.253505   -1.346285
     31          6           0        0.449419   -3.062860   -1.341378
     32          1           0       -0.308316   -3.594431   -1.905406
     33          6           0        1.625173   -3.720797   -0.955254
     34          1           0        1.767005   -4.768740   -1.192702
     35          6           0        2.610987   -3.014418   -0.318305
     36          1           0        3.552561   -3.490281   -0.064637
     37          0           0        2.497931    2.517812    0.342176
     38          0           0        2.367647    2.562033    1.231598
     39          0           0        2.512406    2.512898    0.243352
     40          0           0        2.440027    2.537466    0.737475
     41          0           0        2.426263    2.642258    0.831438
     42          0           0        2.455215    2.632431    0.633788
     43          0           0        2.411787    2.647172    0.930262
     44          0           0        2.469691    2.627518    0.534964
     45          0           0        2.397311    2.652085    1.029087
     46          0           0        2.484167    2.622604    0.436139
     47          0           0        2.382835    2.656999    1.127912
     48          0           0        2.498643    2.617691    0.337315
     49          0           0        2.368359    2.661912    1.226736
     50          0           0        2.513119    2.612777    0.238490
     51          0           0        2.440739    2.637345    0.732613
     52          0           0        2.426975    2.742138    0.826576
     53          0           0        2.455927    2.732311    0.628927
     54          0           0        2.412499    2.747051    0.925401
     55          0           0        2.470403    2.727397    0.530102
     56          0           0        2.398023    2.751965    1.024225
     57          0           0        2.484879    2.722484    0.431278
     58          0           0        2.383547    2.756878    1.123050
     59          0           0        2.499355    2.717570    0.332453
     60          0           0        2.369071    2.761792    1.221875
     61          0           0        2.513831    2.712657    0.233628
     62          0           0        2.441451    2.737224    0.727751
     63          0           0        2.427687    2.842017    0.821714
     64          0           0        2.456639    2.832190    0.624065
     65          0           0        2.413211    2.846930    0.920539
     66          0           0        2.471115    2.827276    0.525241
     67          0           0        2.398735    2.851844    1.019364
     68          0           0        2.485591    2.822363    0.426416
     69          0           0        2.384259    2.856757    1.118188
     70          0           0        2.500067    2.817449    0.327591
     71          0           0        2.369783    2.861671    1.217013
     72          0           0        2.514543    2.812536    0.228767
     73          0           0        2.442163    2.837103    0.722890
     74          0           0        2.428399    2.941896    0.816853
     75          0           0        2.457351    2.932069    0.619204
     76          0           0        2.413923    2.946809    0.915678
     77          0           0        2.471827    2.927156    0.520379
     78          0           0        2.399447    2.951723    1.014502
     79          0           0        2.486303    2.922242    0.421554
     80          0           0        2.384971    2.956636    1.113327
     81          0           0        2.500779    2.917329    0.322730
     82          0           0        2.370495    2.961550    1.212151
     83          0           0        2.515255    2.912415    0.223905
     84          0           0        2.442875    2.936983    0.718028
     85          0           0        2.429111    3.041775    0.811991
     86          0           0        2.458063    3.031948    0.614342
     87          0           0        2.414635    3.046689    0.910816
     88          0           0        2.472539    3.027035    0.515517
     89          0           0        2.400160    3.051602    1.009641
     90          0           0        2.487015    3.022121    0.416693
     91          0           0        2.385684    3.056516    1.108465
     92          0           0        2.501491    3.017208    0.317868
     93          0           0        2.371208    3.061429    1.207290
     94          0           0        2.515967    3.012294    0.219044
     95          0           0        2.443587    3.036862    0.713167
     96          0           0        2.429824    3.141654    0.807130
     97          0           0        2.458775    3.131827    0.609480
     98          0           0        2.415348    3.146568    0.905954
     99          0           0        2.473251    3.126914    0.510656
    100          0           0        2.400872    3.151481    1.004779
    101          0           0        2.487727    3.122000    0.411831
    102          0           0        2.386396    3.156395    1.103604
    103          0           0        2.502203    3.117087    0.313007
    104          0           0        2.371920    3.161308    1.202428
    105          0           0        2.516679    3.112174    0.214182
    106          0           0        2.444300    3.136741    0.708305
    107          0           0        2.430536    3.241534    0.802268
    108          0           0        2.459488    3.231707    0.604619
    109          0           0        2.416060    3.246447    0.901093
    110          0           0        2.473964    3.226793    0.505794
    111          0           0        2.401584    3.251361    0.999917
    112          0           0        2.488440    3.221880    0.406970
    113          0           0        2.387108    3.256274    1.098742
    114          0           0        2.502915    3.216966    0.308145
    115          0           0        2.372632    3.261188    1.197567
    116          0           0        2.517391    3.212053    0.209320
    117          0           0        2.445012    3.236620    0.703443
    118          0           0        2.431248    3.341413    0.797406
    119          0           0        2.460200    3.331586    0.599757
    120          0           0        2.416772    3.346326    0.896231
    121          0           0        2.474676    3.326672    0.500933
    122          0           0        2.402296    3.351240    0.995056
    123          0           0        2.489152    3.321759    0.402108
    124          0           0        2.387820    3.356153    1.093880
    125          0           0        2.503628    3.316845    0.303283
    126          0           0        2.373344    3.361067    1.192705
    127          0           0        2.518104    3.311932    0.204459
    128          0           0        2.445724    3.336499    0.698582
    129          0           0        2.431960    3.441292    0.792545
    130          0           0        2.460912    3.431465    0.594896
    131          0           0        2.417484    3.446206    0.891369
    132          0           0        2.475388    3.426552    0.496071
    133          0           0        2.403008    3.451119    0.990194
    134          0           0        2.489864    3.421638    0.397246
    135          0           0        2.388532    3.456033    1.089019
    136          0           0        2.504340    3.416725    0.298422
    137          0           0        2.374056    3.460946    1.187843
    138          0           0        2.518816    3.411811    0.199597
    139          0           0        2.446436    3.436379    0.693720
    140          0           0        2.432672    3.541171    0.787683
    141          0           0        2.461624    3.531344    0.590034
    142          0           0        2.418196    3.546085    0.886508
    143          0           0        2.476100    3.526431    0.491209
    144          0           0        2.403720    3.550998    0.985332
    145          0           0        2.490576    3.521517    0.392385
    146          0           0        2.389244    3.555912    1.084157
    147          0           0        2.505052    3.516604    0.293560
    148          0           0        2.374768    3.560825    1.182982
    149          0           0        2.519528    3.511690    0.194736
    150          0           0        2.447148    3.536258    0.688859
    151          0           0        2.433384    3.641051    0.782822
    152          0           0        2.462336    3.631224    0.585172
    153          0           0        2.418908    3.645964    0.881646
    154          0           0        2.476812    3.626310    0.486348
    155          0           0        2.404432    3.650877    0.980471
    156          0           0        2.491288    3.621397    0.387523
    157          0           0        2.389956    3.655791    1.079295
    158          0           0        2.505764    3.616483    0.288699
    159          0           0        2.375480    3.660704    1.178120
    160          0           0        2.520240    3.611570    0.189874
    161          0           0        2.447860    3.636137    0.683997
    162          0           0        2.434096    3.740930    0.777960
    163          0           0        2.463048    3.731103    0.580311
    164          0           0        2.419620    3.745843    0.876785
    165          0           0        2.477524    3.726189    0.481486
    166          0           0        2.405144    3.750757    0.975609
    167          0           0        2.492000    3.721276    0.382662
    168          0           0        2.390669    3.755670    1.074434
    169          0           0        2.506476    3.716362    0.283837
    170          0           0        2.376193    3.760584    1.173259
    171          0           0        2.520952    3.711449    0.185012
    172          0           0        2.448572    3.736016    0.679135
    173          0           0        2.434809    3.840809    0.773098
    174          0           0        2.463760    3.830982    0.575449
    175          0           0        2.420333    3.845722    0.871923
    176          0           0        2.478236    3.826068    0.476625
    177          0           0        2.405857    3.850636    0.970748
    178          0           0        2.492712    3.821155    0.377800
    179          0           0        2.391381    3.855549    1.069572
    180          0           0        2.507188    3.816242    0.278975
    181          0           0        2.376905    3.860463    1.168397
    182          0           0        2.521664    3.811328    0.180151
    183          0           0        2.449284    3.835895    0.674274
    184          0           0        2.435521    3.940688    0.768237
    185          0           0        2.464473    3.930861    0.570588
    186          0           0        2.421045    3.945602    0.867061
    187          0           0        2.478948    3.925948    0.471763
    188          0           0        2.406569    3.950515    0.965886
    189          0           0        2.493424    3.921034    0.372938
    190          0           0        2.392093    3.955429    1.064711
    191          0           0        2.507900    3.916121    0.274114
    192          0           0        2.377617    3.960342    1.163535
    193          0           0        2.522376    3.911207    0.175289
    194          0           0        2.449997    3.935775    0.669412
    195          0           0        2.436233    4.040567    0.763375
    196          0           0        2.465185    4.030740    0.565726
    197          0           0        2.421757    4.045481    0.862200
    198          0           0        2.479661    4.025827    0.466901
    199          0           0        2.407281    4.050394    0.961024
    200          0           0        2.494137    4.020913    0.368077
    201          0           0        2.392805    4.055308    1.059849
    202          0           0        2.508613    4.016000    0.269252
    203          0           0        2.378329    4.060221    1.158674
    204          0           0        2.523088    4.011086    0.170428
    205          0           0        2.450709    4.035654    0.664551
    206          0           0        2.436945    4.140447    0.758514
    207          0           0        2.465897    4.130620    0.560864
    208          0           0        2.422469    4.145360    0.857338
    209          0           0        2.480373    4.125706    0.462040
    210          0           0        2.407993    4.150274    0.956163
    211          0           0        2.494849    4.120793    0.363215
    212          0           0        2.393517    4.155187    1.054987
    213          0           0        2.509325    4.115879    0.264391
    214          0           0        2.379041    4.160101    1.153812
    215          0           0        2.523801    4.110966    0.165566
    216          0           0        2.451421    4.135533    0.659689
    217          0           0        2.437657    4.240326    0.753652
    218          0           0        2.466609    4.230499    0.556003
    219          0           0        2.423181    4.245239    0.852477
    220          0           0        2.481085    4.225585    0.457178
    221          0           0        2.408705    4.250153    0.951301
    222          0           0        2.495561    4.220672    0.358354
    223          0           0        2.394229    4.255066    1.050126
    224          0           0        2.510037    4.215758    0.259529
    225          0           0        2.379753    4.259980    1.148950
    226          0           0        2.524513    4.210845    0.160704
    227          0           0        2.452133    4.235412    0.654827
    228          0           0        2.438369    4.340205    0.748790
    229          0           0        2.467321    4.330378    0.551141
    230          0           0        2.423893    4.345118    0.847615
    231          0           0        2.481797    4.325465    0.452317
    232          0           0        2.409417    4.350032    0.946440
    233          0           0        2.496273    4.320551    0.353492
    234          0           0        2.394941    4.354945    1.045264
    235          0           0        2.510749    4.315638    0.254667
    236          0           0        2.380465    4.359859    1.144089
 ---------------------------------------------------------------------
 Rotational constants (GHZ):      0.4529074      0.2836956      0.1879557
 Standard basis: 6-311+G(d,p) (5D, 7F)
 Warning:  center  37 has no basis functions!
 Warning:  center  38 has no basis functions!
 Warning:  center  39 has no basis functions!
 Warning:  center  40 has no basis functions!
 Warning:  center  41 has no basis functions!
 Warning:  center  42 has no basis functions!
 Warning:  center  43 has no basis functions!
 Warning:  center  44 has no basis functions!
 Warning:  center  45 has no basis functions!
 Warning:  center  46 has no basis functions!
 Warning:  center  47 has no basis functions!
 Warning:  center  48 has no basis functions!
 Warning:  center  49 has no basis functions!
 Warning:  center  50 has no basis functions!
 Warning:  center  51 has no basis functions!
 Warning:  center  52 has no basis functions!
 Warning:  center  53 has no basis functions!
 Warning:  center  54 has no basis functions!
 Warning:  center  55 has no basis functions!
 Warning:  center  56 has no basis functions!
 Warning:  center  57 has no basis functions!
 Warning:  center  58 has no basis functions!
 Warning:  center  59 has no basis functions!
 Warning:  center  60 has no basis functions!
 Warning:  center  61 has no basis functions!
 Warning:  center  62 has no basis functions!
 Warning:  center  63 has no basis functions!
 Warning:  center  64 has no basis functions!
 Warning:  center  65 has no basis functions!
 Warning:  center  66 has no basis functions!
 Warning:  center  67 has no basis functions!
 Warning:  center  68 has no basis functions!
 Warning:  center  69 has no basis functions!
 Warning:  center  70 has no basis functions!
 Warning:  center  71 has no basis functions!
 Warning:  center  72 has no basis functions!
 Warning:  center  73 has no basis functions!
 Warning:  center  74 has no basis functions!
 Warning:  center  75 has no basis functions!
 Warning:  center  76 has no basis functions!
 Warning:  center  77 has no basis functions!
 Warning:  center  78 has no basis functions!
 Warning:  center  79 has no basis functions!
 Warning:  center  80 has no basis functions!
 Warning:  center  81 has no basis functions!
 Warning:  center  82 has no basis functions!
 Warning:  center  83 has no basis functions!
 Warning:  center  84 has no basis functions!
 Warning:  center  85 has no basis functions!
 Warning:  center  86 has no basis functions!
 Warning:  center  87 has no basis functions!
 Warning:  center  88 has no basis functions!
 Warning:  center  89 has no basis functions!
 Warning:  center  90 has no basis functions!
 Warning:  center  91 has no basis functions!
 Warning:  center  92 has no basis functions!
 Warning:  center  93 has no basis functions!
 Warning:  center  94 has no basis functions!
 Warning:  center  95 has no basis functions!
 Warning:  center  96 has no basis functions!
 Warning:  center  97 has no basis functions!
 Warning:  center  98 has no basis functions!
 Warning:  center  99 has no basis functions!
 Warning:  center 100 has no basis functions!
 Warning:  center 101 has no basis functions!
 Warning:  center 102 has no basis functions!
 Warning:  center 103 has no basis functions!
 Warning:  center 104 has no basis functions!
 Warning:  center 105 has no basis functions!
 Warning:  center 106 has no basis functions!
 Warning:  center 107 has no basis functions!
 Warning:  center 108 has no basis functions!
 Warning:  center 109 has no basis functions!
 Warning:  center 110 has no basis functions!
 Warning:  center 111 has no basis functions!
 Warning:  center 112 has no basis functions!
 Warning:  center 113 has no basis functions!
 Warning:  center 114 has no basis functions!
 Warning:  center 115 has no basis functions!
 Warning:  center 116 has no basis functions!
 Warning:  center 117 has no basis functions!
 Warning:  center 118 has no basis functions!
 Warning:  center 119 has no basis functions!
 Warning:  center 120 has no basis functions!
 Warning:  center 121 has no basis functions!
 Warning:  center 122 has no basis functions!
 Warning:  center 123 has no basis functions!
 Warning:  center 124 has no basis functions!
 Warning:  center 125 has no basis functions!
 Warning:  center 126 has no basis functions!
 Warning:  center 127 has no basis functions!
 Warning:  center 128 has no basis functions!
 Warning:  center 129 has no basis functions!
 Warning:  center 130 has no basis functions!
 Warning:  center 131 has no basis functions!
 Warning:  center 132 has no basis functions!
 Warning:  center 133 has no basis functions!
 Warning:  center 134 has no basis functions!
 Warning:  center 135 has no basis functions!
 Warning:  center 136 has no basis functions!
 Warning:  center 137 has no basis functions!
 Warning:  center 138 has no basis functions!
 Warning:  center 139 has no basis functions!
 Warning:  center 140 has no basis functions!
 Warning:  center 141 has no basis functions!
 Warning:  center 142 has no basis functions!
 Warning:  center 143 has no basis functions!
 Warning:  center 144 has no basis functions!
 Warning:  center 145 has no basis functions!
 Warning:  center 146 has no basis functions!
 Warning:  center 147 has no basis functions!
 Warning:  center 148 has no basis functions!
 Warning:  center 149 has no basis functions!
 Warning:  center 150 has no basis functions!
 Warning:  center 151 has no basis functions!
 Warning:  center 152 has no basis functions!
 Warning:  center 153 has no basis functions!
 Warning:  center 154 has no basis functions!
 Warning:  center 155 has no basis functions!
 Warning:  center 156 has no basis functions!
 Warning:  center 157 has no basis functions!
 Warning:  center 158 has no basis functions!
 Warning:  center 159 has no basis functions!
 Warning:  center 160 has no basis functions!
 Warning:  center 161 has no basis functions!
 Warning:  center 162 has no basis functions!
 Warning:  center 163 has no basis functions!
 Warning:  center 164 has no basis functions!
 Warning:  center 165 has no basis functions!
 Warning:  center 166 has no basis functions!
 Warning:  center 167 has no basis functions!
 Warning:  center 168 has no basis functions!
 Warning:  center 169 has no basis functions!
 Warning:  center 170 has no basis functions!
 Warning:  center 171 has no basis functions!
 Warning:  center 172 has no basis functions!
 Warning:  center 173 has no basis functions!
 Warning:  center 174 has no basis functions!
 Warning:  center 175 has no basis functions!
 Warning:  center 176 has no basis functions!
 Warning:  center 177 has no basis functions!
 Warning:  center 178 has no basis functions!
 Warning:  center 179 has no basis functions!
 Warning:  center 180 has no basis functions!
 Warning:  center 181 has no basis functions!
 Warning:  center 182 has no basis functions!
 Warning:  center 183 has no basis functions!
 Warning:  center 184 has no basis functions!
 Warning:  center 185 has no basis functions!
 Warning:  center 186 has no basis functions!
 Warning:  center 187 has no basis functions!
 Warning:  center 188 has no basis functions!
 Warning:  center 189 has no basis functions!
 Warning:  center 190 has no basis functions!
 Warning:  center 191 has no basis functions!
 Warning:  center 192 has no basis functions!
 Warning:  center 193 has no basis functions!
 Warning:  center 194 has no basis functions!
 Warning:  center 195 has no basis functions!
 Warning:  center 196 has no basis functions!
 Warning:  center 197 has no basis functions!
 Warning:  center 198 has no basis functions!
 Warning:  center 199 has no basis functions!
 Warning:  center 200 has no basis functions!
 Warning:  center 201 has no basis functions!
 Warning:  center 202 has no basis functions!
 Warning:  center 203 has no basis functions!
 Warning:  center 204 has no basis functions!
 Warning:  center 205 has no basis functions!
 Warning:  center 206 has no basis functions!
 Warning:  center 207 has no basis functions!
 Warning:  center 208 has no basis functions!
 Warning:  center 209 has no basis functions!
 Warning:  center 210 has no basis functions!
 Warning:  center 211 has no basis functions!
 Warning:  center 212 has no basis functions!
 Warning:  center 213 has no basis functions!
 Warning:  center 214 has no basis functions!
 Warning:  center 215 has no basis functions!
 Warning:  center 216 has no basis functions!
 Warning:  center 217 has no basis functions!
 Warning:  center 218 has no basis functions!
 Warning:  center 219 has no basis functions!
 Warning:  center 220 has no basis functions!
 Warning:  center 221 has no basis functions!
 Warning:  center 222 has no basis functions!
 Warning:  center 223 has no basis functions!
 Warning:  center 224 has no basis functions!
 Warning:  center 225 has no basis functions!
 Warning:  center 226 has no basis functions!
 Warning:  center 227 has no basis functions!
 Warning:  center 228 has no basis functions!
 Warning:  center 229 has no basis functions!
 Warning:  center 230 has no basis functions!
 Warning:  center 231 has no basis functions!
 Warning:  center 232 has no basis functions!
 Warning:  center 233 has no basis functions!
 Warning:  center 234 has no basis functions!
 Warning:  center 235 has no basis functions!
 Warning:  center 236 has no basis functions!
   568 basis functions,   904 primitive gaussians,   590 cartesian basis functions
    73 alpha electrons       73 beta electrons
       nuclear repulsion energy      1610.9176155625 Hartrees.
 NAtoms=  236 NActive=  236 NUniq=  236 SFac= 1.00D+00 NAtFMM=   60 NAOKFM=T Big=T
 Integral buffers will be    131072 words long.
 Raffenetti 2 integral format.
 Two-electron integral symmetry is turned off.
 One-electron integrals computed using PRISM.
 NBasis=   568 RedAO= T EigKep=  1.78D-06  NBF=   568
 NBsUse=   556 1.00D-06 EigRej=  9.09D-07 NBFU=   556
 ExpMin= 4.38D-02 ExpMax= 4.56D+03 ExpMxC= 6.82D+02 IAcc=2 IRadAn=         4 AccDes= 0.00D+00
 Harris functional with IExCor=  402 and IRadAn=       4 diagonalized for initial guess.
 HarFok:  IExCor=  402 AccDes= 0.00D+00 IRadAn=         4 IDoV= 1 UseB2=F ITyADJ=14
 ICtDFT=  3500011 ScaDFX=  1.000000  1.000000  1.000000  1.000000
 FoFCou: FMM=F IPFlag=           0 FMFlag=      100000 FMFlg1=        2001
         NFxFlg=           0 DoJE=T BraDBF=F KetDBF=T FulRan=T
         wScrn=  0.000000 ICntrl=     500 IOpCl=  0 I1Cent=   200000004 NGrid=           0
         NMat0=    1 NMatS0=      1 NMatT0=    0 NMatD0=    1 NMtDS0=    0 NMtDT0=    0
 Symmetry not used in FoFCou.
 Requested convergence on RMS density matrix=1.00D-08 within 128 cycles.
 Requested convergence on MAX density matrix=1.00D-06.
 Requested convergence on             energy=1.00D-06.
 No special actions if energy rises.
 SCF Done:  E(RB3LYP) =  -847.003289847     A.U. after   15 cycles
            NFock= 15  Conv=0.75D-08     -V/T= 2.0040
 DoSCS=F DFT=T ScalE2(SS,OS)=  1.000000  1.000000
 Range of M.O.s used for correlation:     1   556
 NBasis=   568 NAE=    73 NBE=    73 NFC=     0 NFV=     0
 NROrb=    556 NOA=    73 NOB=    73 NVA=   483 NVB=   483

 **** Warning!!: The largest alpha MO coefficient is  0.10971036D+03

          Differentiating once with respect to magnetic field using GIAOs.
          Electric field/nuclear overlap derivatives assumed to be zero.
 FoFCou: FMM=F IPFlag=           0 FMFlag=      100000 FMFlg1=        2001
         NFxFlg=           0 DoJE=F BraDBF=F KetDBF=T FulRan=T
         wScrn=  0.000000 ICntrl=    6100 IOpCl=  0 I1Cent=           7 NGrid=         236
         NMat0=    1 NMatS0=      1 NMatT0=    0 NMatD0=    1 NMtDS0=    0 NMtDT0=    0
 Symmetry not used in FoFCou.
 FoFJK:  IHMeth= 1 ICntrl=    6127 DoSepK=F KAlg= 0 I1Cent=   0 FoldK=F
 IRaf=         1 NMat=   1 IRICut=       1 DoRegI=T DoRafI=F ISym2E= 0.
          There are     3 degrees of freedom in the 1st order CPHF.  IDoFFX=0 NUNeed=     3.
      3 vectors produced by pass  0 Test12= 1.18D-12 3.33D-08 XBig12= 2.07D+03 9.18D+00.
 AX will form     3 AO Fock derivatives at one time.
      3 vectors produced by pass  1 Test12= 1.18D-12 3.33D-08 XBig12= 3.56D+00 8.03D-01.
      3 vectors produced by pass  2 Test12= 1.18D-12 3.33D-08 XBig12= 2.10D-02 6.92D-02.
      3 vectors produced by pass  3 Test12= 1.18D-12 3.33D-08 XBig12= 5.45D-05 1.89D-03.
      3 vectors produced by pass  4 Test12= 1.18D-12 3.33D-08 XBig12= 1.20D-07 7.79D-05.
      3 vectors produced by pass  5 Test12= 1.18D-12 3.33D-08 XBig12= 4.02D-10 4.73D-06.
      3 vectors produced by pass  6 Test12= 1.18D-12 3.33D-08 XBig12= 1.32D-12 2.61D-07.
 InvSVY:  IOpt=1 It=  1 EMax= 1.07D-14
 Solved reduced A of dimension    21 with     3 vectors.
 Calculating GIAO nuclear magnetic shielding tensors.
 SCF GIAO Magnetic shielding tensor (ppm):
      1  C    Isotropic =    53.8139   Anisotropy =   178.0260
   XX=   -41.4327   YX=   -32.3458   ZX=    10.0287
   XY=   -28.3572   YY=    59.0527   ZY=    55.1899
   XZ=    13.1759   YZ=    58.7550   ZZ=   143.8218
   Eigenvalues:   -53.8775    42.8214   172.4979
      2  H    Isotropic =    24.3095   Anisotropy =     4.8536
   XX=    25.5771   YX=    -1.0289   ZX=     0.5661
   XY=    -0.7431   YY=    26.1829   ZY=    -2.3306
   XZ=    -0.1707   YZ=    -2.4411   ZZ=    21.1687
   Eigenvalues:    20.2108    25.1725    27.5453
      3  C    Isotropic =    51.4055   Anisotropy =   157.8639
   XX=   -31.5399   YX=    38.5015   ZX=   -17.9316
   XY=    34.3519   YY=    49.9437   ZY=    49.6392
   XZ=    -9.8383   YZ=    44.6006   ZZ=   135.8127
   Eigenvalues:   -50.5747    48.1432   156.6481
      4  H    Isotropic =    23.8290   Anisotropy =     7.1838
   XX=    25.3635   YX=     1.8486   ZX=    -0.3559
   XY=     1.9656   YY=    26.4581   ZY=    -2.4103
   XZ=    -1.2941   YZ=    -2.6614   ZZ=    19.6654
   Eigenvalues:    18.8176    24.0511    28.6182
      5  C    Isotropic =    46.0697   Anisotropy =   207.6751
   XX=   -19.2123   YX=    -4.8852   ZX=    -1.6475
   XY=     2.8938   YY=    -2.9860   ZY=    66.5656
   XZ=     2.5356   YZ=    67.9144   ZZ=   160.4073
   Eigenvalues:   -27.2455   -19.0652   184.5197
      6  C    Isotropic =    47.5218   Anisotropy =   196.9389
   XX=   -28.1552   YX=    -2.7889   ZX=    12.0660
   XY=   -14.3886   YY=    21.2063   ZY=    74.2521
   XZ=   -18.6356   YZ=    61.1113   ZZ=   149.5144
   Eigenvalues:   -30.2925    -5.9564   178.8144
      7  C    Isotropic =    49.3915   Anisotropy =   179.8333
   XX=   -12.5211   YX=    28.7048   ZX=   -24.6745
   XY=    31.5123   YY=    29.7000   ZY=    77.7459
   XZ=   -40.0095   YZ=    65.3072   ZZ=   130.9956
   Eigenvalues:   -52.1299    31.0240   169.2804
      8  H    Isotropic =    23.1586   Anisotropy =    13.5525
   XX=    28.5711   YX=     1.5482   ZX=    -3.6986
   XY=     3.2466   YY=    22.7592   ZY=    -2.1157
   XZ=    -8.3753   YZ=    -1.0821   ZZ=    18.1456
   Eigenvalues:    15.3521    21.9301    32.1936
      9  C    Isotropic =    55.1460   Anisotropy =   174.7426
   XX=    46.7071   YX=    -2.6162   ZX=    -2.8420
   XY=     0.6223   YY=    -1.6258   ZY=    92.8272
   XZ=     0.5159   YZ=    95.6598   ZZ=   120.3568
   Eigenvalues:   -52.8932    46.6901   171.6411
     10  H    Isotropic =    24.6278   Anisotropy =     7.1815
   XX=    29.1040   YX=     0.1399   ZX=    -0.3694
   XY=     0.3642   YY=    23.4778   ZY=    -1.0805
   XZ=    -2.4493   YZ=    -2.9465   ZZ=    21.3016
   Eigenvalues:    19.9703    24.4977    29.4155
     11  C    Isotropic =    51.5607   Anisotropy =   151.2142
   XX=     2.1639   YX=    40.9287   ZX=   -26.0048
   XY=    49.9131   YY=    12.2331   ZY=    42.1342
   XZ=   -15.6145   YZ=    38.6614   ZZ=   140.2851
   Eigenvalues:   -48.1951    50.5071   152.3701
     12  H    Isotropic =    23.8537   Anisotropy =     7.3815
   XX=    25.9672   YX=     2.3738   ZX=    -0.2390
   XY=     2.4320   YY=    26.3975   ZY=    -1.8291
   XZ=     0.3529   YZ=    -1.7731   ZZ=    19.1964
   Eigenvalues:    18.7149    24.0714    28.7747
     13  C    Isotropic =    52.8653   Anisotropy =   147.4265
   XX=    51.2944   YX=    19.9221   ZX=   -13.4678
   XY=    11.5478   YY=   -34.0176   ZY=    42.5079
   XZ=    -9.2241   YZ=    40.0716   ZZ=   141.3192
   Eigenvalues:   -46.5152    53.9616   151.1497
     14  H    Isotropic =    24.0156   Anisotropy =     7.3485
   XX=    28.6644   YX=     0.6281   ZX=     1.0808
   XY=     0.5926   YY=    24.4325   ZY=    -1.0823
   XZ=     1.6846   YZ=    -0.3842   ZZ=    18.9500
   Eigenvalues:    18.6430    24.4892    28.9146
     15  C    Isotropic =    46.2221   Anisotropy =   203.9048
   XX=   -27.2215   YX=    -0.0442   ZX=   -28.9124
   XY=     4.6427   YY=   -10.5571   ZY=    28.3830
   XZ=   -10.2704   YZ=    26.7376   ZZ=   176.4448
   Eigenvalues:   -30.5512   -12.9411   182.1586
     16  C    Isotropic =    51.9375   Anisotropy =   188.2004
   XX=   -19.4441   YX=     5.5046   ZX=    15.7858
   XY=    -8.3874   YY=     2.4863   ZY=    22.9264
   XZ=   -50.6243   YZ=    23.3340   ZZ=   172.7704
   Eigenvalues:   -21.0294    -0.5625   177.4045
     17  C    Isotropic =    51.9482   Anisotropy =   149.1264
   XX=    50.7296   YX=   -23.9353   ZX=   -18.4207
   XY=   -16.7271   YY=   -41.8764   ZY=    17.8662
   XZ=   -14.3278   YZ=    11.4871   ZZ=   146.9915
   Eigenvalues:   -46.7796    51.2584   151.3658
     18  H    Isotropic =    24.0122   Anisotropy =     7.5163
   XX=    28.5811   YX=    -0.0866   ZX=     1.5071
   XY=    -0.2466   YY=    24.3342   ZY=    -0.7657
   XZ=     2.5088   YZ=    -1.5208   ZZ=    19.1214
   Eigenvalues:    18.5094    24.5041    29.0231
     19  C    Isotropic =    51.7356   Anisotropy =   148.5924
   XX=     2.4559   YX=   -45.6913   ZX=   -31.2531
   XY=   -53.4448   YY=     7.4698   ZY=    -1.8888
   XZ=   -23.5601   YZ=    -1.2765   ZZ=   145.2810
   Eigenvalues:   -46.9894    51.3989   150.7972
     20  H    Isotropic =    23.9071   Anisotropy =     7.6651
   XX=    25.5796   YX=    -2.0226   ZX=     1.4905
   XY=    -1.9998   YY=    27.3706   ZY=    -0.5164
   XZ=     2.7276   YZ=    -1.1179   ZZ=    18.7711
   Eigenvalues:    18.1643    24.5398    29.0172
     21  C    Isotropic =    45.9767   Anisotropy =   203.9316
   XX=   -16.2108   YX=    13.1802   ZX=   -44.5913
   XY=     6.5714   YY=   -20.6329   ZY=     0.0949
   XZ=   -28.8984   YZ=   -13.0883   ZZ=   174.7736
   Eigenvalues:   -30.5796   -13.4215   181.9311
     22  C    Isotropic =    52.0450   Anisotropy =   188.1157
   XX=    -0.0787   YX=     2.5023   ZX=   -16.3451
   XY=    18.9327   YY=   -14.4798   ZY=   -34.4335
   XZ=   -50.6032   YZ=    19.9104   ZZ=   170.6934
   Eigenvalues:   -20.7705    -0.5500   177.4554
     23  C    Isotropic =    53.2392   Anisotropy =   146.7412
   XX=   -22.0674   YX=   -32.0012   ZX=   -49.4857
   XY=   -23.2043   YY=    44.3661   ZY=   -15.6400
   XZ=   -43.8090   YZ=   -20.2525   ZZ=   137.4189
   Eigenvalues:   -45.6776    54.3286   151.0667
     24  H    Isotropic =    23.8249   Anisotropy =     7.5289
   XX=    25.1073   YX=    -1.7330   ZX=     1.5380
   XY=    -1.5944   YY=    28.0047   ZY=     0.0879
   XZ=     1.2557   YZ=    -0.8283   ZZ=    18.3628
   Eigenvalues:    18.0848    24.5458    28.8442
     25  C    Isotropic =    51.4969   Anisotropy =   150.1066
   XX=   -28.4915   YX=    33.9684   ZX=   -52.3137
   XY=    22.0311   YY=    46.6072   ZY=    -3.8075
   XZ=   -44.5594   YZ=   -10.6355   ZZ=   136.3748
   Eigenvalues:   -48.3857    51.3083   151.5679
     26  H    Isotropic =    23.7431   Anisotropy =     7.4052
   XX=    24.0663   YX=     1.1141   ZX=     1.9989
   XY=     0.9693   YY=    28.1000   ZY=     1.6568
   XZ=     2.0795   YZ=     0.8886   ZZ=    19.0630
   Eigenvalues:    18.2615    24.2880    28.6799
     27  C    Isotropic =    45.8108   Anisotropy =   207.2710
   XX=    -2.7702   YX=    13.7697   ZX=   -61.4651
   XY=     6.5593   YY=   -12.0335   ZY=   -41.6456
   XZ=   -62.6381   YZ=   -44.9232   ZZ=   152.2361
   Eigenvalues:   -28.0803   -18.4787   183.9915
     28  C    Isotropic =    47.8398   Anisotropy =   197.2870
   XX=    19.6900   YX=    14.4398   ZX=   -60.5682
   XY=    28.5650   YY=   -19.3566   ZY=   -56.7015
   XZ=   -63.1331   YZ=   -24.4782   ZZ=   143.1859
   Eigenvalues:   -30.5979    -5.2472   179.3644
     29  C    Isotropic =    49.3441   Anisotropy =   179.7793
   XX=    -3.4110   YX=    38.3775   ZX=   -80.8875
   XY=    36.1252   YY=    25.9805   ZY=   -23.7573
   XZ=   -78.1065   YZ=    -3.9802   ZZ=   125.4627
   Eigenvalues:   -51.6645    30.4997   169.1970
     30  H    Isotropic =    23.1387   Anisotropy =    13.3222
   XX=    22.4354   YX=    -0.7013   ZX=    -0.2375
   XY=    -2.1539   YY=    28.3546   ZY=     4.5555
   XZ=    -3.4181   YZ=     8.3231   ZZ=    18.6259
   Eigenvalues:    15.2751    22.1208    32.0201
     31  C    Isotropic =    55.4410   Anisotropy =   174.9390
   XX=    17.1871   YX=   -14.0890   ZX=   -84.0024
   XY=   -17.9030   YY=    37.4745   ZY=   -50.3662
   XZ=   -84.6557   YZ=   -54.8325   ZZ=   111.6615
   Eigenvalues:   -51.9248    46.1808   172.0670
     32  H    Isotropic =    24.5337   Anisotropy =     7.2554
   XX=    24.6185   YX=    -2.5264   ZX=     0.7632
   XY=    -2.7385   YY=    27.4630   ZY=     1.0335
   XZ=     1.1913   YZ=     3.7573   ZZ=    21.5194
   Eigenvalues:    19.8987    24.3316    29.3706
     33  C    Isotropic =    53.1814   Anisotropy =   179.0596
   XX=    60.9231   YX=    35.2256   ZX=   -42.9515
   XY=    32.0226   YY=   -38.1801   ZY=   -45.5652
   XZ=   -44.2248   YZ=   -50.7831   ZZ=   136.8014
   Eigenvalues:   -55.1197    42.1095   172.5545
     34  H    Isotropic =    24.2825   Anisotropy =     5.1861
   XX=    26.7643   YX=    -0.0934   ZX=     2.5955
   XY=    -0.2993   YY=    24.8157   ZY=     0.8589
   XZ=     2.3715   YZ=     1.4580   ZZ=    21.2676
   Eigenvalues:    20.0339    25.0737    27.7399
     35  C    Isotropic =    51.5295   Anisotropy =   155.1748
   XX=    -0.5131   YX=    52.5760   ZX=   -52.1551
   XY=    55.6135   YY=    25.1843   ZY=   -14.2643
   XZ=   -45.7255   YZ=   -17.1625   ZZ=   129.9171
   Eigenvalues:   -48.3147    47.9237   154.9793
     36  H    Isotropic =    23.8384   Anisotropy =     7.3073
   XX=    24.2302   YX=     1.4459   ZX=     2.1759
   XY=     1.2147   YY=    27.1572   ZY=     2.0665
   XZ=     1.6853   YZ=     2.7775   ZZ=    20.1277
   Eigenvalues:    18.9464    23.8588    28.7099
     37  Bq   Isotropic =   -12.8634   Anisotropy =    34.8087
   XX=   -52.5460   YX=    -0.9237   ZX=   -16.1568
   XY=   -11.9901   YY=     7.1350   ZY=    -2.1949
   XZ=    -8.1337   YZ=    -3.7588   ZZ=     6.8208
   Eigenvalues:   -55.6951     6.7625    10.3424
     38  Bq   Isotropic =     9.3837   Anisotropy =    15.7776
   XX=     5.1193   YX=    -1.0373   ZX=    -0.6474
   XY=     1.6128   YY=     8.0789   ZY=     0.3752
   XZ=    15.3821   YZ=     7.1087   ZZ=    14.9530
   Eigenvalues:     0.8324     7.4167    19.9021
     39  Bq   Isotropic =   -11.5608   Anisotropy =    31.7280
   XX=   -51.2923   YX=    -0.8449   ZX=    -4.4025
   XY=   -12.2164   YY=     7.7159   ZY=     0.4149
   XZ=    -8.5708   YZ=    -1.6359   ZZ=     8.8938
   Eigenvalues:   -52.6955     8.4218     9.5911
     40  Bq   Isotropic =    14.1913   Anisotropy =    11.9638
   XX=     6.9281   YX=     0.6562   ZX=   -17.0845
   XY=    -0.2765   YY=    21.5938   ZY=    -3.1593
   XZ=     5.4977   YZ=    -0.3713   ZZ=    14.0520
   Eigenvalues:     3.6620    16.7448    22.1672
     41  Bq   Isotropic =    15.8600   Anisotropy =     6.0799
   XX=    12.3863   YX=    -2.2431   ZX=   -12.2746
   XY=    -0.7174   YY=    18.8072   ZY=    -5.9086
   XZ=     8.3380   YZ=     2.0008   ZZ=    16.3865
   Eigenvalues:    10.9915    16.6752    19.9133
     42  Bq   Isotropic =    10.8223   Anisotropy =    20.5192
   XX=    -1.1433   YX=    -5.7066   ZX=   -24.0282
   XY=    -8.0569   YY=    17.9827   ZY=   -10.4602
   XZ=    -0.5208   YZ=    -3.6146   ZZ=    15.6274
   Eigenvalues:   -10.7133    18.6784    24.5018
     43  Bq   Isotropic =    15.0205   Anisotropy =     3.0934
   XX=    12.3757   YX=    -1.5979   ZX=    -7.6945
   XY=     0.7521   YY=    16.3421   ZY=    -3.8283
   XZ=    11.4012   YZ=     4.3239   ZZ=    16.3436
   Eigenvalues:    11.5953    16.3834    17.0827
     44  Bq   Isotropic =     3.5618   Anisotropy =    30.1546
   XX=   -17.5671   YX=    -8.6522   ZX=   -27.6307
   XY=   -14.6419   YY=    13.2605   ZY=   -11.5231
   XZ=    -4.5145   YZ=    -5.8346   ZZ=    14.9919
   Eigenvalues:   -28.8902    15.9107    23.6648
     45  Bq   Isotropic =    13.2602   Anisotropy =     8.5936
   XX=    10.5026   YX=    -1.3457   ZX=    -4.4427
   XY=     1.4327   YY=    13.2895   ZY=    -2.1645
   XZ=    13.3046   YZ=     6.0779   ZZ=    15.9885
   Eigenvalues:     7.8716    12.9197    18.9893
     46  Bq   Isotropic =    -5.1751   Anisotropy =    38.1619
   XX=   -36.7164   YX=   -11.5733   ZX=   -25.4292
   XY=   -22.1208   YY=     7.0623   ZY=   -10.1386
   XZ=    -6.7338   YZ=    -6.6226   ZZ=    14.1287
   Eigenvalues:   -47.6590    11.8675    20.2661
     47  Bq   Isotropic =    11.2321   Anisotropy =    12.5984
   XX=     8.0229   YX=    -1.2943   ZX=    -2.2897
   XY=     1.6759   YY=    10.2866   ZY=    -0.9059
   XZ=    14.2585   YZ=     7.2902   ZZ=    15.3867
   Eigenvalues:     4.3198     9.7454    19.6310
     48  Bq   Isotropic =   -10.9574   Anisotropy =    41.0630
   XX=   -49.4668   YX=   -13.1308   ZX=   -16.4665
   XY=   -27.5524   YY=     2.9254   ZY=    -5.7197
   XZ=    -7.5812   YZ=    -5.7040   ZZ=    13.6692
   Eigenvalues:   -58.8505     9.5604    16.4179
     49  Bq   Isotropic =     9.2880   Anisotropy =    15.1907
   XX=     5.5966   YX=    -1.3278   ZX=    -0.9356
   XY=     1.6961   YY=     7.6409   ZY=     0.0145
   XZ=    14.5299   YZ=     8.0533   ZZ=    14.6267
   Eigenvalues:     1.3945     7.0545    19.4152
     50  Bq   Isotropic =    -9.8757   Anisotropy =    38.6406
   XX=   -48.6766   YX=   -12.4884   ZX=    -4.0314
   XY=   -27.9020   YY=     3.6591   ZY=     0.4086
   XZ=    -7.2346   YZ=    -3.6737   ZZ=    15.3904
   Eigenvalues:   -56.0437    10.5320    15.8847
     51  Bq   Isotropic =    14.8085   Anisotropy =    12.1293
   XX=     8.6030   YX=    -3.5391   ZX=   -18.0592
   XY=    -3.4733   YY=    19.7049   ZY=    -8.2684
   XZ=     4.1685   YZ=    -0.7698   ZZ=    16.1175
   Eigenvalues:     2.7647    18.7661    22.8947
     52  Bq   Isotropic =    16.0781   Anisotropy =     5.2532
   XX=    14.4919   YX=    -4.7229   ZX=   -11.6342
   XY=    -1.9687   YY=    16.4330   ZY=    -8.2260
   XZ=     7.2365   YZ=     3.0974   ZZ=    17.3094
   Eigenvalues:    10.3919    18.2622    19.5803
     53  Bq   Isotropic =    12.9853   Anisotropy =    20.2447
   XX=     5.3107   YX=   -11.0847   ZX=   -21.6528
   XY=   -11.7998   YY=    14.3755   ZY=   -14.4674
   XZ=    -0.8760   YZ=    -3.0813   ZZ=    19.2698
   Eigenvalues:    -9.5220    21.9962    26.4817
     54  Bq   Isotropic =    14.8900   Anisotropy =     3.3771
   XX=    13.6105   YX=    -3.1856   ZX=    -7.4813
   XY=     0.1416   YY=    14.5590   ZY=    -5.3090
   XZ=    10.2095   YZ=     5.5483   ZZ=    16.5004
   Eigenvalues:    12.1642    15.3644    17.1413
     55  Bq   Isotropic =     7.5931   Anisotropy =    30.0268
   XX=    -7.0760   YX=   -15.8691   ZX=   -24.3592
   XY=   -20.1479   YY=     9.3208   ZY=   -15.6721
   XZ=    -4.3178   YZ=    -5.6276   ZZ=    20.5345
   Eigenvalues:   -25.5589    20.7273    27.6110
     56  Bq   Isotropic =    12.9844   Anisotropy =     8.0223
   XX=    11.2806   YX=    -2.3327   ZX=    -4.4362
   XY=     1.1917   YY=    11.9920   ZY=    -3.0052
   XZ=    12.1518   YZ=     7.3221   ZZ=    15.6806
   Eigenvalues:     8.3120    12.3086    18.3326
     57  Bq   Isotropic =     0.9672   Anisotropy =    38.3733
   XX=   -21.9147   YX=   -20.3667   ZX=   -22.0423
   XY=   -29.2361   YY=     3.1124   ZY=   -13.4454
   XZ=    -5.9308   YZ=    -6.7668   ZZ=    21.7038
   Eigenvalues:   -41.8427    18.1948    26.5494
     58  Bq   Isotropic =    10.9149   Anisotropy =    12.0530
   XX=     8.5602   YX=    -1.8897   ZX=    -2.3576
   XY=     1.6321   YY=     9.3619   ZY=    -1.3037
   XZ=    13.2117   YZ=     8.4793   ZZ=    14.8227
   Eigenvalues:     4.5455     9.2490    18.9503
     59  Bq   Isotropic =    -3.5159   Anisotropy =    42.2997
   XX=   -32.3196   YX=   -22.6398   ZX=   -13.8268
   XY=   -35.6005   YY=    -0.9281   ZY=    -7.3008
   XZ=    -5.6861   YZ=    -6.3395   ZZ=    22.7001
   Eigenvalues:   -51.6022    16.3707    24.6840
     60  Bq   Isotropic =     8.9774   Anisotropy =    14.7220
   XX=     6.0009   YX=    -1.6737   ZX=    -1.0092
   XY=     1.7471   YY=     6.9913   ZY=    -0.0988
   XZ=    13.6124   YZ=     9.1451   ZZ=    13.9399
   Eigenvalues:     1.4932     6.6469    18.7920
     61  Bq   Isotropic =    -2.8465   Anisotropy =    40.4528
   XX=   -32.3108   YX=   -21.5218   ZX=    -2.4616
   XY=   -35.9982   YY=    -0.1484   ZY=     0.8517
   XZ=    -4.0819   YZ=    -4.8841   ZZ=    23.9197
   Eigenvalues:   -49.3816    16.7200    24.1221
     62  Bq   Isotropic =    15.7297   Anisotropy =    11.4301
   XX=    12.3124   YX=    -7.2787   ZX=   -16.6871
   XY=    -5.7494   YY=    16.6833   ZY=   -11.5188
   XZ=     3.3447   YZ=     0.0821   ZZ=    18.1933
   Eigenvalues:     2.6775    21.1618    23.3497
     63  Bq   Isotropic =    15.8776   Anisotropy =     6.1462
   XX=    16.6375   YX=    -6.5004   ZX=    -9.8114
   XY=    -2.5331   YY=    13.8005   ZY=    -8.7237
   XZ=     6.4907   YZ=     4.9263   ZZ=    17.1949
   Eigenvalues:     9.6474    18.0104    19.9751
     64  Bq   Isotropic =    15.1222   Anisotropy =    17.4569
   XX=    13.0702   YX=   -14.0309   ZX=   -17.0343
   XY=   -12.6317   YY=    11.1309   ZY=   -15.0055
   XZ=    -0.3712   YZ=    -1.1318   ZZ=    21.1655
   Eigenvalues:    -6.3593    24.9657    26.7601
     65  Bq   Isotropic =    14.3435   Anisotropy =     3.8082
   XX=    14.6958   YX=    -4.4351   ZX=    -6.4806
   XY=    -0.1882   YY=    12.5018   ZY=    -5.5896
   XZ=     9.2035   YZ=     7.2184   ZZ=    15.8328
   Eigenvalues:    10.6464    15.5017    16.8823
     66  Bq   Isotropic =    12.0666   Anisotropy =    25.2045
   XX=     5.9418   YX=   -19.2086   ZX=   -18.4305
   XY=   -20.6210   YY=     6.4664   ZY=   -15.8795
   XZ=    -3.0151   YZ=    -3.8831   ZZ=    23.7917
   Eigenvalues:   -18.7098    26.0401    28.8696
     67  Bq   Isotropic =    12.3469   Anisotropy =     7.9247
   XX=    11.8596   YX=    -3.1693   ZX=    -3.9183
   XY=     1.0426   YY=    10.4730   ZY=    -3.0745
   XZ=    11.0764   YZ=     8.8147   ZZ=    14.7082
   Eigenvalues:     7.2750    12.1358    17.6301
     68  Bq   Isotropic =     8.1120   Anisotropy =    32.3154
   XX=    -3.0827   YX=   -23.8841   ZX=   -15.9928
   XY=   -28.9351   YY=     1.0529   ZY=   -13.2647
   XZ=    -3.9248   YZ=    -5.5596   ZZ=    26.3659
   Eigenvalues:   -30.7901    25.4705    29.6556
     69  Bq   Isotropic =    10.3039   Anisotropy =    11.7683
   XX=     8.9102   YX=    -2.4265   ZX=    -2.0968
   XY=     1.6000   YY=     8.2820   ZY=    -1.2099
   XZ=    12.1799   YZ=     9.7934   ZZ=    13.7196
   Eigenvalues:     3.7942     8.9682    18.1495
     70  Bq   Isotropic =     5.3426   Anisotropy =    36.3228
   XX=    -9.8432   YX=   -26.1637   ZX=    -9.2594
   XY=   -34.5996   YY=    -2.3946   ZY=    -6.9078
   XZ=    -2.9348   YZ=    -5.9434   ZZ=    28.2657
   Eigenvalues:   -37.9049    24.3749    29.5579
     71  Bq   Isotropic =     8.4367   Anisotropy =    14.3737
   XX=     6.2500   YX=    -2.0031   ZX=    -0.8720
   XY=     1.7804   YY=     6.2445   ZY=     0.1019
   XZ=    12.6765   YZ=    10.2890   ZZ=    12.8155
   Eigenvalues:     0.9336     6.3574    18.0191
     72  Bq   Isotropic =     5.5826   Anisotropy =    35.6185
   XX=   -10.4944   YX=   -24.8210   ZX=    -0.2941
   XY=   -34.9829   YY=    -1.7476   ZY=     1.2456
   XZ=    -0.7792   YZ=    -5.4323   ZZ=    28.9897
   Eigenvalues:   -36.3893    23.8087    29.3283
     73  Bq   Isotropic =    16.3417   Anisotropy =    10.9795
   XX=    16.5086   YX=    -9.6578   ZX=   -13.6224
   XY=    -6.5362   YY=    13.5808   ZY=   -12.1440
   XZ=     3.1106   YZ=     2.0222   ZZ=    18.9359
   Eigenvalues:     3.4188    21.9451    23.6614
     74  Bq   Isotropic =    15.0563   Anisotropy =     8.4867
   XX=    18.0382   YX=    -7.3833   ZX=    -7.3832
   XY=    -2.4346   YY=    11.5509   ZY=    -7.5944
   XZ=     6.1170   YZ=     7.0458   ZZ=    15.5799
   Eigenvalues:     8.8669    15.5879    20.7141
     75  Bq   Isotropic =    16.1959   Anisotropy =    18.2436
   XX=    19.2601   YX=   -14.5507   ZX=   -11.7865
   XY=   -11.2117   YY=     9.2034   ZY=   -12.8614
   XZ=     0.7505   YZ=     1.4723   ZZ=    20.1243
   Eigenvalues:    -2.3238    22.5533    28.3584
     76  Bq   Isotropic =    13.3149   Anisotropy =     5.1434
   XX=    15.2333   YX=    -5.1839   ZX=    -5.0000
   XY=    -0.2156   YY=    10.6224   ZY=    -4.7542
   XZ=     8.4448   YZ=     9.0184   ZZ=    14.0891
   Eigenvalues:     8.1729    15.0280    16.7439
     77  Bq   Isotropic =    15.0704   Anisotropy =    22.8806
   XX=    16.5248   YX=   -19.0104   ZX=   -12.0359
   XY=   -17.6232   YY=     5.5944   ZY=   -13.3177
   XZ=    -1.0360   YZ=    -1.4084   ZZ=    23.0919
   Eigenvalues:   -10.8884    25.7754    30.3241
     78  Bq   Isotropic =    11.3380   Anisotropy =     8.1614
   XX=    12.0334   YX=    -3.7355   ZX=    -3.0460
   XY=     1.0091   YY=     9.0332   ZY=    -2.4121
   XZ=    10.1486   YZ=    10.3290   ZZ=    12.9473
   Eigenvalues:     5.1348    12.1002    16.7789
     79  Bq   Isotropic =    13.2737   Anisotropy =    26.4929
   XX=    12.3123   YX=   -22.7820   ZX=    -9.6316
   XY=   -23.9657   YY=     1.5539   ZY=   -10.8757
   XZ=    -1.3414   YZ=    -3.6787   ZZ=    25.9549
   Eigenvalues:   -18.9022    27.7876    30.9356
     80  Bq   Isotropic =     9.4095   Anisotropy =    11.7030
   XX=     8.9621   YX=    -2.8213   ZX=    -1.5852
   XY=     1.5952   YY=     7.2413   ZY=    -0.6491
   XZ=    11.2242   YZ=    11.0664   ZZ=    12.0252
   Eigenvalues:     2.1991     8.8179    17.2115
     81  Bq   Isotropic =    11.8786   Anisotropy =    29.3652
   XX=     8.7027   YX=   -24.4251   ZX=    -4.5212
   XY=   -28.1486   YY=    -1.0044   ZY=    -5.5260
   XZ=    -0.1254   YZ=    -5.0794   ZZ=    27.9374
   Eigenvalues:   -23.4842    27.6645    31.4554
     82  Bq   Isotropic =     7.6820   Anisotropy =    14.1368
   XX=     6.2820   YX=    -2.2594   ZX=    -0.5621
   XY=     1.8040   YY=     5.5247   ZY=     0.5959
   XZ=    11.7695   YZ=    11.3600   ZZ=    11.2393
   Eigenvalues:    -0.2251     6.1646    17.1065
     83  Bq   Isotropic =    11.8141   Anisotropy =    30.2317
   XX=     7.7257   YX=   -23.0374   ZX=     1.8563
   XY=   -28.4435   YY=    -0.6243   ZY=     1.1523
   XZ=     1.8421   YZ=    -5.7922   ZZ=    28.3409
   Eigenvalues:   -22.5325    26.0062    31.9685
     84  Bq   Isotropic =    16.1525   Anisotropy =    13.1865
   XX=    19.6577   YX=   -10.5138   ZX=    -9.8796
   XY=    -6.0314   YY=    11.2325   ZY=   -10.5624
   XZ=     3.3815   YZ=     4.4471   ZZ=    17.5674
   Eigenvalues:     4.7124    18.8017    24.9436
     85  Bq   Isotropic =    13.5997   Anisotropy =    10.1976
   XX=    18.2732   YX=    -7.4872   ZX=    -4.8819
   XY=    -1.9066   YY=     9.9906   ZY=    -5.4924
   XZ=     6.0482   YZ=     8.9518   ZZ=    12.5351
   Eigenvalues:     7.2459    13.1550    20.3981
     86  Bq   Isotropic =    15.8086   Anisotropy =    19.3454
   XX=    22.4822   YX=   -13.4816   ZX=    -7.0603
   XY=    -8.7553   YY=     8.6121   ZY=    -9.4889
   XZ=     2.1200   YZ=     3.8997   ZZ=    16.3316
   Eigenvalues:     1.5447    17.1756    28.7056
     87  Bq   Isotropic =    11.8470   Anisotropy =     6.6950
   XX=    15.0150   YX=    -5.4385   ZX=    -3.3582
   XY=    -0.0225   YY=     9.1904   ZY=    -3.1990
   XZ=     7.9358   YZ=    10.5937   ZZ=    11.3358
   Eigenvalues:     5.1320    14.0987    16.3104
     88  Bq   Isotropic =    15.8771   Anisotropy =    23.5100
   XX=    22.5163   YX=   -16.8273   ZX=    -6.5793
   XY=   -13.3744   YY=     6.3049   ZY=    -9.7363
   XZ=     1.0408   YZ=     0.9167   ZZ=    18.8101
   Eigenvalues:    -3.9205    20.0014    31.5504
     89  Bq   Isotropic =    10.0144   Anisotropy =     8.6928
   XX=    11.7004   YX=    -4.0004   ZX=    -2.0016
   XY=     1.0685   YY=     7.8769   ZY=    -1.2550
   XZ=     9.4008   YZ=    11.6186   ZZ=    10.4659
   Eigenvalues:     2.5009    11.7327    15.8096
     90  Bq   Isotropic =    15.4011   Anisotropy =    26.6756
   XX=    21.3009   YX=   -19.4120   ZX=    -4.3892
   XY=   -17.7143   YY=     3.7257   ZY=    -7.9032
   XZ=     1.1058   YZ=    -1.8956   ZZ=    21.1767
   Eigenvalues:    -8.8639    21.8824    33.1848
     91  Bq   Isotropic =     8.2850   Anisotropy =    11.8248
   XX=     8.6659   YX=    -3.0367   ZX=    -0.9248
   XY=     1.6148   YY=     6.3825   ZY=     0.2339
   XZ=    10.3847   YZ=    12.1245   ZZ=     9.8065
   Eigenvalues:     0.1611     8.5256    16.1682
     92  Bq   Isotropic =    14.8419   Anisotropy =    28.5459
   XX=    19.6971   YX=   -20.2896   ZX=    -0.6580
   XY=   -20.4629   YY=     2.0462   ZY=    -4.0933
   XZ=     2.2160   YZ=    -4.2550   ZZ=    22.7825
   Eigenvalues:   -11.6078    22.2611    33.8726
     93  Bq   Isotropic =     6.7577   Anisotropy =    13.9974
   XX=     6.0718   YX=    -2.4103   ZX=    -0.1365
   XY=     1.8199   YY=     4.9276   ZY=     1.2906
   XZ=    10.9286   YZ=    12.2329   ZZ=     9.2737
   Eigenvalues:    -1.7411     5.9249    16.0893
     94  Bq   Isotropic =    14.6224   Anisotropy =    28.7585
   XX=    18.6688   YX=   -18.9293   ZX=     3.6482
   XY=   -20.6168   YY=     2.1448   ZY=     0.6071
   XZ=     3.7008   YZ=    -6.1187   ZZ=    23.0537
   Eigenvalues:   -11.0249    21.0975    33.7947
     95  Bq   Isotropic =    15.0098   Anisotropy =    14.6955
   XX=    20.9552   YX=   -10.2119   ZX=    -6.2839
   XY=    -4.8057   YY=     9.8877   ZY=    -7.7992
   XZ=     3.9668   YZ=     6.6769   ZZ=    14.1864
   Eigenvalues:     5.9660    14.2565    24.8068
     96  Bq   Isotropic =    11.6618   Anisotropy =    11.1084
   XX=    17.3490   YX=    -7.0540   ZX=    -2.6434
   XY=    -1.2053   YY=     9.0930   ZY=    -3.1249
   XZ=     6.1742   YZ=    10.2895   ZZ=     8.5434
   Eigenvalues:     3.9335    11.9846    19.0674
     97  Bq   Isotropic =    14.1641   Anisotropy =    19.4860
   XX=    22.7866   YX=   -11.6882   ZX=    -3.3302
   XY=    -6.1950   YY=     8.8448   ZY=    -6.0776
   XZ=     3.4404   YZ=     5.6276   ZZ=    10.8610
   Eigenvalues:     4.4730    10.8646    27.1548
     98  Bq   Isotropic =    10.0711   Anisotropy =     7.8131
   XX=    14.0584   YX=    -5.3004   ZX=    -1.7896
   XY=     0.2803   YY=     8.2549   ZY=    -1.3995
   XZ=     7.6312   YZ=    11.6844   ZZ=     7.9002
   Eigenvalues:     1.7324    13.2012    15.2798
     99  Bq   Isotropic =    14.7726   Anisotropy =    23.2263
   XX=    24.1617   YX=   -13.9958   ZX=    -2.4960
   XY=    -9.3156   YY=     7.6898   ZY=    -6.3523
   XZ=     2.8452   YZ=     2.5756   ZZ=    12.4662
   Eigenvalues:     1.4223    12.6386    30.2568
    100  Bq   Isotropic =     8.4828   Anisotropy =     9.4448
   XX=    10.8823   YX=    -3.9958   ZX=    -0.9379
   XY=     1.1794   YY=     7.0714   ZY=     0.0895
   XZ=     8.8269   YZ=    12.4977   ZZ=     7.4946
   Eigenvalues:    -0.3029    10.9719    14.7793
    101  Bq   Isotropic =    14.9293   Anisotropy =    26.0055
   XX=    24.4510   YX=   -15.5781   ZX=    -0.6147
   XY=   -12.1028   YY=     6.2981   ZY=    -5.2949
   XZ=     3.0654   YZ=    -0.6194   ZZ=    14.0388
   Eigenvalues:    -1.4432    13.9649    32.2664
    102  Bq   Isotropic =     7.0138   Anisotropy =    12.0901
   XX=     8.0417   YX=    -3.0743   ZX=    -0.2117
   XY=     1.6466   YY=     5.7665   ZY=     1.2422
   XZ=     9.6745   YZ=    12.8348   ZZ=     7.2332
   Eigenvalues:    -2.0204     7.9880    15.0739
    103  Bq   Isotropic =    14.7881   Anisotropy =    27.4850
   XX=    23.9175   YX=   -15.8569   ZX=     2.0754
   XY=   -13.7763   YY=     5.3012   ZY=    -3.0051
   XZ=     3.9321   YZ=    -3.6588   ZZ=    15.1457
   Eigenvalues:    -3.0098    14.2627    33.1115
    104  Bq   Isotropic =     5.7276   Anisotropy =    13.9319
   XX=     5.6358   YX=    -2.4461   ZX=     0.3453
   XY=     1.8266   YY=     4.4998   ZY=     2.0584
   XZ=    10.1744   YZ=    12.8113   ZZ=     7.0473
   Eigenvalues:    -3.3849     5.5522    15.0156
    105  Bq   Isotropic =    14.5247   Anisotropy =    27.4283
   XX=    22.9964   YX=   -14.5601   ZX=     4.9275
   XY=   -13.7871   YY=     5.1842   ZY=    -0.1351
   XZ=     4.9137   YZ=    -6.3377   ZZ=    15.3936
   Eigenvalues:    -2.6612    13.4251    32.8102
    106  Bq   Isotropic =    13.0869   Anisotropy =    15.2636
   XX=    20.4007   YX=    -9.2416   ZX=    -3.2672
   XY=    -3.3815   YY=     9.3416   ZY=    -4.8290
   XZ=     4.6673   YZ=     8.2565   ZZ=     9.5185
   Eigenvalues:     5.6054    10.3927    23.2627
    107  Bq   Isotropic =     9.4808   Anisotropy =    11.2909
   XX=    15.5574   YX=    -6.3114   ZX=    -0.8082
   XY=    -0.5091   YY=     8.6519   ZY=    -0.9979
   XZ=     6.3824   YZ=    10.9306   ZZ=     4.2330
   Eigenvalues:    -0.1261    11.5604    17.0080
    108  Bq   Isotropic =    11.7619   Anisotropy =    18.6973
   XX=    20.9906   YX=    -9.7228   ZX=    -0.6221
   XY=    -3.9895   YY=     9.3489   ZY=    -3.2653
   XZ=     4.5426   YZ=     6.5217   ZZ=     4.9462
   Eigenvalues:     3.1433     7.9156    24.2267
    109  Bq   Isotropic =     8.1596   Anisotropy =     8.5201
   XX=    12.5437   YX=    -4.8930   ZX=    -0.4233
   XY=     0.6040   YY=     7.7142   ZY=     0.2662
   XZ=     7.4616   YZ=    12.1845   ZZ=     4.2209
   Eigenvalues:    -1.6809    12.3200    13.8396
    110  Bq   Isotropic =    12.4862   Anisotropy =    21.9646
   XX=    22.7704   YX=   -11.2296   ZX=     0.3103
   XY=    -6.0173   YY=     9.0223   ZY=    -3.6955
   XZ=     4.2310   YZ=     3.4676   ZZ=     5.6657
   Eigenvalues:     4.2374     6.0919    27.1292
    111  Bq   Isotropic =     6.8710   Anisotropy =    10.3071
   XX=     9.6945   YX=    -3.7813   ZX=     0.0428
   XY=     1.3041   YY=     6.5746   ZY=     1.3551
   XZ=     8.3927   YZ=    12.8826   ZZ=     4.3439
   Eigenvalues:    -3.0310     9.9016    13.7424
    112  Bq   Isotropic =    12.8486   Anisotropy =    24.3622
   XX=    23.6341   YX=   -12.1040   ZX=     1.8596
   XY=    -7.7365   YY=     8.4395   ZY=    -3.3542
   XZ=     4.4611   YZ=     0.1064   ZZ=     6.4723
   Eigenvalues:     3.5402     5.9156    29.0901
    113  Bq   Isotropic =     5.6915   Anisotropy =    12.4319
   XX=     7.1651   YX=    -2.9587   ZX=     0.4795
   XY=     1.6784   YY=     5.3799   ZY=     2.1941
   XZ=     9.0835   YZ=    13.1328   ZZ=     4.5295
   Eigenvalues:    -4.1352     7.2303    13.9794
    114  Bq   Isotropic =    12.8744   Anisotropy =    25.5720
   XX=    23.5990   YX=   -12.0028   ZX=     3.7931
   XY=    -8.6933   YY=     7.8985   ZY=    -2.2905
   XZ=     5.0522   YZ=    -3.2634   ZZ=     7.1259
   Eigenvalues:     2.6806     6.0203    29.9225
    115  Bq   Isotropic =     4.6627   Anisotropy =    13.9037
   XX=     5.0236   YX=    -2.3742   ZX=     0.8315
   XY=     1.8229   YY=     4.2393   ZY=     2.7769
   XZ=     9.5109   YZ=    13.0463   ZZ=     4.7251
   Eigenvalues:    -4.9849     5.0410    13.9318
    116  Bq   Isotropic =    12.6308   Anisotropy =    25.4128
   XX=    22.8585   YX=   -10.8024   ZX=     5.6728
   XY=    -8.5965   YY=     7.6522   ZY=    -0.8448
   XZ=     5.6057   YZ=    -6.3595   ZZ=     7.3817
   Eigenvalues:     2.7247     5.5950    29.5726
    117  Bq   Isotropic =    10.7240   Anisotropy =    14.9837
   XX=    18.4816   YX=    -7.9797   ZX=    -0.9419
   XY=    -2.0683   YY=     9.2320   ZY=    -2.2649
   XZ=     5.3309   YZ=     9.0445   ZZ=     4.4585
   Eigenvalues:     1.5413     9.9177    20.7132
    118  Bq   Isotropic =     7.2921   Anisotropy =    10.9261
   XX=    13.2890   YX=    -5.4222   ZX=     0.6085
   XY=     0.0934   YY=     8.4329   ZY=     0.6393
   XZ=     6.5831   YZ=    10.9318   ZZ=     0.1545
   Eigenvalues:    -3.9534    11.2536    14.5762
    119  Bq   Isotropic =     9.1103   Anisotropy =    17.2569
   XX=    18.0606   YX=    -7.8474   ZX=     1.2312
   XY=    -2.2652   YY=     9.7531   ZY=    -1.2407
   XZ=     5.3609   YZ=     6.7099   ZZ=    -0.4828
   Eigenvalues:    -2.2022     8.9182    20.6149
    120  Bq   Isotropic =     6.2788   Anisotropy =     9.2859
   XX=    10.7178   YX=    -4.3227   ZX=     0.6923
   XY=     0.8967   YY=     7.4122   ZY=     1.5818
   XZ=     7.3568   YZ=    12.1241   ZZ=     0.7064
   Eigenvalues:    -4.7772    11.1441    12.4694
    121  Bq   Isotropic =     9.7401   Anisotropy =    20.0202
   XX=    19.7557   YX=    -8.7882   ZX=     2.1147
   XY=    -3.5501   YY=     9.9322   ZY=    -1.8485
   XZ=     5.1884   YZ=     3.7411   ZZ=    -0.4676
   Eigenvalues:    -1.5112     7.6446    23.0869
    122  Bq   Isotropic =     5.3002   Anisotropy =    11.1650
   XX=     8.2955   YX=    -3.4202   ZX=     0.8851
   XY=     1.4182   YY=     6.2896   ZY=     2.3717
   XZ=     8.0527   YZ=    12.7874   ZZ=     1.3154
   Eigenvalues:    -5.4774     8.6343    12.7435
    123  Bq   Isotropic =    10.0965   Anisotropy =    22.0323
   XX=    20.7142   YX=    -9.2072   ZX=     3.3463
   XY=    -4.5792   YY=     9.8300   ZY=    -2.0534
   XZ=     5.3497   YZ=     0.4180   ZZ=    -0.2546
   Eigenvalues:    -1.1538     6.6587    24.7847
    124  Bq   Isotropic =     4.4075   Anisotropy =    12.7691
   XX=     6.1395   YX=    -2.7246   ZX=     1.0996
   XY=     1.7021   YY=     5.1643   ZY=     2.9638
   XZ=     8.5878   YZ=    13.0244   ZZ=     1.9187
   Eigenvalues:    -6.0264     6.3287    12.9202
    125  Bq   Isotropic =    10.1639   Anisotropy =    23.0228
[...]
   140  Bq   0.000000
   141  Bq   0.000000
   142  Bq   0.000000
   143  Bq   0.000000
   144  Bq   0.000000
   145  Bq   0.000000
   146  Bq   0.000000
   147  Bq   0.000000
   148  Bq   0.000000
   149  Bq   0.000000
   150  Bq   0.000000
   151  Bq   0.000000
   152  Bq   0.000000
   153  Bq   0.000000
   154  Bq   0.000000
   155  Bq   0.000000
   156  Bq   0.000000
   157  Bq   0.000000
   158  Bq   0.000000
   159  Bq   0.000000
   160  Bq   0.000000
   161  Bq   0.000000
   162  Bq   0.000000
   163  Bq   0.000000
   164  Bq   0.000000
   165  Bq   0.000000
   166  Bq   0.000000
   167  Bq   0.000000
   168  Bq   0.000000
   169  Bq   0.000000
   170  Bq   0.000000
   171  Bq   0.000000
   172  Bq   0.000000
   173  Bq   0.000000
   174  Bq   0.000000
   175  Bq   0.000000
   176  Bq   0.000000
   177  Bq   0.000000
   178  Bq   0.000000
   179  Bq   0.000000
   180  Bq   0.000000
   181  Bq   0.000000
   182  Bq   0.000000
   183  Bq   0.000000
   184  Bq   0.000000
   185  Bq   0.000000
   186  Bq   0.000000
   187  Bq   0.000000
   188  Bq   0.000000
   189  Bq   0.000000
   190  Bq   0.000000
   191  Bq   0.000000
   192  Bq   0.000000
   193  Bq   0.000000
   194  Bq   0.000000
   195  Bq   0.000000
   196  Bq   0.000000
   197  Bq   0.000000
   198  Bq   0.000000
   199  Bq   0.000000
   200  Bq   0.000000
   201  Bq   0.000000
   202  Bq   0.000000
   203  Bq   0.000000
   204  Bq   0.000000
   205  Bq   0.000000
   206  Bq   0.000000
   207  Bq   0.000000
   208  Bq   0.000000
   209  Bq   0.000000
   210  Bq   0.000000
   211  Bq   0.000000
   212  Bq   0.000000
   213  Bq   0.000000
   214  Bq   0.000000
   215  Bq   0.000000
   216  Bq   0.000000
   217  Bq   0.000000
   218  Bq   0.000000
   219  Bq   0.000000
   220  Bq   0.000000
   221  Bq   0.000000
   222  Bq   0.000000
   223  Bq   0.000000
   224  Bq   0.000000
   225  Bq   0.000000
   226  Bq   0.000000
   227  Bq   0.000000
   228  Bq   0.000000
   229  Bq   0.000000
   230  Bq   0.000000
   231  Bq   0.000000
   232  Bq   0.000000
   233  Bq   0.000000
   234  Bq   0.000000
   235  Bq   0.000000
   236  Bq   0.000000
 Sum of Mulliken charges =   0.00000
 Mulliken charges with hydrogens summed into heavy atoms:
               1
     1  C   -0.255498
     3  C    0.169409
     5  C    0.448258
     6  C    0.064351
     7  C   -0.333926
     9  C   -0.139521
    11  C   -0.205988
    13  C   -0.119315
    15  C    0.653397
    16  C    0.034822
    17  C   -0.317410
    19  C   -0.434284
    21  C    0.651066
    22  C    0.037784
    23  C   -0.117289
    25  C   -0.205316
    27  C    0.448331
    28  C    0.061983
    29  C   -0.333381
    31  C   -0.139505
    33  C   -0.255977
    35  C    0.170579
    37  Bq   0.000000
    38  Bq   0.000000
    39  Bq   0.000000
    40  Bq   0.000000
    41  Bq   0.000000
    42  Bq   0.000000
    43  Bq   0.000000
    44  Bq   0.000000
    45  Bq   0.000000
    46  Bq   0.000000
    47  Bq   0.000000
    48  Bq   0.000000
    49  Bq   0.000000
    50  Bq   0.000000
    51  Bq   0.000000
    52  Bq   0.000000
    53  Bq   0.000000
    54  Bq   0.000000
    55  Bq   0.000000
    56  Bq   0.000000
    57  Bq   0.000000
    58  Bq   0.000000
    59  Bq   0.000000
    60  Bq   0.000000
    61  Bq   0.000000
    62  Bq   0.000000
    63  Bq   0.000000
    64  Bq   0.000000
    65  Bq   0.000000
    66  Bq   0.000000
    67  Bq   0.000000
    68  Bq   0.000000
    69  Bq   0.000000
    70  Bq   0.000000
    71  Bq   0.000000
    72  Bq   0.000000
    73  Bq   0.000000
    74  Bq   0.000000
    75  Bq   0.000000
    76  Bq   0.000000
    77  Bq   0.000000
    78  Bq   0.000000
    79  Bq   0.000000
    80  Bq   0.000000
    81  Bq   0.000000
    82  Bq   0.000000
    83  Bq   0.000000
    84  Bq   0.000000
    85  Bq   0.000000
    86  Bq   0.000000
    87  Bq   0.000000
    88  Bq   0.000000
    89  Bq   0.000000
    90  Bq   0.000000
    91  Bq   0.000000
    92  Bq   0.000000
    93  Bq   0.000000
    94  Bq   0.000000
    95  Bq   0.000000
    96  Bq   0.000000
    97  Bq   0.000000
    98  Bq   0.000000
    99  Bq   0.000000
   100  Bq   0.000000
   101  Bq   0.000000
   102  Bq   0.000000
   103  Bq   0.117431
   104  Bq   0.000000
   105  Bq   0.000000
   106  Bq   0.000000
   107  Bq   0.000000
   108  Bq   0.000000
   109  Bq   0.000000
   110  Bq   0.000000
   111  Bq   0.000000
   112  Bq   0.000000
   113  Bq   0.000000
   114  Bq   0.000000
   115  Bq   0.000000
   116  Bq   0.000000
   117  Bq   0.000000
   118  Bq   0.000000
   119  Bq   0.000000
   120  Bq   0.000000
   121  Bq   0.000000
   122  Bq   0.000000
   123  Bq   0.000000
   124  Bq   0.000000
   125  Bq   0.000000
   126  Bq   0.000000
   127  Bq   0.000000
   128  Bq   0.000000
   129  Bq   0.000000
   130  Bq   0.000000
   131  Bq   0.000000
   132  Bq   0.000000
   133  Bq   0.000000
   134  Bq   0.000000
   135  Bq   0.000000
   136  Bq   0.000000
   137  Bq   0.000000
   138  Bq   0.000000
   139  Bq   0.000000
   140  Bq   0.000000
   141  Bq   0.000000
   142  Bq   0.000000
   143  Bq   0.000000
   144  Bq   0.000000
   145  Bq   0.000000
   146  Bq   0.000000
   147  Bq   0.000000
   148  Bq   0.000000
   149  Bq   0.000000
   150  Bq   0.000000
   151  Bq   0.000000
   152  Bq   0.000000
   153  Bq   0.000000
   154  Bq   0.000000
   155  Bq   0.000000
   156  Bq   0.000000
   157  Bq   0.000000
   158  Bq   0.000000
   159  Bq   0.000000
   160  Bq   0.000000
   161  Bq   0.000000
   162  Bq   0.000000
   163  Bq   0.000000
   164  Bq   0.000000
   165  Bq   0.000000
   166  Bq   0.000000
   167  Bq   0.000000
   168  Bq   0.000000
   169  Bq   0.000000
   170  Bq   0.000000
   171  Bq   0.000000
   172  Bq   0.000000
   173  Bq   0.000000
   174  Bq   0.000000
   175  Bq   0.000000
   176  Bq   0.000000
   177  Bq   0.000000
   178  Bq   0.000000
   179  Bq   0.000000
   180  Bq   0.000000
   181  Bq   0.000000
   182  Bq   0.000000
   183  Bq   0.000000
   184  Bq   0.000000
   185  Bq   0.000000
   186  Bq   0.000000
   187  Bq   0.000000
   188  Bq   0.000000
   189  Bq   0.000000
   190  Bq   0.000000
   191  Bq   0.000000
   192  Bq   0.000000
   193  Bq   0.000000
   194  Bq   0.000000
   195  Bq   0.000000
   196  Bq   0.000000
   197  Bq   0.000000
   198  Bq   0.000000
   199  Bq   0.000000
   200  Bq   0.000000
   201  Bq   0.000000
   202  Bq   0.000000
   203  Bq   0.000000
   204  Bq   0.000000
   205  Bq   0.000000
   206  Bq   0.000000
   207  Bq   0.000000
   208  Bq   0.000000
   209  Bq   0.000000
   210  Bq   0.000000
   211  Bq   0.000000
   212  Bq   0.000000
   213  Bq   0.000000
   214  Bq   0.000000
   215  Bq   0.000000
   216  Bq   0.000000
   217  Bq   0.000000
   218  Bq   0.000000
   219  Bq   0.000000
   220  Bq   0.000000
   221  Bq   0.000000
   222  Bq   0.000000
   223  Bq   0.000000
   224  Bq   0.000000
   225  Bq   0.000000
   226  Bq   0.000000
   227  Bq   0.000000
   228  Bq   0.000000
   229  Bq   0.000000
   230  Bq   0.000000
   231  Bq   0.000000
   232  Bq   0.000000
   233  Bq   0.000000
   234  Bq   0.000000
   235  Bq   0.000000
   236  Bq   0.000000
 Electronic spatial extent (au):  <R**2>=           5736.9264
 Charge=              0.0000 electrons
 Dipole moment (field-independent basis, Debye):
    X=              0.0475    Y=              0.0856    Z=              0.0029  Tot=              0.0979
 Quadrupole moment (field-independent basis, Debye-Ang):
   XX=           -113.7056   YY=           -113.9456   ZZ=           -133.2669
   XY=             -0.3834   XZ=              3.2102   YZ=             -1.1839
 Traceless Quadrupole moment (field-independent basis, Debye-Ang):
   XX=              6.6005   YY=              6.3604   ZZ=            -12.9609
   XY=             -0.3834   XZ=              3.2102   YZ=             -1.1839
 Octapole moment (field-independent basis, Debye-Ang**2):
  XXX=            -16.4668  YYY=            -16.1860  ZZZ=             -1.7007  XYY=              2.5576
  XXY=             -6.5650  XXZ=             13.6547  XZZ=             -8.9478  YZZ=            -17.7168
  YYZ=            -13.2941  XYZ=              8.8036
 Hexadecapole moment (field-independent basis, Debye-Ang**3):
 XXXX=          -3951.1638 YYYY=          -3112.2161 ZZZZ=           -504.8311 XXXY=            340.6935
 XXXZ=            156.4968 YYYX=            335.5625 YYYZ=            -87.0893 ZZZX=            120.2262
 ZZZY=           -108.7373 XXYY=          -1176.4844 XXZZ=           -856.7291 YYZZ=           -665.7275
 XXYZ=            -68.9016 YYXZ=             48.1602 ZZXY=            153.0375
 N-N= 1.610917615562D+03 E-N=-5.186891130729D+03  KE= 8.436329774449D+02
 1\1\GINC-PLANA\SP\RB3LYP\6-311+G(d,p)\C22H14\YANNICK\22-Aug-2020\0\\# 
 rb3lyp/6-311+g** NMR geom=connectivity\\Title\\0,1\C,0,-4.0500558,-0.5
 771862,0.8136712\H,0,-5.0263804,-1.0082727,1.002476\C,0,-3.9381552,0.6
 617804,0.2400876\H,0,-4.8252424,1.233889,-0.0111295\C,0,-2.676841,1.24
 33246,0.0057578\C,0,-1.4974121,0.5051527,0.2848253\C,0,-1.6508332,-0.7
 338728,0.9404026\H,0,-0.7713646,-1.2730967,1.2633753\C,0,-2.8898548,-1
 .2624035,1.1994307\H,0,-2.9683706,-2.2124563,1.7152676\C,0,-2.5773185,
 2.5963696,-0.419293\H,0,-3.4870728,3.1412239,-0.6474055\C,0,-1.3741895
 ,3.2147896,-0.436403\H,0,-1.2997315,4.2742019,-0.6578144\C,0,-0.171948
 8,2.499409,-0.1734588\C,0,-0.2043917,1.1018437,0.0192689\C,0,1.0513491
 ,3.204256,-0.0676222\H,0,1.0427344,4.2819499,-0.1896997\C,0,2.1942091,
 2.5487446,0.2579577\H,0,3.1168527,3.0912848,0.4334727\C,0,2.2216473,1.
 1336562,0.293499\C,0,1.0486931,0.3945528,0.0302412\C,0,3.4483363,0.461
 4633,0.5573939\H,0,4.3095794,1.0606054,0.8334846\C,0,3.5427346,-0.8855
 926,0.4749463\H,0,4.4731467,-1.3939704,0.7038822\C,0,2.4490052,-1.6474
 447,-0.0196319\C,0,1.2150704,-1.0057258,-0.3013573\C,0,0.2531113,-1.74
 3444,-1.0216591\H,0,-0.6541356,-1.2535051,-1.3462847\C,0,0.4494193,-3.
 0628597,-1.3413779\H,0,-0.3083162,-3.5944309,-1.905406\C,0,1.6251726,-
 3.7207967,-0.9552541\H,0,1.7670048,-4.7687404,-1.1927019\C,0,2.6109872
 ,-3.0144177,-0.318305\H,0,3.5525612,-3.4902813,-0.0646367\Bq,0,2.49793
 0526,2.5178117094,0.3421762316\Bq,0,2.3676469486,2.5620330751,1.231597
 7629\Bq,0,2.512406479,2.5128982243,0.243351617\Bq,0,2.4400267138,2.537
 4656497,0.7374746899\Bq,0,2.4262628947,2.6422583502,0.8314376998\Bq,0,
 2.4552148008,2.63243138,0.6337884706\Bq,0,2.4117869416,2.6471718353,0.
 9302623143\Bq,0,2.4696907538,2.6275178949,0.534963856\Bq,0,2.397310988
 6,2.6520853203,1.0290869289\Bq,0,2.4841667069,2.6226044098,0.436139241
 4\Bq,0,2.3828350355,2.6569988054,1.1279115435\Bq,0,2.4986426599,2.6176
 909248,0.3373146268\Bq,0,2.3683590825,2.6619122905,1.2267361581\Bq,0,2
 .5131186129,2.6127774397,0.2384900122\Bq,0,2.4407388477,2.6373448651,0
 .7326130852\Bq,0,2.4269750286,2.7421375656,0.826576095\Bq,0,2.45592693
 47,2.7323105954,0.6289268658\Bq,0,2.4124990756,2.7470510506,0.92540070
 96\Bq,0,2.4704028877,2.7273971103,0.5301022512\Bq,0,2.3980231225,2.751
 9645357,1.0242253242\Bq,0,2.4848788408,2.7224836252,0.4312776366\Bq,0,
 2.3835471695,2.7568780208,1.1230499387\Bq,0,2.4993547938,2.7175701401,
 0.3324530221\Bq,0,2.3690712164,2.7617915059,1.2218745533\Bq,0,2.513830
 7469,2.7126566551,0.2336284075\Bq,0,2.4414509817,2.7372240805,0.727751
 4804\Bq,0,2.4276871626,2.8420167809,0.8217144902\Bq,0,2.4566390686,2.8
 321898108,0.6240652611\Bq,0,2.4132112095,2.846930266,0.9205391048\Bq,0
 ,2.4711150217,2.8272763257,0.5252406465\Bq,0,2.3987352565,2.8518437511
 ,1.0193637194\Bq,0,2.4855909747,2.8223628406,0.4264160319\Bq,0,2.38425
 93034,2.8567572362,1.118188334\Bq,0,2.5000669278,2.8174493555,0.327591
 4173\Bq,0,2.3697833504,2.8616707213,1.2170129486\Bq,0,2.5145428808,2.8
 125358704,0.2287668027\Bq,0,2.4421631156,2.8371032959,0.7228898756\Bq,
 0,2.4283992965,2.9418959963,0.8168528855\Bq,0,2.4573512026,2.932069026
 1,0.6192036563\Bq,0,2.4139233435,2.9468094814,0.9156775\Bq,0,2.4718271
 556,2.9271555411,0.5203790417\Bq,0,2.3994473904,2.9517229665,1.0145021
 146\Bq,0,2.4863031087,2.922242056,0.4215544271\Bq,0,2.3849714374,2.956
 6364516,1.1133267292\Bq,0,2.5007790617,2.9173285709,0.3227298125\Bq,0,
 2.3704954843,2.9615499366,1.2121513438\Bq,0,2.5152550148,2.9124150858,
 0.2239051979\Bq,0,2.4428752495,2.9369825112,0.7180282709\Bq,0,2.429111
 4304,3.0417752117,0.8119912807\Bq,0,2.4580633365,3.0319482415,0.614342
 0515\Bq,0,2.4146354774,3.0466886968,0.9108158953\Bq,0,2.4725392896,3.0
 270347564,0.5155174369\Bq,0,2.4001595244,3.0516021819,1.0096405099\Bq,
 0,2.4870152426,3.0221212714,0.4166928223\Bq,0,2.3856835713,3.056515666
 9,1.1084651244\Bq,0,2.5014911957,3.0172077863,0.3178682078\Bq,0,2.3712
 076183,3.061429152,1.207289739\Bq,0,2.5159671487,3.0122943012,0.219043
 5932\Bq,0,2.4435873835,3.0368617266,0.7131666661\Bq,0,2.4298235644,3.1
 416544271,0.8071296759\Bq,0,2.4587754705,3.1318274569,0.6094804468\Bq,
 0,2.4153476113,3.1465679121,0.9059542905\Bq,0,2.4732514235,3.126913971
 8,0.5106558322\Bq,0,2.4008716583,3.1514813972,1.0047789051\Bq,0,2.4877
 273766,3.1220004867,0.4118312176\Bq,0,2.3863957053,3.1563948823,1.1036
 035197\Bq,0,2.5022033296,3.1170870017,0.313006603\Bq,0,2.3719197522,3.
 1613083674,1.2024281343\Bq,0,2.5166792826,3.1121735166,0.2141819884\Bq
 ,0,2.4442995174,3.136740942,0.7083050613\Bq,0,2.4305356983,3.241533642
 4,0.8022680712\Bq,0,2.4594876044,3.2317066723,0.604618842\Bq,0,2.41605
 97453,3.2464471275,0.9010926857\Bq,0,2.4739635575,3.2267931872,0.50579
 42274\Bq,0,2.4015837922,3.2513606126,0.9999173003\Bq,0,2.4884395105,3.
 2218797021,0.4069696128\Bq,0,2.3871078392,3.2562740977,1.0987419149\Bq
 ,0,2.5029154635,3.216966217,0.3081449982\Bq,0,2.3726318861,3.261187582
 8,1.1975665295\Bq,0,2.5173914166,3.2120527319,0.2093203836\Bq,0,2.4450
 116514,3.2366201574,0.7034434566\Bq,0,2.4312478323,3.3414128578,0.7974
 064664\Bq,0,2.4601997384,3.3315858877,0.5997572372\Bq,0,2.4167718792,3
 .3463263429,0.896231081\Bq,0,2.4746756914,3.3266724026,0.5009326226\Bq
 ,0,2.4022959262,3.351239828,0.9950556956\Bq,0,2.4891516444,3.321758917
 5,0.402108008\Bq,0,2.3878199731,3.3561533131,1.0938803101\Bq,0,2.50362
 75975,3.3168454324,0.3032833935\Bq,0,2.3733440201,3.3610667981,1.19270
 49247\Bq,0,2.5181035505,3.3119319473,0.2044587789\Bq,0,2.4457237853,3.
 3364993727,0.6985818518\Bq,0,2.4319599662,3.4412920732,0.7925448616\Bq
 ,0,2.4609118723,3.431465103,0.5948956325\Bq,0,2.4174840132,3.446205558
 3,0.8913694762\Bq,0,2.4753878253,3.4265516179,0.4960710179\Bq,0,2.4030
 080601,3.4511190434,0.9901940908\Bq,0,2.4898637784,3.4216381329,0.3972
 464033\Bq,0,2.3885321071,3.4560325284,1.0890187054\Bq,0,2.5043397314,3
 .4167246478,0.2984217887\Bq,0,2.374056154,3.4609460135,1.18784332\Bq,0
 ,2.5188156845,3.4118111627,0.1995971741\Bq,0,2.4464359193,3.4363785881
 ,0.693720247\Bq,0,2.4326721001,3.5411712886,0.7876832569\Bq,0,2.461624
 0062,3.5313443184,0.5900340277\Bq,0,2.4181961471,3.5460847737,0.886507
 8714\Bq,0,2.4760999593,3.5264308333,0.4912094131\Bq,0,2.4037201941,3.5
 509982587,0.985332486\Bq,0,2.4905759123,3.5215173482,0.3923847985\Bq,0
 ,2.389244241,3.5559117438,1.0841571006\Bq,0,2.5050518654,3.5166038632,
 0.2935601839\Bq,0,2.374768288,3.5608252289,1.1829817152\Bq,0,2.5195278
 184,3.5116903781,0.1947355693\Bq,0,2.4471480532,3.5362578035,0.6888586
 423\Bq,0,2.4333842341,3.6410505039,0.7828216521\Bq,0,2.4623361402,3.63
 12235338,0.5851724229\Bq,0,2.418908281,3.645963989,0.8816462667\Bq,0,2
 .4768120932,3.6263100487,0.4863478083\Bq,0,2.404432328,3.6508774741,0.
 9804708813\Bq,0,2.4912880463,3.6213965636,0.3875231937\Bq,0,2.38995637
 5,3.6557909592,1.0792954958\Bq,0,2.5057639993,3.6164830785,0.288698579
 2\Bq,0,2.3754804219,3.6607044443,1.1781201104\Bq,0,2.5202399524,3.6115
 695935,0.1898739646\Bq,0,2.4478601871,3.6361370189,0.6839970375\Bq,0,2
 .434096368,3.7409297193,0.7779600473\Bq,0,2.4630482741,3.7311027492,0.
 5803108182\Bq,0,2.419620415,3.7458432044,0.8767846619\Bq,0,2.477524227
 2,3.7261892641,0.4814862036\Bq,0,2.4051444619,3.7507566895,0.975609276
 5\Bq,0,2.4920001802,3.721275779,0.382661589\Bq,0,2.3906685089,3.755670
 1746,1.0744338911\Bq,0,2.5064761333,3.7163622939,0.2838369744\Bq,0,2.3
 761925559,3.7605836597,1.1732585057\Bq,0,2.5209520863,3.7114488088,0.1
 850123598\Bq,0,2.4485723211,3.7360162342,0.6791354327\Bq,0,2.434808502
 ,3.8408089347,0.7730984426\Bq,0,2.4637604081,3.8309819645,0.5754492134
 \Bq,0,2.4203325489,3.8457224198,0.8719230571\Bq,0,2.4782363611,3.82606
 84795,0.4766245988\Bq,0,2.4058565959,3.8506359049,0.9707476717\Bq,0,2.
 4927123142,3.8211549944,0.3777999842\Bq,0,2.3913806428,3.85554939,1.06
 95722863\Bq,0,2.5071882672,3.8162415093,0.2789753696\Bq,0,2.3769046898
 ,3.860462875,1.1683969009\Bq,0,2.5216642202,3.8113280242,0.180150755\B
 q,0,2.449284455,3.8358954496,0.674273828\Bq,0,2.4355206359,3.940688150
 1,0.7682368378\Bq,0,2.464472542,3.9308611799,0.5705876086\Bq,0,2.42104
 46829,3.9456016352,0.8670614524\Bq,0,2.478948495,3.9259476948,0.471762
 994\Bq,0,2.4065687298,3.9505151202,0.965886067\Bq,0,2.4934244481,3.921
 0342098,0.3729383794\Bq,0,2.3920927768,3.9554286053,1.0647106815\Bq,0,
 2.5079004011,3.9161207247,0.2741137649\Bq,0,2.3776168237,3.9603420904,
 1.1635352961\Bq,0,2.5223763542,3.9112072396,0.1752891503\Bq,0,2.449996
 589,3.935774665,0.6694122232\Bq,0,2.4362327699,4.0405673655,0.76337523
 3\Bq,0,2.4651846759,4.0307403953,0.5657260039\Bq,0,2.4217568168,4.0454
 808505,0.8621998476\Bq,0,2.479660629,4.0258269102,0.4669013893\Bq,0,2.
 4072808638,4.0503943356,0.9610244622\Bq,0,2.494136582,4.0209134251,0.3
 680767747\Bq,0,2.3928049107,4.0553078207,1.0598490768\Bq,0,2.508612535
 1,4.01599994,0.2692521601\Bq,0,2.3783289577,4.0602213058,1.1586736914\
 Bq,0,2.5230884881,4.011086455,0.1704275455\Bq,0,2.4507087229,4.0356538
 804,0.6645506184\Bq,0,2.4369449038,4.1404465808,0.7585136283\Bq,0,2.46
 58968099,4.1306196107,0.5608643991\Bq,0,2.4224689508,4.1453600659,0.85
 73382428\Bq,0,2.4803727629,4.1257061256,0.4620397845\Bq,0,2.4079929977
 ,4.150273551,0.9561628574\Bq,0,2.494848716,4.1207926405,0.3632151699\B
 q,0,2.3935170447,4.1551870361,1.054987472\Bq,0,2.509324669,4.115879155
 4,0.2643905553\Bq,0,2.3790410916,4.1601005212,1.1538120866\Bq,0,2.5238
 006221,4.1109656703,0.1655659407\Bq,0,2.4514208568,4.1355330958,0.6596
 890137\Bq,0,2.4376570377,4.2403257962,0.7536520235\Bq,0,2.4666089438,4
 .230498826,0.5560027943\Bq,0,2.4231810847,4.2452392813,0.8524766381\Bq
 ,0,2.4810848969,4.225585341,0.4571781797\Bq,0,2.4087051317,4.250152766
 4,0.9513012527\Bq,0,2.4955608499,4.2206718559,0.3583535652\Bq,0,2.3942
 291786,4.2550662515,1.0501258672\Bq,0,2.510036803,4.2157583708,0.25952
 89506\Bq,0,2.3797532256,4.2599797365,1.1489504818\Bq,0,2.524512756,4.2
 108448857,0.160704336\Bq,0,2.4521329908,4.2354123111,0.6548274089\Bq,0
 ,2.4383691717,4.3402050116,0.7487904187\Bq,0,2.4673210778,4.3303780414
 ,0.5511411896\Bq,0,2.4238932186,4.3451184967,0.8476150333\Bq,0,2.48179
 70308,4.3254645563,0.452316575\Bq,0,2.4094172656,4.3500319818,0.946439
 6479\Bq,0,2.4962729839,4.3205510713,0.3534919604\Bq,0,2.3949413126,4.3
 549454668,1.0452642625\Bq,0,2.5107489369,4.3156375862,0.2546673458\Bq,
 0,2.3804653595,4.3598589519,1.1440888771\\Version=ES64L-G09RevD.01\HF=
 -847.0032898\RMSD=7.533e-09\Dipole=0.0186808,0.0336671,0.0011595\Quadr
 upole=4.9072795,4.7288219,-9.6361014,-0.2850201,2.3867064,-0.880172\PG
 =C01 [X(C22H14)]\\@


            THE IRISH PIG
 'TWAS AN EVENING IN NOVEMBER,
 AS I VERY WELL REMEMBER
 I WAS STROLLING DOWN THE STREET IN DRUNKEN PRIDE,
 BUT MY KNEES WERE ALL A'FLUTTER
 SO I LANDED IN THE GUTTER,
 AND A PIG CAME UP AND LAY DOWN BY MY SIDE.

 YES, I LAY THERE IN THE GUTTER
 THINKING THOUGHTS I COULD NOT UTTER
 WHEN A COLLEEN PASSING BY DID SOFTLY SAY,
 'YE CAN TELL A MAN THAT BOOZES
 BY THE COMPANY THAT HE CHOOSES.' -
 AT THAT, THE PIG GOT UP AND WALKED AWAY!
     -- THE ECONOMIST, AUGUST 23, 1986
 Job cpu time:       0 days  4 hours 10 minutes 33.2 seconds.
 File lengths (MBytes):  RWF=    184 Int=      0 D2E=      0 Chk=     19 Scr=      1
 Normal termination of Gaussian 09 at Sat Aug 22 10:59:08 2020.
