 Entering Gaussian System, Link 0=g09
 Input=input_cycle_04_batch_07800.com
 Output=input_cycle_04_batch_07800.log
 Initial command:
 /share/programs/GAUSSIAN/64/g09/l1.exe "/scratch/yannick.30440/Gau-2652022.inp" -scrdir="/scratch/yannick.30440/"
 Entering Link 1 = /share/programs/GAUSSIAN/64/g09/l1.exe PID=   2652023.
  
 Copyright (c) 1988,1990,1992,1993,1995,1998,2003,2009,2013,
            Gaussian, Inc.  All Rights Reserved.
  
 This is part of the Gaussian(R) 09 program.  It is based on
 the Gaussian(R) 03 system (copyright 2003, Gaussian, Inc.),
 the Gaussian(R) 98 system (copyright 1998, Gaussian, Inc.),
 the Gaussian(R) 94 system (copyright 1995, Gaussian, Inc.),
 the Gaussian 92(TM) system (copyright 1992, Gaussian, Inc.),
 the Gaussian 90(TM) system (copyright 1990, Gaussian, Inc.),
 the Gaussian 88(TM) system (copyright 1988, Gaussian, Inc.),
 the Gaussian 86(TM) system (copyright 1986, Carnegie Mellon
 University), and the Gaussian 82(TM) system (copyright 1983,
 Carnegie Mellon University). Gaussian is a federally registered
 trademark of Gaussian, Inc.
  
 This software contains proprietary and confidential information,
 including trade secrets, belonging to Gaussian, Inc.
  
 This software is provided under written license and may be
 used, copied, transmitted, or stored only in accord with that
 written license.
  
 The following legend is applicable only to US Government
 contracts under FAR:
  
                    RESTRICTED RIGHTS LEGEND
  
 Use, reproduction and disclosure by the US Government is
 subject to restrictions as set forth in subparagraphs (a)
 and (c) of the Commercial Computer Software - Restricted
 Rights clause in FAR 52.227-19.
  
 Gaussian, Inc.
 340 Quinnipiac St., Bldg. 40, Wallingford CT 06492
  
  
 ---------------------------------------------------------------
 Warning -- This program may not be used in any manner that
 competes with the business of Gaussian, Inc. or will provide
 assistance to any competitor of Gaussian, Inc.  The licensee
 of this program is prohibited from giving any competitor of
 Gaussian, Inc. access to this program.  By using this program,
 the user acknowledges that Gaussian, Inc. is engaged in the
 business of creating and licensing software in the field of
 computational chemistry and represents and warrants to the
 licensee that it is not a competitor of Gaussian, Inc. and that
 it will not use this program in any manner prohibited above.
 ---------------------------------------------------------------
  

 Cite this work as:
 Gaussian 09, Revision D.01,
 M. J. Frisch, G. W. Trucks, H. B. Schlegel, G. E. Scuseria, 
 M. A. Robb, J. R. Cheeseman, G. Scalmani, V. Barone, B. Mennucci, 
 G. A. Petersson, H. Nakatsuji, M. Caricato, X. Li, H. P. Hratchian, 
 A. F. Izmaylov, J. Bloino, G. Zheng, J. L. Sonnenberg, M. Hada, 
 M. Ehara, K. Toyota, R. Fukuda, J. Hasegawa, M. Ishida, T. Nakajima, 
 Y. Honda, O. Kitao, H. Nakai, T. Vreven, J. A. Montgomery, Jr., 
 J. E. Peralta, F. Ogliaro, M. Bearpark, J. J. Heyd, E. Brothers, 
 K. N. Kudin, V. N. Staroverov, T. Keith, R. Kobayashi, J. Normand, 
 K. Raghavachari, A. Rendell, J. C. Burant, S. S. Iyengar, J. Tomasi, 
 M. Cossi, N. Rega, J. M. Millam, M. Klene, J. E. Knox, J. B. Cross, 
 V. Bakken, C. Adamo, J. Jaramillo, R. Gomperts, R. E. Stratmann, 
 O. Yazyev, A. J. Austin, R. Cammi, C. Pomelli, J. W. Ochterski, 
 R. L. Martin, K. Morokuma, V. G. Zakrzewski, G. A. Voth, 
 P. Salvador, J. J. Dannenberg, S. Dapprich, A. D. Daniels, 
 O. Farkas, J. B. Foresman, J. V. Ortiz, J. Cioslowski, 
 and D. J. Fox, Gaussian, Inc., Wallingford CT, 2013.
 
 ******************************************
 Gaussian 09:  ES64L-G09RevD.01 24-Apr-2013
                22-Aug-2020 
 ******************************************
 %nproc=8
 Will use up to    8 processors via shared memory.
 %mem=1000MB
 ----------------------------------------
 # rb3lyp/6-311+g** NMR geom=connectivity
 ----------------------------------------
 1/38=1,57=2/1;
 2/12=2,17=6,18=5,40=1/2;
 3/5=4,6=6,7=111,11=2,16=1,25=1,30=1,74=-5,116=1/1,2,8,3;
 4//1;
 5/5=2,38=5/2;
 8/6=1,10=90,11=11/1;
 10/13=100,45=16/2;
 6/7=2,8=2,9=2,10=2,28=1/1;
 99/9=1/99;
 -----
 Title
 -----
 Symbolic Z-matrix:
 Charge =  0 Multiplicity = 1
 C                    -4.05006  -0.57719   0.81367 
 H                    -5.02638  -1.00827   1.00248 
 C                    -3.93816   0.66178   0.24009 
 H                    -4.82524   1.23389  -0.01113 
 C                    -2.67684   1.24332   0.00576 
 C                    -1.49741   0.50515   0.28483 
 C                    -1.65083  -0.73387   0.9404 
 H                    -0.77136  -1.2731    1.26338 
 C                    -2.88985  -1.2624    1.19943 
 H                    -2.96837  -2.21246   1.71527 
 C                    -2.57732   2.59637  -0.41929 
 H                    -3.48707   3.14122  -0.64741 
 C                    -1.37419   3.21479  -0.4364 
 H                    -1.29973   4.2742   -0.65781 
 C                    -0.17195   2.49941  -0.17346 
 C                    -0.20439   1.10184   0.01927 
 C                     1.05135   3.20426  -0.06762 
 H                     1.04273   4.28195  -0.1897 
 C                     2.19421   2.54874   0.25796 
 H                     3.11685   3.09128   0.43347 
 C                     2.22165   1.13366   0.2935 
 C                     1.04869   0.39455   0.03024 
 C                     3.44834   0.46146   0.55739 
 H                     4.30958   1.06061   0.83348 
 C                     3.54273  -0.88559   0.47495 
 H                     4.47315  -1.39397   0.70388 
 C                     2.44901  -1.64744  -0.01963 
 C                     1.21507  -1.00573  -0.30136 
 C                     0.25311  -1.74344  -1.02166 
 H                    -0.65414  -1.25351  -1.34628 
 C                     0.44942  -3.06286  -1.34138 
 H                    -0.30832  -3.59443  -1.90541 
 C                     1.62517  -3.7208   -0.95525 
 H                     1.767    -4.76874  -1.1927 
 C                     2.61099  -3.01442  -0.31831 
 H                     3.55256  -3.49028  -0.06464 
 Bq                    0.93041   1.73509   0.72332 
 Bq                    0.98177   1.76354   0.53213 
 Bq                    0.90474   1.72086   0.81891 
 Bq                    1.00745   1.77777   0.43653 
 Bq                    0.87906   1.70663   0.9145 
 Bq                    1.03313   1.792     0.34094 
 Bq                    0.85338   1.69241   1.0101 
 Bq                    1.05881   1.80623   0.24535 
 Bq                    0.8277    1.67818   1.10569 
 Bq                    1.08449   1.82045   0.14975 
 Bq                    0.95609   1.74932   0.62772 
 Bq                    0.92672   1.83407   0.73706 
 Bq                    0.97808   1.86253   0.54587 
 Bq                    0.90104   1.81984   0.83265 
 Bq                    1.00376   1.87675   0.45028 
 Bq                    0.87537   1.80562   0.92824 
 Bq                    1.02944   1.89098   0.35468 
 Bq                    0.84969   1.79139   1.02384 
 Bq                    1.05512   1.90521   0.25909 
 Bq                    0.82401   1.77716   1.11943 
 Bq                    1.0808    1.91944   0.16349 
 Bq                    0.9524    1.8483    0.64146 
 Bq                    0.92303   1.93305   0.7508 
 Bq                    0.97439   1.96151   0.55961 
 Bq                    0.89735   1.91883   0.84639 
 Bq                    1.00007   1.97574   0.46402 
 Bq                    0.87167   1.9046    0.94198 
 Bq                    1.02575   1.98996   0.36842 
 Bq                    0.846     1.89037   1.03758 
 Bq                    1.05143   2.00419   0.27283 
 Bq                    0.82032   1.87614   1.13317 
 Bq                    1.07711   2.01842   0.17723 
 Bq                    0.94871   1.94728   0.6552 
 Bq                    0.91934   2.03204   0.76454 
 Bq                    0.9707    2.06049   0.57335 
 Bq                    0.89366   2.01781   0.86013 
 Bq                    0.99638   2.07472   0.47776 
 Bq                    0.86798   2.00358   0.95572 
 Bq                    1.02206   2.08895   0.38216 
 Bq                    0.8423    1.98935   1.05132 
 Bq                    1.04774   2.10318   0.28657 
 Bq                    0.81663   1.97513   1.14691 
 Bq                    1.07341   2.1174    0.19097 
 Bq                    0.94502   2.04626   0.66894 
 Bq                    0.91565   2.13102   0.77828 
 Bq                    0.96701   2.15947   0.58709 
 Bq                    0.88997   2.11679   0.87387 
 Bq                    0.99269   2.1737    0.4915 
 Bq                    0.86429   2.10256   0.96947 
 Bq                    1.01837   2.18793   0.3959 
 Bq                    0.83861   2.08834   1.06506 
 Bq                    1.04404   2.20216   0.30031 
 Bq                    0.81293   2.07411   1.16065 
 Bq                    1.06972   2.21639   0.20472 
 Bq                    0.94133   2.14525   0.68268 
 Bq                    1.19678  -2.81812   0.11719 
 Bq                    1.24814  -2.78966  -0.07399 
 Bq                    1.1711   -2.83234   0.21279 
 Bq                    1.27382  -2.77543  -0.16959 
 Bq                    1.14542  -2.84657   0.30838 
 Bq                    1.29949  -2.7612   -0.26518 
 Bq                    1.11974  -2.8608    0.40398 
 Bq                    1.32517  -2.74698  -0.36078 
 Bq                    1.09406  -2.87503   0.49957 
 Bq                    1.35085  -2.73275  -0.45637 
 Bq                    1.22246  -2.80389   0.0216 
 Bq                    1.19309  -2.71913   0.13093 
 Bq                    1.24445  -2.69068  -0.06025 
 Bq                    1.16741  -2.73336   0.22653 
 Bq                    1.27012  -2.67645  -0.15585 
 Bq                    1.14173  -2.74759   0.32212 
 Bq                    1.2958   -2.66222  -0.25144 
 Bq                    1.11605  -2.76182   0.41772 
 Bq                    1.32148  -2.64799  -0.34703 
 Bq                    1.09037  -2.77604   0.51331 
 Bq                    1.34716  -2.63377  -0.44263 
 Bq                    1.21877  -2.7049    0.03534 
 Bq                    1.1894   -2.62015   0.14467 
 Bq                    1.24075  -2.59169  -0.04651 
 Bq                    1.16372  -2.63438   0.24027 
 Bq                    1.26643  -2.57747  -0.14211 
 Bq                    1.13804  -2.64861   0.33586 
 Bq                    1.29211  -2.56324  -0.2377 
 Bq                    1.11236  -2.66283   0.43146 
 Bq                    1.31779  -2.54901  -0.33329 
 Bq                    1.08668  -2.67706   0.52705 
 Bq                    1.34347  -2.53478  -0.42889 
 Bq                    1.21508  -2.60592   0.04908 
 Bq                    1.18571  -2.52117   0.15842 
 Bq                    1.23706  -2.49271  -0.03277 
 Bq                    1.16003  -2.53539   0.25401 
 Bq                    1.26274  -2.47848  -0.12837 
 Bq                    1.13435  -2.54962   0.3496 
 Bq                    1.28842  -2.46426  -0.22396 
 Bq                    1.10867  -2.56385   0.4452 
 Bq                    1.3141   -2.45003  -0.31955 
 Bq                    1.08299  -2.57808   0.54079 
 Bq                    1.33978  -2.4358   -0.41515 
 Bq                    1.21138  -2.50694   0.06282 
 Bq                    1.18201  -2.42218   0.17216 
 Bq                    1.23337  -2.39373  -0.01903 
 Bq                    1.15634  -2.43641   0.26775 
 Bq                    1.25905  -2.3795   -0.11463 
 Bq                    1.13066  -2.45064   0.36334 
 Bq                    1.28473  -2.36527  -0.21022 
 Bq                    1.10498  -2.46487   0.45894 
 Bq                    1.31041  -2.35105  -0.30581 
 Bq                    1.0793   -2.47909   0.55453 
 Bq                    1.33609  -2.33682  -0.40141 
 Bq                    1.20769  -2.40796   0.07656 
 Bq                    1.17832  -2.3232    0.1859 
 Bq                    1.22968  -2.29475  -0.00529 
 Bq                    1.15264  -2.33743   0.28149 
 Bq                    1.25536  -2.28052  -0.10088 
 Bq                    1.12697  -2.35166   0.37708 
 Bq                    1.28104  -2.26629  -0.19648 
 Bq                    1.10129  -2.36588   0.47268 
 Bq                    1.30672  -2.25206  -0.29207 
 Bq                    1.07561  -2.38011   0.56827 
 Bq                    1.3324   -2.23784  -0.38767 
 Bq                    1.204    -2.30897   0.0903 
 Bq                    1.17463  -2.22422   0.19964 
 Bq                    1.22599  -2.19576   0.00845 
 Bq                    1.14895  -2.23845   0.29523 
 Bq                    1.25167  -2.18154  -0.08714 
 Bq                    1.12327  -2.25267   0.39082 
 Bq                    1.27735  -2.16731  -0.18274 
 Bq                    1.0976   -2.2669    0.48642 
 Bq                    1.30303  -2.15308  -0.27833 
 Bq                    1.07192  -2.28113   0.58201 
 Bq                    1.32871  -2.13885  -0.37393 
 Bq                    1.20031  -2.20999   0.10404 
 Bq                    1.17094  -2.12524   0.21338 
 Bq                    1.2223   -2.09678   0.02219 
 Bq                    1.14526  -2.13946   0.30897 
 Bq                    1.24798  -2.08255  -0.0734 
 Bq                    1.11958  -2.15369   0.40457 
 Bq                    1.27366  -2.06833  -0.169 
 Bq                    1.0939   -2.16792   0.50016 
 Bq                    1.29934  -2.0541   -0.26459 
 Bq                    1.06823  -2.18215   0.59575 
 Bq                    1.32501  -2.03987  -0.36019 
 Bq                    1.19662  -2.11101   0.11778 
 Bq                    1.16725  -2.02625   0.22712 
 Bq                    1.21861  -1.9978    0.03593 
 Bq                    1.14157  -2.04048   0.32271 
 Bq                    1.24429  -1.98357  -0.05966 
 Bq                    1.11589  -2.05471   0.41831 
 Bq                    1.26997  -1.96934  -0.15526 
 Bq                    1.09021  -2.06894   0.5139 
 Bq                    1.29564  -1.95512  -0.25085 
 Bq                    1.06453  -2.08316   0.60949 
 Bq                    1.32132  -1.94089  -0.34644 
 Bq                    1.19293  -2.01203   0.13152 
 Bq                    1.16356  -1.92727   0.24086 
 Bq                    1.21492  -1.89882   0.04967 
 Bq                    1.13788  -1.9415    0.33645 
 Bq                    1.2406   -1.88459  -0.04592 
 Bq                    1.1122   -1.95573   0.43205 
 Bq                    1.26627  -1.87036  -0.14152 
 Bq                    1.08652  -1.96995   0.52764 
 Bq                    1.29195  -1.85613  -0.23711 
 Bq                    1.06084  -1.98418   0.62323 
 Bq                    1.31763  -1.8419   -0.3327 
 Bq                    1.18924  -1.91304   0.14526 
 Bq                    1.15987  -1.82829   0.2546 
 Bq                    1.21123  -1.79983   0.06341 
 Bq                    1.13419  -1.84252   0.35019 
 Bq                    1.2369   -1.78561  -0.03218 
 Bq                    1.10851  -1.85674   0.44579 
 Bq                    1.26258  -1.77138  -0.12778 
 Bq                    1.08283  -1.87097   0.54138 
 Bq                    1.28826  -1.75715  -0.22337 
 Bq                    1.05715  -1.8852    0.63697 
 Bq                    1.31394  -1.74292  -0.31896 
 Bq                    1.18555  -1.81406   0.15901 
 Bq                    1.15618  -1.72931   0.26834 
 Bq                    1.20753  -1.70085   0.07715 
 Bq                    1.1305   -1.74353   0.36393 
 Bq                    1.23321  -1.68662  -0.01844 
 Bq                    1.10482  -1.75776   0.45953 
 Bq                    1.25889  -1.67239  -0.11404 
 Bq                    1.07914  -1.77199   0.55512 
 Bq                    1.28457  -1.65817  -0.20963 
 Bq                    1.05346  -1.78622   0.65071 
 Bq                    1.31025  -1.64394  -0.30522 
 Bq                    1.18186  -1.71508   0.17275 
 Bq                    1.15249  -1.63032   0.28208 
 Bq                    1.20384  -1.60187   0.09089 
 Bq                    1.12681  -1.64455   0.37767 
 Bq                    1.22952  -1.58764  -0.0047 
 Bq                    1.10113  -1.65878   0.47327 
 Bq                    1.2552   -1.57341  -0.10029 
 Bq                    1.07545  -1.67301   0.56886 
 Bq                    1.28088  -1.55918  -0.19589 
 Bq                    1.04977  -1.68723   0.66446 
 Bq                    1.30656  -1.54496  -0.29148 
 Bq                    1.17817  -1.6161    0.18649 
 Bq                    1.1488   -1.53134   0.29582 
 Bq                    1.20015  -1.50288   0.10463 
 
 Symmetry turned off:
 Cannot cope with ghost atoms or with translation vectors.
 Stoichiometry    C22H14
 Framework group  C1[X(C22H14)]
 NUMDOF-- NAT=    36 NAtoms=   236
 Deg. of freedom     0
 Full point group                 C1      NOp   1
                          Input orientation:                          
 ---------------------------------------------------------------------
 Center     Atomic      Atomic             Coordinates (Angstroms)
 Number     Number       Type             X           Y           Z
 ---------------------------------------------------------------------
      1          6           0       -4.050056   -0.577186    0.813671
      2          1           0       -5.026380   -1.008273    1.002476
      3          6           0       -3.938155    0.661780    0.240088
      4          1           0       -4.825242    1.233889   -0.011130
      5          6           0       -2.676841    1.243325    0.005758
      6          6           0       -1.497412    0.505153    0.284825
      7          6           0       -1.650833   -0.733873    0.940403
      8          1           0       -0.771365   -1.273097    1.263375
      9          6           0       -2.889855   -1.262404    1.199431
     10          1           0       -2.968371   -2.212456    1.715268
     11          6           0       -2.577319    2.596370   -0.419293
     12          1           0       -3.487073    3.141224   -0.647406
     13          6           0       -1.374190    3.214790   -0.436403
     14          1           0       -1.299732    4.274202   -0.657814
     15          6           0       -0.171949    2.499409   -0.173459
     16          6           0       -0.204392    1.101844    0.019269
     17          6           0        1.051349    3.204256   -0.067622
     18          1           0        1.042734    4.281950   -0.189700
     19          6           0        2.194209    2.548745    0.257958
     20          1           0        3.116853    3.091285    0.433473
     21          6           0        2.221647    1.133656    0.293499
     22          6           0        1.048693    0.394553    0.030241
     23          6           0        3.448336    0.461463    0.557394
     24          1           0        4.309579    1.060605    0.833485
     25          6           0        3.542735   -0.885593    0.474946
     26          1           0        4.473147   -1.393970    0.703882
     27          6           0        2.449005   -1.647445   -0.019632
     28          6           0        1.215070   -1.005726   -0.301357
     29          6           0        0.253111   -1.743444   -1.021659
     30          1           0       -0.654136   -1.253505   -1.346285
     31          6           0        0.449419   -3.062860   -1.341378
     32          1           0       -0.308316   -3.594431   -1.905406
     33          6           0        1.625173   -3.720797   -0.955254
     34          1           0        1.767005   -4.768740   -1.192702
     35          6           0        2.610987   -3.014418   -0.318305
     36          1           0        3.552561   -3.490281   -0.064637
     37          0           0        0.930414    1.735089    0.723316
     38          0           0        0.981772    1.763544    0.532128
     39          0           0        0.904735    1.720861    0.818910
     40          0           0        1.007451    1.777772    0.436534
     41          0           0        0.879057    1.706634    0.914503
     42          0           0        1.033130    1.791999    0.340941
     43          0           0        0.853378    1.692406    1.010097
     44          0           0        1.058809    1.806227    0.245347
     45          0           0        0.827699    1.678178    1.105691
     46          0           0        1.084487    1.820455    0.149753
     47          0           0        0.956093    1.749316    0.627722
     48          0           0        0.926723    1.834072    0.737056
     49          0           0        0.978081    1.862527    0.545869
     50          0           0        0.901044    1.819844    0.832650
     51          0           0        1.003760    1.876754    0.450275
     52          0           0        0.875365    1.805616    0.928244
     53          0           0        1.029439    1.890982    0.354681
     54          0           0        0.849687    1.791389    1.023838
     55          0           0        1.055118    1.905210    0.259087
     56          0           0        0.824008    1.777161    1.119431
     57          0           0        1.080796    1.919437    0.163494
     58          0           0        0.952402    1.848299    0.641463
     59          0           0        0.923032    1.933054    0.750797
     60          0           0        0.974390    1.961510    0.559609
     61          0           0        0.897353    1.918827    0.846391
     62          0           0        1.000069    1.975737    0.464016
     63          0           0        0.871674    1.904599    0.941984
     64          0           0        1.025748    1.989965    0.368422
     65          0           0        0.845996    1.890371    1.037578
     66          0           0        1.051426    2.004193    0.272828
     67          0           0        0.820317    1.876144    1.133172
     68          0           0        1.077105    2.018420    0.177234
     69          0           0        0.948711    1.947282    0.655203
     70          0           0        0.919341    2.032037    0.764537
     71          0           0        0.970699    2.060492    0.573350
     72          0           0        0.893662    2.017809    0.860131
     73          0           0        0.996378    2.074720    0.477756
     74          0           0        0.867983    2.003582    0.955725
     75          0           0        1.022057    2.088948    0.382162
     76          0           0        0.842304    1.989354    1.051319
     77          0           0        1.047735    2.103175    0.286569
     78          0           0        0.816626    1.975126    1.146913
     79          0           0        1.073414    2.117403    0.190975
     80          0           0        0.945020    2.046265    0.668944
     81          0           0        0.915650    2.131020    0.778278
     82          0           0        0.967008    2.159475    0.587090
     83          0           0        0.889971    2.116792    0.873872
     84          0           0        0.992687    2.173703    0.491497
     85          0           0        0.864292    2.102564    0.969466
     86          0           0        1.018365    2.187930    0.395903
     87          0           0        0.838613    2.088337    1.065059
     88          0           0        1.044044    2.202158    0.300309
     89          0           0        0.812935    2.074109    1.160653
     90          0           0        1.069723    2.216386    0.204715
     91          0           0        0.941329    2.145247    0.682684
     92          0           0        1.196779   -2.818115    0.117194
     93          0           0        1.248137   -2.789660   -0.073994
     94          0           0        1.171100   -2.832343    0.212788
     95          0           0        1.273815   -2.775432   -0.169588
     96          0           0        1.145421   -2.846570    0.308381
     97          0           0        1.299494   -2.761204   -0.265181
     98          0           0        1.119742   -2.860798    0.403975
     99          0           0        1.325173   -2.746977   -0.360775
    100          0           0        1.094063   -2.875026    0.499569
    101          0           0        1.350852   -2.732749   -0.456369
    102          0           0        1.222458   -2.803887    0.021600
    103          0           0        1.193088   -2.719132    0.130934
    104          0           0        1.244445   -2.690677   -0.060253
    105          0           0        1.167409   -2.733360    0.226528
    106          0           0        1.270124   -2.676449   -0.155847
    107          0           0        1.141730   -2.747588    0.322122
    108          0           0        1.295803   -2.662222   -0.251441
    109          0           0        1.116051   -2.761815    0.417716
    110          0           0        1.321482   -2.647994   -0.347035
    111          0           0        1.090372   -2.776043    0.513309
    112          0           0        1.347161   -2.633766   -0.442628
    113          0           0        1.218767   -2.704905    0.035341
    114          0           0        1.189397   -2.620150    0.144675
    115          0           0        1.240754   -2.591694   -0.046513
    116          0           0        1.163718   -2.634377    0.240269
    117          0           0        1.266433   -2.577467   -0.142106
    118          0           0        1.138039   -2.648605    0.335862
    119          0           0        1.292112   -2.563239   -0.237700
    120          0           0        1.112360   -2.662833    0.431456
    121          0           0        1.317791   -2.549011   -0.333294
    122          0           0        1.086681   -2.677060    0.527050
    123          0           0        1.343470   -2.534784   -0.428888
    124          0           0        1.215076   -2.605922    0.049081
    125          0           0        1.185706   -2.521167    0.158415
    126          0           0        1.237063   -2.492712   -0.032772
    127          0           0        1.160027   -2.535395    0.254009
    128          0           0        1.262742   -2.478484   -0.128366
    129          0           0        1.134348   -2.549622    0.349603
    130          0           0        1.288421   -2.464256   -0.223960
    131          0           0        1.108669   -2.563850    0.445197
    132          0           0        1.314100   -2.450029   -0.319553
    133          0           0        1.082990   -2.578078    0.540790
    134          0           0        1.339779   -2.435801   -0.415147
    135          0           0        1.211385   -2.506939    0.062822
    136          0           0        1.182015   -2.422184    0.172156
    137          0           0        1.233372   -2.393729   -0.019032
    138          0           0        1.156336   -2.436412    0.267750
    139          0           0        1.259051   -2.379501   -0.114625
    140          0           0        1.130657   -2.450640    0.363343
    141          0           0        1.284730   -2.365274   -0.210219
    142          0           0        1.104978   -2.464867    0.458937
    143          0           0        1.310409   -2.351046   -0.305813
    144          0           0        1.079299   -2.479095    0.554531
    145          0           0        1.336088   -2.336818   -0.401407
    146          0           0        1.207693   -2.407957    0.076562
    147          0           0        1.178324   -2.323202    0.185896
    148          0           0        1.229681   -2.294746   -0.005291
    149          0           0        1.152645   -2.337429    0.281490
    150          0           0        1.255360   -2.280519   -0.100885
    151          0           0        1.126966   -2.351657    0.377084
    152          0           0        1.281039   -2.266291   -0.196479
    153          0           0        1.101287   -2.365885    0.472678
    154          0           0        1.306718   -2.252063   -0.292072
    155          0           0        1.075608   -2.380112    0.568272
    156          0           0        1.332397   -2.237836   -0.387666
    157          0           0        1.204002   -2.308974    0.090303
    158          0           0        1.174633   -2.224219    0.199637
    159          0           0        1.225990   -2.195764    0.008449
    160          0           0        1.148954   -2.238447    0.295231
    161          0           0        1.251669   -2.181536   -0.087144
    162          0           0        1.123275   -2.252674    0.390825
    163          0           0        1.277348   -2.167308   -0.182738
    164          0           0        1.097596   -2.266902    0.486418
    165          0           0        1.303027   -2.153081   -0.278332
    166          0           0        1.071917   -2.281130    0.582012
    167          0           0        1.328706   -2.138853   -0.373926
    168          0           0        1.200311   -2.209991    0.104043
    169          0           0        1.170941   -2.125236    0.213378
    170          0           0        1.222299   -2.096781    0.022190
    171          0           0        1.145263   -2.139464    0.308971
    172          0           0        1.247978   -2.082553   -0.073404
    173          0           0        1.119584   -2.153692    0.404565
    174          0           0        1.273657   -2.068326   -0.168998
    175          0           0        1.093905   -2.167919    0.500159
    176          0           0        1.299336   -2.054098   -0.264591
    177          0           0        1.068226   -2.182147    0.595753
    178          0           0        1.325015   -2.039870   -0.360185
    179          0           0        1.196620   -2.111009    0.117784
    180          0           0        1.167250   -2.026254    0.227118
    181          0           0        1.218608   -1.997798    0.035931
    182          0           0        1.141572   -2.040481    0.322712
    183          0           0        1.244287   -1.983571   -0.059663
    184          0           0        1.115893   -2.054709    0.418306
    185          0           0        1.269966   -1.969343   -0.155257
    186          0           0        1.090214   -2.068937    0.513899
    187          0           0        1.295645   -1.955115   -0.250851
    188          0           0        1.064535   -2.083164    0.609493
    189          0           0        1.321324   -1.940888   -0.346445
    190          0           0        1.192929   -2.012026    0.131524
    191          0           0        1.163559   -1.927271    0.240859
    192          0           0        1.214917   -1.898816    0.049671
    193          0           0        1.137880   -1.941499    0.336452
    194          0           0        1.240596   -1.884588   -0.045923
    195          0           0        1.112202   -1.955726    0.432046
    196          0           0        1.266275   -1.870360   -0.141516
    197          0           0        1.086523   -1.969954    0.527640
    198          0           0        1.291954   -1.856133   -0.237110
    199          0           0        1.060844   -1.984181    0.623234
    200          0           0        1.317633   -1.841905   -0.332704
    201          0           0        1.189238   -1.913043    0.145265
    202          0           0        1.159868   -1.828288    0.254599
    203          0           0        1.211226   -1.799833    0.063412
    204          0           0        1.134189   -1.842516    0.350193
    205          0           0        1.236905   -1.785605   -0.032182
    206          0           0        1.108511   -1.856743    0.445787
    207          0           0        1.262584   -1.771378   -0.127776
    208          0           0        1.082832   -1.870971    0.541380
    209          0           0        1.288263   -1.757150   -0.223370
    210          0           0        1.057153   -1.885199    0.636974
    211          0           0        1.313941   -1.742922   -0.318963
    212          0           0        1.185547   -1.814061    0.159005
    213          0           0        1.156177   -1.729305    0.268340
    214          0           0        1.207535   -1.700850    0.077152
    215          0           0        1.130498   -1.743533    0.363933
    216          0           0        1.233214   -1.686622   -0.018442
    217          0           0        1.104820   -1.757761    0.459527
    218          0           0        1.258893   -1.672395   -0.114035
    219          0           0        1.079141   -1.771988    0.555121
    220          0           0        1.284572   -1.658167   -0.209629
    221          0           0        1.053462   -1.786216    0.650715
    222          0           0        1.310250   -1.643940   -0.305223
    223          0           0        1.181856   -1.715078    0.172746
    224          0           0        1.152486   -1.630323    0.282080
    225          0           0        1.203844   -1.601867    0.090893
    226          0           0        1.126807   -1.644550    0.377674
    227          0           0        1.229523   -1.587640   -0.004701
    228          0           0        1.101128   -1.658778    0.473268
    229          0           0        1.255202   -1.573412   -0.100295
    230          0           0        1.075450   -1.673006    0.568862
    231          0           0        1.280881   -1.559184   -0.195889
    232          0           0        1.049771   -1.687233    0.664455
    233          0           0        1.306559   -1.544957   -0.291482
    234          0           0        1.178165   -1.616095    0.186486
    235          0           0        1.148795   -1.531340    0.295821
    236          0           0        1.200153   -1.502885    0.104633
 ---------------------------------------------------------------------
 Rotational constants (GHZ):      0.4529074      0.2836956      0.1879557
 Standard basis: 6-311+G(d,p) (5D, 7F)
 Warning:  center  37 has no basis functions!
 Warning:  center  38 has no basis functions!
 Warning:  center  39 has no basis functions!
 Warning:  center  40 has no basis functions!
 Warning:  center  41 has no basis functions!
 Warning:  center  42 has no basis functions!
 Warning:  center  43 has no basis functions!
 Warning:  center  44 has no basis functions!
 Warning:  center  45 has no basis functions!
 Warning:  center  46 has no basis functions!
 Warning:  center  47 has no basis functions!
 Warning:  center  48 has no basis functions!
 Warning:  center  49 has no basis functions!
 Warning:  center  50 has no basis functions!
 Warning:  center  51 has no basis functions!
 Warning:  center  52 has no basis functions!
 Warning:  center  53 has no basis functions!
 Warning:  center  54 has no basis functions!
 Warning:  center  55 has no basis functions!
 Warning:  center  56 has no basis functions!
 Warning:  center  57 has no basis functions!
 Warning:  center  58 has no basis functions!
 Warning:  center  59 has no basis functions!
 Warning:  center  60 has no basis functions!
 Warning:  center  61 has no basis functions!
 Warning:  center  62 has no basis functions!
 Warning:  center  63 has no basis functions!
 Warning:  center  64 has no basis functions!
 Warning:  center  65 has no basis functions!
 Warning:  center  66 has no basis functions!
 Warning:  center  67 has no basis functions!
 Warning:  center  68 has no basis functions!
 Warning:  center  69 has no basis functions!
 Warning:  center  70 has no basis functions!
 Warning:  center  71 has no basis functions!
 Warning:  center  72 has no basis functions!
 Warning:  center  73 has no basis functions!
 Warning:  center  74 has no basis functions!
 Warning:  center  75 has no basis functions!
 Warning:  center  76 has no basis functions!
 Warning:  center  77 has no basis functions!
 Warning:  center  78 has no basis functions!
 Warning:  center  79 has no basis functions!
 Warning:  center  80 has no basis functions!
 Warning:  center  81 has no basis functions!
 Warning:  center  82 has no basis functions!
 Warning:  center  83 has no basis functions!
 Warning:  center  84 has no basis functions!
 Warning:  center  85 has no basis functions!
 Warning:  center  86 has no basis functions!
 Warning:  center  87 has no basis functions!
 Warning:  center  88 has no basis functions!
 Warning:  center  89 has no basis functions!
 Warning:  center  90 has no basis functions!
 Warning:  center  91 has no basis functions!
 Warning:  center  92 has no basis functions!
 Warning:  center  93 has no basis functions!
 Warning:  center  94 has no basis functions!
 Warning:  center  95 has no basis functions!
 Warning:  center  96 has no basis functions!
 Warning:  center  97 has no basis functions!
 Warning:  center  98 has no basis functions!
 Warning:  center  99 has no basis functions!
 Warning:  center 100 has no basis functions!
 Warning:  center 101 has no basis functions!
 Warning:  center 102 has no basis functions!
 Warning:  center 103 has no basis functions!
 Warning:  center 104 has no basis functions!
 Warning:  center 105 has no basis functions!
 Warning:  center 106 has no basis functions!
 Warning:  center 107 has no basis functions!
 Warning:  center 108 has no basis functions!
 Warning:  center 109 has no basis functions!
 Warning:  center 110 has no basis functions!
 Warning:  center 111 has no basis functions!
 Warning:  center 112 has no basis functions!
 Warning:  center 113 has no basis functions!
 Warning:  center 114 has no basis functions!
 Warning:  center 115 has no basis functions!
 Warning:  center 116 has no basis functions!
 Warning:  center 117 has no basis functions!
 Warning:  center 118 has no basis functions!
 Warning:  center 119 has no basis functions!
 Warning:  center 120 has no basis functions!
 Warning:  center 121 has no basis functions!
 Warning:  center 122 has no basis functions!
 Warning:  center 123 has no basis functions!
 Warning:  center 124 has no basis functions!
 Warning:  center 125 has no basis functions!
 Warning:  center 126 has no basis functions!
 Warning:  center 127 has no basis functions!
 Warning:  center 128 has no basis functions!
 Warning:  center 129 has no basis functions!
 Warning:  center 130 has no basis functions!
 Warning:  center 131 has no basis functions!
 Warning:  center 132 has no basis functions!
 Warning:  center 133 has no basis functions!
 Warning:  center 134 has no basis functions!
 Warning:  center 135 has no basis functions!
 Warning:  center 136 has no basis functions!
 Warning:  center 137 has no basis functions!
 Warning:  center 138 has no basis functions!
 Warning:  center 139 has no basis functions!
 Warning:  center 140 has no basis functions!
 Warning:  center 141 has no basis functions!
 Warning:  center 142 has no basis functions!
 Warning:  center 143 has no basis functions!
 Warning:  center 144 has no basis functions!
 Warning:  center 145 has no basis functions!
 Warning:  center 146 has no basis functions!
 Warning:  center 147 has no basis functions!
 Warning:  center 148 has no basis functions!
 Warning:  center 149 has no basis functions!
 Warning:  center 150 has no basis functions!
 Warning:  center 151 has no basis functions!
 Warning:  center 152 has no basis functions!
 Warning:  center 153 has no basis functions!
 Warning:  center 154 has no basis functions!
 Warning:  center 155 has no basis functions!
 Warning:  center 156 has no basis functions!
 Warning:  center 157 has no basis functions!
 Warning:  center 158 has no basis functions!
 Warning:  center 159 has no basis functions!
 Warning:  center 160 has no basis functions!
 Warning:  center 161 has no basis functions!
 Warning:  center 162 has no basis functions!
 Warning:  center 163 has no basis functions!
 Warning:  center 164 has no basis functions!
 Warning:  center 165 has no basis functions!
 Warning:  center 166 has no basis functions!
 Warning:  center 167 has no basis functions!
 Warning:  center 168 has no basis functions!
 Warning:  center 169 has no basis functions!
 Warning:  center 170 has no basis functions!
 Warning:  center 171 has no basis functions!
 Warning:  center 172 has no basis functions!
 Warning:  center 173 has no basis functions!
 Warning:  center 174 has no basis functions!
 Warning:  center 175 has no basis functions!
 Warning:  center 176 has no basis functions!
 Warning:  center 177 has no basis functions!
 Warning:  center 178 has no basis functions!
 Warning:  center 179 has no basis functions!
 Warning:  center 180 has no basis functions!
 Warning:  center 181 has no basis functions!
 Warning:  center 182 has no basis functions!
 Warning:  center 183 has no basis functions!
 Warning:  center 184 has no basis functions!
 Warning:  center 185 has no basis functions!
 Warning:  center 186 has no basis functions!
 Warning:  center 187 has no basis functions!
 Warning:  center 188 has no basis functions!
 Warning:  center 189 has no basis functions!
 Warning:  center 190 has no basis functions!
 Warning:  center 191 has no basis functions!
 Warning:  center 192 has no basis functions!
 Warning:  center 193 has no basis functions!
 Warning:  center 194 has no basis functions!
 Warning:  center 195 has no basis functions!
 Warning:  center 196 has no basis functions!
 Warning:  center 197 has no basis functions!
 Warning:  center 198 has no basis functions!
 Warning:  center 199 has no basis functions!
 Warning:  center 200 has no basis functions!
 Warning:  center 201 has no basis functions!
 Warning:  center 202 has no basis functions!
 Warning:  center 203 has no basis functions!
 Warning:  center 204 has no basis functions!
 Warning:  center 205 has no basis functions!
 Warning:  center 206 has no basis functions!
 Warning:  center 207 has no basis functions!
 Warning:  center 208 has no basis functions!
 Warning:  center 209 has no basis functions!
 Warning:  center 210 has no basis functions!
 Warning:  center 211 has no basis functions!
 Warning:  center 212 has no basis functions!
 Warning:  center 213 has no basis functions!
 Warning:  center 214 has no basis functions!
 Warning:  center 215 has no basis functions!
 Warning:  center 216 has no basis functions!
 Warning:  center 217 has no basis functions!
 Warning:  center 218 has no basis functions!
 Warning:  center 219 has no basis functions!
 Warning:  center 220 has no basis functions!
 Warning:  center 221 has no basis functions!
 Warning:  center 222 has no basis functions!
 Warning:  center 223 has no basis functions!
 Warning:  center 224 has no basis functions!
 Warning:  center 225 has no basis functions!
 Warning:  center 226 has no basis functions!
 Warning:  center 227 has no basis functions!
 Warning:  center 228 has no basis functions!
 Warning:  center 229 has no basis functions!
 Warning:  center 230 has no basis functions!
 Warning:  center 231 has no basis functions!
 Warning:  center 232 has no basis functions!
 Warning:  center 233 has no basis functions!
 Warning:  center 234 has no basis functions!
 Warning:  center 235 has no basis functions!
 Warning:  center 236 has no basis functions!
   568 basis functions,   904 primitive gaussians,   590 cartesian basis functions
    73 alpha electrons       73 beta electrons
       nuclear repulsion energy      1610.9176155625 Hartrees.
 NAtoms=  236 NActive=  236 NUniq=  236 SFac= 1.00D+00 NAtFMM=   60 NAOKFM=T Big=T
 Integral buffers will be    131072 words long.
 Raffenetti 2 integral format.
 Two-electron integral symmetry is turned off.
 One-electron integrals computed using PRISM.
 NBasis=   568 RedAO= T EigKep=  1.78D-06  NBF=   568
 NBsUse=   556 1.00D-06 EigRej=  9.09D-07 NBFU=   556
 ExpMin= 4.38D-02 ExpMax= 4.56D+03 ExpMxC= 6.82D+02 IAcc=2 IRadAn=         4 AccDes= 0.00D+00
 Harris functional with IExCor=  402 and IRadAn=       4 diagonalized for initial guess.
 HarFok:  IExCor=  402 AccDes= 0.00D+00 IRadAn=         4 IDoV= 1 UseB2=F ITyADJ=14
 ICtDFT=  3500011 ScaDFX=  1.000000  1.000000  1.000000  1.000000
 FoFCou: FMM=F IPFlag=           0 FMFlag=      100000 FMFlg1=        2001
         NFxFlg=           0 DoJE=T BraDBF=F KetDBF=T FulRan=T
         wScrn=  0.000000 ICntrl=     500 IOpCl=  0 I1Cent=   200000004 NGrid=           0
         NMat0=    1 NMatS0=      1 NMatT0=    0 NMatD0=    1 NMtDS0=    0 NMtDT0=    0
 Symmetry not used in FoFCou.
 Requested convergence on RMS density matrix=1.00D-08 within 128 cycles.
 Requested convergence on MAX density matrix=1.00D-06.
 Requested convergence on             energy=1.00D-06.
 No special actions if energy rises.
 SCF Done:  E(RB3LYP) =  -847.003289847     A.U. after   15 cycles
            NFock= 15  Conv=0.76D-08     -V/T= 2.0040
 DoSCS=F DFT=T ScalE2(SS,OS)=  1.000000  1.000000
 Range of M.O.s used for correlation:     1   556
 NBasis=   568 NAE=    73 NBE=    73 NFC=     0 NFV=     0
 NROrb=    556 NOA=    73 NOB=    73 NVA=   483 NVB=   483

 **** Warning!!: The largest alpha MO coefficient is  0.10971038D+03

          Differentiating once with respect to magnetic field using GIAOs.
          Electric field/nuclear overlap derivatives assumed to be zero.
 FoFCou: FMM=F IPFlag=           0 FMFlag=      100000 FMFlg1=        2001
         NFxFlg=           0 DoJE=F BraDBF=F KetDBF=T FulRan=T
         wScrn=  0.000000 ICntrl=    6100 IOpCl=  0 I1Cent=           7 NGrid=         236
         NMat0=    1 NMatS0=      1 NMatT0=    0 NMatD0=    1 NMtDS0=    0 NMtDT0=    0
 Symmetry not used in FoFCou.
 FoFJK:  IHMeth= 1 ICntrl=    6127 DoSepK=F KAlg= 0 I1Cent=   0 FoldK=F
 IRaf=         1 NMat=   1 IRICut=       1 DoRegI=T DoRafI=F ISym2E= 0.
          There are     3 degrees of freedom in the 1st order CPHF.  IDoFFX=0 NUNeed=     3.
      3 vectors produced by pass  0 Test12= 1.18D-12 3.33D-08 XBig12= 2.07D+03 9.18D+00.
 AX will form     3 AO Fock derivatives at one time.
      3 vectors produced by pass  1 Test12= 1.18D-12 3.33D-08 XBig12= 3.56D+00 8.03D-01.
      3 vectors produced by pass  2 Test12= 1.18D-12 3.33D-08 XBig12= 2.10D-02 6.92D-02.
      3 vectors produced by pass  3 Test12= 1.18D-12 3.33D-08 XBig12= 5.45D-05 1.89D-03.
      3 vectors produced by pass  4 Test12= 1.18D-12 3.33D-08 XBig12= 1.20D-07 7.79D-05.
      3 vectors produced by pass  5 Test12= 1.18D-12 3.33D-08 XBig12= 4.02D-10 4.73D-06.
      3 vectors produced by pass  6 Test12= 1.18D-12 3.33D-08 XBig12= 1.32D-12 2.61D-07.
 InvSVY:  IOpt=1 It=  1 EMax= 7.11D-15
 Solved reduced A of dimension    21 with     3 vectors.
 Calculating GIAO nuclear magnetic shielding tensors.
 SCF GIAO Magnetic shielding tensor (ppm):
      1  C    Isotropic =    53.8139   Anisotropy =   178.0260
   XX=   -41.4327   YX=   -32.3458   ZX=    10.0287
   XY=   -28.3572   YY=    59.0527   ZY=    55.1899
   XZ=    13.1759   YZ=    58.7550   ZZ=   143.8218
   Eigenvalues:   -53.8775    42.8214   172.4979
      2  H    Isotropic =    24.3095   Anisotropy =     4.8536
   XX=    25.5771   YX=    -1.0289   ZX=     0.5661
   XY=    -0.7431   YY=    26.1829   ZY=    -2.3306
   XZ=    -0.1707   YZ=    -2.4411   ZZ=    21.1687
   Eigenvalues:    20.2108    25.1725    27.5453
      3  C    Isotropic =    51.4055   Anisotropy =   157.8639
   XX=   -31.5399   YX=    38.5015   ZX=   -17.9316
   XY=    34.3519   YY=    49.9437   ZY=    49.6392
   XZ=    -9.8383   YZ=    44.6006   ZZ=   135.8127
   Eigenvalues:   -50.5747    48.1432   156.6481
      4  H    Isotropic =    23.8290   Anisotropy =     7.1838
   XX=    25.3635   YX=     1.8486   ZX=    -0.3559
   XY=     1.9656   YY=    26.4581   ZY=    -2.4103
   XZ=    -1.2941   YZ=    -2.6614   ZZ=    19.6654
   Eigenvalues:    18.8176    24.0511    28.6182
      5  C    Isotropic =    46.0697   Anisotropy =   207.6751
   XX=   -19.2123   YX=    -4.8852   ZX=    -1.6475
   XY=     2.8938   YY=    -2.9860   ZY=    66.5656
   XZ=     2.5356   YZ=    67.9144   ZZ=   160.4073
   Eigenvalues:   -27.2455   -19.0652   184.5197
      6  C    Isotropic =    47.5218   Anisotropy =   196.9389
   XX=   -28.1552   YX=    -2.7889   ZX=    12.0660
   XY=   -14.3886   YY=    21.2063   ZY=    74.2521
   XZ=   -18.6356   YZ=    61.1113   ZZ=   149.5144
   Eigenvalues:   -30.2925    -5.9564   178.8144
      7  C    Isotropic =    49.3915   Anisotropy =   179.8333
   XX=   -12.5211   YX=    28.7048   ZX=   -24.6745
   XY=    31.5123   YY=    29.7000   ZY=    77.7459
   XZ=   -40.0095   YZ=    65.3072   ZZ=   130.9956
   Eigenvalues:   -52.1299    31.0240   169.2804
      8  H    Isotropic =    23.1586   Anisotropy =    13.5525
   XX=    28.5711   YX=     1.5482   ZX=    -3.6986
   XY=     3.2466   YY=    22.7592   ZY=    -2.1157
   XZ=    -8.3753   YZ=    -1.0821   ZZ=    18.1456
   Eigenvalues:    15.3521    21.9301    32.1936
      9  C    Isotropic =    55.1460   Anisotropy =   174.7426
   XX=    46.7071   YX=    -2.6162   ZX=    -2.8420
   XY=     0.6223   YY=    -1.6258   ZY=    92.8272
   XZ=     0.5159   YZ=    95.6598   ZZ=   120.3568
   Eigenvalues:   -52.8932    46.6901   171.6411
     10  H    Isotropic =    24.6278   Anisotropy =     7.1815
   XX=    29.1040   YX=     0.1399   ZX=    -0.3694
   XY=     0.3642   YY=    23.4778   ZY=    -1.0805
   XZ=    -2.4493   YZ=    -2.9465   ZZ=    21.3016
   Eigenvalues:    19.9703    24.4977    29.4155
     11  C    Isotropic =    51.5607   Anisotropy =   151.2142
   XX=     2.1639   YX=    40.9287   ZX=   -26.0048
   XY=    49.9131   YY=    12.2331   ZY=    42.1342
   XZ=   -15.6145   YZ=    38.6614   ZZ=   140.2851
   Eigenvalues:   -48.1951    50.5071   152.3701
     12  H    Isotropic =    23.8537   Anisotropy =     7.3815
   XX=    25.9672   YX=     2.3738   ZX=    -0.2390
   XY=     2.4320   YY=    26.3975   ZY=    -1.8291
   XZ=     0.3529   YZ=    -1.7731   ZZ=    19.1964
   Eigenvalues:    18.7149    24.0714    28.7747
     13  C    Isotropic =    52.8653   Anisotropy =   147.4265
   XX=    51.2944   YX=    19.9221   ZX=   -13.4678
   XY=    11.5478   YY=   -34.0176   ZY=    42.5079
   XZ=    -9.2241   YZ=    40.0716   ZZ=   141.3192
   Eigenvalues:   -46.5152    53.9616   151.1497
     14  H    Isotropic =    24.0156   Anisotropy =     7.3485
   XX=    28.6644   YX=     0.6281   ZX=     1.0808
   XY=     0.5926   YY=    24.4325   ZY=    -1.0823
   XZ=     1.6846   YZ=    -0.3842   ZZ=    18.9500
   Eigenvalues:    18.6430    24.4892    28.9146
     15  C    Isotropic =    46.2221   Anisotropy =   203.9048
   XX=   -27.2215   YX=    -0.0442   ZX=   -28.9124
   XY=     4.6427   YY=   -10.5571   ZY=    28.3830
   XZ=   -10.2704   YZ=    26.7376   ZZ=   176.4448
   Eigenvalues:   -30.5512   -12.9411   182.1586
     16  C    Isotropic =    51.9375   Anisotropy =   188.2004
   XX=   -19.4441   YX=     5.5046   ZX=    15.7858
   XY=    -8.3874   YY=     2.4863   ZY=    22.9264
   XZ=   -50.6243   YZ=    23.3340   ZZ=   172.7704
   Eigenvalues:   -21.0294    -0.5625   177.4045
     17  C    Isotropic =    51.9482   Anisotropy =   149.1264
   XX=    50.7296   YX=   -23.9353   ZX=   -18.4207
   XY=   -16.7271   YY=   -41.8764   ZY=    17.8662
   XZ=   -14.3278   YZ=    11.4871   ZZ=   146.9915
   Eigenvalues:   -46.7796    51.2584   151.3658
     18  H    Isotropic =    24.0122   Anisotropy =     7.5163
   XX=    28.5811   YX=    -0.0866   ZX=     1.5071
   XY=    -0.2466   YY=    24.3342   ZY=    -0.7657
   XZ=     2.5088   YZ=    -1.5208   ZZ=    19.1214
   Eigenvalues:    18.5094    24.5041    29.0231
     19  C    Isotropic =    51.7356   Anisotropy =   148.5924
   XX=     2.4559   YX=   -45.6913   ZX=   -31.2531
   XY=   -53.4448   YY=     7.4698   ZY=    -1.8888
   XZ=   -23.5601   YZ=    -1.2765   ZZ=   145.2810
   Eigenvalues:   -46.9894    51.3989   150.7972
     20  H    Isotropic =    23.9071   Anisotropy =     7.6651
   XX=    25.5796   YX=    -2.0226   ZX=     1.4905
   XY=    -1.9998   YY=    27.3706   ZY=    -0.5164
   XZ=     2.7276   YZ=    -1.1179   ZZ=    18.7711
   Eigenvalues:    18.1643    24.5398    29.0172
     21  C    Isotropic =    45.9767   Anisotropy =   203.9316
   XX=   -16.2108   YX=    13.1802   ZX=   -44.5913
   XY=     6.5714   YY=   -20.6329   ZY=     0.0949
   XZ=   -28.8984   YZ=   -13.0883   ZZ=   174.7736
   Eigenvalues:   -30.5796   -13.4215   181.9311
     22  C    Isotropic =    52.0450   Anisotropy =   188.1157
   XX=    -0.0787   YX=     2.5023   ZX=   -16.3451
   XY=    18.9327   YY=   -14.4798   ZY=   -34.4335
   XZ=   -50.6032   YZ=    19.9104   ZZ=   170.6934
   Eigenvalues:   -20.7705    -0.5500   177.4554
     23  C    Isotropic =    53.2392   Anisotropy =   146.7412
   XX=   -22.0674   YX=   -32.0012   ZX=   -49.4857
   XY=   -23.2043   YY=    44.3661   ZY=   -15.6400
   XZ=   -43.8090   YZ=   -20.2525   ZZ=   137.4189
   Eigenvalues:   -45.6776    54.3286   151.0667
     24  H    Isotropic =    23.8249   Anisotropy =     7.5289
   XX=    25.1073   YX=    -1.7330   ZX=     1.5380
   XY=    -1.5944   YY=    28.0047   ZY=     0.0879
   XZ=     1.2557   YZ=    -0.8283   ZZ=    18.3628
   Eigenvalues:    18.0848    24.5458    28.8442
     25  C    Isotropic =    51.4969   Anisotropy =   150.1066
   XX=   -28.4915   YX=    33.9684   ZX=   -52.3137
   XY=    22.0311   YY=    46.6072   ZY=    -3.8075
   XZ=   -44.5594   YZ=   -10.6355   ZZ=   136.3748
   Eigenvalues:   -48.3857    51.3083   151.5679
     26  H    Isotropic =    23.7431   Anisotropy =     7.4052
   XX=    24.0663   YX=     1.1141   ZX=     1.9989
   XY=     0.9693   YY=    28.1000   ZY=     1.6568
   XZ=     2.0795   YZ=     0.8886   ZZ=    19.0630
   Eigenvalues:    18.2615    24.2880    28.6799
     27  C    Isotropic =    45.8108   Anisotropy =   207.2710
   XX=    -2.7702   YX=    13.7697   ZX=   -61.4651
   XY=     6.5593   YY=   -12.0335   ZY=   -41.6456
   XZ=   -62.6381   YZ=   -44.9232   ZZ=   152.2361
   Eigenvalues:   -28.0803   -18.4787   183.9915
     28  C    Isotropic =    47.8398   Anisotropy =   197.2870
   XX=    19.6900   YX=    14.4398   ZX=   -60.5682
   XY=    28.5650   YY=   -19.3566   ZY=   -56.7015
   XZ=   -63.1331   YZ=   -24.4782   ZZ=   143.1859
   Eigenvalues:   -30.5979    -5.2472   179.3644
     29  C    Isotropic =    49.3441   Anisotropy =   179.7793
   XX=    -3.4110   YX=    38.3775   ZX=   -80.8875
   XY=    36.1252   YY=    25.9805   ZY=   -23.7573
   XZ=   -78.1065   YZ=    -3.9802   ZZ=   125.4627
   Eigenvalues:   -51.6645    30.4997   169.1970
     30  H    Isotropic =    23.1387   Anisotropy =    13.3222
   XX=    22.4354   YX=    -0.7013   ZX=    -0.2375
   XY=    -2.1539   YY=    28.3546   ZY=     4.5555
   XZ=    -3.4181   YZ=     8.3231   ZZ=    18.6259
   Eigenvalues:    15.2751    22.1208    32.0201
     31  C    Isotropic =    55.4410   Anisotropy =   174.9390
   XX=    17.1871   YX=   -14.0890   ZX=   -84.0024
   XY=   -17.9030   YY=    37.4745   ZY=   -50.3662
   XZ=   -84.6557   YZ=   -54.8325   ZZ=   111.6615
   Eigenvalues:   -51.9248    46.1808   172.0670
     32  H    Isotropic =    24.5337   Anisotropy =     7.2554
   XX=    24.6185   YX=    -2.5264   ZX=     0.7632
   XY=    -2.7385   YY=    27.4630   ZY=     1.0335
   XZ=     1.1913   YZ=     3.7573   ZZ=    21.5194
   Eigenvalues:    19.8987    24.3316    29.3706
     33  C    Isotropic =    53.1814   Anisotropy =   179.0596
   XX=    60.9231   YX=    35.2256   ZX=   -42.9515
   XY=    32.0226   YY=   -38.1801   ZY=   -45.5652
   XZ=   -44.2248   YZ=   -50.7831   ZZ=   136.8014
   Eigenvalues:   -55.1197    42.1095   172.5545
     34  H    Isotropic =    24.2825   Anisotropy =     5.1861
   XX=    26.7643   YX=    -0.0934   ZX=     2.5955
   XY=    -0.2993   YY=    24.8157   ZY=     0.8589
   XZ=     2.3715   YZ=     1.4580   ZZ=    21.2676
   Eigenvalues:    20.0339    25.0737    27.7399
     35  C    Isotropic =    51.5295   Anisotropy =   155.1748
   XX=    -0.5131   YX=    52.5760   ZX=   -52.1551
   XY=    55.6135   YY=    25.1843   ZY=   -14.2643
   XZ=   -45.7255   YZ=   -17.1625   ZZ=   129.9171
   Eigenvalues:   -48.3147    47.9237   154.9793
     36  H    Isotropic =    23.8384   Anisotropy =     7.3073
   XX=    24.2302   YX=     1.4459   ZX=     2.1759
   XY=     1.2147   YY=    27.1572   ZY=     2.0665
   XZ=     1.6853   YZ=     2.7775   ZZ=    20.1277
   Eigenvalues:    18.9464    23.8588    28.7099
     37  Bq   Isotropic =     8.7069   Anisotropy =    14.2485
   XX=     6.6774   YX=     0.5158   ZX=    -2.0819
   XY=     2.4539   YY=     2.0116   ZY=     2.5001
   XZ=     0.0771   YZ=     4.3891   ZZ=    17.4319
   Eigenvalues:     0.8051     7.1098    18.2059
     38  Bq   Isotropic =     7.8118   Anisotropy =     8.3424
   XX=     7.3127   YX=     0.5566   ZX=    -1.3476
   XY=     2.0019   YY=     3.5336   ZY=     1.9325
   XZ=     0.1563   YZ=     3.5895   ZZ=    12.5893
   Eigenvalues:     2.3657     7.6963    13.3735
     39  Bq   Isotropic =     8.9827   Anisotropy =    16.7539
   XX=     6.2051   YX=     0.4634   ZX=    -2.3713
   XY=     2.5862   YY=     1.3251   ZY=     2.7046
   XZ=     0.0518   YZ=     4.4476   ZZ=    19.4179
   Eigenvalues:     0.1548     6.6412    20.1520
     40  Bq   Isotropic =     7.2894   Anisotropy =     5.3827
   XX=     7.4258   YX=     0.5310   ZX=    -0.9535
   XY=     1.6768   YY=     4.3386   ZY=     1.6093
   XZ=     0.2614   YZ=     2.8894   ZZ=    10.1038
   Eigenvalues:     3.2450     7.7453    10.8779
     41  Bq   Isotropic =     9.1113   Anisotropy =    18.7963
   XX=     5.6652   YX=     0.3989   ZX=    -2.5970
   XY=     2.6659   YY=     0.7023   ZY=     2.8383
   XZ=     0.0170   YZ=     4.3044   ZZ=    20.9663
   Eigenvalues:    -0.4045     6.0962    21.6421
     42  Bq   Isotropic =     6.8063   Anisotropy =     2.9436
   XX=     7.3766   YX=     0.4680   ZX=    -0.5969
   XY=     1.2927   YY=     5.1456   ZY=     1.2864
   XZ=     0.4437   YZ=     2.0730   ZZ=     7.8968
   Eigenvalues:     4.1369     7.5134     8.7688
     43  Bq   Isotropic =     9.0913   Anisotropy =    20.3343
   XX=     5.0836   YX=     0.3278   ZX=    -2.7615
   XY=     2.7024   YY=     0.1495   ZY=     2.8978
   XZ=    -0.0281   YZ=     4.0044   ZZ=    22.0407
   Eigenvalues:    -0.8767     5.5030    22.6475
     44  Bq   Isotropic =     6.4362   Anisotropy =     1.9627
   XX=     7.1576   YX=     0.3687   ZX=    -0.3278
   XY=     0.8655   YY=     5.9288   ZY=     0.9792
   XZ=     0.7088   YZ=     1.2318   ZZ=     6.2223
   Eigenvalues:     4.9062     6.6578     7.7447
     45  Bq   Isotropic =     8.9354   Anisotropy =    21.3765
   XX=     4.4839   YX=     0.2547   ZX=    -2.8718
   XY=     2.7048   YY=    -0.3298   ZY=     2.8885
   XZ=    -0.0768   YZ=     3.6001   ZZ=    22.6522
   Eigenvalues:    -1.2682     4.8880    23.1864
     46  Bq   Isotropic =     6.2442   Anisotropy =     1.5799
   XX=     6.7751   YX=     0.2416   ZX=    -0.1901
   XY=     0.4187   YY=     6.6595   ZY=     0.7001
   XZ=     1.0320   YZ=     0.4564   ZZ=     5.2980
   Eigenvalues:     5.0369     6.3982     7.2975
     47  Bq   Isotropic =     8.3035   Anisotropy =    11.3850
   XX=     7.0554   YX=     0.5493   ZX=    -1.7345
   XY=     2.2609   YY=     2.7521   ZY=     2.2365
   XZ=     0.1044   YZ=     4.1021   ZZ=    15.1031
   Eigenvalues:     1.5451     7.4720    15.8936
     48  Bq   Isotropic =     8.6713   Anisotropy =    14.2891
   XX=     6.2698   YX=     0.9363   ZX=    -2.1675
   XY=     2.7087   YY=     1.9879   ZY=     2.0018
   XZ=     0.5092   YZ=     3.1957   ZZ=    17.7561
   Eigenvalues:     0.8771     6.9393    18.1974
     49  Bq   Isotropic =     7.9274   Anisotropy =     8.4160
   XX=     7.0881   YX=     1.0179   ZX=    -1.4159
   XY=     2.2632   YY=     3.4494   ZY=     1.4943
   XZ=     0.6063   YZ=     1.9308   ZZ=    13.2449
   Eigenvalues:     2.5348     7.7094    13.5381
     50  Bq   Isotropic =     8.8933   Anisotropy =    16.7491
   XX=     5.7502   YX=     0.8365   ZX=    -2.4479
   XY=     2.8216   YY=     1.3495   ZY=     2.1994
   XZ=     0.4851   YZ=     3.5679   ZZ=    19.5803
   Eigenvalues:     0.2097     6.4109    20.0593
     51  Bq   Isotropic =     7.4862   Anisotropy =     5.4009
   XX=     7.3334   YX=     0.9715   ZX=    -0.9890
   XY=     1.9205   YY=     4.2455   ZY=     1.2104
   XZ=     0.7285   YZ=     1.1462   ZZ=    10.8798
   Eigenvalues:     3.4964     7.8754    11.0868
     52  Bq   Isotropic =     8.9882   Anisotropy =    18.7468
   XX=     5.1904   YX=     0.7166   ZX=    -2.6584
   XY=     2.8760   YY=     0.7800   ZY=     2.3454
   XZ=     0.4551   YZ=     3.7489   ZZ=    20.9942
   Eigenvalues:    -0.3509     5.8294    21.4861
     53  Bq   Isotropic =     7.0758   Anisotropy =     2.8245
   XX=     7.4381   YX=     0.8559   ZX=    -0.5844
   XY=     1.5062   YY=     5.0551   ZY=     0.9208
   XZ=     0.9272   YZ=     0.3790   ZZ=     8.7342
   Eigenvalues:     4.5004     7.7682     8.9588
     54  Bq   Isotropic =     8.9541   Anisotropy =    20.2499
   XX=     4.6123   YX=     0.5885   ZX=    -2.8055
   XY=     2.8847   YY=     0.2796   ZY=     2.4351
   XZ=     0.4147   YZ=     3.7578   ZZ=    21.9703
   Eigenvalues:    -0.8136     5.2218    22.4540
     55  Bq   Isotropic =     6.7644   Anisotropy =     1.9023
   XX=     7.3891   YX=     0.6748   ZX=    -0.2583
   XY=     1.0415   YY=     5.8493   ZY=     0.6335
   XZ=     1.2012   YZ=    -0.2699   ZZ=     7.0547
   Eigenvalues:     5.4659     6.7947     8.0325
     56  Bq   Isotropic =     8.8005   Anisotropy =    21.2707
   XX=     4.0342   YX=     0.4612   ZX=    -2.8983
   XY=     2.8594   YY=    -0.1534   ZY=     2.4703
   XZ=     0.3668   YZ=     3.6288   ZZ=    22.5208
   Eigenvalues:    -1.1902     4.6108    22.9810
     57  Bq   Isotropic =     6.6181   Anisotropy =     1.5946
   XX=     7.1870   YX=     0.4455   ZX=    -0.0652
   XY=     0.5582   YY=     6.5982   ZY=     0.3580
   XZ=     1.5193   YZ=    -0.7198   ZZ=     6.0690
   Eigenvalues:     5.5589     6.6142     7.6812
     58  Bq   Isotropic =     8.3385   Anisotropy =    11.4581
   XX=     6.7247   YX=     1.0018   ZX=    -1.8188
   XY=     2.5254   YY=     2.6911   ZY=     1.7624
   XZ=     0.5419   YZ=     2.6375   ZZ=    15.5997
   Eigenvalues:     1.6546     7.3837    15.9773
     59  Bq   Isotropic =     8.9149   Anisotropy =    14.7716
   XX=     6.1123   YX=     1.3107   ZX=    -2.2868
   XY=     2.9544   YY=     2.0939   ZY=     1.4902
   XZ=     0.9098   YZ=     2.2315   ZZ=    18.5386
   Eigenvalues:     0.9500     7.0322    18.7627
     60  Bq   Isotropic =     8.4001   Anisotropy =     9.1503
   XX=     7.1922   YX=     1.4413   ZX=    -1.5047
   XY=     2.5213   YY=     3.5659   ZY=     1.0781
   XZ=     1.0631   YZ=     0.5049   ZZ=    14.4421
   Eigenvalues:     2.6373     8.0627    14.5002
     61  Bq   Isotropic =     9.0383   Anisotropy =    17.1016
   XX=     5.5087   YX=     1.1634   ZX=    -2.5607
   XY=     3.0452   YY=     1.4651   ZY=     1.6730
   XZ=     0.8688   YZ=     2.8900   ZZ=    20.1411
   Eigenvalues:     0.2714     6.4042    20.4394
     62  Bq   Isotropic =     8.0681   Anisotropy =     6.2411
   XX=     7.6121   YX=     1.3820   ZX=    -1.0363
   XY=     2.1646   YY=     4.3754   ZY=     0.8613
   XZ=     1.2180   YZ=    -0.3918   ZZ=    12.2169
   Eigenvalues:     3.5893     8.3863    12.2289
     63  Bq   Isotropic =     9.0542   Anisotropy =    18.9805
   XX=     4.8946   YX=     0.9901   ZX=    -2.7562
   XY=     3.0720   YY=     0.9137   ZY=     1.8271
   XZ=     0.8288   YZ=     3.3582   ZZ=    21.3541
   Eigenvalues:    -0.2925     5.7472    21.7078
     64  Bq   Isotropic =     7.7496   Anisotropy =     3.7059
   XX=     7.9154   YX=     1.2222   ZX=    -0.5757
   XY=     1.7247   YY=     5.1950   ZY=     0.6350
   XZ=     1.4437   YZ=    -1.1512   ZZ=    10.1384
   Eigenvalues:     4.5198     8.5088    10.2202
     65  Bq   Isotropic =     8.9625   Anisotropy =    20.3835
   XX=     4.2880   YX=     0.8084   ZX=    -2.8836
   XY=     3.0511   YY=     0.4362   ZY=     1.9450
   XZ=     0.7826   YZ=     3.6360   ZZ=    22.1634
   Eigenvalues:    -0.7519     5.0879    22.5515
     66  Bq   Isotropic =     7.5078   Anisotropy =     2.3527
   XX=     8.0831   YX=     0.9669   ZX=    -0.1876
   XY=     1.2290   YY=     5.9907   ZY=     0.3916
   XZ=     1.7315   YZ=    -1.6521   ZZ=     8.4496
   Eigenvalues:     5.2699     8.1773     9.0763
     67  Bq   Isotropic =     8.7719   Anisotropy =    21.3267
   XX=     3.7028   YX=     0.6309   ZX=    -2.9556
   XY=     2.9969   YY=     0.0264   ZY=     2.0232
   XZ=     0.7301   YZ=     3.7447   ZZ=    22.5866
   Eigenvalues:    -1.1207     4.4468    22.9897
     68  Bq   Isotropic =     7.4125   Anisotropy =     2.1811
   XX=     8.1099   YX=     0.6406   ZX=     0.0613
   XY=     0.7194   YY=     6.7337   ZY=     0.1276
   XZ=     2.0447   YZ=    -1.8113   ZZ=     7.3941
   Eigenvalues:     5.6048     7.7663     8.8666
     69  Bq   Isotropic =     8.6946   Anisotropy =    12.0713
   XX=     6.6825   YX=     1.4110   ZX=    -1.9313
   XY=     2.7837   YY=     2.7980   ZY=     1.2890
   XZ=     0.9675   YZ=     1.4137   ZZ=    16.6031
   Eigenvalues:     1.7439     7.5977    16.7421
     70  Bq   Isotropic =     9.4201   Anisotropy =    15.6365
   XX=     6.2062   YX=     1.6293   ZX=    -2.4418
   XY=     3.1814   YY=     2.3172   ZY=     1.0379
   XZ=     1.2544   YZ=     1.5353   ZZ=    19.7369
   Eigenvalues:     1.0612     7.3547    19.8444
     71  Bq   Isotropic =     9.2330   Anisotropy =    10.4227
   XX=     7.6569   YX=     1.8277   ZX=    -1.6236
   XY=     2.7752   YY=     3.8613   ZY=     0.7848
   XZ=     1.4885   YZ=    -0.6580   ZZ=    16.1807
   Eigenvalues:     2.7755     8.7419    16.1814
     72  Bq   Isotropic =     9.3956   Anisotropy =    17.7652
   XX=     5.4748   YX=     1.4321   ZX=    -2.7090
   XY=     3.2461   YY=     1.6614   ZY=     1.1868
   XZ=     1.1859   YZ=     2.4548   ZZ=    21.0506
   Eigenvalues:     0.3625     6.5853    21.2390
     73  Bq   Isotropic =     9.0526   Anisotropy =     7.6924
   XX=     8.3161   YX=     1.7713   ZX=    -1.1080
   XY=     2.4150   YY=     4.6940   ZY=     0.6788
   XZ=     1.6872   YZ=    -1.7001   ZZ=    14.1476
   Eigenvalues:     3.7044     9.2724    14.1809
     74  Bq   Isotropic =     9.2865   Anisotropy =    19.4607
   XX=     4.7686   YX=     1.2070   ZX=    -2.8873
   XY=     3.2428   YY=     1.0947   ZY=     1.3361
   XZ=     1.1282   YZ=     3.1738   ZZ=    21.9961
   Eigenvalues:    -0.2162     5.8153    22.2602
     75  Bq   Isotropic =     8.8576   Anisotropy =     5.2771
   XX=     8.8870   YX=     1.5851   ZX=    -0.5849
   XY=     1.9625   YY=     5.5085   ZY=     0.5604
   XZ=     1.9483   YZ=    -2.4991   ZZ=    12.1775
   Eigenvalues:     4.5713     9.6260    12.3757
     76  Bq   Isotropic =     9.0960   Anisotropy =    20.7064
   XX=     4.1013   YX=     0.9756   ZX=    -2.9917
   XY=     3.1911   YY=     0.6120   ZY=     1.4726
   XZ=     1.0718   YZ=     3.6791   ZZ=    22.5748
   Eigenvalues:    -0.6836     5.0715    22.9003
     77  Bq   Isotropic =     8.7039   Anisotropy =     3.7130
   XX=     9.3419   YX=     1.2718   ZX=    -0.1290
   XY=     1.4522   YY=     6.2611   ZY=     0.3943
   XZ=     2.2549   YZ=    -2.9019   ZZ=    10.5088
   Eigenvalues:     5.2805     9.6521    11.1793
     78  Bq   Isotropic =     8.8325   Anisotropy =    21.5224
   XX=     3.4812   YX=     0.7532   ZX=    -3.0386
   XY=     3.1077   YY=     0.2041   ZY=     1.5864
   XZ=     1.0135   YZ=     3.9844   ZZ=    22.8120
   Eigenvalues:    -1.0550     4.3716    23.1807
     79  Bq   Isotropic =     8.6654   Anisotropy =     3.3960
   XX=     9.6656   YX=     0.8609   ZX=     0.1789
   XY=     0.9373   YY=     6.9271   ZY=     0.1486
   XZ=     2.5642   YZ=    -2.8089   ZZ=     9.4036
   Eigenvalues:     5.8310     9.2358    10.9294
     80  Bq   Isotropic =     9.3625   Anisotropy =    13.1435
   XX=     6.9427   YX=     1.7712   ZX=    -2.0778
   XY=     3.0294   YY=     3.0570   ZY=     0.9020
   XZ=     1.3492   YZ=     0.4660   ZZ=    18.0877
   Eigenvalues:     1.8748     8.0878    18.1248
     81  Bq   Isotropic =    10.1704   Anisotropy =    16.7978
   XX=     6.5667   YX=     1.8782   ZX=    -2.6342
   XY=     3.3761   YY=     2.6349   ZY=     0.7152
   XZ=     1.5201   YZ=     1.1573   ZZ=    21.3096
   Eigenvalues:     1.2607     7.8816    21.3690
     82  Bq   Isotropic =    10.4335   Anisotropy =    12.0705
   XX=     8.5366   YX=     2.1678   ZX=    -1.7842
   XY=     3.0135   YY=     4.2943   ZY=     0.7203
   XZ=     1.8434   YZ=    -1.5005   ZZ=    18.4695
   Eigenvalues:     3.0585     9.7614    18.4805
     83  Bq   Isotropic =     9.9430   Anisotropy =    18.6736
   XX=     5.6518   YX=     1.6291   ZX=    -2.8905
   XY=     3.4108   YY=     1.9210   ZY=     0.7990
   XZ=     1.4216   YZ=     2.3075   ZZ=    22.2563
   Eigenvalues:     0.5154     6.9215    22.3921
     84  Bq   Isotropic =    10.4611   Anisotropy =     9.5170
   XX=     9.5253   YX=     2.1351   ZX=    -1.2204
   XY=     2.6635   YY=     5.1404   ZY=     0.7930
   XZ=     2.0900   YZ=    -2.7218   ZZ=    16.7178
   Eigenvalues:     3.9947    10.5829    16.8058
     85  Bq   Isotropic =     9.6612   Anisotropy =    20.1355
   XX=     4.8090   YX=     1.3547   ZX=    -3.0469
   XY=     3.3760   YY=     1.3098   ZY=     0.9210
   XZ=     1.3455   YZ=     3.2358   ZZ=    22.8648
   Eigenvalues:    -0.1010     5.9998    23.0849
     86  Bq   Isotropic =    10.4324   Anisotropy =     7.1785
   XX=    10.4583   YX=     1.9460   ZX=    -0.6313
   XY=     2.2158   YY=     5.9011   ZY=     0.8530
   XZ=     2.3894   YZ=    -3.6124   ZZ=    14.9379
   Eigenvalues:     4.8387    11.2405    15.2181
     87  Bq   Isotropic =     9.3320   Anisotropy =    21.1779
   XX=     4.0456   YX=     1.0792   ZX=    -3.1235
   XY=     3.2939   YY=     0.7979   ZY=     1.0594
   XZ=     1.2802   YZ=     3.9225   ZZ=    23.1525
   Eigenvalues:    -0.5954     5.1408    23.4506
     88  Bq   Isotropic =    10.3876   Anisotropy =     5.5225
   XX=    11.2921   YX=     1.5970   ZX=    -0.1022
   XY=     1.7129   YY=     6.5134   ZY=     0.8202
   XZ=     2.7153   YZ=    -3.9758   ZZ=    13.3574
   Eigenvalues:     5.5313    11.5623    14.0693
     89  Bq   Isotropic =     8.9625   Anisotropy =    21.8264
   XX=     3.3623   YX=     0.8190   ZX=    -3.1407
   XY=     3.1828   YY=     0.3734   ZY=     1.1959
   XZ=     1.2190   YZ=     4.3788   ZZ=    23.1517
   Eigenvalues:    -0.9838     4.3578    23.5134
     90  Bq   Isotropic =    10.4023   Anisotropy =     5.0862
   XX=    11.9934   YX=     1.1181   ZX=     0.2703
   XY=     1.2208   YY=     6.9595   ZY=     0.6100
   XZ=     3.0194   YZ=    -3.6811   ZZ=    12.2539
   Eigenvalues:     6.1157    11.2980    13.7931
     91  Bq   Isotropic =    10.3361   Anisotropy =    14.5594
   XX=     7.5375   YX=     2.0701   ZX=    -2.2647
   XY=     3.2495   YY=     3.4384   ZY=     0.6875
   XZ=     1.6559   YZ=    -0.1511   ZZ=    20.0324
   Eigenvalues:     2.1223     8.8437    20.0424
     92  Bq   Isotropic =    10.1226   Anisotropy =    23.8952
   XX=     7.9309   YX=     1.6576   ZX=    -9.0803
   XY=     0.6427   YY=     4.2166   ZY=    -5.1212
   XZ=   -11.4007   YZ=    -6.9235   ZZ=    18.2202
   Eigenvalues:    -0.0244     4.3394    26.0527
     93  Bq   Isotropic =    10.6556   Anisotropy =    20.6794
   XX=     9.1655   YX=     0.4808   ZX=    -7.8315
   XY=     0.3448   YY=     5.0078   ZY=    -4.6620
   XZ=   -10.4923   YZ=    -4.3098   ZZ=    17.7935
   Eigenvalues:     1.7077     5.8173    24.4418
     94  Bq   Isotropic =     9.6757   Anisotropy =    24.7199
   XX=     7.2323   YX=     2.1060   ZX=    -9.3869
   XY=     0.7583   YY=     3.8123   ZY=    -5.2866
   XZ=   -11.4454   YZ=    -7.8669   ZZ=    17.9826
   Eigenvalues:    -0.7522     3.6238    26.1556
     95  Bq   Isotropic =    10.7115   Anisotropy =    18.3646
   XX=     9.6484   YX=    -0.1515   ZX=    -6.9132
   XY=     0.1781   YY=     5.3673   ZY=    -4.3726
   XZ=    -9.5678   YZ=    -2.7891   ZZ=    17.1188
   Eigenvalues:     2.6714     6.5086    22.9546
     96  Bq   Isotropic =     9.1415   Anisotropy =    25.0598
   XX=     6.5177   YX=     2.4342   ZX=    -9.4987
   XY=     0.8441   YY=     3.4138   ZY=    -5.4040
   XZ=   -11.2875   YZ=    -8.5425   ZZ=    17.4931
   Eigenvalues:    -1.3836     2.9602    25.8481
     97  Bq   Isotropic =    10.6325   Anisotropy =    15.7477
   XX=    10.0213   YX=    -0.7138   ZX=    -5.8586
   XY=     0.0090   YY=     5.6806   ZY=    -4.0387
   XZ=    -8.3561   YZ=    -1.3108   ZZ=    16.1955
   Eigenvalues:     3.6368     7.1297    21.1310
     98  Bq   Isotropic =     8.5472   Anisotropy =    24.9812
   XX=     5.8121   YX=     2.6440   ZX=    -9.4429
   XY=     0.8979   YY=     3.0268   ZY=    -5.4715
   XZ=   -10.9814   YZ=    -8.9694   ZZ=    16.8029
   Eigenvalues:    -1.9237     2.3640    25.2014
     99  Bq   Isotropic =    10.4527   Anisotropy =    13.0467
   XX=    10.2901   YX=    -1.1192   ZX=    -4.7471
   XY=    -0.1596   YY=     5.9360   ZY=    -3.6507
   XZ=    -6.9521   YZ=    -0.0658   ZZ=    15.1321
   Eigenvalues:     4.5219     7.6857    19.1506
    100  Bq   Isotropic =     7.9186   Anisotropy =    24.5614
   XX=     5.1351   YX=     2.7480   ZX=    -9.2511
   XY=     0.9209   YY=     2.6554   ZY=    -5.4901
   XZ=   -10.5741   YZ=    -9.1824   ZZ=    15.9653
   Eigenvalues:    -2.3796     1.8425    24.2929
    101  Bq   Isotropic =    10.2369   Anisotropy =    10.5271
   XX=    10.4837   YX=    -1.2910   ZX=    -3.6797
   XY=    -0.3268   YY=     6.1363   ZY=    -3.2009
   XZ=    -5.5168   YZ=     0.7469   ZZ=    14.0908
   Eigenvalues:     5.2353     8.2204    17.2550
    102  Bq   Isotropic =    10.4561   Anisotropy =    22.5463
   XX=     8.5849   YX=     1.1037   ZX=    -8.5618
   XY=     0.5023   YY=     4.6190   ZY=    -4.9117
   XZ=   -11.0978   YZ=    -5.7212   ZZ=    18.1643
   Eigenvalues:     0.7994     5.0820    25.4869
    103  Bq   Isotropic =     9.6271   Anisotropy =    23.2524
   XX=     7.5291   YX=     1.6633   ZX=    -8.9168
   XY=     0.7232   YY=     4.2459   ZY=    -5.1731
   XZ=   -11.4057   YZ=    -6.8418   ZZ=    17.1064
   Eigenvalues:    -0.4017     4.1544    25.1287
    104  Bq   Isotropic =     9.8628   Anisotropy =    19.7152
   XX=     8.4236   YX=     0.6741   ZX=    -7.6012
   XY=     0.3366   YY=     4.9588   ZY=    -4.4482
   XZ=   -10.3636   YZ=    -4.4896   ZZ=    16.2062
   Eigenvalues:     1.1636     5.4186    23.0063
    105  Bq   Isotropic =     9.3106   Anisotropy =    24.2410
   XX=     6.9707   YX=     2.0295   ZX=    -9.2728
   XY=     0.8623   YY=     3.8610   ZY=    -5.4283
   XZ=   -11.5300   YZ=    -7.6763   ZZ=    17.0999
   Eigenvalues:    -1.0632     3.5236    25.4712
    106  Bq   Isotropic =     9.7761   Anisotropy =    17.2802
   XX=     8.7250   YX=     0.1239   ZX=    -6.6815
   XY=     0.1057   YY=     5.2736   ZY=    -3.9961
   XZ=    -9.4112   YZ=    -3.0901   ZZ=    15.3297
   Eigenvalues:     2.0448     5.9872    21.2962
    107  Bq   Isotropic =     8.8858   Anisotropy =    24.7302
   XX=     6.3713   YX=     2.2910   ZX=    -9.4347
   XY=     0.9600   YY=     3.4671   ZY=    -5.6072
   XZ=   -11.4465   YZ=    -8.2670   ZZ=    16.8191
   Eigenvalues:    -1.6424     2.9272    25.3727
    108  Bq   Isotropic =     9.5793   Anisotropy =    14.6013
   XX=     8.9260   YX=    -0.3877   ZX=    -5.6543
   XY=    -0.1353   YY=     5.5536   ZY=    -3.5017
   XZ=    -8.2136   YZ=    -1.6923   ZZ=    14.2581
   Eigenvalues:     2.9547     6.4697    19.3135
    109  Bq   Isotropic =     8.3790   Anisotropy =    24.7795
   XX=     5.7562   YX=     2.4508   ZX=    -9.4248
   XY=     1.0169   YY=     3.0722   ZY=    -5.7116
   XZ=   -11.2034   YZ=    -8.6333   ZZ=    16.3085
   Eigenvalues:    -2.1428     2.3811    24.8986
    110  Bq   Isotropic =     9.3199   Anisotropy =    11.9209
   XX=     9.0460   YX=    -0.7932   ZX=    -4.5991
   XY=    -0.3737   YY=     5.7971   ZY=    -2.9826
   XZ=    -6.8701   YZ=    -0.4539   ZZ=    13.1167
   Eigenvalues:     3.8433     6.8493    17.2672
    111  Bq   Isotropic =     7.8171   Anisotropy =    24.4635
   XX=     5.1477   YX=     2.5203   ZX=    -9.2712
   XY=     1.0363   YY=     2.6844   ZY=    -5.7476
   XZ=   -10.8449   YZ=    -8.8083   ZZ=    15.6194
   Eigenvalues:    -2.5693     1.8946    24.1261
    112  Bq   Isotropic =     9.0671   Anisotropy =     9.5195
   XX=     9.1222   YX=    -1.0316   ZX=    -3.6107
   XY=    -0.5957   YY=     6.0076   ZY=    -2.4623
   XZ=    -5.5349   YZ=     0.4572   ZZ=    12.0716
   Eigenvalues:     4.6427     7.1452    15.4135
    113  Bq   Isotropic =     9.8148   Anisotropy =    21.7363
   XX=     8.0207   YX=     1.2024   ZX=    -8.3568
   XY=     0.5457   YY=     4.6141   ZY=    -4.8441
   XZ=   -11.0276   YZ=    -5.7669   ZZ=    16.8096
   Eigenvalues:     0.3425     4.7962    24.3056
    114  Bq   Isotropic =     9.3257   Anisotropy =    22.7811
   XX=     7.3502   YX=     1.7110   ZX=    -8.7582
   XY=     0.8408   YY=     4.4245   ZY=    -5.3445
   XZ=   -11.4384   YZ=    -6.9186   ZZ=    16.2024
   Eigenvalues:    -0.6793     4.1433    24.5131
    115  Bq   Isotropic =     9.3695   Anisotropy =    18.9528
   XX=     8.0368   YX=     0.8975   ZX=    -7.3788
   XY=     0.3813   YY=     5.1189   ZY=    -4.4132
   XZ=   -10.2492   YZ=    -4.8032   ZZ=    14.9529
   Eigenvalues:     0.7928     5.3111    22.0047
    116  Bq   Isotropic =     9.0926   Anisotropy =    23.9140
   XX=     6.8784   YX=     1.9948   ZX=    -9.1599
   XY=     0.9994   YY=     4.0245   ZY=    -5.6690
   XZ=   -11.6440   YZ=    -7.6380   ZZ=    16.3749
   Eigenvalues:    -1.3069     3.5495    25.0352
    117  Bq   Isotropic =     9.1907   Anisotropy =    16.4056
   XX=     8.2295   YX=     0.4193   ZX=    -6.4549
   XY=     0.1021   YY=     5.4006   ZY=    -3.8381
   XZ=    -9.2558   YZ=    -3.4898   ZZ=    13.9420
   Eigenvalues:     1.6206     5.8236    20.1277
    118  Bq   Isotropic =     8.7372   Anisotropy =    24.5316
   XX=     6.3499   YX=     2.1861   ZX=    -9.3681
   XY=     1.1059   YY=     3.6029   ZY=    -5.8931
   XZ=   -11.6343   YZ=    -8.1295   ZZ=    16.2588
   Eigenvalues:    -1.8607     2.9807    25.0916
    119  Bq   Isotropic =     8.9181   Anisotropy =    13.6680
   XX=     8.3299   YX=    -0.0492   ZX=    -5.4490
   XY=    -0.1871   YY=     5.6362   ZY=    -3.2255
   XZ=    -8.0545   YZ=    -2.1245   ZZ=    12.7881
   Eigenvalues:     2.4829     6.2412    18.0300
    120  Bq   Isotropic =     8.2847   Anisotropy =    24.6880
   XX=     5.7898   YX=     2.2901   ZX=    -9.4001
   XY=     1.1626   YY=     3.1724   ZY=    -6.0211
   XZ=   -11.4523   YZ=    -8.4171   ZZ=    15.8918
   Eigenvalues:    -2.3424     2.4532    24.7434
    121  Bq   Isotropic =     8.6075   Anisotropy =    11.0118
   XX=     8.3647   YX=    -0.4546   ZX=    -4.4409
   XY=    -0.4642   YY=     5.8281   ZY=    -2.6120
   XZ=    -6.7502   YZ=    -0.8396   ZZ=    11.6296
   Eigenvalues:     3.3436     6.5302    15.9487
    122  Bq   Isotropic =     7.7634   Anisotropy =    24.4561
   XX=     5.2218   YX=     2.3185   ZX=    -9.2817
   XY=     1.1752   YY=     2.7459   ZY=    -6.0629
   XZ=   -11.1395   YZ=    -8.5344   ZZ=    15.3226
   Eigenvalues:    -2.7550     1.9778    24.0675
    123  Bq   Isotropic =     8.3302   Anisotropy =     8.7461
   XX=     8.3751   YX=    -0.7454   ZX=    -3.5216
   XY=    -0.7057   YY=     5.9808   ZY=    -2.0403
   XZ=    -5.4932   YZ=     0.2173   ZZ=    10.6347
   Eigenvalues:     4.1531     6.6765    14.1609
    124  Bq   Isotropic =     9.4193   Anisotropy =    21.1149
   XX=     7.7419   YX=     1.3391   ZX=    -8.1593
   XY=     0.6321   YY=     4.7920   ZY=    -4.9221
   XZ=   -10.9802   YZ=    -5.9660   ZZ=    15.7240
   Eigenvalues:     0.0221     4.7399    23.4959
    125  Bq   Isotropic =     9.2322   Anisotropy =    22.4963
[...]
   131  Bq   0.000000
   132  Bq   0.000000
   133  Bq   0.000000
   134  Bq   0.000000
   135  Bq   0.000000
   136  Bq   0.000000
   137  Bq   0.000000
   138  Bq   0.000000
   139  Bq   0.000000
   140  Bq   0.000000
   141  Bq   0.000000
   142  Bq   0.000000
   143  Bq   0.000000
   144  Bq   0.000000
   145  Bq   0.000000
   146  Bq   0.000000
   147  Bq   0.000000
   148  Bq   0.000000
   149  Bq   0.000000
   150  Bq   0.000000
   151  Bq   0.000000
   152  Bq   0.000000
   153  Bq   0.000000
   154  Bq   0.000000
   155  Bq   0.000000
   156  Bq   0.000000
   157  Bq   0.000000
   158  Bq   0.000000
   159  Bq   0.000000
   160  Bq   0.000000
   161  Bq   0.000000
   162  Bq   0.000000
   163  Bq   0.000000
   164  Bq   0.000000
   165  Bq   0.000000
   166  Bq   0.000000
   167  Bq   0.000000
   168  Bq   0.000000
   169  Bq   0.000000
   170  Bq   0.000000
   171  Bq   0.000000
   172  Bq   0.000000
   173  Bq   0.000000
   174  Bq   0.000000
   175  Bq   0.000000
   176  Bq   0.000000
   177  Bq   0.000000
   178  Bq   0.000000
   179  Bq   0.000000
   180  Bq   0.000000
   181  Bq   0.000000
   182  Bq   0.000000
   183  Bq   0.000000
   184  Bq   0.000000
   185  Bq   0.000000
   186  Bq   0.000000
   187  Bq   0.000000
   188  Bq   0.000000
   189  Bq   0.000000
   190  Bq   0.000000
   191  Bq   0.000000
   192  Bq   0.000000
   193  Bq   0.000000
   194  Bq   0.000000
   195  Bq   0.000000
   196  Bq   0.000000
   197  Bq   0.000000
   198  Bq   0.000000
   199  Bq   0.000000
   200  Bq   0.000000
   201  Bq   0.000000
   202  Bq   0.000000
   203  Bq   0.000000
   204  Bq   0.000000
   205  Bq   0.000000
   206  Bq   0.000000
   207  Bq   0.000000
   208  Bq   0.000000
   209  Bq   0.000000
   210  Bq   0.000000
   211  Bq   0.000000
   212  Bq   0.000000
   213  Bq   0.000000
   214  Bq   0.000000
   215  Bq   0.000000
   216  Bq   0.000000
   217  Bq   0.000000
   218  Bq   0.000000
   219  Bq   0.000000
   220  Bq   0.000000
   221  Bq   0.000000
   222  Bq   0.000000
   223  Bq   0.000000
   224  Bq   0.000000
   225  Bq   0.000000
   226  Bq   0.000000
   227  Bq   0.000000
   228  Bq   0.000000
   229  Bq   0.000000
   230  Bq   0.000000
   231  Bq   0.000000
   232  Bq   0.000000
   233  Bq   0.000000
   234  Bq   0.000000
   235  Bq   0.000000
   236  Bq   0.000000
 Sum of Mulliken charges =   0.00000
 Mulliken charges with hydrogens summed into heavy atoms:
               1
     1  C   -0.255498
     3  C    0.169409
     5  C    0.448258
     6  C    0.064351
     7  C   -0.333926
     9  C   -0.139521
    11  C   -0.205988
    13  C   -0.119315
    15  C    0.653397
    16  C    0.034822
    17  C   -0.317410
    19  C   -0.316854
    21  C    0.651066
    22  C    0.037784
    23  C   -0.117289
    25  C   -0.205316
    27  C    0.448331
    28  C    0.061983
    29  C   -0.333381
    31  C   -0.139505
    33  C   -0.255977
    35  C    0.170579
    37  Bq   0.000000
    38  Bq   0.000000
    39  Bq   0.000000
    40  Bq   0.000000
    41  Bq   0.000000
    42  Bq   0.000000
    43  Bq   0.000000
    44  Bq   0.000000
    45  Bq   0.000000
    46  Bq   0.000000
    47  Bq   0.000000
    48  Bq   0.000000
    49  Bq   0.000000
    50  Bq   0.000000
    51  Bq   0.000000
    52  Bq   0.000000
    53  Bq   0.000000
    54  Bq   0.000000
    55  Bq   0.000000
    56  Bq   0.000000
    57  Bq   0.000000
    58  Bq   0.000000
    59  Bq   0.000000
    60  Bq   0.000000
    61  Bq   0.000000
    62  Bq   0.000000
    63  Bq   0.000000
    64  Bq   0.000000
    65  Bq   0.000000
    66  Bq   0.000000
    67  Bq   0.000000
    68  Bq   0.000000
    69  Bq   0.000000
    70  Bq   0.000000
    71  Bq   0.000000
    72  Bq   0.000000
    73  Bq   0.000000
    74  Bq   0.000000
    75  Bq   0.000000
    76  Bq   0.000000
    77  Bq   0.000000
    78  Bq   0.000000
    79  Bq   0.000000
    80  Bq   0.000000
    81  Bq   0.000000
    82  Bq   0.000000
    83  Bq   0.000000
    84  Bq   0.000000
    85  Bq   0.000000
    86  Bq   0.000000
    87  Bq   0.000000
    88  Bq   0.000000
    89  Bq   0.000000
    90  Bq   0.000000
    91  Bq   0.000000
    92  Bq   0.000000
    93  Bq   0.000000
    94  Bq   0.000000
    95  Bq   0.000000
    96  Bq   0.000000
    97  Bq   0.000000
    98  Bq   0.000000
    99  Bq   0.000000
   100  Bq   0.000000
   101  Bq   0.000000
   102  Bq   0.000000
   103  Bq   0.000000
   104  Bq   0.000000
   105  Bq   0.000000
   106  Bq   0.000000
   107  Bq   0.000000
   108  Bq   0.000000
   109  Bq   0.000000
   110  Bq   0.000000
   111  Bq   0.000000
   112  Bq   0.000000
   113  Bq   0.000000
   114  Bq   0.000000
   115  Bq   0.000000
   116  Bq   0.000000
   117  Bq   0.000000
   118  Bq   0.000000
   119  Bq   0.000000
   120  Bq   0.000000
   121  Bq   0.000000
   122  Bq   0.000000
   123  Bq   0.000000
   124  Bq   0.000000
   125  Bq   0.000000
   126  Bq   0.000000
   127  Bq   0.000000
   128  Bq   0.000000
   129  Bq   0.000000
   130  Bq   0.000000
   131  Bq   0.000000
   132  Bq   0.000000
   133  Bq   0.000000
   134  Bq   0.000000
   135  Bq   0.000000
   136  Bq   0.000000
   137  Bq   0.000000
   138  Bq   0.000000
   139  Bq   0.000000
   140  Bq   0.000000
   141  Bq   0.000000
   142  Bq   0.000000
   143  Bq   0.000000
   144  Bq   0.000000
   145  Bq   0.000000
   146  Bq   0.000000
   147  Bq   0.000000
   148  Bq   0.000000
   149  Bq   0.000000
   150  Bq   0.000000
   151  Bq   0.000000
   152  Bq   0.000000
   153  Bq   0.000000
   154  Bq   0.000000
   155  Bq   0.000000
   156  Bq   0.000000
   157  Bq   0.000000
   158  Bq   0.000000
   159  Bq   0.000000
   160  Bq   0.000000
   161  Bq   0.000000
   162  Bq   0.000000
   163  Bq   0.000000
   164  Bq   0.000000
   165  Bq   0.000000
   166  Bq   0.000000
   167  Bq   0.000000
   168  Bq   0.000000
   169  Bq   0.000000
   170  Bq   0.000000
   171  Bq   0.000000
   172  Bq   0.000000
   173  Bq   0.000000
   174  Bq   0.000000
   175  Bq   0.000000
   176  Bq   0.000000
   177  Bq   0.000000
   178  Bq   0.000000
   179  Bq   0.000000
   180  Bq   0.000000
   181  Bq   0.000000
   182  Bq   0.000000
   183  Bq   0.000000
   184  Bq   0.000000
   185  Bq   0.000000
   186  Bq   0.000000
   187  Bq   0.000000
   188  Bq   0.000000
   189  Bq   0.000000
   190  Bq   0.000000
   191  Bq   0.000000
   192  Bq   0.000000
   193  Bq   0.000000
   194  Bq   0.000000
   195  Bq   0.000000
   196  Bq   0.000000
   197  Bq   0.000000
   198  Bq   0.000000
   199  Bq   0.000000
   200  Bq   0.000000
   201  Bq   0.000000
   202  Bq   0.000000
   203  Bq   0.000000
   204  Bq   0.000000
   205  Bq   0.000000
   206  Bq   0.000000
   207  Bq   0.000000
   208  Bq   0.000000
   209  Bq   0.000000
   210  Bq   0.000000
   211  Bq   0.000000
   212  Bq   0.000000
   213  Bq   0.000000
   214  Bq   0.000000
   215  Bq   0.000000
   216  Bq   0.000000
   217  Bq   0.000000
   218  Bq   0.000000
   219  Bq   0.000000
   220  Bq   0.000000
   221  Bq   0.000000
   222  Bq   0.000000
   223  Bq   0.000000
   224  Bq   0.000000
   225  Bq   0.000000
   226  Bq   0.000000
   227  Bq   0.000000
   228  Bq   0.000000
   229  Bq   0.000000
   230  Bq   0.000000
   231  Bq   0.000000
   232  Bq   0.000000
   233  Bq   0.000000
   234  Bq   0.000000
   235  Bq   0.000000
   236  Bq   0.000000
 Electronic spatial extent (au):  <R**2>=           5736.9264
 Charge=              0.0000 electrons
 Dipole moment (field-independent basis, Debye):
    X=              0.0475    Y=              0.0856    Z=              0.0029  Tot=              0.0979
 Quadrupole moment (field-independent basis, Debye-Ang):
   XX=           -113.7056   YY=           -113.9456   ZZ=           -133.2669
   XY=             -0.3834   XZ=              3.2102   YZ=             -1.1839
 Traceless Quadrupole moment (field-independent basis, Debye-Ang):
   XX=              6.6005   YY=              6.3604   ZZ=            -12.9609
   XY=             -0.3834   XZ=              3.2102   YZ=             -1.1839
 Octapole moment (field-independent basis, Debye-Ang**2):
  XXX=            -16.4668  YYY=            -16.1860  ZZZ=             -1.7007  XYY=              2.5576
  XXY=             -6.5650  XXZ=             13.6547  XZZ=             -8.9478  YZZ=            -17.7168
  YYZ=            -13.2941  XYZ=              8.8036
 Hexadecapole moment (field-independent basis, Debye-Ang**3):
 XXXX=          -3951.1638 YYYY=          -3112.2161 ZZZZ=           -504.8311 XXXY=            340.6935
 XXXZ=            156.4968 YYYX=            335.5625 YYYZ=            -87.0893 ZZZX=            120.2262
 ZZZY=           -108.7373 XXYY=          -1176.4844 XXZZ=           -856.7291 YYZZ=           -665.7275
 XXYZ=            -68.9016 YYXZ=             48.1602 ZZXY=            153.0375
 N-N= 1.610917615562D+03 E-N=-5.186891130729D+03  KE= 8.436329774449D+02
 1\1\GINC-PLANA\SP\RB3LYP\6-311+G(d,p)\C22H14\YANNICK\22-Aug-2020\0\\# 
 rb3lyp/6-311+g** NMR geom=connectivity\\Title\\0,1\C,0,-4.0500558,-0.5
 771862,0.8136712\H,0,-5.0263804,-1.0082727,1.002476\C,0,-3.9381552,0.6
 617804,0.2400876\H,0,-4.8252424,1.233889,-0.0111295\C,0,-2.676841,1.24
 33246,0.0057578\C,0,-1.4974121,0.5051527,0.2848253\C,0,-1.6508332,-0.7
 338728,0.9404026\H,0,-0.7713646,-1.2730967,1.2633753\C,0,-2.8898548,-1
 .2624035,1.1994307\H,0,-2.9683706,-2.2124563,1.7152676\C,0,-2.5773185,
 2.5963696,-0.419293\H,0,-3.4870728,3.1412239,-0.6474055\C,0,-1.3741895
 ,3.2147896,-0.436403\H,0,-1.2997315,4.2742019,-0.6578144\C,0,-0.171948
 8,2.499409,-0.1734588\C,0,-0.2043917,1.1018437,0.0192689\C,0,1.0513491
 ,3.204256,-0.0676222\H,0,1.0427344,4.2819499,-0.1896997\C,0,2.1942091,
 2.5487446,0.2579577\H,0,3.1168527,3.0912848,0.4334727\C,0,2.2216473,1.
 1336562,0.293499\C,0,1.0486931,0.3945528,0.0302412\C,0,3.4483363,0.461
 4633,0.5573939\H,0,4.3095794,1.0606054,0.8334846\C,0,3.5427346,-0.8855
 926,0.4749463\H,0,4.4731467,-1.3939704,0.7038822\C,0,2.4490052,-1.6474
 447,-0.0196319\C,0,1.2150704,-1.0057258,-0.3013573\C,0,0.2531113,-1.74
 3444,-1.0216591\H,0,-0.6541356,-1.2535051,-1.3462847\C,0,0.4494193,-3.
 0628597,-1.3413779\H,0,-0.3083162,-3.5944309,-1.905406\C,0,1.6251726,-
 3.7207967,-0.9552541\H,0,1.7670048,-4.7687404,-1.1927019\C,0,2.6109872
 ,-3.0144177,-0.318305\H,0,3.5525612,-3.4902813,-0.0646367\Bq,0,0.93041
 42356,1.7350888206,0.7233157938\Bq,0,0.9817719642,1.7635441386,0.53212
 82456\Bq,0,0.9047353713,1.7208611616,0.8189095679\Bq,0,1.0074508286,1.
 7777717977,0.4365344716\Bq,0,0.879056507,1.7066335025,0.914503342\Bq,0
 ,1.0331296929,1.7919994567,0.3409406975\Bq,0,0.8533776426,1.6924058435
 ,1.0100971161\Bq,0,1.0588085572,1.8062271157,0.2453469234\Bq,0,0.82769
 87783,1.6781781845,1.1056908902\Bq,0,1.0844874215,1.8204547748,0.14975
 31493\Bq,0,0.9560930999,1.7493164796,0.6277220197\Bq,0,0.9267231851,1.
 8340715146,0.7370563334\Bq,0,0.9780809137,1.8625268327,0.5458687852\Bq
 ,0,0.9010443207,1.8198438556,0.8326501075\Bq,0,1.003759778,1.876754491
 7,0.4502750111\Bq,0,0.8753654564,1.8056161966,0.9282438816\Bq,0,1.0294
 386424,1.8909821507,0.354681237\Bq,0,0.8496865921,1.7913885375,1.02383
 76557\Bq,0,1.0551175067,1.9052098098,0.2590874629\Bq,0,0.8240077278,1.
 7771608785,1.1194314298\Bq,0,1.080796371,1.9194374688,0.1634936888\Bq,
 0,0.9524020494,1.8482991736,0.6414625593\Bq,0,0.9230321345,1.933054208
 7,0.750796873\Bq,0,0.9743898632,1.9615095267,0.5596093248\Bq,0,0.89735
 32702,1.9188265496,0.8463906471\Bq,0,1.0000687275,1.9757371857,0.46401
 55507\Bq,0,0.8716744059,1.9045988906,0.9419844211\Bq,0,1.0257475918,1.
 9899648448,0.3684217766\Bq,0,0.8459955416,1.8903712316,1.0375781952\Bq
 ,0,1.0514264561,2.0041925038,0.2728280025\Bq,0,0.8203166772,1.87614357
 25,1.1331719693\Bq,0,1.0771053205,2.0184201628,0.1772342284\Bq,0,0.948
 7109988,1.9472818677,0.6552030989\Bq,0,0.919341084,2.0320369027,0.7645
 374125\Bq,0,0.9706988126,2.0604922207,0.5733498643\Bq,0,0.8936622197,2
 .0178092437,0.8601311866\Bq,0,0.996377677,2.0747198798,0.4777560902\Bq
 ,0,0.8679833553,2.0035815846,0.9557249607\Bq,0,1.0220565413,2.08894753
 88,0.3821623161\Bq,0,0.842304491,1.9893539256,1.0513187348\Bq,0,1.0477
 354056,2.1031751978,0.286568542\Bq,0,0.8166256267,1.9751262666,1.14691
 25089\Bq,0,1.0734142699,2.1174028569,0.1909747679\Bq,0,0.9450199483,2.
 0462645617,0.6689436384\Bq,0,0.9156500335,2.1310195967,0.7782779521\Bq
 ,0,0.9670077621,2.1594749148,0.5870904039\Bq,0,0.8899711691,2.11679193
 77,0.8738717262\Bq,0,0.9926866264,2.1737025738,0.4914966298\Bq,0,0.864
 2923048,2.1025642787,0.9694655003\Bq,0,1.0183654907,2.1879302328,0.395
 9028557\Bq,0,0.8386134405,2.0883366196,1.0650592744\Bq,0,1.0440443551,
 2.2021578919,0.3003090816\Bq,0,0.8129345762,2.0741089606,1.1606530485\
 Bq,0,1.0697232194,2.2163855509,0.2047153075\Bq,0,0.9413288978,2.145247
 2558,0.682684178\Bq,0,1.1967788103,-2.8181151051,0.1171937559\Bq,0,1.2
 481365389,-2.789659787,-0.0739937923\Bq,0,1.1710999459,-2.8323427641,0
 .21278753\Bq,0,1.2738154032,-2.775432128,-0.1695875664\Bq,0,1.14542108
 16,-2.8465704231,0.3083813041\Bq,0,1.2994942676,-2.761204469,-0.265181
 3405\Bq,0,1.1197422173,-2.8607980821,0.4039750782\Bq,0,1.3251731319,-2
 .7469768099,-0.3607751146\Bq,0,1.094063353,-2.8750257412,0.4995688523\
 Bq,0,1.3508519962,-2.7327491509,-0.4563688887\Bq,0,1.2224576746,-2.803
 887446,0.0215999818\Bq,0,1.1930877597,-2.719132411,0.1309342955\Bq,0,1
 .2444454884,-2.690677093,-0.0602532527\Bq,0,1.1674088954,-2.7333600701
 ,0.2265280696\Bq,0,1.2701243527,-2.6764494339,-0.1558470268\Bq,0,1.141
 7300311,-2.7475877291,0.3221218437\Bq,0,1.295803217,-2.6622217749,-0.2
 514408009\Bq,0,1.1160511668,-2.7618153881,0.4177156178\Bq,0,1.32148208
 13,-2.6479941159,-0.347034575\Bq,0,1.0903723024,-2.7760430471,0.513309
 3919\Bq,0,1.3471609457,-2.6337664569,-0.4426283491\Bq,0,1.2187666241,-
 2.704904752,0.0353405214\Bq,0,1.1893967092,-2.620149717,0.144674835\Bq
 ,0,1.2407544378,-2.5916943989,-0.0465127132\Bq,0,1.1637178449,-2.63437
 7376,0.2402686091\Bq,0,1.2664333022,-2.5774667399,-0.1421064872\Bq,0,1
 .1380389806,-2.648605035,0.3358623832\Bq,0,1.2921121665,-2.5632390809,
 -0.2377002613\Bq,0,1.1123601162,-2.6628326941,0.4314561573\Bq,0,1.3177
 910308,-2.5490114219,-0.3332940354\Bq,0,1.0866812519,-2.6770603531,0.5
 270499314\Bq,0,1.3434698951,-2.5347837628,-0.4288878095\Bq,0,1.2150755
 735,-2.605922058,0.0490810609\Bq,0,1.1857056587,-2.521167023,0.1584153
 746\Bq,0,1.2370633873,-2.4927117049,-0.0327721736\Bq,0,1.1600267943,-2
 .535394682,0.2540091487\Bq,0,1.2627422516,-2.4784840459,-0.1283659477\
 Bq,0,1.13434793,-2.549622341,0.3496029228\Bq,0,1.288421116,-2.46425638
 68,-0.2239597218\Bq,0,1.1086690657,-2.56385,0.4451966969\Bq,0,1.314099
 9803,-2.4500287278,-0.3195534959\Bq,0,1.0829902014,-2.5780776591,0.540
 790471\Bq,0,1.3397788446,-2.4358010688,-0.41514727\Bq,0,1.211384523,-2
 .5069393639,0.0628216005\Bq,0,1.1820146081,-2.4221843289,0.1721559142\
 Bq,0,1.2333723368,-2.3937290109,-0.019031634\Bq,0,1.1563357438,-2.4364
 119879,0.2677496882\Bq,0,1.2590512011,-2.3795013518,-0.1146254081\Bq,0
 ,1.1306568795,-2.450639647,0.3633434623\Bq,0,1.2847300654,-2.365273692
 8,-0.2102191822\Bq,0,1.1049780152,-2.464867306,0.4589372364\Bq,0,1.310
 4089297,-2.3510460338,-0.3058129563\Bq,0,1.0792991508,-2.479094965,0.5
 545310105\Bq,0,1.3360877941,-2.3368183748,-0.4014067304\Bq,0,1.2076934
 725,-2.4079566699,0.0765621401\Bq,0,1.1783235576,-2.3232016349,0.18589
 64537\Bq,0,1.2296812862,-2.2947463168,-0.0052910945\Bq,0,1.1526446933,
 -2.3374292939,0.2814902278\Bq,0,1.2553601506,-2.2805186578,-0.10088486
 86\Bq,0,1.1269658289,-2.3516569529,0.3770840019\Bq,0,1.2810390149,-2.2
 662909988,-0.1964786427\Bq,0,1.1012869646,-2.365884612,0.472677776\Bq,
 0,1.3067178792,-2.2520633397,-0.2920724168\Bq,0,1.0756081003,-2.380112
 271,0.5682715501\Bq,0,1.3323967435,-2.2378356807,-0.3876661909\Bq,0,1.
 2040024219,-2.3089739759,0.0903026796\Bq,0,1.1746325071,-2.2242189408,
 0.1996369933\Bq,0,1.2259902357,-2.1957636228,0.0084494451\Bq,0,1.14895
 36427,-2.2384465999,0.2952307674\Bq,0,1.2516691,-2.1815359638,-0.08714
 4329\Bq,0,1.1232747784,-2.2526742589,0.3908245415\Bq,0,1.2773479643,-2
 .1673083047,-0.1827381031\Bq,0,1.0975959141,-2.2669019179,0.4864183156
 \Bq,0,1.3030268287,-2.1530806457,-0.2783318772\Bq,0,1.0719170498,-2.28
 1129577,0.5820120896\Bq,0,1.328705693,-2.1388529867,-0.3739256513\Bq,0
 ,1.2003113714,-2.2099912818,0.1040432192\Bq,0,1.1709414565,-2.12523624
 68,0.2133775328\Bq,0,1.2222991852,-2.0967809288,0.0221899846\Bq,0,1.14
 52625922,-2.1394639058,0.3089713069\Bq,0,1.2479780495,-2.0825532697,-0
 .0734037895\Bq,0,1.1195837279,-2.1536915649,0.404565081\Bq,0,1.2736569
 138,-2.0683256107,-0.1689975635\Bq,0,1.0939048636,-2.1679192239,0.5001
 588551\Bq,0,1.2993357781,-2.0540979517,-0.2645913376\Bq,0,1.0682259992
 ,-2.1821468829,0.5957526292\Bq,0,1.3250146425,-2.0398702926,-0.3601851
 117\Bq,0,1.1966203208,-2.1110085878,0.1177837587\Bq,0,1.167250406,-2.0
 262535528,0.2271180724\Bq,0,1.2186081346,-1.9977982347,0.0359305242\Bq
 ,0,1.1415715417,-2.0404812118,0.3227118465\Bq,0,1.244286999,-1.9835705
 757,-0.0596632499\Bq,0,1.1158926773,-2.0547088708,0.4183056206\Bq,0,1.
 2699658633,-1.9693429167,-0.155257024\Bq,0,1.090213813,-2.0689365299,0
 .5138993947\Bq,0,1.2956447276,-1.9551152576,-0.2508507981\Bq,0,1.06453
 49487,-2.0831641889,0.6094931688\Bq,0,1.3213235919,-1.9408875986,-0.34
 64445722\Bq,0,1.1929292703,-2.0120258937,0.1315242983\Bq,0,1.163559355
 5,-1.9272708587,0.2408586119\Bq,0,1.2149170841,-1.8988155407,0.0496710
 638\Bq,0,1.1378804911,-1.9414985178,0.336452386\Bq,0,1.2405959484,-1.8
 845878817,-0.0459227103\Bq,0,1.1122016268,-1.9557261768,0.4320461601\B
 q,0,1.2662748127,-1.8703602226,-0.1415164844\Bq,0,1.0865227625,-1.9699
 538358,0.5276399342\Bq,0,1.2919536771,-1.8561325636,-0.2371102585\Bq,0
 ,1.0608438982,-1.9841814949,0.6232337083\Bq,0,1.3176325414,-1.84190490
 46,-0.3327040326\Bq,0,1.1892382198,-1.9130431997,0.1452648379\Bq,0,1.1
 598683049,-1.8282881647,0.2545991515\Bq,0,1.2112260336,-1.7998328466,0
 .0634116033\Bq,0,1.1341894406,-1.8425158237,0.3501929256\Bq,0,1.236904
 8979,-1.7856051876,-0.0321821708\Bq,0,1.1085105763,-1.8567434828,0.445
 7866997\Bq,0,1.2625837622,-1.7713775286,-0.1277759449\Bq,0,1.082831711
 9,-1.8709711418,0.5413804738\Bq,0,1.2882626265,-1.7571498696,-0.223369
 719\Bq,0,1.0571528476,-1.8851988008,0.6369742479\Bq,0,1.3139414909,-1.
 7429222105,-0.3189634931\Bq,0,1.1855471692,-1.8140605057,0.1590053774\
 Bq,0,1.1561772544,-1.7293054707,0.2683396911\Bq,0,1.207534983,-1.70085
 01526,0.0771521429\Bq,0,1.1304983901,-1.7435331297,0.3639334652\Bq,0,1
 .2332138473,-1.6866224936,-0.0184416312\Bq,0,1.1048195257,-1.757760788
 7,0.4595272393\Bq,0,1.2588927117,-1.6723948346,-0.1140354053\Bq,0,1.07
 91406614,-1.7719884478,0.5551210133\Bq,0,1.284571576,-1.6581671755,-0.
 2096291794\Bq,0,1.0534617971,-1.7862161068,0.6507147874\Bq,0,1.3102504
 403,-1.6439395165,-0.3052229535\Bq,0,1.1818561187,-1.7150778116,0.1727
 45917\Bq,0,1.1524862038,-1.6303227766,0.2820802306\Bq,0,1.2038439325,-
 1.6018674586,0.0908926824\Bq,0,1.1268073395,-1.6445504357,0.3776740047
 \Bq,0,1.2295227968,-1.5876397995,-0.0047010917\Bq,0,1.1011284752,-1.65
 87780947,0.4732677788\Bq,0,1.2552016611,-1.5734121405,-0.1002948658\Bq
 ,0,1.0754496109,-1.6730057537,0.5688615529\Bq,0,1.2808805255,-1.559184
 4815,-0.1958886398\Bq,0,1.0497707466,-1.6872334127,0.664455327\Bq,0,1.
 3065593898,-1.5449568225,-0.2914824139\Bq,0,1.1781650682,-1.6160951176
 ,0.1864864565\Bq,0,1.1487951533,-1.5313400826,0.2958207702\Bq,0,1.2001
 52882,-1.5028847645,0.104633222\\Version=ES64L-G09RevD.01\HF=-847.0032
 898\RMSD=7.608e-09\Dipole=0.0186808,0.0336671,0.0011595\Quadrupole=4.9
 072795,4.7288219,-9.6361014,-0.2850201,2.3867064,-0.880172\PG=C01 [X(C
 22H14)]\\@


 ALL MEN WHO EXPLORE
 DEPLORE
 THAT FRUSTRATING HURDLE
 THE GIRDLE.

         -- COLIN FLETCHER
 Job cpu time:       0 days  3 hours 57 minutes 28.0 seconds.
 File lengths (MBytes):  RWF=    184 Int=      0 D2E=      0 Chk=     19 Scr=      1
 Normal termination of Gaussian 09 at Sat Aug 22 15:07:08 2020.
