 Entering Gaussian System, Link 0=g09
 Input=input_cycle_02_batch_07600.com
 Output=input_cycle_02_batch_07600.log
 Initial command:
 /share/programs/GAUSSIAN/64/g09/l1.exe "/scratch/yannick.30081/Gau-2283023.inp" -scrdir="/scratch/yannick.30081/"
 Entering Link 1 = /share/programs/GAUSSIAN/64/g09/l1.exe PID=   2283024.
  
 Copyright (c) 1988,1990,1992,1993,1995,1998,2003,2009,2013,
            Gaussian, Inc.  All Rights Reserved.
  
 This is part of the Gaussian(R) 09 program.  It is based on
 the Gaussian(R) 03 system (copyright 2003, Gaussian, Inc.),
 the Gaussian(R) 98 system (copyright 1998, Gaussian, Inc.),
 the Gaussian(R) 94 system (copyright 1995, Gaussian, Inc.),
 the Gaussian 92(TM) system (copyright 1992, Gaussian, Inc.),
 the Gaussian 90(TM) system (copyright 1990, Gaussian, Inc.),
 the Gaussian 88(TM) system (copyright 1988, Gaussian, Inc.),
 the Gaussian 86(TM) system (copyright 1986, Carnegie Mellon
 University), and the Gaussian 82(TM) system (copyright 1983,
 Carnegie Mellon University). Gaussian is a federally registered
 trademark of Gaussian, Inc.
  
 This software contains proprietary and confidential information,
 including trade secrets, belonging to Gaussian, Inc.
  
 This software is provided under written license and may be
 used, copied, transmitted, or stored only in accord with that
 written license.
  
 The following legend is applicable only to US Government
 contracts under FAR:
  
                    RESTRICTED RIGHTS LEGEND
  
 Use, reproduction and disclosure by the US Government is
 subject to restrictions as set forth in subparagraphs (a)
 and (c) of the Commercial Computer Software - Restricted
 Rights clause in FAR 52.227-19.
  
 Gaussian, Inc.
 340 Quinnipiac St., Bldg. 40, Wallingford CT 06492
  
  
 ---------------------------------------------------------------
 Warning -- This program may not be used in any manner that
 competes with the business of Gaussian, Inc. or will provide
 assistance to any competitor of Gaussian, Inc.  The licensee
 of this program is prohibited from giving any competitor of
 Gaussian, Inc. access to this program.  By using this program,
 the user acknowledges that Gaussian, Inc. is engaged in the
 business of creating and licensing software in the field of
 computational chemistry and represents and warrants to the
 licensee that it is not a competitor of Gaussian, Inc. and that
 it will not use this program in any manner prohibited above.
 ---------------------------------------------------------------
  

 Cite this work as:
 Gaussian 09, Revision D.01,
 M. J. Frisch, G. W. Trucks, H. B. Schlegel, G. E. Scuseria, 
 M. A. Robb, J. R. Cheeseman, G. Scalmani, V. Barone, B. Mennucci, 
 G. A. Petersson, H. Nakatsuji, M. Caricato, X. Li, H. P. Hratchian, 
 A. F. Izmaylov, J. Bloino, G. Zheng, J. L. Sonnenberg, M. Hada, 
 M. Ehara, K. Toyota, R. Fukuda, J. Hasegawa, M. Ishida, T. Nakajima, 
 Y. Honda, O. Kitao, H. Nakai, T. Vreven, J. A. Montgomery, Jr., 
 J. E. Peralta, F. Ogliaro, M. Bearpark, J. J. Heyd, E. Brothers, 
 K. N. Kudin, V. N. Staroverov, T. Keith, R. Kobayashi, J. Normand, 
 K. Raghavachari, A. Rendell, J. C. Burant, S. S. Iyengar, J. Tomasi, 
 M. Cossi, N. Rega, J. M. Millam, M. Klene, J. E. Knox, J. B. Cross, 
 V. Bakken, C. Adamo, J. Jaramillo, R. Gomperts, R. E. Stratmann, 
 O. Yazyev, A. J. Austin, R. Cammi, C. Pomelli, J. W. Ochterski, 
 R. L. Martin, K. Morokuma, V. G. Zakrzewski, G. A. Voth, 
 P. Salvador, J. J. Dannenberg, S. Dapprich, A. D. Daniels, 
 O. Farkas, J. B. Foresman, J. V. Ortiz, J. Cioslowski, 
 and D. J. Fox, Gaussian, Inc., Wallingford CT, 2013.
 
 ******************************************
 Gaussian 09:  ES64L-G09RevD.01 24-Apr-2013
                21-Aug-2020 
 ******************************************
 %nproc=8
 Will use up to    8 processors via shared memory.
 %mem=1000MB
 ----------------------------------------
 # rb3lyp/6-311+g** NMR geom=connectivity
 ----------------------------------------
 1/38=1,57=2/1;
 2/12=2,17=6,18=5,40=1/2;
 3/5=4,6=6,7=111,11=2,16=1,25=1,30=1,74=-5,116=1/1,2,8,3;
 4//1;
 5/5=2,38=5/2;
 8/6=1,10=90,11=11/1;
 10/13=100,45=16/2;
 6/7=2,8=2,9=2,10=2,28=1/1;
 99/9=1/99;
 -----
 Title
 -----
 Symbolic Z-matrix:
 Charge =  0 Multiplicity = 1
 C                    -4.05006  -0.57719   0.81367 
 H                    -5.02638  -1.00827   1.00248 
 C                    -3.93816   0.66178   0.24009 
 H                    -4.82524   1.23389  -0.01113 
 C                    -2.67684   1.24332   0.00576 
 C                    -1.49741   0.50515   0.28483 
 C                    -1.65083  -0.73387   0.9404 
 H                    -0.77136  -1.2731    1.26338 
 C                    -2.88985  -1.2624    1.19943 
 H                    -2.96837  -2.21246   1.71527 
 C                    -2.57732   2.59637  -0.41929 
 H                    -3.48707   3.14122  -0.64741 
 C                    -1.37419   3.21479  -0.4364 
 H                    -1.29973   4.2742   -0.65781 
 C                    -0.17195   2.49941  -0.17346 
 C                    -0.20439   1.10184   0.01927 
 C                     1.05135   3.20426  -0.06762 
 H                     1.04273   4.28195  -0.1897 
 C                     2.19421   2.54874   0.25796 
 H                     3.11685   3.09128   0.43347 
 C                     2.22165   1.13366   0.2935 
 C                     1.04869   0.39455   0.03024 
 C                     3.44834   0.46146   0.55739 
 H                     4.30958   1.06061   0.83348 
 C                     3.54273  -0.88559   0.47495 
 H                     4.47315  -1.39397   0.70388 
 C                     2.44901  -1.64744  -0.01963 
 C                     1.21507  -1.00573  -0.30136 
 C                     0.25311  -1.74344  -1.02166 
 H                    -0.65414  -1.25351  -1.34628 
 C                     0.44942  -3.06286  -1.34138 
 H                    -0.30832  -3.59443  -1.90541 
 C                     1.62517  -3.7208   -0.95525 
 H                     1.767    -4.76874  -1.1927 
 C                     2.61099  -3.01442  -0.31831 
 H                     3.55256  -3.49028  -0.06464 
 Bq                   -2.61413   2.05403  -0.2165 
 Bq                   -2.63334   2.17677   0.26782 
 Bq                   -2.63621   2.29826   0.34015 
 Bq                   -2.62852   2.24916   0.14642 
 Bq                   -2.64005   2.32281   0.43701 
 Bq                   -2.62468   2.22462   0.04956 
 Bq                   -2.64389   2.34736   0.53388 
 Bq                   -2.62084   2.20007  -0.04731 
 Bq                   -2.64773   2.37191   0.63074 
 Bq                   -2.617     2.17552  -0.14417 
 Bq                   -2.65158   2.39646   0.7276 
 Bq                   -2.61316   2.15097  -0.24103 
 Bq                   -2.63237   2.27371   0.24329 
 Bq                   -2.63523   2.3952    0.31562 
 Bq                   -2.62755   2.3461    0.12189 
 Bq                   -2.63908   2.41975   0.41248 
 Bq                   -2.62371   2.32156   0.02503 
 Bq                   -2.64292   2.4443    0.50935 
 Bq                   -2.61987   2.29701  -0.07184 
 Bq                   -2.64676   2.46885   0.60621 
 Bq                   -2.61602   2.27246  -0.1687 
 Bq                   -2.6506    2.4934    0.70307 
 Bq                   -2.61218   2.24791  -0.26556 
 Bq                   -2.63139   2.37065   0.21876 
 Bq                   -2.63426   2.49214   0.29109 
 Bq                   -2.62658   2.44304   0.09736 
 Bq                   -2.6381    2.51669   0.38795 
 Bq                   -2.62274   2.4185    0.0005 
 Bq                   -2.64195   2.54124   0.48482 
 Bq                   -2.61889   2.39395  -0.09637 
 Bq                   -2.64579   2.56579   0.58168 
 Bq                   -2.61505   2.3694   -0.19323 
 Bq                   -2.64963   2.59034   0.67854 
 Bq                   -2.61121   2.34485  -0.29009 
 Bq                   -2.63042   2.46759   0.19423 
 Bq                   -2.63329   2.58908   0.26656 
 Bq                   -2.6256    2.53998   0.07283 
 Bq                   -2.63713   2.61363   0.36342 
 Bq                   -2.62176   2.51544  -0.02403 
 Bq                   -2.64097   2.63818   0.46029 
 Bq                   -2.61792   2.49089  -0.1209 
 Bq                   -2.64481   2.66273   0.55715 
 Bq                   -2.61408   2.46634  -0.21776 
 Bq                   -2.64866   2.68728   0.65401 
 Bq                   -2.61024   2.44179  -0.31462 
 Bq                   -2.62945   2.56453   0.1697 
 Bq                   -2.63232   2.68602   0.24203 
 Bq                   -2.62463   2.63692   0.0483 
 Bq                   -2.63616   2.71057   0.33889 
 Bq                   -2.62079   2.61237  -0.04856 
 Bq                   -2.64      2.73512   0.43576 
 Bq                   -2.61695   2.58783  -0.14543 
 Bq                   -2.64384   2.75967   0.53262 
 Bq                   -2.61311   2.56328  -0.24229 
 Bq                   -2.64768   2.78422   0.62948 
 Bq                   -2.60926   2.53873  -0.33915 
 Bq                   -2.62847   2.66147   0.14517 
 Bq                   -2.63134   2.78296   0.2175 
 Bq                   -2.62366   2.73386   0.02377 
 Bq                   -2.63518   2.80751   0.31436 
 Bq                   -2.61982   2.70931  -0.07309 
 Bq                   -2.63903   2.83206   0.41123 
 Bq                   -2.61597   2.68477  -0.16996 
 Bq                   -2.64287   2.85661   0.50809 
 Bq                   -2.61213   2.66022  -0.26682 
 Bq                   -2.64671   2.88116   0.60495 
 Bq                   -2.60829   2.63567  -0.36368 
 Bq                   -2.6275    2.75841   0.12064 
 Bq                   -2.63037   2.8799    0.19297 
 Bq                   -2.62269   2.8308   -0.00076 
 Bq                   -2.63421   2.90445   0.28983 
 Bq                   -2.61884   2.80625  -0.09762 
 Bq                   -2.63805   2.929     0.3867 
 Bq                   -2.615     2.78171  -0.19449 
 Bq                   -2.6419    2.95355   0.48356 
 Bq                   -2.61116   2.75716  -0.29135 
 Bq                   -2.64574   2.9781    0.58042 
 Bq                   -2.60732   2.73261  -0.38821 
 Bq                   -2.62653   2.85535   0.09611 
 Bq                   -2.6294    2.97684   0.16844 
 Bq                   -2.62171   2.92774  -0.02529 
 Bq                   -2.63324   3.00139   0.2653 
 Bq                   -2.61787   2.90319  -0.12215 
 Bq                   -2.63708   3.02594   0.36217 
 Bq                   -2.61403   2.87865  -0.21902 
 Bq                   -2.64092   3.05049   0.45903 
 Bq                   -2.61019   2.8541   -0.31588 
 Bq                   -2.64476   3.07504   0.55589 
 Bq                   -2.60634   2.82955  -0.41274 
 Bq                   -2.62555   2.95229   0.07158 
 Bq                   -2.62842   3.07378   0.14391 
 Bq                   -2.62074   3.02468  -0.04982 
 Bq                   -2.63227   3.09833   0.24077 
 Bq                   -2.6169    3.00013  -0.14668 
 Bq                   -2.63611   3.12288   0.33764 
 Bq                   -2.61306   2.97558  -0.24355 
 Bq                   -2.63995   3.14743   0.4345 
 Bq                   -2.60921   2.95104  -0.34041 
 Bq                   -2.64379   3.17198   0.53136 
 Bq                   -2.60537   2.92649  -0.43727 
 Bq                   -2.62458   3.04923   0.04705 
 Bq                   -2.62745   3.17072   0.11938 
 Bq                   -2.61977   3.12162  -0.07435 
 Bq                   -2.63129   3.19527   0.21624 
 Bq                   -2.61592   3.09707  -0.17121 
 Bq                   -2.63513   3.21982   0.31311 
 Bq                   -2.61208   3.07252  -0.26808 
 Bq                   -2.63898   3.24437   0.40997 
 Bq                   -2.60824   3.04798  -0.36494 
 Bq                   -2.64282   3.26892   0.50683 
 Bq                   -2.6044    3.02343  -0.4618 
 Bq                   -2.62361   3.14617   0.02252 
 Bq                   -2.62648   3.26766   0.09485 
 Bq                   -2.61879   3.21856  -0.09888 
 Bq                   -2.63032   3.29221   0.19171 
 Bq                   -2.61495   3.19401  -0.19574 
 Bq                   -2.63416   3.31676   0.28858 
 Bq                   -2.61111   3.16946  -0.29261 
 Bq                   -2.638     3.34131   0.38544 
 Bq                   -2.60727   3.14492  -0.38947 
 Bq                   -2.64185   3.36586   0.4823 
 Bq                   -2.60343   3.12037  -0.48633 
 Bq                   -2.62264   3.24311  -0.00202 
 Bq                   -2.6255    3.3646    0.07032 
 Bq                   -2.61782   3.3155   -0.12341 
 Bq                   -2.62935   3.38915   0.16718 
 Bq                   -2.61398   3.29095  -0.22027 
 Bq                   -2.63319   3.4137    0.26405 
 Bq                   -2.61014   3.2664   -0.31714 
 Bq                   -2.63703   3.43825   0.36091 
 Bq                   -2.60629   3.24186  -0.414 
 Bq                   -2.64087   3.4628    0.45777 
 Bq                   -2.60245   3.21731  -0.51086 
 Bq                   -2.62166   3.34005  -0.02655 
 Bq                   -2.62453   3.46154   0.04579 
 Bq                   -2.61685   3.41244  -0.14794 
 Bq                   -2.62837   3.48609   0.14265 
 Bq                   -2.61301   3.38789  -0.2448 
 Bq                   -2.63222   3.51064   0.23952 
 Bq                   -2.60916   3.36334  -0.34167 
 Bq                   -2.63606   3.53519   0.33638 
 Bq                   -2.60532   3.33879  -0.43853 
 Bq                   -2.6399    3.55974   0.43324 
 Bq                   -2.60148   3.31425  -0.53539 
 Bq                   -2.62069   3.43699  -0.05108 
 Bq                   -2.62356   3.55848   0.02126 
 Bq                   -2.61587   3.50938  -0.17247 
 Bq                   -2.6274    3.58303   0.11812 
 Bq                   -2.61203   3.48483  -0.26933 
 Bq                   -2.63124   3.60758   0.21499 
 Bq                   -2.60819   3.46028  -0.3662 
 Bq                   -2.63508   3.63213   0.31185 
 Bq                   -2.60435   3.43573  -0.46306 
 Bq                   -2.63893   3.65668   0.40871 
 Bq                   -2.60051   3.41119  -0.55992 
 Bq                   -2.61972   3.53393  -0.07561 
 Bq                   -2.62259   3.65542  -0.00327 
 Bq                   -2.6149    3.60632  -0.197 
 Bq                   -2.62643   3.67997   0.09359 
 Bq                   -2.61106   3.58177  -0.29386 
 Bq                   -2.63027   3.70452   0.19046 
 Bq                   -2.60722   3.55722  -0.39073 
 Bq                   -2.63411   3.72907   0.28732 
 Bq                   -2.60338   3.53267  -0.48759 
 Bq                   -2.63795   3.75362   0.38418 
 Bq                   -2.59953   3.50813  -0.58445 
 Bq                   -2.61874   3.63087  -0.10014 
 Bq                   -2.62161   3.75236  -0.0278 
 Bq                   -2.61393   3.70326  -0.22153 
 Bq                   -2.62545   3.77691   0.06906 
 Bq                   -2.61009   3.67871  -0.31839 
 Bq                   -2.6293    3.80146   0.16593 
 Bq                   -2.60624   3.65416  -0.41526 
 Bq                   -2.63314   3.82601   0.26279 
 Bq                   -2.6024    3.62961  -0.51212 
 Bq                   -2.63698   3.85056   0.35965 
 Bq                   -2.59856   3.60507  -0.60898 
 Bq                   -2.61777   3.72781  -0.12467 
 Bq                   -2.62064   3.8493   -0.05233 
 Bq                   -2.61296   3.8002   -0.24606 
 Bq                   -2.62448   3.87385   0.04453 
 Bq                   -2.60911   3.77565  -0.34292 
 Bq                   -2.62832   3.8984    0.1414 
 Bq                   -2.60527   3.7511   -0.43979 
 Bq                   -2.63217   3.92295   0.23826 
 Bq                   -2.60143   3.72655  -0.53665 
 Bq                   -2.63601   3.9475    0.33512 
 Bq                   -2.59759   3.70201  -0.63351 
 Bq                   -2.6168    3.82475  -0.1492 
 Bq                   -2.61967   3.94624  -0.07686 
 Bq                   -2.61198   3.89714  -0.27059 
 Bq                   -2.62351   3.97079   0.02 
 Bq                   -2.60814   3.87259  -0.36745 
 Bq                   -2.62735   3.99534   0.11687 
 Bq                   -2.6043    3.84804  -0.46432 
 Bq                   -2.63119   4.01989   0.21373 
 Bq                   -2.60046   3.82349  -0.56118 
 Bq                   -2.63503   4.04444   0.31059 
 Bq                   -2.59662   3.79894  -0.65804 
 Bq                   -2.61582   3.92169  -0.17373 
 
 Symmetry turned off:
 Cannot cope with ghost atoms or with translation vectors.
 Stoichiometry    C22H14
 Framework group  C1[X(C22H14)]
 NUMDOF-- NAT=    36 NAtoms=   236
 Deg. of freedom     0
 Full point group                 C1      NOp   1
                          Input orientation:                          
 ---------------------------------------------------------------------
 Center     Atomic      Atomic             Coordinates (Angstroms)
 Number     Number       Type             X           Y           Z
 ---------------------------------------------------------------------
      1          6           0       -4.050056   -0.577186    0.813671
      2          1           0       -5.026380   -1.008273    1.002476
      3          6           0       -3.938155    0.661780    0.240088
      4          1           0       -4.825242    1.233889   -0.011130
      5          6           0       -2.676841    1.243325    0.005758
      6          6           0       -1.497412    0.505153    0.284825
      7          6           0       -1.650833   -0.733873    0.940403
      8          1           0       -0.771365   -1.273097    1.263375
      9          6           0       -2.889855   -1.262404    1.199431
     10          1           0       -2.968371   -2.212456    1.715268
     11          6           0       -2.577319    2.596370   -0.419293
     12          1           0       -3.487073    3.141224   -0.647406
     13          6           0       -1.374190    3.214790   -0.436403
     14          1           0       -1.299732    4.274202   -0.657814
     15          6           0       -0.171949    2.499409   -0.173459
     16          6           0       -0.204392    1.101844    0.019269
     17          6           0        1.051349    3.204256   -0.067622
     18          1           0        1.042734    4.281950   -0.189700
     19          6           0        2.194209    2.548745    0.257958
     20          1           0        3.116853    3.091285    0.433473
     21          6           0        2.221647    1.133656    0.293499
     22          6           0        1.048693    0.394553    0.030241
     23          6           0        3.448336    0.461463    0.557394
     24          1           0        4.309579    1.060605    0.833485
     25          6           0        3.542735   -0.885593    0.474946
     26          1           0        4.473147   -1.393970    0.703882
     27          6           0        2.449005   -1.647445   -0.019632
     28          6           0        1.215070   -1.005726   -0.301357
     29          6           0        0.253111   -1.743444   -1.021659
     30          1           0       -0.654136   -1.253505   -1.346285
     31          6           0        0.449419   -3.062860   -1.341378
     32          1           0       -0.308316   -3.594431   -1.905406
     33          6           0        1.625173   -3.720797   -0.955254
     34          1           0        1.767005   -4.768740   -1.192702
     35          6           0        2.610987   -3.014418   -0.318305
     36          1           0        3.552561   -3.490281   -0.064637
     37          0           0       -2.614128    2.054028   -0.216503
     38          0           0       -2.633338    2.176774    0.267815
     39          0           0       -2.636207    2.298264    0.340149
     40          0           0       -2.628523    2.249165    0.146422
     41          0           0       -2.640049    2.322813    0.437013
     42          0           0       -2.624681    2.224616    0.049558
     43          0           0       -2.643891    2.347362    0.533876
     44          0           0       -2.620839    2.200066   -0.047306
     45          0           0       -2.647733    2.371912    0.630740
     46          0           0       -2.616997    2.175517   -0.144169
     47          0           0       -2.651575    2.396461    0.727604
     48          0           0       -2.613155    2.150968   -0.241033
     49          0           0       -2.632365    2.273714    0.243285
     50          0           0       -2.635234    2.395203    0.315619
     51          0           0       -2.627550    2.346105    0.121892
     52          0           0       -2.639076    2.419753    0.412483
     53          0           0       -2.623708    2.321555    0.025028
     54          0           0       -2.642918    2.444302    0.509346
     55          0           0       -2.619866    2.297006   -0.071836
     56          0           0       -2.646760    2.468851    0.606210
     57          0           0       -2.616024    2.272457   -0.168699
     58          0           0       -2.650602    2.493401    0.703074
     59          0           0       -2.612182    2.247908   -0.265563
     60          0           0       -2.631392    2.370654    0.218755
     61          0           0       -2.634261    2.492143    0.291089
     62          0           0       -2.626577    2.443045    0.097362
     63          0           0       -2.638103    2.516693    0.387953
     64          0           0       -2.622735    2.418495    0.000498
     65          0           0       -2.641945    2.541242    0.484816
     66          0           0       -2.618893    2.393946   -0.096366
     67          0           0       -2.645787    2.565791    0.581680
     68          0           0       -2.615051    2.369397   -0.193229
     69          0           0       -2.649629    2.590341    0.678544
     70          0           0       -2.611209    2.344847   -0.290093
     71          0           0       -2.630419    2.467594    0.194225
     72          0           0       -2.633288    2.589083    0.266559
     73          0           0       -2.625604    2.539984    0.072832
     74          0           0       -2.637130    2.613632    0.363423
     75          0           0       -2.621762    2.515435   -0.024032
     76          0           0       -2.640972    2.638182    0.460286
     77          0           0       -2.617920    2.490886   -0.120896
     78          0           0       -2.644814    2.662731    0.557150
     79          0           0       -2.614078    2.466337   -0.217759
     80          0           0       -2.648656    2.687280    0.654014
     81          0           0       -2.610236    2.441787   -0.314623
     82          0           0       -2.629446    2.564534    0.169695
     83          0           0       -2.632315    2.686023    0.242029
     84          0           0       -2.624631    2.636924    0.048302
     85          0           0       -2.636157    2.710572    0.338893
     86          0           0       -2.620789    2.612375   -0.048562
     87          0           0       -2.639999    2.735122    0.435756
     88          0           0       -2.616947    2.587826   -0.145426
     89          0           0       -2.643841    2.759671    0.532620
     90          0           0       -2.613105    2.563276   -0.242290
     91          0           0       -2.647683    2.784220    0.629484
     92          0           0       -2.609263    2.538727   -0.339153
     93          0           0       -2.628473    2.661474    0.145165
     94          0           0       -2.631342    2.782963    0.217499
     95          0           0       -2.623658    2.733864    0.023771
     96          0           0       -2.635184    2.807512    0.314362
     97          0           0       -2.619816    2.709315   -0.073092
     98          0           0       -2.639026    2.832061    0.411226
     99          0           0       -2.615974    2.684765   -0.169956
    100          0           0       -2.642868    2.856611    0.508090
    101          0           0       -2.612132    2.660216   -0.266820
    102          0           0       -2.646710    2.881160    0.604953
    103          0           0       -2.608290    2.635667   -0.363683
    104          0           0       -2.627500    2.758413    0.120635
    105          0           0       -2.630369    2.879903    0.192969
    106          0           0       -2.622685    2.830804   -0.000759
    107          0           0       -2.634211    2.904452    0.289832
    108          0           0       -2.618843    2.806255   -0.097622
    109          0           0       -2.638053    2.929001    0.386696
    110          0           0       -2.615001    2.781705   -0.194486
    111          0           0       -2.641895    2.953551    0.483560
    112          0           0       -2.611160    2.757156   -0.291350
    113          0           0       -2.645737    2.978100    0.580423
    114          0           0       -2.607318    2.732607   -0.388213
    115          0           0       -2.626527    2.855353    0.096105
    116          0           0       -2.629396    2.976842    0.168439
    117          0           0       -2.621712    2.927744   -0.025289
    118          0           0       -2.633238    3.001392    0.265302
    119          0           0       -2.617871    2.903194   -0.122152
    120          0           0       -2.637080    3.025941    0.362166
    121          0           0       -2.614029    2.878645   -0.219016
    122          0           0       -2.640922    3.050490    0.459030
    123          0           0       -2.610187    2.854096   -0.315880
    124          0           0       -2.644764    3.075040    0.555893
    125          0           0       -2.606345    2.829547   -0.412743
    126          0           0       -2.625554    2.952293    0.071575
    127          0           0       -2.628424    3.073782    0.143909
    128          0           0       -2.620740    3.024684   -0.049819
    129          0           0       -2.632265    3.098332    0.240772
    130          0           0       -2.616898    3.000134   -0.146682
    131          0           0       -2.636107    3.122881    0.337636
    132          0           0       -2.613056    2.975585   -0.243546
    133          0           0       -2.639949    3.147430    0.434500
    134          0           0       -2.609214    2.951036   -0.340410
    135          0           0       -2.643791    3.171980    0.531363
    136          0           0       -2.605372    2.926486   -0.437273
    137          0           0       -2.624582    3.049233    0.047045
    138          0           0       -2.627451    3.170722    0.119379
    139          0           0       -2.619767    3.121623   -0.074349
    140          0           0       -2.631293    3.195271    0.216242
    141          0           0       -2.615925    3.097074   -0.171212
    142          0           0       -2.635135    3.219821    0.313106
    143          0           0       -2.612083    3.072525   -0.268076
    144          0           0       -2.638976    3.244370    0.409970
    145          0           0       -2.608241    3.047976   -0.364940
    146          0           0       -2.642818    3.268919    0.506833
    147          0           0       -2.604399    3.023426   -0.461803
    148          0           0       -2.623609    3.146173    0.022515
    149          0           0       -2.626478    3.267662    0.094849
    150          0           0       -2.618794    3.218563   -0.098879
    151          0           0       -2.630320    3.292211    0.191712
    152          0           0       -2.614952    3.194014   -0.195742
    153          0           0       -2.634162    3.316761    0.288576
    154          0           0       -2.611110    3.169465   -0.292606
    155          0           0       -2.638004    3.341310    0.385440
    156          0           0       -2.607268    3.144915   -0.389470
    157          0           0       -2.641846    3.365859    0.482303
    158          0           0       -2.603426    3.120366   -0.486333
    159          0           0       -2.622636    3.243113   -0.002015
    160          0           0       -2.625505    3.364602    0.070319
    161          0           0       -2.617821    3.315503   -0.123409
    162          0           0       -2.629347    3.389151    0.167182
    163          0           0       -2.613979    3.290954   -0.220272
    164          0           0       -2.633189    3.413700    0.264046
    165          0           0       -2.610137    3.266404   -0.317136
    166          0           0       -2.637031    3.438250    0.360910
    167          0           0       -2.606295    3.241855   -0.414000
    168          0           0       -2.640873    3.462799    0.457773
    169          0           0       -2.602453    3.217306   -0.510863
    170          0           0       -2.621663    3.340052   -0.026545
    171          0           0       -2.624532    3.461542    0.045789
    172          0           0       -2.616848    3.412443   -0.147939
    173          0           0       -2.628374    3.486091    0.142652
    174          0           0       -2.613006    3.387894   -0.244802
    175          0           0       -2.632216    3.510640    0.239516
    176          0           0       -2.609164    3.363344   -0.341666
    177          0           0       -2.636058    3.535190    0.336380
    178          0           0       -2.605322    3.338795   -0.438530
    179          0           0       -2.639900    3.559739    0.433243
    180          0           0       -2.601480    3.314246   -0.535393
    181          0           0       -2.620690    3.436992   -0.051075
    182          0           0       -2.623559    3.558481    0.021259
    183          0           0       -2.615875    3.509383   -0.172469
    184          0           0       -2.627401    3.583031    0.118122
    185          0           0       -2.612033    3.484833   -0.269332
    186          0           0       -2.631243    3.607580    0.214986
    187          0           0       -2.608191    3.460284   -0.366196
    188          0           0       -2.635085    3.632129    0.311850
    189          0           0       -2.604349    3.435735   -0.463060
    190          0           0       -2.638927    3.656679    0.408713
    191          0           0       -2.600507    3.411186   -0.559923
    192          0           0       -2.619717    3.533932   -0.075605
    193          0           0       -2.622586    3.655421   -0.003271
    194          0           0       -2.614902    3.606323   -0.196999
    195          0           0       -2.626428    3.679971    0.093592
    196          0           0       -2.611060    3.581773   -0.293862
    197          0           0       -2.630270    3.704520    0.190456
    198          0           0       -2.607218    3.557224   -0.390726
    199          0           0       -2.634112    3.729069    0.287320
    200          0           0       -2.603376    3.532675   -0.487590
    201          0           0       -2.637954    3.753619    0.384183
    202          0           0       -2.599534    3.508125   -0.584453
    203          0           0       -2.618744    3.630872   -0.100135
    204          0           0       -2.621613    3.752361   -0.027801
    205          0           0       -2.613929    3.703262   -0.221529
    206          0           0       -2.625455    3.776910    0.069062
    207          0           0       -2.610087    3.678713   -0.318392
    208          0           0       -2.629297    3.801460    0.165926
    209          0           0       -2.606245    3.654164   -0.415256
    210          0           0       -2.633139    3.826009    0.262790
    211          0           0       -2.602403    3.629614   -0.512120
    212          0           0       -2.636981    3.850558    0.359653
    213          0           0       -2.598561    3.605065   -0.608983
    214          0           0       -2.617771    3.727812   -0.124665
    215          0           0       -2.620640    3.849301   -0.052332
    216          0           0       -2.612956    3.800202   -0.246059
    217          0           0       -2.624482    3.873850    0.044532
    218          0           0       -2.609114    3.775653   -0.342923
    219          0           0       -2.628324    3.898400    0.141396
    220          0           0       -2.605272    3.751104   -0.439786
    221          0           0       -2.632166    3.922949    0.238259
    222          0           0       -2.601430    3.726554   -0.536650
    223          0           0       -2.636008    3.947498    0.335123
    224          0           0       -2.597588    3.702005   -0.633514
    225          0           0       -2.616798    3.824752   -0.149195
    226          0           0       -2.619667    3.946241   -0.076862
    227          0           0       -2.611983    3.897142   -0.270589
    228          0           0       -2.623509    3.970790    0.020002
    229          0           0       -2.608141    3.872593   -0.367453
    230          0           0       -2.627351    3.995339    0.116866
    231          0           0       -2.604299    3.848043   -0.464316
    232          0           0       -2.631193    4.019889    0.213729
    233          0           0       -2.600457    3.823494   -0.561180
    234          0           0       -2.635035    4.044438    0.310593
    235          0           0       -2.596615    3.798945   -0.658044
    236          0           0       -2.615825    3.921691   -0.173725
 ---------------------------------------------------------------------
 Rotational constants (GHZ):      0.4529074      0.2836956      0.1879557
 Standard basis: 6-311+G(d,p) (5D, 7F)
 Warning:  center  37 has no basis functions!
 Warning:  center  38 has no basis functions!
 Warning:  center  39 has no basis functions!
 Warning:  center  40 has no basis functions!
 Warning:  center  41 has no basis functions!
 Warning:  center  42 has no basis functions!
 Warning:  center  43 has no basis functions!
 Warning:  center  44 has no basis functions!
 Warning:  center  45 has no basis functions!
 Warning:  center  46 has no basis functions!
 Warning:  center  47 has no basis functions!
 Warning:  center  48 has no basis functions!
 Warning:  center  49 has no basis functions!
 Warning:  center  50 has no basis functions!
 Warning:  center  51 has no basis functions!
 Warning:  center  52 has no basis functions!
 Warning:  center  53 has no basis functions!
 Warning:  center  54 has no basis functions!
 Warning:  center  55 has no basis functions!
 Warning:  center  56 has no basis functions!
 Warning:  center  57 has no basis functions!
 Warning:  center  58 has no basis functions!
 Warning:  center  59 has no basis functions!
 Warning:  center  60 has no basis functions!
 Warning:  center  61 has no basis functions!
 Warning:  center  62 has no basis functions!
 Warning:  center  63 has no basis functions!
 Warning:  center  64 has no basis functions!
 Warning:  center  65 has no basis functions!
 Warning:  center  66 has no basis functions!
 Warning:  center  67 has no basis functions!
 Warning:  center  68 has no basis functions!
 Warning:  center  69 has no basis functions!
 Warning:  center  70 has no basis functions!
 Warning:  center  71 has no basis functions!
 Warning:  center  72 has no basis functions!
 Warning:  center  73 has no basis functions!
 Warning:  center  74 has no basis functions!
 Warning:  center  75 has no basis functions!
 Warning:  center  76 has no basis functions!
 Warning:  center  77 has no basis functions!
 Warning:  center  78 has no basis functions!
 Warning:  center  79 has no basis functions!
 Warning:  center  80 has no basis functions!
 Warning:  center  81 has no basis functions!
 Warning:  center  82 has no basis functions!
 Warning:  center  83 has no basis functions!
 Warning:  center  84 has no basis functions!
 Warning:  center  85 has no basis functions!
 Warning:  center  86 has no basis functions!
 Warning:  center  87 has no basis functions!
 Warning:  center  88 has no basis functions!
 Warning:  center  89 has no basis functions!
 Warning:  center  90 has no basis functions!
 Warning:  center  91 has no basis functions!
 Warning:  center  92 has no basis functions!
 Warning:  center  93 has no basis functions!
 Warning:  center  94 has no basis functions!
 Warning:  center  95 has no basis functions!
 Warning:  center  96 has no basis functions!
 Warning:  center  97 has no basis functions!
 Warning:  center  98 has no basis functions!
 Warning:  center  99 has no basis functions!
 Warning:  center 100 has no basis functions!
 Warning:  center 101 has no basis functions!
 Warning:  center 102 has no basis functions!
 Warning:  center 103 has no basis functions!
 Warning:  center 104 has no basis functions!
 Warning:  center 105 has no basis functions!
 Warning:  center 106 has no basis functions!
 Warning:  center 107 has no basis functions!
 Warning:  center 108 has no basis functions!
 Warning:  center 109 has no basis functions!
 Warning:  center 110 has no basis functions!
 Warning:  center 111 has no basis functions!
 Warning:  center 112 has no basis functions!
 Warning:  center 113 has no basis functions!
 Warning:  center 114 has no basis functions!
 Warning:  center 115 has no basis functions!
 Warning:  center 116 has no basis functions!
 Warning:  center 117 has no basis functions!
 Warning:  center 118 has no basis functions!
 Warning:  center 119 has no basis functions!
 Warning:  center 120 has no basis functions!
 Warning:  center 121 has no basis functions!
 Warning:  center 122 has no basis functions!
 Warning:  center 123 has no basis functions!
 Warning:  center 124 has no basis functions!
 Warning:  center 125 has no basis functions!
 Warning:  center 126 has no basis functions!
 Warning:  center 127 has no basis functions!
 Warning:  center 128 has no basis functions!
 Warning:  center 129 has no basis functions!
 Warning:  center 130 has no basis functions!
 Warning:  center 131 has no basis functions!
 Warning:  center 132 has no basis functions!
 Warning:  center 133 has no basis functions!
 Warning:  center 134 has no basis functions!
 Warning:  center 135 has no basis functions!
 Warning:  center 136 has no basis functions!
 Warning:  center 137 has no basis functions!
 Warning:  center 138 has no basis functions!
 Warning:  center 139 has no basis functions!
 Warning:  center 140 has no basis functions!
 Warning:  center 141 has no basis functions!
 Warning:  center 142 has no basis functions!
 Warning:  center 143 has no basis functions!
 Warning:  center 144 has no basis functions!
 Warning:  center 145 has no basis functions!
 Warning:  center 146 has no basis functions!
 Warning:  center 147 has no basis functions!
 Warning:  center 148 has no basis functions!
 Warning:  center 149 has no basis functions!
 Warning:  center 150 has no basis functions!
 Warning:  center 151 has no basis functions!
 Warning:  center 152 has no basis functions!
 Warning:  center 153 has no basis functions!
 Warning:  center 154 has no basis functions!
 Warning:  center 155 has no basis functions!
 Warning:  center 156 has no basis functions!
 Warning:  center 157 has no basis functions!
 Warning:  center 158 has no basis functions!
 Warning:  center 159 has no basis functions!
 Warning:  center 160 has no basis functions!
 Warning:  center 161 has no basis functions!
 Warning:  center 162 has no basis functions!
 Warning:  center 163 has no basis functions!
 Warning:  center 164 has no basis functions!
 Warning:  center 165 has no basis functions!
 Warning:  center 166 has no basis functions!
 Warning:  center 167 has no basis functions!
 Warning:  center 168 has no basis functions!
 Warning:  center 169 has no basis functions!
 Warning:  center 170 has no basis functions!
 Warning:  center 171 has no basis functions!
 Warning:  center 172 has no basis functions!
 Warning:  center 173 has no basis functions!
 Warning:  center 174 has no basis functions!
 Warning:  center 175 has no basis functions!
 Warning:  center 176 has no basis functions!
 Warning:  center 177 has no basis functions!
 Warning:  center 178 has no basis functions!
 Warning:  center 179 has no basis functions!
 Warning:  center 180 has no basis functions!
 Warning:  center 181 has no basis functions!
 Warning:  center 182 has no basis functions!
 Warning:  center 183 has no basis functions!
 Warning:  center 184 has no basis functions!
 Warning:  center 185 has no basis functions!
 Warning:  center 186 has no basis functions!
 Warning:  center 187 has no basis functions!
 Warning:  center 188 has no basis functions!
 Warning:  center 189 has no basis functions!
 Warning:  center 190 has no basis functions!
 Warning:  center 191 has no basis functions!
 Warning:  center 192 has no basis functions!
 Warning:  center 193 has no basis functions!
 Warning:  center 194 has no basis functions!
 Warning:  center 195 has no basis functions!
 Warning:  center 196 has no basis functions!
 Warning:  center 197 has no basis functions!
 Warning:  center 198 has no basis functions!
 Warning:  center 199 has no basis functions!
 Warning:  center 200 has no basis functions!
 Warning:  center 201 has no basis functions!
 Warning:  center 202 has no basis functions!
 Warning:  center 203 has no basis functions!
 Warning:  center 204 has no basis functions!
 Warning:  center 205 has no basis functions!
 Warning:  center 206 has no basis functions!
 Warning:  center 207 has no basis functions!
 Warning:  center 208 has no basis functions!
 Warning:  center 209 has no basis functions!
 Warning:  center 210 has no basis functions!
 Warning:  center 211 has no basis functions!
 Warning:  center 212 has no basis functions!
 Warning:  center 213 has no basis functions!
 Warning:  center 214 has no basis functions!
 Warning:  center 215 has no basis functions!
 Warning:  center 216 has no basis functions!
 Warning:  center 217 has no basis functions!
 Warning:  center 218 has no basis functions!
 Warning:  center 219 has no basis functions!
 Warning:  center 220 has no basis functions!
 Warning:  center 221 has no basis functions!
 Warning:  center 222 has no basis functions!
 Warning:  center 223 has no basis functions!
 Warning:  center 224 has no basis functions!
 Warning:  center 225 has no basis functions!
 Warning:  center 226 has no basis functions!
 Warning:  center 227 has no basis functions!
 Warning:  center 228 has no basis functions!
 Warning:  center 229 has no basis functions!
 Warning:  center 230 has no basis functions!
 Warning:  center 231 has no basis functions!
 Warning:  center 232 has no basis functions!
 Warning:  center 233 has no basis functions!
 Warning:  center 234 has no basis functions!
 Warning:  center 235 has no basis functions!
 Warning:  center 236 has no basis functions!
   568 basis functions,   904 primitive gaussians,   590 cartesian basis functions
    73 alpha electrons       73 beta electrons
       nuclear repulsion energy      1610.9176155625 Hartrees.
 NAtoms=  236 NActive=  236 NUniq=  236 SFac= 1.00D+00 NAtFMM=   60 NAOKFM=T Big=T
 Integral buffers will be    131072 words long.
 Raffenetti 2 integral format.
 Two-electron integral symmetry is turned off.
 One-electron integrals computed using PRISM.
 NBasis=   568 RedAO= T EigKep=  1.78D-06  NBF=   568
 NBsUse=   556 1.00D-06 EigRej=  9.09D-07 NBFU=   556
 ExpMin= 4.38D-02 ExpMax= 4.56D+03 ExpMxC= 6.82D+02 IAcc=2 IRadAn=         4 AccDes= 0.00D+00
 Harris functional with IExCor=  402 and IRadAn=       4 diagonalized for initial guess.
 HarFok:  IExCor=  402 AccDes= 0.00D+00 IRadAn=         4 IDoV= 1 UseB2=F ITyADJ=14
 ICtDFT=  3500011 ScaDFX=  1.000000  1.000000  1.000000  1.000000
 FoFCou: FMM=F IPFlag=           0 FMFlag=      100000 FMFlg1=        2001
         NFxFlg=           0 DoJE=T BraDBF=F KetDBF=T FulRan=T
         wScrn=  0.000000 ICntrl=     500 IOpCl=  0 I1Cent=   200000004 NGrid=           0
         NMat0=    1 NMatS0=      1 NMatT0=    0 NMatD0=    1 NMtDS0=    0 NMtDT0=    0
 Symmetry not used in FoFCou.
 Requested convergence on RMS density matrix=1.00D-08 within 128 cycles.
 Requested convergence on MAX density matrix=1.00D-06.
 Requested convergence on             energy=1.00D-06.
 No special actions if energy rises.
 SCF Done:  E(RB3LYP) =  -847.003289847     A.U. after   15 cycles
            NFock= 15  Conv=0.75D-08     -V/T= 2.0040
 DoSCS=F DFT=T ScalE2(SS,OS)=  1.000000  1.000000
 Range of M.O.s used for correlation:     1   556
 NBasis=   568 NAE=    73 NBE=    73 NFC=     0 NFV=     0
 NROrb=    556 NOA=    73 NOB=    73 NVA=   483 NVB=   483

 **** Warning!!: The largest alpha MO coefficient is  0.10971037D+03

          Differentiating once with respect to magnetic field using GIAOs.
          Electric field/nuclear overlap derivatives assumed to be zero.
 FoFCou: FMM=F IPFlag=           0 FMFlag=      100000 FMFlg1=        2001
         NFxFlg=           0 DoJE=F BraDBF=F KetDBF=T FulRan=T
         wScrn=  0.000000 ICntrl=    6100 IOpCl=  0 I1Cent=           7 NGrid=         236
         NMat0=    1 NMatS0=      1 NMatT0=    0 NMatD0=    1 NMtDS0=    0 NMtDT0=    0
 Symmetry not used in FoFCou.
 FoFJK:  IHMeth= 1 ICntrl=    6127 DoSepK=F KAlg= 0 I1Cent=   0 FoldK=F
 IRaf=         1 NMat=   1 IRICut=       1 DoRegI=T DoRafI=F ISym2E= 0.
          There are     3 degrees of freedom in the 1st order CPHF.  IDoFFX=0 NUNeed=     3.
      3 vectors produced by pass  0 Test12= 1.18D-12 3.33D-08 XBig12= 2.07D+03 9.18D+00.
 AX will form     3 AO Fock derivatives at one time.
      3 vectors produced by pass  1 Test12= 1.18D-12 3.33D-08 XBig12= 3.56D+00 8.03D-01.
      3 vectors produced by pass  2 Test12= 1.18D-12 3.33D-08 XBig12= 2.10D-02 6.92D-02.
      3 vectors produced by pass  3 Test12= 1.18D-12 3.33D-08 XBig12= 5.45D-05 1.89D-03.
      3 vectors produced by pass  4 Test12= 1.18D-12 3.33D-08 XBig12= 1.20D-07 7.79D-05.
      3 vectors produced by pass  5 Test12= 1.18D-12 3.33D-08 XBig12= 4.02D-10 4.73D-06.
      3 vectors produced by pass  6 Test12= 1.18D-12 3.33D-08 XBig12= 1.32D-12 2.61D-07.
 InvSVY:  IOpt=1 It=  1 EMax= 1.42D-14
 Solved reduced A of dimension    21 with     3 vectors.
 Calculating GIAO nuclear magnetic shielding tensors.
 SCF GIAO Magnetic shielding tensor (ppm):
      1  C    Isotropic =    53.8139   Anisotropy =   178.0260
   XX=   -41.4327   YX=   -32.3458   ZX=    10.0287
   XY=   -28.3572   YY=    59.0527   ZY=    55.1899
   XZ=    13.1759   YZ=    58.7550   ZZ=   143.8218
   Eigenvalues:   -53.8775    42.8214   172.4979
      2  H    Isotropic =    24.3095   Anisotropy =     4.8536
   XX=    25.5771   YX=    -1.0289   ZX=     0.5661
   XY=    -0.7431   YY=    26.1829   ZY=    -2.3306
   XZ=    -0.1707   YZ=    -2.4411   ZZ=    21.1687
   Eigenvalues:    20.2108    25.1725    27.5453
      3  C    Isotropic =    51.4055   Anisotropy =   157.8639
   XX=   -31.5399   YX=    38.5015   ZX=   -17.9316
   XY=    34.3519   YY=    49.9437   ZY=    49.6392
   XZ=    -9.8383   YZ=    44.6006   ZZ=   135.8127
   Eigenvalues:   -50.5747    48.1432   156.6481
      4  H    Isotropic =    23.8290   Anisotropy =     7.1838
   XX=    25.3635   YX=     1.8486   ZX=    -0.3559
   XY=     1.9656   YY=    26.4581   ZY=    -2.4103
   XZ=    -1.2941   YZ=    -2.6614   ZZ=    19.6654
   Eigenvalues:    18.8176    24.0511    28.6182
      5  C    Isotropic =    46.0697   Anisotropy =   207.6751
   XX=   -19.2123   YX=    -4.8852   ZX=    -1.6475
   XY=     2.8938   YY=    -2.9860   ZY=    66.5656
   XZ=     2.5356   YZ=    67.9144   ZZ=   160.4073
   Eigenvalues:   -27.2455   -19.0652   184.5197
      6  C    Isotropic =    47.5218   Anisotropy =   196.9389
   XX=   -28.1552   YX=    -2.7889   ZX=    12.0660
   XY=   -14.3886   YY=    21.2063   ZY=    74.2521
   XZ=   -18.6356   YZ=    61.1113   ZZ=   149.5144
   Eigenvalues:   -30.2925    -5.9564   178.8144
      7  C    Isotropic =    49.3915   Anisotropy =   179.8333
   XX=   -12.5211   YX=    28.7048   ZX=   -24.6745
   XY=    31.5123   YY=    29.7000   ZY=    77.7459
   XZ=   -40.0095   YZ=    65.3072   ZZ=   130.9956
   Eigenvalues:   -52.1299    31.0240   169.2804
      8  H    Isotropic =    23.1586   Anisotropy =    13.5525
   XX=    28.5711   YX=     1.5482   ZX=    -3.6986
   XY=     3.2466   YY=    22.7592   ZY=    -2.1157
   XZ=    -8.3753   YZ=    -1.0821   ZZ=    18.1456
   Eigenvalues:    15.3521    21.9301    32.1936
      9  C    Isotropic =    55.1460   Anisotropy =   174.7426
   XX=    46.7071   YX=    -2.6162   ZX=    -2.8420
   XY=     0.6223   YY=    -1.6258   ZY=    92.8272
   XZ=     0.5159   YZ=    95.6598   ZZ=   120.3568
   Eigenvalues:   -52.8932    46.6901   171.6411
     10  H    Isotropic =    24.6278   Anisotropy =     7.1815
   XX=    29.1040   YX=     0.1399   ZX=    -0.3694
   XY=     0.3642   YY=    23.4778   ZY=    -1.0805
   XZ=    -2.4493   YZ=    -2.9465   ZZ=    21.3016
   Eigenvalues:    19.9703    24.4977    29.4155
     11  C    Isotropic =    51.5607   Anisotropy =   151.2142
   XX=     2.1639   YX=    40.9287   ZX=   -26.0048
   XY=    49.9131   YY=    12.2331   ZY=    42.1342
   XZ=   -15.6145   YZ=    38.6614   ZZ=   140.2851
   Eigenvalues:   -48.1951    50.5071   152.3701
     12  H    Isotropic =    23.8537   Anisotropy =     7.3815
   XX=    25.9672   YX=     2.3738   ZX=    -0.2390
   XY=     2.4320   YY=    26.3975   ZY=    -1.8291
   XZ=     0.3529   YZ=    -1.7731   ZZ=    19.1964
   Eigenvalues:    18.7149    24.0714    28.7747
     13  C    Isotropic =    52.8653   Anisotropy =   147.4265
   XX=    51.2944   YX=    19.9221   ZX=   -13.4678
   XY=    11.5478   YY=   -34.0176   ZY=    42.5079
   XZ=    -9.2241   YZ=    40.0716   ZZ=   141.3192
   Eigenvalues:   -46.5152    53.9616   151.1497
     14  H    Isotropic =    24.0156   Anisotropy =     7.3485
   XX=    28.6644   YX=     0.6281   ZX=     1.0808
   XY=     0.5926   YY=    24.4325   ZY=    -1.0823
   XZ=     1.6846   YZ=    -0.3842   ZZ=    18.9500
   Eigenvalues:    18.6430    24.4892    28.9146
     15  C    Isotropic =    46.2221   Anisotropy =   203.9048
   XX=   -27.2215   YX=    -0.0442   ZX=   -28.9124
   XY=     4.6427   YY=   -10.5571   ZY=    28.3830
   XZ=   -10.2704   YZ=    26.7376   ZZ=   176.4448
   Eigenvalues:   -30.5512   -12.9411   182.1586
     16  C    Isotropic =    51.9375   Anisotropy =   188.2004
   XX=   -19.4441   YX=     5.5046   ZX=    15.7858
   XY=    -8.3874   YY=     2.4863   ZY=    22.9264
   XZ=   -50.6243   YZ=    23.3340   ZZ=   172.7704
   Eigenvalues:   -21.0294    -0.5625   177.4045
     17  C    Isotropic =    51.9482   Anisotropy =   149.1264
   XX=    50.7296   YX=   -23.9353   ZX=   -18.4207
   XY=   -16.7271   YY=   -41.8764   ZY=    17.8662
   XZ=   -14.3278   YZ=    11.4871   ZZ=   146.9915
   Eigenvalues:   -46.7796    51.2584   151.3658
     18  H    Isotropic =    24.0122   Anisotropy =     7.5163
   XX=    28.5811   YX=    -0.0866   ZX=     1.5071
   XY=    -0.2466   YY=    24.3342   ZY=    -0.7657
   XZ=     2.5088   YZ=    -1.5208   ZZ=    19.1214
   Eigenvalues:    18.5094    24.5041    29.0231
     19  C    Isotropic =    51.7356   Anisotropy =   148.5924
   XX=     2.4559   YX=   -45.6913   ZX=   -31.2531
   XY=   -53.4448   YY=     7.4698   ZY=    -1.8888
   XZ=   -23.5601   YZ=    -1.2765   ZZ=   145.2810
   Eigenvalues:   -46.9894    51.3989   150.7972
     20  H    Isotropic =    23.9071   Anisotropy =     7.6651
   XX=    25.5796   YX=    -2.0226   ZX=     1.4905
   XY=    -1.9998   YY=    27.3706   ZY=    -0.5164
   XZ=     2.7276   YZ=    -1.1179   ZZ=    18.7711
   Eigenvalues:    18.1643    24.5398    29.0172
     21  C    Isotropic =    45.9767   Anisotropy =   203.9316
   XX=   -16.2108   YX=    13.1802   ZX=   -44.5913
   XY=     6.5714   YY=   -20.6329   ZY=     0.0949
   XZ=   -28.8984   YZ=   -13.0883   ZZ=   174.7736
   Eigenvalues:   -30.5796   -13.4215   181.9311
     22  C    Isotropic =    52.0450   Anisotropy =   188.1157
   XX=    -0.0787   YX=     2.5023   ZX=   -16.3451
   XY=    18.9327   YY=   -14.4798   ZY=   -34.4335
   XZ=   -50.6032   YZ=    19.9104   ZZ=   170.6934
   Eigenvalues:   -20.7705    -0.5500   177.4554
     23  C    Isotropic =    53.2392   Anisotropy =   146.7412
   XX=   -22.0674   YX=   -32.0012   ZX=   -49.4857
   XY=   -23.2043   YY=    44.3661   ZY=   -15.6400
   XZ=   -43.8090   YZ=   -20.2525   ZZ=   137.4189
   Eigenvalues:   -45.6776    54.3286   151.0667
     24  H    Isotropic =    23.8249   Anisotropy =     7.5289
   XX=    25.1073   YX=    -1.7330   ZX=     1.5380
   XY=    -1.5944   YY=    28.0047   ZY=     0.0879
   XZ=     1.2557   YZ=    -0.8283   ZZ=    18.3628
   Eigenvalues:    18.0848    24.5458    28.8442
     25  C    Isotropic =    51.4969   Anisotropy =   150.1066
   XX=   -28.4915   YX=    33.9684   ZX=   -52.3137
   XY=    22.0311   YY=    46.6072   ZY=    -3.8075
   XZ=   -44.5594   YZ=   -10.6355   ZZ=   136.3748
   Eigenvalues:   -48.3857    51.3083   151.5679
     26  H    Isotropic =    23.7431   Anisotropy =     7.4052
   XX=    24.0663   YX=     1.1141   ZX=     1.9989
   XY=     0.9693   YY=    28.1000   ZY=     1.6568
   XZ=     2.0795   YZ=     0.8886   ZZ=    19.0630
   Eigenvalues:    18.2615    24.2880    28.6799
     27  C    Isotropic =    45.8108   Anisotropy =   207.2710
   XX=    -2.7702   YX=    13.7697   ZX=   -61.4651
   XY=     6.5593   YY=   -12.0335   ZY=   -41.6456
   XZ=   -62.6381   YZ=   -44.9232   ZZ=   152.2361
   Eigenvalues:   -28.0803   -18.4787   183.9915
     28  C    Isotropic =    47.8398   Anisotropy =   197.2870
   XX=    19.6900   YX=    14.4398   ZX=   -60.5682
   XY=    28.5650   YY=   -19.3566   ZY=   -56.7015
   XZ=   -63.1331   YZ=   -24.4782   ZZ=   143.1859
   Eigenvalues:   -30.5979    -5.2472   179.3644
     29  C    Isotropic =    49.3441   Anisotropy =   179.7793
   XX=    -3.4110   YX=    38.3775   ZX=   -80.8875
   XY=    36.1252   YY=    25.9805   ZY=   -23.7573
   XZ=   -78.1065   YZ=    -3.9802   ZZ=   125.4627
   Eigenvalues:   -51.6645    30.4997   169.1970
     30  H    Isotropic =    23.1387   Anisotropy =    13.3222
   XX=    22.4354   YX=    -0.7013   ZX=    -0.2375
   XY=    -2.1539   YY=    28.3546   ZY=     4.5555
   XZ=    -3.4181   YZ=     8.3231   ZZ=    18.6259
   Eigenvalues:    15.2751    22.1208    32.0201
     31  C    Isotropic =    55.4410   Anisotropy =   174.9390
   XX=    17.1871   YX=   -14.0890   ZX=   -84.0024
   XY=   -17.9030   YY=    37.4745   ZY=   -50.3662
   XZ=   -84.6557   YZ=   -54.8325   ZZ=   111.6615
   Eigenvalues:   -51.9248    46.1808   172.0670
     32  H    Isotropic =    24.5337   Anisotropy =     7.2554
   XX=    24.6185   YX=    -2.5264   ZX=     0.7632
   XY=    -2.7385   YY=    27.4630   ZY=     1.0335
   XZ=     1.1913   YZ=     3.7573   ZZ=    21.5194
   Eigenvalues:    19.8987    24.3316    29.3706
     33  C    Isotropic =    53.1814   Anisotropy =   179.0596
   XX=    60.9231   YX=    35.2256   ZX=   -42.9515
   XY=    32.0226   YY=   -38.1801   ZY=   -45.5652
   XZ=   -44.2248   YZ=   -50.7831   ZZ=   136.8014
   Eigenvalues:   -55.1197    42.1095   172.5545
     34  H    Isotropic =    24.2825   Anisotropy =     5.1861
   XX=    26.7643   YX=    -0.0934   ZX=     2.5955
   XY=    -0.2993   YY=    24.8157   ZY=     0.8589
   XZ=     2.3715   YZ=     1.4580   ZZ=    21.2676
   Eigenvalues:    20.0339    25.0737    27.7399
     35  C    Isotropic =    51.5295   Anisotropy =   155.1748
   XX=    -0.5131   YX=    52.5760   ZX=   -52.1551
   XY=    55.6135   YY=    25.1843   ZY=   -14.2643
   XZ=   -45.7255   YZ=   -17.1625   ZZ=   129.9171
   Eigenvalues:   -48.3147    47.9237   154.9793
     36  H    Isotropic =    23.8384   Anisotropy =     7.3073
   XX=    24.2302   YX=     1.4459   ZX=     2.1759
   XY=     1.2147   YY=    27.1572   ZY=     2.0665
   XZ=     1.6853   YZ=     2.7775   ZZ=    20.1277
   Eigenvalues:    18.9464    23.8588    28.7099
     37  Bq   Isotropic =    32.0509   Anisotropy =    38.6972
   XX=    37.4901   YX=     7.3432   ZX=    -4.9556
   XY=    -1.0722   YY=     6.2044   ZY=    15.7280
   XZ=     1.4951   YZ=    17.5631   ZZ=    52.4584
   Eigenvalues:     0.5028    37.8010    57.8491
     38  Bq   Isotropic =    26.7038   Anisotropy =    22.0341
   XX=    25.0497   YX=     3.3673   ZX=    -6.5290
   XY=     1.1439   YY=    20.9208   ZY=     7.2143
   XZ=    -5.7448   YZ=    14.4551   ZZ=    34.1409
   Eigenvalues:    12.7220    25.9962    41.3932
     39  Bq   Isotropic =    23.3490   Anisotropy =    22.2895
   XX=    20.0263   YX=     2.6373   ZX=    -6.5761
   XY=     0.3179   YY=    21.3858   ZY=     6.7505
   XZ=   -10.3549   YZ=    14.0240   ZZ=    28.6349
   Eigenvalues:     9.7911    22.0472    38.2087
     40  Bq   Isotropic =    28.3363   Anisotropy =    24.8967
   XX=    28.1107   YX=     4.4925   ZX=    -8.0131
   XY=     1.2108   YY=    21.9397   ZY=    13.5817
   XZ=    -2.5744   YZ=    15.5671   ZZ=    34.9586
   Eigenvalues:    10.8524    29.2224    44.9341
     41  Bq   Isotropic =    20.2302   Anisotropy =    22.5771
   XX=    15.6720   YX=     2.0310   ZX=    -5.8453
   XY=    -0.2611   YY=    19.2820   ZY=     4.7504
   XZ=   -13.1352   YZ=    13.8864   ZZ=    25.7366
   Eigenvalues:     6.8933    18.5157    35.2816
     42  Bq   Isotropic =    29.0943   Anisotropy =    29.1862
   XX=    30.3746   YX=     5.8609   ZX=    -8.5220
   XY=     1.0967   YY=    18.6556   ZY=    17.7544
   XZ=     1.2284   YZ=    17.0875   ZZ=    38.2527
   Eigenvalues:     7.4413    31.2898    48.5518
     43  Bq   Isotropic =    17.2460   Anisotropy =    23.0522
   XX=    11.7771   YX=     1.5532   ZX=    -5.1671
   XY=    -0.7689   YY=    16.8590   ZY=     3.5546
   XZ=   -14.9604   YZ=    13.9420   ZZ=    23.1019
   Eigenvalues:     3.8169    15.3070    32.6142
     44  Bq   Isotropic =    28.2416   Anisotropy =    35.0783
   XX=    30.7499   YX=     7.4725   ZX=    -8.6428
   XY=     0.3233   YY=    12.4046   ZY=    20.9774
   XZ=     3.6567   YZ=    18.7183   ZZ=    41.5702
   Eigenvalues:     1.6303    31.4673    51.6271
     45  Bq   Isotropic =    14.5934   Anisotropy =    23.4047
   XX=     8.5360   YX=     1.1635   ZX=    -4.5600
   XY=    -1.1645   YY=    14.4779   ZY=     2.9352
   XZ=   -15.9266   YZ=    14.0454   ZZ=    20.7663
   Eigenvalues:     1.1508    12.4329    30.1965
     46  Bq   Isotropic =    26.2247   Anisotropy =    40.8541
   XX=    29.6099   YX=     9.0425   ZX=    -8.1142
   XY=    -1.0315   YY=     4.2678   ZY=    21.5706
   XZ=     3.8681   YZ=    19.7003   ZZ=    44.7962
   Eigenvalues:    -4.9790    30.1922    53.4607
     47  Bq   Isotropic =    12.3443   Anisotropy =    23.5138
   XX=     5.9775   YX=     0.8371   ZX=    -4.0303
   XY=    -1.4417   YY=    12.3193   ZY=     2.6887
   XZ=   -16.2028   YZ=    14.1042   ZZ=    18.7361
   Eigenvalues:    -0.9095     9.9223    28.0202
     48  Bq   Isotropic =    24.2668   Anisotropy =    44.4571
   XX=    28.2125   YX=    10.0563   ZX=    -6.7665
   XY=    -2.4365   YY=    -3.0464   ZY=    18.4390
   XZ=     1.8610   YZ=    19.1868   ZZ=    47.6343
   Eigenvalues:    -9.7734    28.6690    53.9049
     49  Bq   Isotropic =    26.2315   Anisotropy =    22.7833
   XX=    24.4031   YX=     3.4333   ZX=    -7.3222
   XY=     0.8685   YY=    22.5580   ZY=     9.7203
   XZ=    -6.7013   YZ=    14.5356   ZZ=    31.7334
   Eigenvalues:    11.4672    25.8069    41.4204
     50  Bq   Isotropic =    23.1852   Anisotropy =    22.4720
   XX=    19.8173   YX=     2.3108   ZX=    -7.0347
   XY=    -0.0286   YY=    22.8391   ZY=     7.5588
   XZ=   -11.3692   YZ=    13.7349   ZZ=    26.8991
   Eigenvalues:     9.0892    22.2999    38.1666
     51  Bq   Isotropic =    26.4857   Anisotropy =    25.9746
   XX=    25.5308   YX=     4.5482   ZX=    -8.9003
   XY=     0.8141   YY=    23.0161   ZY=    15.9423
   XZ=    -4.0105   YZ=    15.3726   ZZ=    30.9101
   Eigenvalues:     8.5870    27.0679    43.8021
     52  Bq   Isotropic =    20.2458   Anisotropy =    22.6686
   XX=    15.8168   YX=     1.6765   ZX=    -6.2061
   XY=    -0.5850   YY=    20.3071   ZY=     5.2110
   XZ=   -13.8633   YZ=    13.6882   ZZ=    24.6135
   Eigenvalues:     6.4970    18.8822    35.3582
     53  Bq   Isotropic =    25.0646   Anisotropy =    31.4654
   XX=    24.9975   YX=     6.4283   ZX=    -9.8295
   XY=     0.5096   YY=    17.7031   ZY=    21.4267
   XZ=    -0.1598   YZ=    17.2754   ZZ=    32.4932
   Eigenvalues:     2.9095    26.2427    46.0416
     54  Bq   Isotropic =    17.2868   Anisotropy =    23.1132
   XX=    12.0581   YX=     1.2140   ZX=    -5.4639
   XY=    -1.0554   YY=    17.4604   ZY=     3.8098
   XZ=   -15.4352   YZ=    13.8354   ZZ=    22.3417
   Eigenvalues:     3.6305    15.5342    32.6955
     55  Bq   Isotropic =    20.8075   Anisotropy =    39.3727
   XX=    21.1089   YX=     8.8776   ZX=   -10.5095
   XY=    -0.7640   YY=     7.3360   ZY=    25.8962
   XZ=     2.6259   YZ=    19.5074   ZZ=    33.9777
   Eigenvalues:    -6.7439    22.1104    47.0560
     56  Bq   Isotropic =    14.5999   Anisotropy =    23.4404
   XX=     8.8481   YX=     0.8586   ZX=    -4.8099
   XY=    -1.4074   YY=    14.7487   ZY=     3.0610
   XZ=   -16.2087   YZ=    14.0097   ZZ=    20.2029
   Eigenvalues:     1.0881    12.4848    30.2269
     57  Bq   Isotropic =    14.6285   Anisotropy =    47.7720
   XX=    14.7820   YX=    11.5486   ZX=   -10.4954
   XY=    -2.9185   YY=    -6.5362   ZY=    26.6836
   XZ=     3.5246   YZ=    21.0853   ZZ=    35.6398
   Eigenvalues:   -18.1844    15.5934    46.4765
     58  Bq   Isotropic =    12.2993   Anisotropy =    23.5153
   XX=     6.2693   YX=     0.5727   ZX=    -4.2428
   XY=    -1.6425   YY=    12.3627   ZY=     2.7267
   XZ=   -16.3548   YZ=    14.1159   ZZ=    18.2658
   Eigenvalues:    -0.9177     9.8393    27.9762
     59  Bq   Isotropic =     9.3845   Anisotropy =    53.4997
   XX=     9.2389   YX=    13.4901   ZX=    -9.2643
   XY=    -4.9589   YY=   -18.8302   ZY=    21.8924
   XZ=     2.3886   YZ=    20.9791   ZZ=    37.7447
   Eigenvalues:   -26.7690     9.8714    45.0509
     60  Bq   Isotropic =    25.5467   Anisotropy =    23.2366
   XX=    23.4035   YX=     3.2211   ZX=    -7.9414
   XY=     0.5123   YY=    24.1937   ZY=    11.1238
   XZ=    -7.9784   YZ=    14.2141   ZZ=    29.0428
   Eigenvalues:    10.2718    25.3304    41.0378
     61  Bq   Isotropic =    23.0282   Anisotropy =    22.0020
   XX=    19.6893   YX=     1.7753   ZX=    -7.1847
   XY=    -0.4215   YY=    24.1645   ZY=     7.1512
   XZ=   -12.4336   YZ=    13.2015   ZZ=    25.2308
   Eigenvalues:     8.8007    22.5877    37.6962
     62  Bq   Isotropic =    24.1335   Anisotropy =    25.7163
   XX=    22.1559   YX=     4.3033   ZX=    -9.3331
   XY=     0.5733   YY=    23.6579   ZY=    16.0855
   XZ=    -5.8839   YZ=    14.2721   ZZ=    26.5866
   Eigenvalues:     6.6807    24.4420    41.2777
     63  Bq   Isotropic =    20.3045   Anisotropy =    22.3593
   XX=    16.1074   YX=     1.1564   ZX=    -6.3358
   XY=    -0.9766   YY=    21.2690   ZY=     4.8833
   XZ=   -14.5635   YZ=    13.4421   ZZ=    23.5370
   Eigenvalues:     6.4475    19.2553    35.2106
     64  Bq   Isotropic =    19.6121   Anisotropy =    32.4208
   XX=    17.3151   YX=     6.7157   ZX=   -10.7394
   XY=     0.2476   YY=    15.7084   ZY=    22.6699
   XZ=    -2.3468   YZ=    16.1524   ZZ=    25.8128
   Eigenvalues:    -1.7228    19.3331    41.2259
     65  Bq   Isotropic =    17.3725   Anisotropy =    22.9340
   XX=    12.4841   YX=     0.7443   ZX=    -5.5906
   XY=    -1.4062   YY=    18.0455   ZY=     3.5901
   XZ=   -15.8413   YZ=    13.7953   ZZ=    21.5878
   Eigenvalues:     3.7078    15.7479    32.6618
     66  Bq   Isotropic =    10.0006   Anisotropy =    43.2296
   XX=     6.0375   YX=    10.2525   ZX=   -12.3228
   XY=    -1.4615   YY=    -0.3532   ZY=    28.5917
   XZ=     0.3841   YZ=    18.5125   ZZ=    24.3175
   Eigenvalues:   -16.6837     7.8652    38.8204
     67  Bq   Isotropic =    14.6441   Anisotropy =    23.3372
   XX=     9.2849   YX=     0.4505   ZX=    -4.9360
   XY=    -1.7026   YY=    15.0349   ZY=     2.9260
   XZ=   -16.4023   YZ=    14.0967   ZZ=    19.6126
   Eigenvalues:     1.2166    12.5135    30.2022
     68  Bq   Isotropic =    -3.3655   Anisotropy =    55.9196
   XX=   -10.3374   YX=    14.7459   ZX=   -13.5214
   XY=    -4.6960   YY=   -22.3093   ZY=    29.8368
   XZ=     1.8270   YZ=    20.0482   ZZ=    22.5501
   Eigenvalues:   -35.3763    -8.6345    33.9142
     69  Bq   Isotropic =    12.2837   Anisotropy =    23.4434
   XX=     6.6626   YX=     0.2260   ZX=    -4.3655
   XY=    -1.8823   YY=    12.4395   ZY=     2.6426
   XZ=   -16.4110   YZ=    14.2701   ZZ=    17.7491
   Eigenvalues:    -0.7899     9.7284    27.9127
     70  Bq   Isotropic =   -14.5604   Anisotropy =    64.6168
   XX=   -24.4415   YX=    18.5916   ZX=   -12.9651
   XY=    -7.8476   YY=   -40.3586   ZY=    23.8163
   XZ=     2.3298   YZ=    20.5785   ZZ=    21.1188
   Eigenvalues:   -49.3726   -22.8261    28.5174
     71  Bq   Isotropic =    24.7346   Anisotropy =    22.6889
   XX=    22.2472   YX=     2.7506   ZX=    -8.1667
   XY=     0.1785   YY=    25.6032   ZY=    10.7947
   XZ=    -9.4489   YZ=    13.3567   ZZ=    26.3535
   Eigenvalues:     9.5081    24.8352    39.8605
     72  Bq   Isotropic =    22.8610   Anisotropy =    20.6700
   XX=    19.7802   YX=     1.0982   ZX=    -6.9077
   XY=    -0.8229   YY=    24.9890   ZY=     5.3899
   XZ=   -13.3095   YZ=    12.5334   ZZ=    23.8138
   Eigenvalues:     9.0745    22.8675    36.6410
     73  Bq   Isotropic =    21.7407   Anisotropy =    22.9057
   XX=    18.7840   YX=     3.8414   ZX=    -8.9679
   XY=     0.7972   YY=    23.4744   ZY=    13.0255
   XZ=    -7.9652   YZ=    12.2753   ZZ=    22.9636
   Eigenvalues:     5.8093    22.4016    37.0112
     74  Bq   Isotropic =    20.3337   Anisotropy =    21.5762
   XX=    16.5686   YX=     0.5209   ZX=    -6.1613
   XY=    -1.4209   YY=    21.8976   ZY=     3.7494
   XZ=   -15.0548   YZ=    13.2326   ZZ=    22.5349
   Eigenvalues:     6.7867    19.4966    34.7179
     75  Bq   Isotropic =    13.7246   Anisotropy =    30.2985
   XX=     8.6384   YX=     6.7636   ZX=   -10.7105
   XY=     1.1447   YY=    12.5372   ZY=    19.6665
   XZ=    -5.3914   YZ=    13.5738   ZZ=    19.9982
   Eigenvalues:    -5.5402    12.7904    33.9236
     76  Bq   Isotropic =    17.4199   Anisotropy =    22.4793
   XX=    13.0323   YX=     0.1805   ZX=    -5.5005
   XY=    -1.8148   YY=    18.4326   ZY=     2.9146
   XZ=   -16.0527   YZ=    13.8732   ZZ=    20.7947
   Eigenvalues:     4.0401    15.8134    32.4061
     77  Bq   Isotropic =    -2.4869   Anisotropy =    45.8567
   XX=   -12.9200   YX=    11.5573   ZX=   -13.4910
   XY=     0.1192   YY=   -10.5109   ZY=    26.4593
   XZ=    -4.0096   YZ=    15.3749   ZZ=    15.9703
   Eigenvalues:   -27.9793    -7.5656    28.0843
     78  Bq   Isotropic =    14.6496   Anisotropy =    23.0654
   XX=     9.8071   YX=    -0.0346   ZX=    -4.9066
   XY=    -2.0467   YY=    15.2197   ZY=     2.5521
   XZ=   -16.4249   YZ=    14.3303   ZZ=    18.9221
   Eigenvalues:     1.5048    12.4176    30.0265
     79  Bq   Isotropic =   -24.5374   Anisotropy =    67.6704
   XX=   -43.9021   YX=    18.8144   ZX=   -17.2719
   XY=    -3.2712   YY=   -42.0131   ZY=    27.6796
   XZ=    -3.8251   YZ=    15.0463   ZZ=    12.3030
   Eigenvalues:   -58.0677   -36.1206    20.5762
     80  Bq   Isotropic =    12.2340   Anisotropy =    23.2659
   XX=     7.1165   YX=    -0.1836   ZX=    -4.3760
   XY=    -2.1593   YY=    12.4778   ZY=     2.4508
   XZ=   -16.3189   YZ=    14.5714   ZZ=    17.1076
   Eigenvalues:    -0.5659     9.5233    27.7445
     81  Bq   Isotropic =   -40.6628   Anisotropy =    78.9131
   XX=   -68.5442   YX=    26.9426   ZX=   -18.9742
   XY=    -7.5420   YY=   -60.4697   ZY=    20.3030
   XZ=    -1.2536   YZ=    14.3850   ZZ=     7.0254
   Eigenvalues:   -78.9410   -54.9933    11.9459
     82  Bq   Isotropic =    23.9318   Anisotropy =    20.5691
   XX=    21.3109   YX=     2.1051   ZX=    -7.7972
   XY=    -0.0257   YY=    26.3408   ZY=     8.3078
   XZ=   -10.8373   YZ=    12.0606   ZZ=    24.1436
   Eigenvalues:     9.5295    24.6213    37.6445
     83  Bq   Isotropic =    22.6203   Anisotropy =    18.6196
   XX=    20.1995   YX=     0.3811   ZX=    -6.1704
   XY=    -1.2235   YY=    24.9405   ZY=     2.5421
   XZ=   -13.7135   YZ=    11.9862   ZZ=    22.7210
   Eigenvalues:     9.9446    22.8831    35.0334
     84  Bq   Isotropic =    19.9192   Anisotropy =    17.3202
   XX=    16.7395   YX=     3.3362   ZX=    -7.6155
   XY=     1.6136   YY=    21.9462   ZY=     6.8080
   XZ=    -9.6484   YZ=    10.0310   ZZ=    21.0719
   Eigenvalues:     6.4451    21.8465    31.4660
     85  Bq   Isotropic =    20.2249   Anisotropy =    20.3936
   XX=    17.1785   YX=    -0.1571   ZX=    -5.6631
   XY=    -1.9064   YY=    21.9480   ZY=     2.0162
   XZ=   -15.1495   YZ=    13.1959   ZZ=    21.5481
   Eigenvalues:     7.4625    19.3914    33.8206
     86  Bq   Isotropic =     9.2070   Anisotropy =    25.0169
   XX=     2.1898   YX=     6.7084   ZX=    -9.2411
   XY=     3.8110   YY=     8.2174   ZY=    12.0109
   XZ=    -8.5337   YZ=    10.7040   ZZ=    17.2137
   Eigenvalues:    -8.3076    10.0436    25.8849
     87  Bq   Isotropic =    17.3247   Anisotropy =    21.7722
   XX=    13.6432   YX=    -0.4255   ZX=    -5.1791
   XY=    -2.2690   YY=    18.4688   ZY=     1.9228
   XZ=   -15.9477   YZ=    14.1277   ZZ=    19.8620
   Eigenvalues:     4.5495    15.5851    31.8395
     88  Bq   Isotropic =   -12.1608   Anisotropy =    49.7197
   XX=   -28.6221   YX=    12.4741   ZX=   -12.8841
   XY=     6.1419   YY=   -21.1764   ZY=    19.4749
   XZ=   -10.1649   YZ=    13.2586   ZZ=    13.3162
   Eigenvalues:   -41.5392   -15.9288    20.9857
     89  Bq   Isotropic =    14.5303   Anisotropy =    22.6198
   XX=    10.3525   YX=    -0.5591   ZX=    -4.7102
   XY=    -2.4295   YY=    15.2100   ZY=     2.0243
   XZ=   -16.1992   YZ=    14.7232   ZZ=    18.0284
   Eigenvalues:     1.8740    12.1068    29.6101
     90  Bq   Isotropic =   -37.6051   Anisotropy =    93.5588
   XX=   -70.4249   YX=    21.8422   ZX=   -20.4753
   XY=     7.2016   YY=   -60.3055   ZY=    24.3397
   XZ=   -16.0274   YZ=    14.5641   ZZ=    17.9153
   Eigenvalues:   -87.2874   -50.2952    24.7675
     91  Bq   Isotropic =    12.0832   Anisotropy =    22.9628
   XX=     7.5773   YX=    -0.6290   ZX=    -4.2647
   XY=    -2.4656   YY=    12.4221   ZY=     2.1981
   XZ=   -16.0308   YZ=    15.0075   ZZ=    16.2500
   Eigenvalues:    -0.3151     9.1728    27.3917
     92  Bq   Isotropic =   -36.3577   Anisotropy =   117.2230
   XX=   -84.2476   YX=    36.9581   ZX=   -29.3892
   XY=     7.4763   YY=   -61.4757   ZY=    16.1084
   XZ=   -17.8099   YZ=     9.1510   ZZ=    36.6501
   Eigenvalues:  -102.9437   -47.9204    41.7909
     93  Bq   Isotropic =    23.2548   Anisotropy =    16.9920
   XX=    21.0625   YX=     1.4230   ZX=    -6.7603
   XY=    -0.0799   YY=    25.8999   ZY=     3.9208
   XZ=   -11.7228   YZ=    10.7465   ZZ=    22.8021
   Eigenvalues:    10.5623    24.6194    34.5829
     94  Bq   Isotropic =    22.1841   Anisotropy =    16.3940
   XX=    20.9271   YX=    -0.2768   ZX=    -5.0602
   XY=    -1.6561   YY=    23.8678   ZY=    -0.6852
   XZ=   -13.4206   YZ=    11.8497   ZZ=    21.7574
   Eigenvalues:    11.2248    22.2140    33.1134
     95  Bq   Isotropic =    19.0728   Anisotropy =    12.4724
   XX=    17.1808   YX=     2.9492   ZX=    -5.4741
   XY=     2.6176   YY=    18.9917   ZY=    -0.8675
   XZ=   -10.1322   YZ=     8.5142   ZZ=    21.0459
   Eigenvalues:     8.9874    20.8433    27.3878
     96  Bq   Isotropic =    19.8476   Anisotropy =    19.0120
   XX=    17.8402   YX=    -0.8022   ZX=    -4.8904
   XY=    -2.4236   YY=    21.3170   ZY=     0.0996
   XZ=   -14.7156   YZ=    13.4517   ZZ=    20.3857
   Eigenvalues:     8.2793    18.7412    32.5223
     97  Bq   Isotropic =     7.7009   Anisotropy =    20.8154
   XX=     1.6767   YX=     6.7094   ZX=    -6.4177
   XY=     7.3196   YY=     3.6617   ZY=     1.8281
   XZ=   -10.0601   YZ=     8.9673   ZZ=    17.7643
   Eigenvalues:    -8.1106     9.6354    21.5779
     98  Bq   Isotropic =    16.9790   Anisotropy =    20.8847
   XX=    14.2175   YX=    -1.0172   ZX=    -4.6526
   XY=    -2.7485   YY=    18.0879   ZY=     0.8499
   XZ=   -15.4462   YZ=    14.5854   ZZ=    18.6314
   Eigenvalues:     5.0675    14.9673    30.9021
     99  Bq   Isotropic =   -14.8812   Anisotropy =    50.3532
   XX=   -31.4761   YX=    12.8640   ZX=    -9.5105
   XY=    15.1128   YY=   -27.2503   ZY=     9.7759
   XZ=   -14.0468   YZ=    14.3789   ZZ=    14.0827
   Eigenvalues:   -48.0600   -15.2713    18.6875
    100  Bq   Isotropic =    14.2043   Anisotropy =    22.0197
   XX=    10.8394   YX=    -1.0814   ZX=    -4.3592
   XY=    -2.8310   YY=    14.9643   ZY=     1.4701
   XZ=   -15.6763   YZ=    15.2558   ZZ=    16.8093
   Eigenvalues:     2.1908    11.5380    28.8841
    101  Bq   Isotropic =   -39.9166   Anisotropy =   104.7546
   XX=   -75.5034   YX=    21.1928   ZX=   -17.4823
   XY=    27.1301   YY=   -64.3810   ZY=    25.7843
   XZ=   -25.6842   YZ=    27.7595   ZZ=    20.1346
   Eigenvalues:  -103.8872   -45.7824    29.9198
    102  Bq   Isotropic =    11.7714   Anisotropy =    22.5293
   XX=     7.9827   YX=    -1.0792   ZX=    -4.0365
   XY=    -2.7851   YY=    12.2467   ZY=     1.9489
   XZ=   -15.5165   YZ=    15.5391   ZZ=    15.0848
   Eigenvalues:    -0.1385     8.6617    26.7910
    103  Bq   Isotropic =   -18.6412   Anisotropy =   144.1040
   XX=   -70.3177   YX=    28.0217   ZX=   -30.4600
   XY=    45.1751   YY=   -45.5066   ZY=    42.0382
   XZ=   -39.6441   YZ=    40.1007   ZZ=    59.9008
   Eigenvalues:  -112.6468   -20.7048    77.4281
    104  Bq   Isotropic =    22.6935   Anisotropy =    13.4346
   XX=    21.7726   YX=     0.8324   ZX=    -5.1995
   XY=    -0.1295   YY=    24.0905   ZY=    -1.2231
   XZ=   -11.6971   YZ=     9.9858   ZZ=    22.2173
   Eigenvalues:    12.5546    23.8759    31.6499
    105  Bq   Isotropic =    21.3979   Anisotropy =    14.5494
   XX=    21.7445   YX=    -0.8181   ZX=    -3.7595
   XY=    -2.1636   YY=    21.9874   ZY=    -3.4215
   XZ=   -12.3877   YZ=    12.2548   ZZ=    20.4617
   Eigenvalues:    12.4222    20.6740    31.0975
    106  Bq   Isotropic =    19.0511   Anisotropy =    12.2775
   XX=    20.0332   YX=     2.6679   ZX=    -3.1077
   XY=     3.0122   YY=    15.3655   ZY=    -7.3763
   XZ=    -9.0489   YZ=     8.2780   ZZ=    21.7546
   Eigenvalues:    12.5301    17.3872    27.2361
    107  Bq   Isotropic =    19.0853   Anisotropy =    17.6547
   XX=    18.3810   YX=    -1.3580   ZX=    -3.9481
   XY=    -2.9544   YY=    20.1130   ZY=    -1.5260
   XZ=   -13.7382   YZ=    14.0114   ZZ=    18.7619
   Eigenvalues:     8.8698    17.5309    30.8550
    108  Bq   Isotropic =     9.2957   Anisotropy =    20.2424
   XX=     7.7255   YX=     6.6719   ZX=    -3.2181
   XY=     9.2911   YY=     0.1562   ZY=    -7.1873
   XZ=    -8.8773   YZ=     8.4655   ZZ=    20.0054
   Eigenvalues:    -5.4799    10.5763    22.7906
    109  Bq   Isotropic =    16.2987   Anisotropy =    19.9158
   XX=    14.6288   YX=    -1.5464   ZX=    -3.9809
   XY=    -3.2213   YY=    17.3413   ZY=    -0.0527
   XZ=   -14.5426   YZ=    15.2008   ZZ=    16.9262
   Eigenvalues:     5.3298    13.9905    29.5759
    110  Bq   Isotropic =   -10.2043   Anisotropy =    42.1055
   XX=   -19.0337   YX=    12.9188   ZX=    -4.8786
   XY=    20.3104   YY=   -27.2968   ZY=    -1.2362
   XZ=   -12.1890   YZ=    14.0539   ZZ=    15.7176
   Eigenvalues:   -42.1284    -6.3505    17.8660
    111  Bq   Isotropic =    13.6126   Anisotropy =    21.3068
   XX=    11.1782   YX=    -1.5624   ZX=    -3.8877
   XY=    -3.2216   YY=    14.5050   ZY=     1.0171
   XZ=   -14.8538   YZ=    15.8612   ZZ=    15.1547
   Eigenvalues:     2.2706    10.7501    27.8172
    112  Bq   Isotropic =   -35.5746   Anisotropy =    76.7481
   XX=   -57.5343   YX=    20.6271   ZX=    -9.5657
   XY=    37.9928   YY=   -58.1296   ZY=    14.3351
   XZ=   -20.6098   YZ=    27.3732   ZZ=     8.9401
   Eigenvalues:   -93.4752   -28.8395    15.5908
    113  Bq   Isotropic =    11.2575   Anisotropy =    21.9778
   XX=     8.2702   YX=    -1.5037   ZX=    -3.7103
   XY=    -3.0944   YY=    11.9595   ZY=     1.7627
   XZ=   -14.7753   YZ=    16.0958   ZZ=    13.5427
   Eigenvalues:    -0.1621     8.0252    25.9093
    114  Bq   Isotropic =   -48.7723   Anisotropy =    95.2391
   XX=   -84.0103   YX=    26.3862   ZX=   -15.9484
   XY=    60.8257   YY=   -64.4962   ZY=    28.9114
   XZ=   -27.5055   YZ=    33.3918   ZZ=     2.1897
   Eigenvalues:  -129.1345   -31.9028    14.7205
    115  Bq   Isotropic =    22.0649   Anisotropy =    11.5936
   XX=    23.2140   YX=     0.3739   ZX=    -3.4340
   XY=    -0.4110   YY=    21.3257   ZY=    -5.5718
   XZ=   -10.6339   YZ=    10.1136   ZZ=    21.6551
   Eigenvalues:    14.9068    21.4939    29.7940
    116  Bq   Isotropic =    20.1377   Anisotropy =    13.2964
   XX=    22.2891   YX=    -1.2347   ZX=    -2.4679
   XY=    -2.7388   YY=    19.7933   ZY=    -5.0631
   XZ=   -10.7954   YZ=    13.0566   ZZ=    18.3306
   Eigenvalues:    12.7097    18.7015    29.0019
    117  Bq   Isotropic =    19.2049   Anisotropy =    11.9356
   XX=    23.8031   YX=     2.3261   ZX=    -1.0611
   XY=     2.3494   YY=    12.3047   ZY=   -10.9013
   XZ=    -6.8469   YZ=     9.1287   ZZ=    21.5067
   Eigenvalues:    11.8461    18.6065    27.1619
    118  Bq   Isotropic =    17.8760   Anisotropy =    16.5009
   XX=    18.5962   YX=    -1.7967   ZX=    -2.9598
   XY=    -3.4584   YY=    18.6088   ZY=    -2.5321
   XZ=   -12.3361   YZ=    14.7359   ZZ=    16.4230
   Eigenvalues:     8.7080    16.0434    28.8766
    119  Bq   Isotropic =    12.3741   Anisotropy =    17.8615
   XX=    16.7710   YX=     6.2173   ZX=    -0.6664
   XY=     8.4218   YY=    -1.2851   ZY=   -12.0380
   XZ=    -5.8552   YZ=     8.8717   ZZ=    21.6364
   Eigenvalues:    -3.8860    16.7266    24.2817
    120  Bq   Isotropic =    15.2493   Anisotropy =    18.9751
   XX=    14.7528   YX=    -1.9807   ZX=    -3.2406
   XY=    -3.6446   YY=    16.3722   ZY=    -0.6147
   XZ=   -13.3138   YZ=    15.8469   ZZ=    14.6229
   Eigenvalues:     5.0052    12.8433    27.8994
    121  Bq   Isotropic =    -1.1930   Anisotropy =    32.0208
   XX=     0.7373   YX=    11.9542   ZX=    -1.4058
   XY=    18.3626   YY=   -23.4686   ZY=    -8.4948
   XZ=    -7.1140   YZ=    12.2186   ZZ=    19.1522
   Eigenvalues:   -31.0119     7.2786    20.1542
    122  Bq   Isotropic =    12.7338   Anisotropy =    20.5413
   XX=    11.2901   YX=    -1.9720   ZX=    -3.3428
   XY=    -3.5647   YY=    13.9036   ZY=     0.7472
   XZ=   -13.7805   YZ=    16.4282   ZZ=    13.0077
   Eigenvalues:     1.9080     9.8653    26.4280
    123  Bq   Isotropic =   -19.9141   Anisotropy =    51.5083
   XX=   -23.0535   YX=    18.7821   ZX=    -4.2882
   XY=    32.2629   YY=   -48.8647   ZY=     2.3053
   XZ=   -11.0874   YZ=    19.2738   ZZ=    12.1758
   Eigenvalues:   -66.7723    -7.3948    14.4247
    124  Bq   Isotropic =    10.5276   Anisotropy =    21.3375
   XX=     8.3880   YX=    -1.8766   ZX=    -3.3148
   XY=    -3.3651   YY=    11.5943   ZY=     1.6731
   XZ=   -13.8381   YZ=    16.5827   ZZ=    11.6006
   Eigenvalues:    -0.5110     7.3413    24.7526
    125  Bq   Isotropic =   -35.3394   Anisotropy =    64.9508
[...]
   135  Bq   0.000000
   136  Bq   0.000000
   137  Bq   0.000000
   138  Bq   0.000000
   139  Bq   0.000000
   140  Bq   0.000000
   141  Bq   0.000000
   142  Bq   0.000000
   143  Bq   0.000000
   144  Bq   0.000000
   145  Bq   0.000000
   146  Bq   0.000000
   147  Bq   0.000000
   148  Bq   0.000000
   149  Bq   0.000000
   150  Bq   0.000000
   151  Bq   0.000000
   152  Bq   0.000000
   153  Bq   0.000000
   154  Bq   0.000000
   155  Bq   0.000000
   156  Bq   0.000000
   157  Bq   0.000000
   158  Bq   0.000000
   159  Bq   0.000000
   160  Bq   0.000000
   161  Bq   0.000000
   162  Bq   0.000000
   163  Bq   0.000000
   164  Bq   0.000000
   165  Bq   0.000000
   166  Bq   0.000000
   167  Bq   0.000000
   168  Bq   0.000000
   169  Bq   0.000000
   170  Bq   0.000000
   171  Bq   0.000000
   172  Bq   0.000000
   173  Bq   0.000000
   174  Bq   0.000000
   175  Bq   0.000000
   176  Bq   0.000000
   177  Bq   0.000000
   178  Bq   0.000000
   179  Bq   0.000000
   180  Bq   0.000000
   181  Bq   0.000000
   182  Bq   0.000000
   183  Bq   0.000000
   184  Bq   0.000000
   185  Bq   0.000000
   186  Bq   0.000000
   187  Bq   0.000000
   188  Bq   0.000000
   189  Bq   0.000000
   190  Bq   0.000000
   191  Bq   0.000000
   192  Bq   0.000000
   193  Bq   0.000000
   194  Bq   0.000000
   195  Bq   0.000000
   196  Bq   0.000000
   197  Bq   0.000000
   198  Bq   0.000000
   199  Bq   0.000000
   200  Bq   0.000000
   201  Bq   0.000000
   202  Bq   0.000000
   203  Bq   0.000000
   204  Bq   0.000000
   205  Bq   0.000000
   206  Bq   0.000000
   207  Bq   0.000000
   208  Bq   0.000000
   209  Bq   0.000000
   210  Bq   0.000000
   211  Bq   0.000000
   212  Bq   0.000000
   213  Bq   0.000000
   214  Bq   0.000000
   215  Bq   0.000000
   216  Bq   0.000000
   217  Bq   0.000000
   218  Bq   0.000000
   219  Bq   0.000000
   220  Bq   0.000000
   221  Bq   0.000000
   222  Bq   0.000000
   223  Bq   0.000000
   224  Bq   0.000000
   225  Bq   0.000000
   226  Bq   0.000000
   227  Bq   0.000000
   228  Bq   0.000000
   229  Bq   0.000000
   230  Bq   0.000000
   231  Bq   0.000000
   232  Bq   0.000000
   233  Bq   0.000000
   234  Bq   0.000000
   235  Bq   0.000000
   236  Bq   0.000000
 Sum of Mulliken charges =   0.00000
 Mulliken charges with hydrogens summed into heavy atoms:
               1
     1  C   -0.255498
     3  C    0.169409
     5  C    0.448258
     6  C    0.064351
     7  C   -0.333926
     9  C   -0.139521
    11  C   -0.322216
    13  C   -0.119315
    15  C    0.653397
    16  C    0.034822
    17  C   -0.317410
    19  C   -0.316854
    21  C    0.651066
    22  C    0.037784
    23  C   -0.117289
    25  C   -0.205316
    27  C    0.448331
    28  C    0.061983
    29  C   -0.333381
    31  C   -0.139505
    33  C   -0.255977
    35  C    0.170579
    37  Bq   0.000000
    38  Bq   0.000000
    39  Bq   0.000000
    40  Bq   0.000000
    41  Bq   0.000000
    42  Bq   0.000000
    43  Bq   0.000000
    44  Bq   0.000000
    45  Bq   0.000000
    46  Bq   0.000000
    47  Bq   0.000000
    48  Bq   0.000000
    49  Bq   0.000000
    50  Bq   0.000000
    51  Bq   0.000000
    52  Bq   0.000000
    53  Bq   0.000000
    54  Bq   0.000000
    55  Bq   0.000000
    56  Bq   0.000000
    57  Bq   0.000000
    58  Bq   0.000000
    59  Bq   0.000000
    60  Bq   0.000000
    61  Bq   0.000000
    62  Bq   0.000000
    63  Bq   0.000000
    64  Bq   0.000000
    65  Bq   0.000000
    66  Bq   0.000000
    67  Bq   0.000000
    68  Bq   0.000000
    69  Bq   0.000000
    70  Bq   0.000000
    71  Bq   0.000000
    72  Bq   0.000000
    73  Bq   0.000000
    74  Bq   0.000000
    75  Bq   0.000000
    76  Bq   0.000000
    77  Bq   0.000000
    78  Bq   0.000000
    79  Bq   0.000000
    80  Bq   0.000000
    81  Bq   0.000000
    82  Bq   0.000000
    83  Bq   0.000000
    84  Bq   0.000000
    85  Bq   0.000000
    86  Bq   0.000000
    87  Bq   0.000000
    88  Bq   0.000000
    89  Bq   0.000000
    90  Bq   0.000000
    91  Bq   0.000000
    92  Bq   0.000000
    93  Bq   0.000000
    94  Bq   0.000000
    95  Bq   0.000000
    96  Bq   0.000000
    97  Bq   0.000000
    98  Bq   0.000000
    99  Bq   0.000000
   100  Bq   0.000000
   101  Bq   0.000000
   102  Bq   0.000000
   103  Bq   0.000000
   104  Bq   0.000000
   105  Bq   0.000000
   106  Bq   0.000000
   107  Bq   0.000000
   108  Bq   0.000000
   109  Bq   0.000000
   110  Bq   0.000000
   111  Bq   0.000000
   112  Bq   0.000000
   113  Bq   0.000000
   114  Bq   0.000000
   115  Bq   0.000000
   116  Bq   0.000000
   117  Bq   0.000000
   118  Bq   0.000000
   119  Bq   0.000000
   120  Bq   0.000000
   121  Bq   0.000000
   122  Bq   0.000000
   123  Bq   0.000000
   124  Bq   0.000000
   125  Bq   0.000000
   126  Bq   0.000000
   127  Bq   0.000000
   128  Bq   0.000000
   129  Bq   0.000000
   130  Bq   0.000000
   131  Bq   0.000000
   132  Bq   0.000000
   133  Bq   0.000000
   134  Bq   0.000000
   135  Bq   0.000000
   136  Bq   0.000000
   137  Bq   0.000000
   138  Bq   0.000000
   139  Bq   0.000000
   140  Bq   0.000000
   141  Bq   0.000000
   142  Bq   0.000000
   143  Bq   0.000000
   144  Bq   0.000000
   145  Bq   0.000000
   146  Bq   0.000000
   147  Bq   0.000000
   148  Bq   0.000000
   149  Bq   0.000000
   150  Bq   0.000000
   151  Bq   0.000000
   152  Bq   0.000000
   153  Bq   0.000000
   154  Bq   0.000000
   155  Bq   0.000000
   156  Bq   0.000000
   157  Bq   0.000000
   158  Bq   0.000000
   159  Bq   0.000000
   160  Bq   0.000000
   161  Bq   0.000000
   162  Bq   0.000000
   163  Bq   0.000000
   164  Bq   0.000000
   165  Bq   0.000000
   166  Bq   0.000000
   167  Bq   0.000000
   168  Bq   0.000000
   169  Bq   0.116228
   170  Bq   0.000000
   171  Bq   0.000000
   172  Bq   0.000000
   173  Bq   0.000000
   174  Bq   0.000000
   175  Bq   0.000000
   176  Bq   0.000000
   177  Bq   0.000000
   178  Bq   0.000000
   179  Bq   0.000000
   180  Bq   0.000000
   181  Bq   0.000000
   182  Bq   0.000000
   183  Bq   0.000000
   184  Bq   0.000000
   185  Bq   0.000000
   186  Bq   0.000000
   187  Bq   0.000000
   188  Bq   0.000000
   189  Bq   0.000000
   190  Bq   0.000000
   191  Bq   0.000000
   192  Bq   0.000000
   193  Bq   0.000000
   194  Bq   0.000000
   195  Bq   0.000000
   196  Bq   0.000000
   197  Bq   0.000000
   198  Bq   0.000000
   199  Bq   0.000000
   200  Bq   0.000000
   201  Bq   0.000000
   202  Bq   0.000000
   203  Bq   0.000000
   204  Bq   0.000000
   205  Bq   0.000000
   206  Bq   0.000000
   207  Bq   0.000000
   208  Bq   0.000000
   209  Bq   0.000000
   210  Bq   0.000000
   211  Bq   0.000000
   212  Bq   0.000000
   213  Bq   0.000000
   214  Bq   0.000000
   215  Bq   0.000000
   216  Bq   0.000000
   217  Bq   0.000000
   218  Bq   0.000000
   219  Bq   0.000000
   220  Bq   0.000000
   221  Bq   0.000000
   222  Bq   0.000000
   223  Bq   0.000000
   224  Bq   0.000000
   225  Bq   0.000000
   226  Bq   0.000000
   227  Bq   0.000000
   228  Bq   0.000000
   229  Bq   0.000000
   230  Bq   0.000000
   231  Bq   0.000000
   232  Bq   0.000000
   233  Bq   0.000000
   234  Bq   0.000000
   235  Bq   0.000000
   236  Bq   0.000000
 Electronic spatial extent (au):  <R**2>=           5736.9264
 Charge=              0.0000 electrons
 Dipole moment (field-independent basis, Debye):
    X=              0.0475    Y=              0.0856    Z=              0.0029  Tot=              0.0979
 Quadrupole moment (field-independent basis, Debye-Ang):
   XX=           -113.7056   YY=           -113.9456   ZZ=           -133.2669
   XY=             -0.3834   XZ=              3.2102   YZ=             -1.1839
 Traceless Quadrupole moment (field-independent basis, Debye-Ang):
   XX=              6.6005   YY=              6.3604   ZZ=            -12.9609
   XY=             -0.3834   XZ=              3.2102   YZ=             -1.1839
 Octapole moment (field-independent basis, Debye-Ang**2):
  XXX=            -16.4668  YYY=            -16.1860  ZZZ=             -1.7007  XYY=              2.5576
  XXY=             -6.5650  XXZ=             13.6547  XZZ=             -8.9478  YZZ=            -17.7168
  YYZ=            -13.2941  XYZ=              8.8036
 Hexadecapole moment (field-independent basis, Debye-Ang**3):
 XXXX=          -3951.1638 YYYY=          -3112.2161 ZZZZ=           -504.8311 XXXY=            340.6935
 XXXZ=            156.4968 YYYX=            335.5625 YYYZ=            -87.0893 ZZZX=            120.2262
 ZZZY=           -108.7373 XXYY=          -1176.4844 XXZZ=           -856.7291 YYZZ=           -665.7275
 XXYZ=            -68.9016 YYXZ=             48.1602 ZZXY=            153.0375
 N-N= 1.610917615562D+03 E-N=-5.186891130729D+03  KE= 8.436329774448D+02
 1\1\GINC-PLANA\SP\RB3LYP\6-311+G(d,p)\C22H14\YANNICK\21-Aug-2020\0\\# 
 rb3lyp/6-311+g** NMR geom=connectivity\\Title\\0,1\C,0,-4.0500558,-0.5
 771862,0.8136712\H,0,-5.0263804,-1.0082727,1.002476\C,0,-3.9381552,0.6
 617804,0.2400876\H,0,-4.8252424,1.233889,-0.0111295\C,0,-2.676841,1.24
 33246,0.0057578\C,0,-1.4974121,0.5051527,0.2848253\C,0,-1.6508332,-0.7
 338728,0.9404026\H,0,-0.7713646,-1.2730967,1.2633753\C,0,-2.8898548,-1
 .2624035,1.1994307\H,0,-2.9683706,-2.2124563,1.7152676\C,0,-2.5773185,
 2.5963696,-0.419293\H,0,-3.4870728,3.1412239,-0.6474055\C,0,-1.3741895
 ,3.2147896,-0.436403\H,0,-1.2997315,4.2742019,-0.6578144\C,0,-0.171948
 8,2.499409,-0.1734588\C,0,-0.2043917,1.1018437,0.0192689\C,0,1.0513491
 ,3.204256,-0.0676222\H,0,1.0427344,4.2819499,-0.1896997\C,0,2.1942091,
 2.5487446,0.2579577\H,0,3.1168527,3.0912848,0.4334727\C,0,2.2216473,1.
 1336562,0.293499\C,0,1.0486931,0.3945528,0.0302412\C,0,3.4483363,0.461
 4633,0.5573939\H,0,4.3095794,1.0606054,0.8334846\C,0,3.5427346,-0.8855
 926,0.4749463\H,0,4.4731467,-1.3939704,0.7038822\C,0,2.4490052,-1.6474
 447,-0.0196319\C,0,1.2150704,-1.0057258,-0.3013573\C,0,0.2531113,-1.74
 3444,-1.0216591\H,0,-0.6541356,-1.2535051,-1.3462847\C,0,0.4494193,-3.
 0628597,-1.3413779\H,0,-0.3083162,-3.5944309,-1.905406\C,0,1.6251726,-
 3.7207967,-0.9552541\H,0,1.7670048,-4.7687404,-1.1927019\C,0,2.6109872
 ,-3.0144177,-0.318305\H,0,3.5525612,-3.4902813,-0.0646367\Bq,0,-2.6141
 282069,2.0540278639,-0.2165030252\Bq,0,-2.6333381135,2.1767744508,0.26
 78153152\Bq,0,-2.6362071406,2.2982636001,0.3401489539\Bq,0,-2.62852317
 8,2.2491649653,0.1464216177\Bq,0,-2.640049122,2.3228129174,0.437012622
 \Bq,0,-2.6246811966,2.2246156479,0.0495579496\Bq,0,-2.6438911033,2.347
 3622348,0.5338762901\Bq,0,-2.6208392153,2.2000663306,-0.0473057185\Bq,
 0,-2.6477330846,2.3719115522,0.6307399582\Bq,0,-2.616997234,2.17551701
 32,-0.1441693866\Bq,0,-2.6515750659,2.3964608696,0.7276036262\Bq,0,-2.
 6131552527,2.1509676958,-0.2410330547\Bq,0,-2.6323651593,2.2737142827,
 0.2432852858\Bq,0,-2.6352341864,2.395203432,0.3156189245\Bq,0,-2.62755
 02237,2.3461047973,0.1218915883\Bq,0,-2.6390761677,2.4197527494,0.4124
 825926\Bq,0,-2.6237082424,2.3215554799,0.0250279202\Bq,0,-2.6429181491
 ,2.4443020668,0.5093462606\Bq,0,-2.6198662611,2.2970061625,-0.07183574
 79\Bq,0,-2.6467601304,2.4688513841,0.6062099287\Bq,0,-2.6160242798,2.2
 724568451,-0.168699416\Bq,0,-2.6506021117,2.4934007015,0.7030735968\Bq
 ,0,-2.6121822984,2.2479075278,-0.2655630841\Bq,0,-2.6313922051,2.37065
 41146,0.2187552564\Bq,0,-2.6342612322,2.492143264,0.291088895\Bq,0,-2.
 6265772695,2.4430446292,0.0973615589\Bq,0,-2.6381032135,2.5166925813,0
 .3879525631\Bq,0,-2.6227352882,2.4184953118,0.0004978908\Bq,0,-2.64194
 51948,2.5412418987,0.4848162312\Bq,0,-2.6188933069,2.3939459944,-0.096
 3657773\Bq,0,-2.6457871762,2.5657912161,0.5816798993\Bq,0,-2.615051325
 5,2.3693966771,-0.1932294454\Bq,0,-2.6496291575,2.5903405335,0.6785435
 674\Bq,0,-2.6112093442,2.3448473597,-0.2900931135\Bq,0,-2.6304192509,2
 .4675939466,0.1942252269\Bq,0,-2.633288278,2.5890830959,0.2665588656\B
 q,0,-2.6256043153,2.5399844611,0.0728315294\Bq,0,-2.6371302593,2.61363
 24133,0.3634225337\Bq,0,-2.621762334,2.5154351438,-0.0240321387\Bq,0,-
 2.6409722406,2.6381817306,0.4602862018\Bq,0,-2.6179203526,2.4908858264
 ,-0.1208958068\Bq,0,-2.6448142219,2.662731048,0.5571498699\Bq,0,-2.614
 0783713,2.466336509,-0.2177594748\Bq,0,-2.6486562033,2.6872803654,0.65
 4013538\Bq,0,-2.61023639,2.4417871916,-0.3146231429\Bq,0,-2.6294462966
 ,2.5645337785,0.1696951975\Bq,0,-2.6323153237,2.6860229278,0.242028836
 2\Bq,0,-2.6246313611,2.6369242931,0.0483015\Bq,0,-2.6361573051,2.71057
 22452,0.3388925043\Bq,0,-2.6207893797,2.6123749757,-0.0485621681\Bq,0,
 -2.6399992864,2.7351215626,0.4357561724\Bq,0,-2.6169473984,2.587825658
 3,-0.1454258362\Bq,0,-2.6438412677,2.75967088,0.5326198405\Bq,0,-2.613
 1054171,2.5632763409,-0.2422895043\Bq,0,-2.647683249,2.7842201973,0.62
 94835085\Bq,0,-2.6092634358,2.5387270236,-0.3391531724\Bq,0,-2.6284733
 424,2.6614736105,0.1451651681\Bq,0,-2.6313423695,2.7829627598,0.217498
 8068\Bq,0,-2.6236584068,2.733864125,0.0237714706\Bq,0,-2.6351843508,2.
 8075120771,0.3143624748\Bq,0,-2.6198164255,2.7093148076,-0.0730921975\
 Bq,0,-2.6390263322,2.8320613945,0.4112261429\Bq,0,-2.6159744442,2.6847
 654903,-0.1699558656\Bq,0,-2.6428683135,2.8566107119,0.508089811\Bq,0,
 -2.6121324629,2.6602161729,-0.2668195337\Bq,0,-2.6467102948,2.88116002
 93,0.6049534791\Bq,0,-2.6082904815,2.6356668555,-0.3636832018\Bq,0,-2.
 6275003882,2.7584134424,0.1206351387\Bq,0,-2.6303694153,2.8799025917,0
 .1929687773\Bq,0,-2.6226854526,2.830803957,-0.0007585589\Bq,0,-2.63421
 13966,2.9044519091,0.2898324454\Bq,0,-2.6188434713,2.8062546396,-0.097
 6222269\Bq,0,-2.6380533779,2.9290012265,0.3866961135\Bq,0,-2.61500149,
 2.7817053222,-0.194485895\Bq,0,-2.6418953593,2.9535505438,0.4835597816
 \Bq,0,-2.6111595086,2.7571560048,-0.2913495631\Bq,0,-2.6457373406,2.97
 80998612,0.5804234497\Bq,0,-2.6073175273,2.7326066875,-0.3882132312\Bq
 ,0,-2.626527434,2.8553532743,0.0961051092\Bq,0,-2.6293964611,2.9768424
 236,0.1684387479\Bq,0,-2.6217124984,2.9277437889,-0.0252885883\Bq,0,-2
 .6332384424,3.001391741,0.265302416\Bq,0,-2.6178705171,2.9031944715,-0
 .1221522564\Bq,0,-2.6370804237,3.0259410584,0.3621660841\Bq,0,-2.61402
 85357,2.8786451541,-0.2190159245\Bq,0,-2.640922405,3.0504903758,0.4590
 297522\Bq,0,-2.6101865544,2.8540958368,-0.3158795926\Bq,0,-2.644764386
 4,3.0750396931,0.5558934203\Bq,0,-2.6063445731,2.8295465194,-0.4127432
 606\Bq,0,-2.6255544797,2.9522931063,0.0715750798\Bq,0,-2.6284235068,3.
 0737822556,0.1439087185\Bq,0,-2.6207395442,3.0246836208,-0.0498186177\
 Bq,0,-2.6322654882,3.098331573,0.2407723866\Bq,0,-2.6168975628,3.00013
 43035,-0.1466822858\Bq,0,-2.6361074695,3.1228808903,0.3376360547\Bq,0,
 -2.6130555815,2.9755849861,-0.2435459539\Bq,0,-2.6399494508,3.14743020
 77,0.4344997227\Bq,0,-2.6092136002,2.9510356687,-0.340409622\Bq,0,-2.6
 437914322,3.1719795251,0.5313633908\Bq,0,-2.6053716189,2.9264863513,-0
 .4372732901\Bq,0,-2.6245815255,3.0492329382,0.0470450504\Bq,0,-2.62745
 05526,3.1707220875,0.119378689\Bq,0,-2.61976659,3.1216234528,-0.074348
 6471\Bq,0,-2.6312925339,3.1952714049,0.2162423571\Bq,0,-2.6159246086,3
 .0970741354,-0.1712123152\Bq,0,-2.6351345153,3.2198207223,0.3131060252
 \Bq,0,-2.6120826273,3.072524818,-0.2680759833\Bq,0,-2.6389764966,3.244
 3700397,0.4099696933\Bq,0,-2.608240646,3.0479755006,-0.3649396514\Bq,0
 ,-2.6428184779,3.268919357,0.5068333614\Bq,0,-2.6043986646,3.023426183
 3,-0.4618033195\Bq,0,-2.6236085713,3.1461727701,0.022515021\Bq,0,-2.62
 64775984,3.2676619195,0.0948486596\Bq,0,-2.6187936357,3.2185632847,-0.
 0988786766\Bq,0,-2.6303195797,3.2922112368,0.1917123277\Bq,0,-2.614951
 6544,3.1940139673,-0.1957423447\Bq,0,-2.634161561,3.3167605542,0.28857
 59958\Bq,0,-2.6111096731,3.16946465,-0.2926060127\Bq,0,-2.6380035424,3
 .3413098716,0.3854396639\Bq,0,-2.6072676917,3.1449153326,-0.3894696808
 \Bq,0,-2.6418455237,3.365859189,0.482303332\Bq,0,-2.6034257104,3.12036
 60152,-0.4863333489\Bq,0,-2.6226356171,3.2431126021,-0.0020150085\Bq,0
 ,-2.6255046442,3.3646017514,0.0703186302\Bq,0,-2.6178206815,3.31550311
 67,-0.123408706\Bq,0,-2.6293466255,3.3891510688,0.1671822983\Bq,0,-2.6
 139787002,3.2909537993,-0.2202723741\Bq,0,-2.6331886068,3.4137003862,0
 .2640459664\Bq,0,-2.6101367188,3.2664044819,-0.3171360422\Bq,0,-2.6370
 305881,3.4382497035,0.3609096345\Bq,0,-2.6062947375,3.2418551645,-0.41
 39997103\Bq,0,-2.6408725695,3.4627990209,0.4577733026\Bq,0,-2.60245275
 62,3.2173058471,-0.5108633783\Bq,0,-2.6216626628,3.340052434,-0.026545
 0379\Bq,0,-2.6245316899,3.4615415833,0.0457886008\Bq,0,-2.6168477273,3
 .4124429486,-0.1479387354\Bq,0,-2.6283736713,3.4860909007,0.1426522689
 \Bq,0,-2.6130057459,3.3878936312,-0.2448024035\Bq,0,-2.6322156526,3.51
 06402181,0.2395159369\Bq,0,-2.6091637646,3.3633443138,-0.3416660716\Bq
 ,0,-2.6360576339,3.5351895355,0.336379605\Bq,0,-2.6053217833,3.3387949
 965,-0.4385297397\Bq,0,-2.6398996153,3.5597388528,0.4332432731\Bq,0,-2
 .601479802,3.3142456791,-0.5353934078\Bq,0,-2.6206897086,3.436992266,-
 0.0510750673\Bq,0,-2.6235587357,3.5584814153,0.0212585713\Bq,0,-2.6158
 747731,3.5093827805,-0.1724687648\Bq,0,-2.627400717,3.5830307327,0.118
 1222394\Bq,0,-2.6120327917,3.4848334632,-0.2693324329\Bq,0,-2.63124269
 84,3.60758005,0.2149859075\Bq,0,-2.6081908104,3.4602841458,-0.36619610
 1\Bq,0,-2.6350846797,3.6321293674,0.3118495756\Bq,0,-2.6043488291,3.43
 57348284,-0.4630597691\Bq,0,-2.638926661,3.6566786848,0.4087132437\Bq,
 0,-2.6005068477,3.411185511,-0.5599234372\Bq,0,-2.6197167544,3.5339320
 979,-0.0756050968\Bq,0,-2.6225857815,3.6554212472,-0.0032714581\Bq,0,-
 2.6149018188,3.6063226125,-0.1969987943\Bq,0,-2.6264277628,3.679970564
 6,0.09359221\Bq,0,-2.6110598375,3.5817732951,-0.2938624624\Bq,0,-2.630
 2697441,3.704519882,0.1904558781\Bq,0,-2.6072178562,3.5572239777,-0.39
 07261305\Bq,0,-2.6341117255,3.7290691993,0.2873195462\Bq,0,-2.60337587
 48,3.5326746603,-0.4875897985\Bq,0,-2.6379537068,3.7536185167,0.384183
 2143\Bq,0,-2.5995338935,3.508125343,-0.5844534666\Bq,0,-2.6187438002,3
 .6308719298,-0.1001351262\Bq,0,-2.6216128273,3.7523610792,-0.027801487
 5\Bq,0,-2.6139288646,3.7032624444,-0.2215288237\Bq,0,-2.6254548086,3.7
 769103965,0.0690621806\Bq,0,-2.6100868833,3.678713127,-0.3183924918\Bq
 ,0,-2.6292967899,3.8014597139,0.1659258487\Bq,0,-2.6062449019,3.654163
 8097,-0.4152561599\Bq,0,-2.6331387713,3.8260090313,0.2627895168\Bq,0,-
 2.6024029206,3.6296144923,-0.512119828\Bq,0,-2.6369807526,3.8505583487
 ,0.3596531848\Bq,0,-2.5985609393,3.6050651749,-0.6089834961\Bq,0,-2.61
 77708459,3.7278117618,-0.1246651556\Bq,0,-2.620639873,3.8493009111,-0.
 0523315169\Bq,0,-2.6129559104,3.8002022763,-0.2460588531\Bq,0,-2.62448
 18544,3.8738502285,0.0445321511\Bq,0,-2.6091139291,3.775652959,-0.3429
 225212\Bq,0,-2.6283238357,3.8983995458,0.1413958192\Bq,0,-2.6052719477
 ,3.7511036416,-0.4397861893\Bq,0,-2.632165817,3.9229488632,0.238259487
 3\Bq,0,-2.6014299664,3.7265543242,-0.5366498574\Bq,0,-2.6360077984,3.9
 474981806,0.3351231554\Bq,0,-2.5975879851,3.7020050068,-0.6335135255\B
 q,0,-2.6167978917,3.8247515937,-0.149195185\Bq,0,-2.6196669188,3.94624
 0743,-0.0768615464\Bq,0,-2.6119829562,3.8971421083,-0.2705888826\Bq,0,
 -2.6235089001,3.9707900604,0.0200021217\Bq,0,-2.6081409748,3.872592790
 9,-0.3674525506\Bq,0,-2.6273508815,3.9953393778,0.1168657898\Bq,0,-2.6
 042989935,3.8480434735,-0.4643162187\Bq,0,-2.6311928628,4.0198886952,0
 .2137294579\Bq,0,-2.6004570122,3.8234941562,-0.5611798868\Bq,0,-2.6350
 348441,4.0444380125,0.310593126\Bq,0,-2.5966150308,3.7989448388,-0.658
 0435549\Bq,0,-2.6158249375,3.9216914257,-0.1737252145\\Version=ES64L-G
 09RevD.01\HF=-847.0032898\RMSD=7.489e-09\Dipole=0.0186808,0.0336671,0.
 0011595\Quadrupole=4.9072795,4.7288219,-9.6361014,-0.2850201,2.3867064
 ,-0.880172\PG=C01 [X(C22H14)]\\@


 IT IS A SIMPLE TASK TO MAKE THINGS COMPLEX,
 BUT A COMPLEX TASK TO MAKE THEM SIMPLE.
 Job cpu time:       0 days  3 hours 58 minutes 13.6 seconds.
 File lengths (MBytes):  RWF=    184 Int=      0 D2E=      0 Chk=     19 Scr=      1
 Normal termination of Gaussian 09 at Fri Aug 21 21:55:50 2020.
