 Entering Gaussian System, Link 0=g09
 Input=input_cycle_05_batch_07600.com
 Output=input_cycle_05_batch_07600.log
 Initial command:
 /share/programs/GAUSSIAN/64/g09/l1.exe "/scratch/yannick.30708/Gau-29632.inp" -scrdir="/scratch/yannick.30708/"
 Entering Link 1 = /share/programs/GAUSSIAN/64/g09/l1.exe PID=     29633.
  
 Copyright (c) 1988,1990,1992,1993,1995,1998,2003,2009,2013,
            Gaussian, Inc.  All Rights Reserved.
  
 This is part of the Gaussian(R) 09 program.  It is based on
 the Gaussian(R) 03 system (copyright 2003, Gaussian, Inc.),
 the Gaussian(R) 98 system (copyright 1998, Gaussian, Inc.),
 the Gaussian(R) 94 system (copyright 1995, Gaussian, Inc.),
 the Gaussian 92(TM) system (copyright 1992, Gaussian, Inc.),
 the Gaussian 90(TM) system (copyright 1990, Gaussian, Inc.),
 the Gaussian 88(TM) system (copyright 1988, Gaussian, Inc.),
 the Gaussian 86(TM) system (copyright 1986, Carnegie Mellon
 University), and the Gaussian 82(TM) system (copyright 1983,
 Carnegie Mellon University). Gaussian is a federally registered
 trademark of Gaussian, Inc.
  
 This software contains proprietary and confidential information,
 including trade secrets, belonging to Gaussian, Inc.
  
 This software is provided under written license and may be
 used, copied, transmitted, or stored only in accord with that
 written license.
  
 The following legend is applicable only to US Government
 contracts under FAR:
  
                    RESTRICTED RIGHTS LEGEND
  
 Use, reproduction and disclosure by the US Government is
 subject to restrictions as set forth in subparagraphs (a)
 and (c) of the Commercial Computer Software - Restricted
 Rights clause in FAR 52.227-19.
  
 Gaussian, Inc.
 340 Quinnipiac St., Bldg. 40, Wallingford CT 06492
  
  
 ---------------------------------------------------------------
 Warning -- This program may not be used in any manner that
 competes with the business of Gaussian, Inc. or will provide
 assistance to any competitor of Gaussian, Inc.  The licensee
 of this program is prohibited from giving any competitor of
 Gaussian, Inc. access to this program.  By using this program,
 the user acknowledges that Gaussian, Inc. is engaged in the
 business of creating and licensing software in the field of
 computational chemistry and represents and warrants to the
 licensee that it is not a competitor of Gaussian, Inc. and that
 it will not use this program in any manner prohibited above.
 ---------------------------------------------------------------
  

 Cite this work as:
 Gaussian 09, Revision D.01,
 M. J. Frisch, G. W. Trucks, H. B. Schlegel, G. E. Scuseria, 
 M. A. Robb, J. R. Cheeseman, G. Scalmani, V. Barone, B. Mennucci, 
 G. A. Petersson, H. Nakatsuji, M. Caricato, X. Li, H. P. Hratchian, 
 A. F. Izmaylov, J. Bloino, G. Zheng, J. L. Sonnenberg, M. Hada, 
 M. Ehara, K. Toyota, R. Fukuda, J. Hasegawa, M. Ishida, T. Nakajima, 
 Y. Honda, O. Kitao, H. Nakai, T. Vreven, J. A. Montgomery, Jr., 
 J. E. Peralta, F. Ogliaro, M. Bearpark, J. J. Heyd, E. Brothers, 
 K. N. Kudin, V. N. Staroverov, T. Keith, R. Kobayashi, J. Normand, 
 K. Raghavachari, A. Rendell, J. C. Burant, S. S. Iyengar, J. Tomasi, 
 M. Cossi, N. Rega, J. M. Millam, M. Klene, J. E. Knox, J. B. Cross, 
 V. Bakken, C. Adamo, J. Jaramillo, R. Gomperts, R. E. Stratmann, 
 O. Yazyev, A. J. Austin, R. Cammi, C. Pomelli, J. W. Ochterski, 
 R. L. Martin, K. Morokuma, V. G. Zakrzewski, G. A. Voth, 
 P. Salvador, J. J. Dannenberg, S. Dapprich, A. D. Daniels, 
 O. Farkas, J. B. Foresman, J. V. Ortiz, J. Cioslowski, 
 and D. J. Fox, Gaussian, Inc., Wallingford CT, 2013.
 
 ******************************************
 Gaussian 09:  ES64L-G09RevD.01 24-Apr-2013
                23-Aug-2020 
 ******************************************
 %nproc=8
 Will use up to    8 processors via shared memory.
 %mem=1000MB
 ----------------------------------------
 # rb3lyp/6-311+g** NMR geom=connectivity
 ----------------------------------------
 1/38=1,57=2/1;
 2/12=2,17=6,18=5,40=1/2;
 3/5=4,6=6,7=111,11=2,16=1,25=1,30=1,74=-5,116=1/1,2,8,3;
 4//1;
 5/5=2,38=5/2;
 8/6=1,10=90,11=11/1;
 10/13=100,45=16/2;
 6/7=2,8=2,9=2,10=2,28=1/1;
 99/9=1/99;
 -----
 Title
 -----
 Symbolic Z-matrix:
 Charge =  0 Multiplicity = 1
 C                    -4.05006  -0.57719   0.81367 
 H                    -5.02638  -1.00827   1.00248 
 C                    -3.93816   0.66178   0.24009 
 H                    -4.82524   1.23389  -0.01113 
 C                    -2.67684   1.24332   0.00576 
 C                    -1.49741   0.50515   0.28483 
 C                    -1.65083  -0.73387   0.9404 
 H                    -0.77136  -1.2731    1.26338 
 C                    -2.88985  -1.2624    1.19943 
 H                    -2.96837  -2.21246   1.71527 
 C                    -2.57732   2.59637  -0.41929 
 H                    -3.48707   3.14122  -0.64741 
 C                    -1.37419   3.21479  -0.4364 
 H                    -1.29973   4.2742   -0.65781 
 C                    -0.17195   2.49941  -0.17346 
 C                    -0.20439   1.10184   0.01927 
 C                     1.05135   3.20426  -0.06762 
 H                     1.04273   4.28195  -0.1897 
 C                     2.19421   2.54874   0.25796 
 H                     3.11685   3.09128   0.43347 
 C                     2.22165   1.13366   0.2935 
 C                     1.04869   0.39455   0.03024 
 C                     3.44834   0.46146   0.55739 
 H                     4.30958   1.06061   0.83348 
 C                     3.54273  -0.88559   0.47495 
 H                     4.47315  -1.39397   0.70388 
 C                     2.44901  -1.64744  -0.01963 
 C                     1.21507  -1.00573  -0.30136 
 C                     0.25311  -1.74344  -1.02166 
 H                    -0.65414  -1.25351  -1.34628 
 C                     0.44942  -3.06286  -1.34138 
 H                    -0.30832  -3.59443  -1.90541 
 C                     1.62517  -3.7208   -0.95525 
 H                     1.767    -4.76874  -1.1927 
 C                     2.61099  -3.01442  -0.31831 
 H                     3.55256  -3.49028  -0.06464 
 Bq                   -3.98351   0.1529    0.48901 
 Bq                   -3.98528   0.37032   0.93927 
 Bq                   -3.98546   0.50385   0.98584 
 Bq                   -3.98475   0.41688   0.80573 
 Bq                   -3.98581   0.54733   1.07589 
 Bq                   -3.9844    0.3734    0.71568 
 Bq                   -3.98617   0.59082   1.16594 
 Bq                   -3.98404   0.32992   0.62563 
 Bq                   -3.98652   0.6343    1.25599 
 Bq                   -3.98369   0.28644   0.53558 
 Bq                   -3.98688   0.67778   1.34604 
 Bq                   -3.98334   0.24295   0.44553 
 Bq                   -3.98511   0.46037   0.89578 
 Bq                   -3.98529   0.5939    0.94235 
 Bq                   -3.98458   0.50694   0.76225 
 Bq                   -3.98564   0.63738   1.0324 
 Bq                   -3.98423   0.46345   0.6722 
 Bq                   -3.986     0.68087   1.12245 
 Bq                   -3.98387   0.41997   0.58215 
 Bq                   -3.98635   0.72435   1.21251 
 Bq                   -3.98352   0.37649   0.4921 
 Bq                   -3.98671   0.76783   1.30256 
 Bq                   -3.98317   0.333     0.40205 
 Bq                   -3.98494   0.55042   0.8523 
 Bq                   -3.98512   0.68395   0.89887 
 Bq                   -3.98441   0.59699   0.71877 
 Bq                   -3.98547   0.72744   0.98892 
 Bq                   -3.98406   0.5535    0.62872 
 Bq                   -3.98583   0.77092   1.07897 
 Bq                   -3.9837    0.51002   0.53867 
 Bq                   -3.98618   0.8144    1.16902 
 Bq                   -3.98335   0.46654   0.44862 
 Bq                   -3.98653   0.85788   1.25907 
 Bq                   -3.98299   0.42306   0.35857 
 Bq                   -3.98476   0.64047   0.80882 
 Bq                   -3.98495   0.774     0.85539 
 Bq                   -3.98424   0.68704   0.67529 
 Bq                   -3.9853    0.81749   0.94544 
 Bq                   -3.98389   0.64356   0.58524 
 Bq                   -3.98566   0.86097   1.03549 
 Bq                   -3.98353   0.60007   0.49519 
 Bq                   -3.98601   0.90445   1.12554 
 Bq                   -3.98318   0.55659   0.40514 
 Bq                   -3.98636   0.94793   1.21559 
 Bq                   -3.98282   0.51311   0.31508 
 Bq                   -3.98459   0.73052   0.76534 
 Bq                   -3.98478   0.86406   0.81191 
 Bq                   -3.98407   0.77709   0.6318 
 Bq                   -3.98513   0.90754   0.90196 
 Bq                   -3.98371   0.73361   0.54175 
 Bq                   -3.98548   0.95102   0.99201 
 Bq                   -3.98336   0.69012   0.4517 
 Bq                   -3.98584   0.9945    1.08206 
 Bq                   -3.98301   0.64664   0.36165 
 Bq                   -3.98619   1.03799   1.17211 
 Bq                   -3.98265   0.60316   0.2716 
 Bq                   -3.98442   0.82057   0.72186 
 Bq                   -3.98461   0.95411   0.76842 
 Bq                   -3.9839    0.86714   0.58832 
 Bq                   -3.98496   0.99759   0.85847 
 Bq                   -3.98354   0.82366   0.49827 
 Bq                   -3.98531   1.04107   0.94853 
 Bq                   -3.98319   0.78018   0.40822 
 Bq                   -3.98567   1.08455   1.03858 
 Bq                   -3.98284   0.73669   0.31817 
 Bq                   -3.98602   1.12804   1.12863 
 Bq                   -3.98248   0.69321   0.22812 
 Bq                   -3.98425   0.91062   0.67837 
 Bq                   -3.98443   1.04416   0.72494 
 Bq                   -3.98373   0.95719   0.54484 
 Bq                   -3.98479   1.08764   0.81499 
 Bq                   -3.98337   0.91371   0.45479 
 Bq                   -3.98514   1.13112   0.90504 
 Bq                   -3.98302   0.87023   0.36474 
 Bq                   -3.9855    1.17461   0.99509 
 Bq                   -3.98267   0.82674   0.27469 
 Bq                   -3.98585   1.21809   1.08514 
 Bq                   -3.98231   0.78326   0.18464 
 Bq                   -3.98408   1.00068   0.63489 
 Bq                   -3.98426   1.13421   0.68146 
 Bq                   -3.98356   1.04724   0.50136 
 Bq                   -3.98462   1.17769   0.77151 
 Bq                   -3.9832    1.00376   0.41131 
 Bq                   -3.98497   1.22117   0.86156 
 Bq                   -3.98285   0.96028   0.32126 
 Bq                   -3.98533   1.26466   0.95161 
 Bq                   -3.98249   0.9168    0.23121 
 Bq                   -3.98568   1.30814   1.04166 
 Bq                   -3.98214   0.87331   0.14115 
 Bq                   -3.98391   1.09073   0.59141 
 Bq                   -3.98409   1.22426   0.63798 
 Bq                   -3.98339   1.1373    0.45788 
 Bq                   -3.98445   1.26774   0.72803 
 Bq                   -3.98303   1.09381   0.36782 
 Bq                   -3.9848    1.31123   0.81808 
 Bq                   -3.98268   1.05033   0.27777 
 Bq                   -3.98516   1.35471   0.90813 
 Bq                   -3.98232   1.00685   0.18772 
 Bq                   -3.98551   1.39819   0.99818 
 Bq                   -3.98197   0.96336   0.09767 
 Bq                   -3.98374   1.18078   0.54793 
 Bq                   -3.98392   1.31431   0.59449 
 Bq                   -3.98321   1.22735   0.41439 
 Bq                   -3.98428   1.35779   0.68454 
 Bq                   -3.98286   1.18386   0.32434 
 Bq                   -3.98463   1.40128   0.7746 
 Bq                   -3.98251   1.14038   0.23429 
 Bq                   -3.98498   1.44476   0.86465 
 Bq                   -3.98215   1.0969    0.14424 
 Bq                   -3.98534   1.48824   0.9547 
 Bq                   -3.9818    1.05342   0.05419 
 Bq                   -3.98357   1.27083   0.50444 
 Bq                   -3.98375   1.40436   0.55101 
 Bq                   -3.98304   1.3174    0.37091 
 Bq                   -3.98411   1.44785   0.64106 
 Bq                   -3.98269   1.27392   0.28086 
 Bq                   -3.98446   1.49133   0.73111 
 Bq                   -3.98234   1.23043   0.19081 
 Bq                   -3.98481   1.53481   0.82116 
 Bq                   -3.98198   1.18695   0.10076 
 Bq                   -3.98517   1.57829   0.91121 
 Bq                   -3.98163   1.14347   0.01071 
 Bq                   -3.9834    1.36088   0.46096 
 Bq                   -3.98358   1.49441   0.50753 
 Bq                   -3.98287   1.40745   0.32743 
 Bq                   -3.98393   1.5379    0.59758 
 Bq                   -3.98252   1.36397   0.23738 
 Bq                   -3.98429   1.58138   0.68763 
 Bq                   -3.98216   1.32048   0.14733 
 Bq                   -3.98464   1.62486   0.77768 
 Bq                   -3.98181   1.277     0.05728 
 Bq                   -3.985     1.66835   0.86773 
 Bq                   -3.98146   1.23352  -0.03277 
 Bq                   -3.98323   1.45093   0.41748 
 Bq                   -3.98341   1.58447   0.46405 
 Bq                   -3.9827    1.4975    0.28395 
 Bq                   -3.98376   1.62795   0.5541 
 Bq                   -3.98235   1.45402   0.19389 
 Bq                   -3.98412   1.67143   0.64415 
 Bq                   -3.98199   1.41054   0.10384 
 Bq                   -3.98447   1.71491   0.7342 
 Bq                   -3.98164   1.36705   0.01379 
 Bq                   -3.98483   1.7584    0.82425 
 Bq                   -3.98129   1.32357  -0.07626 
 Bq                   -3.98306   1.54098   0.374 
 Bq                   -3.98324   1.67452   0.42056 
 Bq                   -3.98253   1.58755   0.24046 
 Bq                   -3.98359   1.718     0.51062 
 Bq                   -3.98218   1.54407   0.15041 
 Bq                   -3.98395   1.76148   0.60067 
 Bq                   -3.98182   1.50059   0.06036 
 Bq                   -3.9843    1.80497   0.69072 
 Bq                   -3.98147   1.4571   -0.02969 
 Bq                   -3.98465   1.84845   0.78077 
 Bq                   -3.98111   1.41362  -0.11974 
 Bq                   -3.98288   1.63104   0.33051 
 Bq                   -3.98307   1.76457   0.37708 
 Bq                   -3.98236   1.6776    0.19698 
 Bq                   -3.98342   1.80805   0.46713 
 Bq                   -3.98201   1.63412   0.10693 
 Bq                   -3.98378   1.85153   0.55718 
 Bq                   -3.98165   1.59064   0.01688 
 Bq                   -3.98413   1.89502   0.64723 
 Bq                   -3.9813    1.54716  -0.07317 
 Bq                   -3.98448   1.9385    0.73729 
 Bq                   -3.98094   1.50367  -0.16322 
 Bq                   -3.98271   1.72109   0.28703 
 Bq                   -3.9829    1.85462   0.3336 
 Bq                   -3.98219   1.76766   0.1535 
 Bq                   -3.98325   1.8981    0.42365 
 Bq                   -3.98183   1.72417   0.06345 
 Bq                   -3.9836    1.94159   0.5137 
 Bq                   -3.98148   1.68069  -0.0266 
 Bq                   -3.98396   1.98507   0.60375 
 Bq                   -3.98113   1.63721  -0.11665 
 Bq                   -3.98431   2.02855   0.6938 
 Bq                   -3.98077   1.59372  -0.2067 
 Bq                   -3.98254   1.81114   0.24355 
 Bq                   -3.98273   1.94467   0.29012 
 Bq                   -3.98202   1.85771   0.11002 
 Bq                   -3.98308   1.98815   0.38017 
 Bq                   -3.98166   1.81422   0.01997 
 Bq                   -3.98343   2.03164   0.47022 
 Bq                   -3.98131   1.77074  -0.07009 
 Bq                   -3.98379   2.07512   0.56027 
 Bq                   -3.98096   1.72726  -0.16014 
 Bq                   -3.98414   2.1186    0.65032 
 Bq                   -3.9806    1.68378  -0.25019 
 Bq                   -3.98237   1.90119   0.20007 
 Bq                   -3.98255   2.03472   0.24664 
 Bq                   -3.98185   1.94776   0.06653 
 Bq                   -3.98291   2.07821   0.33669 
 Bq                   -3.98149   1.90428  -0.02352 
 Bq                   -3.98326   2.12169   0.42674 
 Bq                   -3.98114   1.86079  -0.11357 
 Bq                   -3.98362   2.16517   0.51679 
 Bq                   -3.98078   1.81731  -0.20362 
 Bq                   -3.98397   2.20865   0.60684 
 Bq                   -3.98043   1.77383  -0.29367 
 Bq                   -3.9822    1.99124   0.15658 
 
 Symmetry turned off:
 Cannot cope with ghost atoms or with translation vectors.
 Stoichiometry    C22H14
 Framework group  C1[X(C22H14)]
 NUMDOF-- NAT=    36 NAtoms=   236
 Deg. of freedom     0
 Full point group                 C1      NOp   1
                          Input orientation:                          
 ---------------------------------------------------------------------
 Center     Atomic      Atomic             Coordinates (Angstroms)
 Number     Number       Type             X           Y           Z
 ---------------------------------------------------------------------
      1          6           0       -4.050056   -0.577186    0.813671
      2          1           0       -5.026380   -1.008273    1.002476
      3          6           0       -3.938155    0.661780    0.240088
      4          1           0       -4.825242    1.233889   -0.011130
      5          6           0       -2.676841    1.243325    0.005758
      6          6           0       -1.497412    0.505153    0.284825
      7          6           0       -1.650833   -0.733873    0.940403
      8          1           0       -0.771365   -1.273097    1.263375
      9          6           0       -2.889855   -1.262404    1.199431
     10          1           0       -2.968371   -2.212456    1.715268
     11          6           0       -2.577319    2.596370   -0.419293
     12          1           0       -3.487073    3.141224   -0.647406
     13          6           0       -1.374190    3.214790   -0.436403
     14          1           0       -1.299732    4.274202   -0.657814
     15          6           0       -0.171949    2.499409   -0.173459
     16          6           0       -0.204392    1.101844    0.019269
     17          6           0        1.051349    3.204256   -0.067622
     18          1           0        1.042734    4.281950   -0.189700
     19          6           0        2.194209    2.548745    0.257958
     20          1           0        3.116853    3.091285    0.433473
     21          6           0        2.221647    1.133656    0.293499
     22          6           0        1.048693    0.394553    0.030241
     23          6           0        3.448336    0.461463    0.557394
     24          1           0        4.309579    1.060605    0.833485
     25          6           0        3.542735   -0.885593    0.474946
     26          1           0        4.473147   -1.393970    0.703882
     27          6           0        2.449005   -1.647445   -0.019632
     28          6           0        1.215070   -1.005726   -0.301357
     29          6           0        0.253111   -1.743444   -1.021659
     30          1           0       -0.654136   -1.253505   -1.346285
     31          6           0        0.449419   -3.062860   -1.341378
     32          1           0       -0.308316   -3.594431   -1.905406
     33          6           0        1.625173   -3.720797   -0.955254
     34          1           0        1.767005   -4.768740   -1.192702
     35          6           0        2.610987   -3.014418   -0.318305
     36          1           0        3.552561   -3.490281   -0.064637
     37          0           0       -3.983508    0.152902    0.489014
     38          0           0       -3.985278    0.370316    0.939267
     39          0           0       -3.985461    0.503850    0.985836
     40          0           0       -3.984753    0.416884    0.805734
     41          0           0       -3.985815    0.547332    1.075886
     42          0           0       -3.984399    0.373402    0.715684
     43          0           0       -3.986169    0.590815    1.165937
     44          0           0       -3.984045    0.329919    0.625633
     45          0           0       -3.986523    0.634298    1.255988
     46          0           0       -3.983691    0.286436    0.535582
     47          0           0       -3.986877    0.677781    1.346038
     48          0           0       -3.983337    0.242953    0.445531
     49          0           0       -3.985107    0.460367    0.895785
     50          0           0       -3.985290    0.593901    0.942353
     51          0           0       -3.984582    0.506936    0.762252
     52          0           0       -3.985644    0.637384    1.032404
     53          0           0       -3.984228    0.463453    0.672201
     54          0           0       -3.985998    0.680867    1.122455
     55          0           0       -3.983874    0.419970    0.582150
     56          0           0       -3.986352    0.724349    1.212505
     57          0           0       -3.983520    0.376487    0.492100
     58          0           0       -3.986706    0.767832    1.302556
     59          0           0       -3.983166    0.333005    0.402049
     60          0           0       -3.984936    0.550418    0.852303
     61          0           0       -3.985119    0.683952    0.898871
     62          0           0       -3.984411    0.596987    0.718770
     63          0           0       -3.985473    0.727435    0.988922
     64          0           0       -3.984057    0.553504    0.628719
     65          0           0       -3.985827    0.770918    1.078972
     66          0           0       -3.983703    0.510022    0.538668
     67          0           0       -3.986181    0.814401    1.169023
     68          0           0       -3.983349    0.466539    0.448617
     69          0           0       -3.986535    0.857883    1.259074
     70          0           0       -3.982995    0.423056    0.358567
     71          0           0       -3.984765    0.640470    0.808820
     72          0           0       -3.984948    0.774004    0.855389
     73          0           0       -3.984240    0.687038    0.675287
     74          0           0       -3.985302    0.817487    0.945439
     75          0           0       -3.983886    0.643556    0.585236
     76          0           0       -3.985656    0.860969    1.035490
     77          0           0       -3.983532    0.600073    0.495186
     78          0           0       -3.986010    0.904452    1.125541
     79          0           0       -3.983178    0.556590    0.405135
     80          0           0       -3.986364    0.947935    1.215591
     81          0           0       -3.982824    0.513108    0.315084
     82          0           0       -3.984594    0.730521    0.765338
     83          0           0       -3.984777    0.864055    0.811906
     84          0           0       -3.984069    0.777090    0.631805
     85          0           0       -3.985131    0.907538    0.901957
     86          0           0       -3.983715    0.733607    0.541754
     87          0           0       -3.985485    0.951021    0.992008
     88          0           0       -3.983361    0.690124    0.451703
     89          0           0       -3.985839    0.994503    1.082058
     90          0           0       -3.983007    0.646642    0.361653
     91          0           0       -3.986193    1.037986    1.172109
     92          0           0       -3.982653    0.603159    0.271602
     93          0           0       -3.984423    0.820573    0.721855
     94          0           0       -3.984606    0.954107    0.768424
     95          0           0       -3.983898    0.867141    0.588322
     96          0           0       -3.984960    0.997589    0.858474
     97          0           0       -3.983544    0.823658    0.498272
     98          0           0       -3.985314    1.041072    0.948525
     99          0           0       -3.983190    0.780176    0.408221
    100          0           0       -3.985668    1.084555    1.038576
    101          0           0       -3.982836    0.736693    0.318170
    102          0           0       -3.986022    1.128038    1.128627
    103          0           0       -3.982482    0.693210    0.228120
    104          0           0       -3.984252    0.910624    0.678373
    105          0           0       -3.984435    1.044158    0.724941
    106          0           0       -3.983727    0.957193    0.544840
    107          0           0       -3.984789    1.087641    0.814992
    108          0           0       -3.983373    0.913710    0.454789
    109          0           0       -3.985143    1.131123    0.905043
    110          0           0       -3.983019    0.870227    0.364739
    111          0           0       -3.985497    1.174606    0.995093
    112          0           0       -3.982665    0.826744    0.274688
    113          0           0       -3.985851    1.218089    1.085144
    114          0           0       -3.982311    0.783262    0.184637
    115          0           0       -3.984081    1.000675    0.634891
    116          0           0       -3.984264    1.134209    0.681459
    117          0           0       -3.983556    1.047244    0.501358
    118          0           0       -3.984618    1.177692    0.771510
    119          0           0       -3.983202    1.003761    0.411307
    120          0           0       -3.984972    1.221175    0.861560
    121          0           0       -3.982848    0.960279    0.321256
    122          0           0       -3.985326    1.264658    0.951611
    123          0           0       -3.982494    0.916796    0.231206
    124          0           0       -3.985680    1.308140    1.041662
    125          0           0       -3.982140    0.873313    0.141155
    126          0           0       -3.983910    1.090727    0.591408
    127          0           0       -3.984093    1.224261    0.637977
    128          0           0       -3.983385    1.137295    0.457875
    129          0           0       -3.984447    1.267744    0.728027
    130          0           0       -3.983031    1.093813    0.367825
    131          0           0       -3.984801    1.311226    0.818078
    132          0           0       -3.982677    1.050330    0.277774
    133          0           0       -3.985155    1.354709    0.908129
    134          0           0       -3.982323    1.006847    0.187723
    135          0           0       -3.985509    1.398192    0.998179
    136          0           0       -3.981969    0.963365    0.097672
    137          0           0       -3.983739    1.180778    0.547926
    138          0           0       -3.983922    1.314312    0.594494
    139          0           0       -3.983214    1.227347    0.414393
    140          0           0       -3.984276    1.357795    0.684545
    141          0           0       -3.982860    1.183864    0.324342
    142          0           0       -3.984630    1.401278    0.774596
    143          0           0       -3.982506    1.140381    0.234291
    144          0           0       -3.984984    1.444760    0.864646
    145          0           0       -3.982152    1.096899    0.144241
    146          0           0       -3.985338    1.488243    0.954697
    147          0           0       -3.981798    1.053416    0.054190
    148          0           0       -3.983568    1.270829    0.504444
    149          0           0       -3.983751    1.404364    0.551012
    150          0           0       -3.983043    1.317398    0.370910
    151          0           0       -3.984105    1.447846    0.641063
    152          0           0       -3.982689    1.273915    0.280860
    153          0           0       -3.984459    1.491329    0.731113
    154          0           0       -3.982335    1.230433    0.190809
    155          0           0       -3.984813    1.534812    0.821164
    156          0           0       -3.981981    1.186950    0.100758
    157          0           0       -3.985167    1.578294    0.911215
    158          0           0       -3.981627    1.143467    0.010708
    159          0           0       -3.983397    1.360881    0.460961
    160          0           0       -3.983580    1.494415    0.507529
    161          0           0       -3.982872    1.407450    0.327428
    162          0           0       -3.983934    1.537898    0.597580
    163          0           0       -3.982518    1.363967    0.237377
    164          0           0       -3.984288    1.581380    0.687631
    165          0           0       -3.982164    1.320484    0.147327
    166          0           0       -3.984642    1.624863    0.777682
    167          0           0       -3.981810    1.277001    0.057276
    168          0           0       -3.984996    1.668346    0.867732
    169          0           0       -3.981456    1.233519   -0.032775
    170          0           0       -3.983226    1.450932    0.417479
    171          0           0       -3.983409    1.584466    0.464047
    172          0           0       -3.982701    1.497501    0.283946
    173          0           0       -3.983763    1.627949    0.554098
    174          0           0       -3.982347    1.454018    0.193895
    175          0           0       -3.984117    1.671432    0.644148
    176          0           0       -3.981993    1.410536    0.103844
    177          0           0       -3.984471    1.714915    0.734199
    178          0           0       -3.981639    1.367053    0.013794
    179          0           0       -3.984825    1.758397    0.824250
    180          0           0       -3.981285    1.323570   -0.076257
    181          0           0       -3.983055    1.540984    0.373996
    182          0           0       -3.983238    1.674518    0.420565
    183          0           0       -3.982530    1.587552    0.240463
    184          0           0       -3.983592    1.718001    0.510615
    185          0           0       -3.982176    1.544070    0.150413
    186          0           0       -3.983946    1.761483    0.600666
    187          0           0       -3.981822    1.500587    0.060362
    188          0           0       -3.984300    1.804966    0.690717
    189          0           0       -3.981468    1.457104   -0.029689
    190          0           0       -3.984654    1.848449    0.780767
    191          0           0       -3.981114    1.413621   -0.119739
    192          0           0       -3.982884    1.631035    0.330514
    193          0           0       -3.983068    1.764569    0.377082
    194          0           0       -3.982360    1.677604    0.196981
    195          0           0       -3.983422    1.808052    0.467133
    196          0           0       -3.982006    1.634121    0.106930
    197          0           0       -3.983776    1.851535    0.557184
    198          0           0       -3.981652    1.590638    0.016880
    199          0           0       -3.984130    1.895017    0.647234
    200          0           0       -3.981298    1.547156   -0.073171
    201          0           0       -3.984484    1.938500    0.737285
    202          0           0       -3.980944    1.503673   -0.163222
    203          0           0       -3.982714    1.721086    0.287032
    204          0           0       -3.982897    1.854621    0.333600
    205          0           0       -3.982189    1.767655    0.153499
    206          0           0       -3.983251    1.898103    0.423651
    207          0           0       -3.981835    1.724172    0.063448
    208          0           0       -3.983605    1.941586    0.513701
    209          0           0       -3.981481    1.680690   -0.026603
    210          0           0       -3.983959    1.985069    0.603752
    211          0           0       -3.981127    1.637207   -0.116654
    212          0           0       -3.984313    2.028551    0.693803
    213          0           0       -3.980773    1.593724   -0.206704
    214          0           0       -3.982543    1.811138    0.243549
    215          0           0       -3.982726    1.944672    0.290118
    216          0           0       -3.982018    1.857707    0.110016
    217          0           0       -3.983080    1.988155    0.380168
    218          0           0       -3.981664    1.814224    0.019965
    219          0           0       -3.983434    2.031637    0.470219
    220          0           0       -3.981310    1.770741   -0.070085
    221          0           0       -3.983788    2.075120    0.560270
    222          0           0       -3.980956    1.727258   -0.160136
    223          0           0       -3.984142    2.118603    0.650320
    224          0           0       -3.980602    1.683776   -0.250187
    225          0           0       -3.982372    1.901189    0.200067
    226          0           0       -3.982555    2.034723    0.246635
    227          0           0       -3.981847    1.947758    0.066534
    228          0           0       -3.982909    2.078206    0.336686
    229          0           0       -3.981493    1.904275   -0.023517
    230          0           0       -3.983263    2.121689    0.426737
    231          0           0       -3.981139    1.860792   -0.113568
    232          0           0       -3.983617    2.165172    0.516787
    233          0           0       -3.980785    1.817310   -0.203618
    234          0           0       -3.983971    2.208654    0.606838
    235          0           0       -3.980431    1.773827   -0.293669
    236          0           0       -3.982201    1.991241    0.156584
 ---------------------------------------------------------------------
 Rotational constants (GHZ):      0.4529074      0.2836956      0.1879557
 Standard basis: 6-311+G(d,p) (5D, 7F)
 Warning:  center  37 has no basis functions!
 Warning:  center  38 has no basis functions!
 Warning:  center  39 has no basis functions!
 Warning:  center  40 has no basis functions!
 Warning:  center  41 has no basis functions!
 Warning:  center  42 has no basis functions!
 Warning:  center  43 has no basis functions!
 Warning:  center  44 has no basis functions!
 Warning:  center  45 has no basis functions!
 Warning:  center  46 has no basis functions!
 Warning:  center  47 has no basis functions!
 Warning:  center  48 has no basis functions!
 Warning:  center  49 has no basis functions!
 Warning:  center  50 has no basis functions!
 Warning:  center  51 has no basis functions!
 Warning:  center  52 has no basis functions!
 Warning:  center  53 has no basis functions!
 Warning:  center  54 has no basis functions!
 Warning:  center  55 has no basis functions!
 Warning:  center  56 has no basis functions!
 Warning:  center  57 has no basis functions!
 Warning:  center  58 has no basis functions!
 Warning:  center  59 has no basis functions!
 Warning:  center  60 has no basis functions!
 Warning:  center  61 has no basis functions!
 Warning:  center  62 has no basis functions!
 Warning:  center  63 has no basis functions!
 Warning:  center  64 has no basis functions!
 Warning:  center  65 has no basis functions!
 Warning:  center  66 has no basis functions!
 Warning:  center  67 has no basis functions!
 Warning:  center  68 has no basis functions!
 Warning:  center  69 has no basis functions!
 Warning:  center  70 has no basis functions!
 Warning:  center  71 has no basis functions!
 Warning:  center  72 has no basis functions!
 Warning:  center  73 has no basis functions!
 Warning:  center  74 has no basis functions!
 Warning:  center  75 has no basis functions!
 Warning:  center  76 has no basis functions!
 Warning:  center  77 has no basis functions!
 Warning:  center  78 has no basis functions!
 Warning:  center  79 has no basis functions!
 Warning:  center  80 has no basis functions!
 Warning:  center  81 has no basis functions!
 Warning:  center  82 has no basis functions!
 Warning:  center  83 has no basis functions!
 Warning:  center  84 has no basis functions!
 Warning:  center  85 has no basis functions!
 Warning:  center  86 has no basis functions!
 Warning:  center  87 has no basis functions!
 Warning:  center  88 has no basis functions!
 Warning:  center  89 has no basis functions!
 Warning:  center  90 has no basis functions!
 Warning:  center  91 has no basis functions!
 Warning:  center  92 has no basis functions!
 Warning:  center  93 has no basis functions!
 Warning:  center  94 has no basis functions!
 Warning:  center  95 has no basis functions!
 Warning:  center  96 has no basis functions!
 Warning:  center  97 has no basis functions!
 Warning:  center  98 has no basis functions!
 Warning:  center  99 has no basis functions!
 Warning:  center 100 has no basis functions!
 Warning:  center 101 has no basis functions!
 Warning:  center 102 has no basis functions!
 Warning:  center 103 has no basis functions!
 Warning:  center 104 has no basis functions!
 Warning:  center 105 has no basis functions!
 Warning:  center 106 has no basis functions!
 Warning:  center 107 has no basis functions!
 Warning:  center 108 has no basis functions!
 Warning:  center 109 has no basis functions!
 Warning:  center 110 has no basis functions!
 Warning:  center 111 has no basis functions!
 Warning:  center 112 has no basis functions!
 Warning:  center 113 has no basis functions!
 Warning:  center 114 has no basis functions!
 Warning:  center 115 has no basis functions!
 Warning:  center 116 has no basis functions!
 Warning:  center 117 has no basis functions!
 Warning:  center 118 has no basis functions!
 Warning:  center 119 has no basis functions!
 Warning:  center 120 has no basis functions!
 Warning:  center 121 has no basis functions!
 Warning:  center 122 has no basis functions!
 Warning:  center 123 has no basis functions!
 Warning:  center 124 has no basis functions!
 Warning:  center 125 has no basis functions!
 Warning:  center 126 has no basis functions!
 Warning:  center 127 has no basis functions!
 Warning:  center 128 has no basis functions!
 Warning:  center 129 has no basis functions!
 Warning:  center 130 has no basis functions!
 Warning:  center 131 has no basis functions!
 Warning:  center 132 has no basis functions!
 Warning:  center 133 has no basis functions!
 Warning:  center 134 has no basis functions!
 Warning:  center 135 has no basis functions!
 Warning:  center 136 has no basis functions!
 Warning:  center 137 has no basis functions!
 Warning:  center 138 has no basis functions!
 Warning:  center 139 has no basis functions!
 Warning:  center 140 has no basis functions!
 Warning:  center 141 has no basis functions!
 Warning:  center 142 has no basis functions!
 Warning:  center 143 has no basis functions!
 Warning:  center 144 has no basis functions!
 Warning:  center 145 has no basis functions!
 Warning:  center 146 has no basis functions!
 Warning:  center 147 has no basis functions!
 Warning:  center 148 has no basis functions!
 Warning:  center 149 has no basis functions!
 Warning:  center 150 has no basis functions!
 Warning:  center 151 has no basis functions!
 Warning:  center 152 has no basis functions!
 Warning:  center 153 has no basis functions!
 Warning:  center 154 has no basis functions!
 Warning:  center 155 has no basis functions!
 Warning:  center 156 has no basis functions!
 Warning:  center 157 has no basis functions!
 Warning:  center 158 has no basis functions!
 Warning:  center 159 has no basis functions!
 Warning:  center 160 has no basis functions!
 Warning:  center 161 has no basis functions!
 Warning:  center 162 has no basis functions!
 Warning:  center 163 has no basis functions!
 Warning:  center 164 has no basis functions!
 Warning:  center 165 has no basis functions!
 Warning:  center 166 has no basis functions!
 Warning:  center 167 has no basis functions!
 Warning:  center 168 has no basis functions!
 Warning:  center 169 has no basis functions!
 Warning:  center 170 has no basis functions!
 Warning:  center 171 has no basis functions!
 Warning:  center 172 has no basis functions!
 Warning:  center 173 has no basis functions!
 Warning:  center 174 has no basis functions!
 Warning:  center 175 has no basis functions!
 Warning:  center 176 has no basis functions!
 Warning:  center 177 has no basis functions!
 Warning:  center 178 has no basis functions!
 Warning:  center 179 has no basis functions!
 Warning:  center 180 has no basis functions!
 Warning:  center 181 has no basis functions!
 Warning:  center 182 has no basis functions!
 Warning:  center 183 has no basis functions!
 Warning:  center 184 has no basis functions!
 Warning:  center 185 has no basis functions!
 Warning:  center 186 has no basis functions!
 Warning:  center 187 has no basis functions!
 Warning:  center 188 has no basis functions!
 Warning:  center 189 has no basis functions!
 Warning:  center 190 has no basis functions!
 Warning:  center 191 has no basis functions!
 Warning:  center 192 has no basis functions!
 Warning:  center 193 has no basis functions!
 Warning:  center 194 has no basis functions!
 Warning:  center 195 has no basis functions!
 Warning:  center 196 has no basis functions!
 Warning:  center 197 has no basis functions!
 Warning:  center 198 has no basis functions!
 Warning:  center 199 has no basis functions!
 Warning:  center 200 has no basis functions!
 Warning:  center 201 has no basis functions!
 Warning:  center 202 has no basis functions!
 Warning:  center 203 has no basis functions!
 Warning:  center 204 has no basis functions!
 Warning:  center 205 has no basis functions!
 Warning:  center 206 has no basis functions!
 Warning:  center 207 has no basis functions!
 Warning:  center 208 has no basis functions!
 Warning:  center 209 has no basis functions!
 Warning:  center 210 has no basis functions!
 Warning:  center 211 has no basis functions!
 Warning:  center 212 has no basis functions!
 Warning:  center 213 has no basis functions!
 Warning:  center 214 has no basis functions!
 Warning:  center 215 has no basis functions!
 Warning:  center 216 has no basis functions!
 Warning:  center 217 has no basis functions!
 Warning:  center 218 has no basis functions!
 Warning:  center 219 has no basis functions!
 Warning:  center 220 has no basis functions!
 Warning:  center 221 has no basis functions!
 Warning:  center 222 has no basis functions!
 Warning:  center 223 has no basis functions!
 Warning:  center 224 has no basis functions!
 Warning:  center 225 has no basis functions!
 Warning:  center 226 has no basis functions!
 Warning:  center 227 has no basis functions!
 Warning:  center 228 has no basis functions!
 Warning:  center 229 has no basis functions!
 Warning:  center 230 has no basis functions!
 Warning:  center 231 has no basis functions!
 Warning:  center 232 has no basis functions!
 Warning:  center 233 has no basis functions!
 Warning:  center 234 has no basis functions!
 Warning:  center 235 has no basis functions!
 Warning:  center 236 has no basis functions!
   568 basis functions,   904 primitive gaussians,   590 cartesian basis functions
    73 alpha electrons       73 beta electrons
       nuclear repulsion energy      1610.9176155625 Hartrees.
 NAtoms=  236 NActive=  236 NUniq=  236 SFac= 1.00D+00 NAtFMM=   60 NAOKFM=T Big=T
 Integral buffers will be    131072 words long.
 Raffenetti 2 integral format.
 Two-electron integral symmetry is turned off.
 One-electron integrals computed using PRISM.
 NBasis=   568 RedAO= T EigKep=  1.78D-06  NBF=   568
 NBsUse=   556 1.00D-06 EigRej=  9.09D-07 NBFU=   556
 ExpMin= 4.38D-02 ExpMax= 4.56D+03 ExpMxC= 6.82D+02 IAcc=2 IRadAn=         4 AccDes= 0.00D+00
 Harris functional with IExCor=  402 and IRadAn=       4 diagonalized for initial guess.
 HarFok:  IExCor=  402 AccDes= 0.00D+00 IRadAn=         4 IDoV= 1 UseB2=F ITyADJ=14
 ICtDFT=  3500011 ScaDFX=  1.000000  1.000000  1.000000  1.000000
 FoFCou: FMM=F IPFlag=           0 FMFlag=      100000 FMFlg1=        2001
         NFxFlg=           0 DoJE=T BraDBF=F KetDBF=T FulRan=T
         wScrn=  0.000000 ICntrl=     500 IOpCl=  0 I1Cent=   200000004 NGrid=           0
         NMat0=    1 NMatS0=      1 NMatT0=    0 NMatD0=    1 NMtDS0=    0 NMtDT0=    0
 Symmetry not used in FoFCou.
 Requested convergence on RMS density matrix=1.00D-08 within 128 cycles.
 Requested convergence on MAX density matrix=1.00D-06.
 Requested convergence on             energy=1.00D-06.
 No special actions if energy rises.
 SCF Done:  E(RB3LYP) =  -847.003289847     A.U. after   15 cycles
            NFock= 15  Conv=0.76D-08     -V/T= 2.0040
 DoSCS=F DFT=T ScalE2(SS,OS)=  1.000000  1.000000
 Range of M.O.s used for correlation:     1   556
 NBasis=   568 NAE=    73 NBE=    73 NFC=     0 NFV=     0
 NROrb=    556 NOA=    73 NOB=    73 NVA=   483 NVB=   483

 **** Warning!!: The largest alpha MO coefficient is  0.10971036D+03

          Differentiating once with respect to magnetic field using GIAOs.
          Electric field/nuclear overlap derivatives assumed to be zero.
 FoFCou: FMM=F IPFlag=           0 FMFlag=      100000 FMFlg1=        2001
         NFxFlg=           0 DoJE=F BraDBF=F KetDBF=T FulRan=T
         wScrn=  0.000000 ICntrl=    6100 IOpCl=  0 I1Cent=           7 NGrid=         236
         NMat0=    1 NMatS0=      1 NMatT0=    0 NMatD0=    1 NMtDS0=    0 NMtDT0=    0
 Symmetry not used in FoFCou.
 FoFJK:  IHMeth= 1 ICntrl=    6127 DoSepK=F KAlg= 0 I1Cent=   0 FoldK=F
 IRaf=         1 NMat=   1 IRICut=       1 DoRegI=T DoRafI=F ISym2E= 0.
          There are     3 degrees of freedom in the 1st order CPHF.  IDoFFX=0 NUNeed=     3.
      3 vectors produced by pass  0 Test12= 1.18D-12 3.33D-08 XBig12= 2.07D+03 9.18D+00.
 AX will form     3 AO Fock derivatives at one time.
      3 vectors produced by pass  1 Test12= 1.18D-12 3.33D-08 XBig12= 3.56D+00 8.03D-01.
      3 vectors produced by pass  2 Test12= 1.18D-12 3.33D-08 XBig12= 2.10D-02 6.92D-02.
      3 vectors produced by pass  3 Test12= 1.18D-12 3.33D-08 XBig12= 5.45D-05 1.89D-03.
      3 vectors produced by pass  4 Test12= 1.18D-12 3.33D-08 XBig12= 1.20D-07 7.79D-05.
      3 vectors produced by pass  5 Test12= 1.18D-12 3.33D-08 XBig12= 4.02D-10 4.73D-06.
      3 vectors produced by pass  6 Test12= 1.18D-12 3.33D-08 XBig12= 1.32D-12 2.61D-07.
 InvSVY:  IOpt=1 It=  1 EMax= 7.11D-15
 Solved reduced A of dimension    21 with     3 vectors.
 Calculating GIAO nuclear magnetic shielding tensors.
 SCF GIAO Magnetic shielding tensor (ppm):
      1  C    Isotropic =    53.8139   Anisotropy =   178.0260
   XX=   -41.4327   YX=   -32.3458   ZX=    10.0287
   XY=   -28.3572   YY=    59.0527   ZY=    55.1899
   XZ=    13.1759   YZ=    58.7550   ZZ=   143.8218
   Eigenvalues:   -53.8775    42.8214   172.4979
      2  H    Isotropic =    24.3095   Anisotropy =     4.8536
   XX=    25.5771   YX=    -1.0289   ZX=     0.5661
   XY=    -0.7431   YY=    26.1829   ZY=    -2.3306
   XZ=    -0.1707   YZ=    -2.4411   ZZ=    21.1687
   Eigenvalues:    20.2108    25.1725    27.5453
      3  C    Isotropic =    51.4055   Anisotropy =   157.8639
   XX=   -31.5399   YX=    38.5015   ZX=   -17.9316
   XY=    34.3519   YY=    49.9437   ZY=    49.6392
   XZ=    -9.8383   YZ=    44.6006   ZZ=   135.8127
   Eigenvalues:   -50.5747    48.1432   156.6481
      4  H    Isotropic =    23.8290   Anisotropy =     7.1838
   XX=    25.3635   YX=     1.8486   ZX=    -0.3559
   XY=     1.9656   YY=    26.4581   ZY=    -2.4103
   XZ=    -1.2941   YZ=    -2.6614   ZZ=    19.6654
   Eigenvalues:    18.8176    24.0511    28.6182
      5  C    Isotropic =    46.0697   Anisotropy =   207.6751
   XX=   -19.2123   YX=    -4.8852   ZX=    -1.6475
   XY=     2.8938   YY=    -2.9860   ZY=    66.5656
   XZ=     2.5356   YZ=    67.9144   ZZ=   160.4073
   Eigenvalues:   -27.2455   -19.0652   184.5197
      6  C    Isotropic =    47.5218   Anisotropy =   196.9389
   XX=   -28.1552   YX=    -2.7889   ZX=    12.0660
   XY=   -14.3886   YY=    21.2063   ZY=    74.2521
   XZ=   -18.6356   YZ=    61.1113   ZZ=   149.5144
   Eigenvalues:   -30.2925    -5.9564   178.8144
      7  C    Isotropic =    49.3915   Anisotropy =   179.8333
   XX=   -12.5211   YX=    28.7048   ZX=   -24.6745
   XY=    31.5123   YY=    29.7000   ZY=    77.7459
   XZ=   -40.0095   YZ=    65.3072   ZZ=   130.9956
   Eigenvalues:   -52.1299    31.0240   169.2804
      8  H    Isotropic =    23.1586   Anisotropy =    13.5525
   XX=    28.5711   YX=     1.5482   ZX=    -3.6986
   XY=     3.2466   YY=    22.7592   ZY=    -2.1157
   XZ=    -8.3753   YZ=    -1.0821   ZZ=    18.1456
   Eigenvalues:    15.3521    21.9301    32.1936
      9  C    Isotropic =    55.1460   Anisotropy =   174.7426
   XX=    46.7071   YX=    -2.6162   ZX=    -2.8420
   XY=     0.6223   YY=    -1.6258   ZY=    92.8272
   XZ=     0.5159   YZ=    95.6598   ZZ=   120.3568
   Eigenvalues:   -52.8932    46.6901   171.6411
     10  H    Isotropic =    24.6278   Anisotropy =     7.1815
   XX=    29.1040   YX=     0.1399   ZX=    -0.3694
   XY=     0.3642   YY=    23.4778   ZY=    -1.0805
   XZ=    -2.4493   YZ=    -2.9465   ZZ=    21.3016
   Eigenvalues:    19.9703    24.4977    29.4155
     11  C    Isotropic =    51.5607   Anisotropy =   151.2142
   XX=     2.1639   YX=    40.9287   ZX=   -26.0048
   XY=    49.9131   YY=    12.2331   ZY=    42.1342
   XZ=   -15.6145   YZ=    38.6614   ZZ=   140.2851
   Eigenvalues:   -48.1951    50.5071   152.3701
     12  H    Isotropic =    23.8537   Anisotropy =     7.3815
   XX=    25.9672   YX=     2.3738   ZX=    -0.2390
   XY=     2.4320   YY=    26.3975   ZY=    -1.8291
   XZ=     0.3529   YZ=    -1.7731   ZZ=    19.1964
   Eigenvalues:    18.7149    24.0714    28.7747
     13  C    Isotropic =    52.8653   Anisotropy =   147.4265
   XX=    51.2944   YX=    19.9221   ZX=   -13.4678
   XY=    11.5478   YY=   -34.0176   ZY=    42.5079
   XZ=    -9.2241   YZ=    40.0716   ZZ=   141.3192
   Eigenvalues:   -46.5152    53.9616   151.1497
     14  H    Isotropic =    24.0156   Anisotropy =     7.3485
   XX=    28.6644   YX=     0.6281   ZX=     1.0808
   XY=     0.5926   YY=    24.4325   ZY=    -1.0823
   XZ=     1.6846   YZ=    -0.3842   ZZ=    18.9500
   Eigenvalues:    18.6430    24.4892    28.9146
     15  C    Isotropic =    46.2221   Anisotropy =   203.9048
   XX=   -27.2215   YX=    -0.0442   ZX=   -28.9124
   XY=     4.6427   YY=   -10.5571   ZY=    28.3830
   XZ=   -10.2704   YZ=    26.7376   ZZ=   176.4448
   Eigenvalues:   -30.5512   -12.9411   182.1586
     16  C    Isotropic =    51.9375   Anisotropy =   188.2004
   XX=   -19.4441   YX=     5.5046   ZX=    15.7858
   XY=    -8.3874   YY=     2.4863   ZY=    22.9264
   XZ=   -50.6243   YZ=    23.3340   ZZ=   172.7704
   Eigenvalues:   -21.0294    -0.5625   177.4045
     17  C    Isotropic =    51.9482   Anisotropy =   149.1264
   XX=    50.7296   YX=   -23.9353   ZX=   -18.4207
   XY=   -16.7271   YY=   -41.8764   ZY=    17.8662
   XZ=   -14.3278   YZ=    11.4871   ZZ=   146.9915
   Eigenvalues:   -46.7796    51.2584   151.3658
     18  H    Isotropic =    24.0122   Anisotropy =     7.5163
   XX=    28.5811   YX=    -0.0866   ZX=     1.5071
   XY=    -0.2466   YY=    24.3342   ZY=    -0.7657
   XZ=     2.5088   YZ=    -1.5208   ZZ=    19.1214
   Eigenvalues:    18.5094    24.5041    29.0231
     19  C    Isotropic =    51.7356   Anisotropy =   148.5924
   XX=     2.4559   YX=   -45.6913   ZX=   -31.2531
   XY=   -53.4448   YY=     7.4698   ZY=    -1.8888
   XZ=   -23.5601   YZ=    -1.2765   ZZ=   145.2810
   Eigenvalues:   -46.9894    51.3989   150.7972
     20  H    Isotropic =    23.9071   Anisotropy =     7.6651
   XX=    25.5796   YX=    -2.0226   ZX=     1.4905
   XY=    -1.9998   YY=    27.3706   ZY=    -0.5164
   XZ=     2.7276   YZ=    -1.1179   ZZ=    18.7711
   Eigenvalues:    18.1643    24.5398    29.0172
     21  C    Isotropic =    45.9767   Anisotropy =   203.9316
   XX=   -16.2108   YX=    13.1802   ZX=   -44.5913
   XY=     6.5714   YY=   -20.6329   ZY=     0.0949
   XZ=   -28.8984   YZ=   -13.0883   ZZ=   174.7736
   Eigenvalues:   -30.5796   -13.4215   181.9311
     22  C    Isotropic =    52.0450   Anisotropy =   188.1157
   XX=    -0.0787   YX=     2.5023   ZX=   -16.3451
   XY=    18.9327   YY=   -14.4798   ZY=   -34.4335
   XZ=   -50.6032   YZ=    19.9104   ZZ=   170.6934
   Eigenvalues:   -20.7705    -0.5500   177.4554
     23  C    Isotropic =    53.2392   Anisotropy =   146.7412
   XX=   -22.0674   YX=   -32.0012   ZX=   -49.4857
   XY=   -23.2043   YY=    44.3661   ZY=   -15.6400
   XZ=   -43.8090   YZ=   -20.2525   ZZ=   137.4189
   Eigenvalues:   -45.6776    54.3286   151.0667
     24  H    Isotropic =    23.8249   Anisotropy =     7.5289
   XX=    25.1073   YX=    -1.7330   ZX=     1.5380
   XY=    -1.5944   YY=    28.0047   ZY=     0.0879
   XZ=     1.2557   YZ=    -0.8283   ZZ=    18.3628
   Eigenvalues:    18.0848    24.5458    28.8442
     25  C    Isotropic =    51.4969   Anisotropy =   150.1066
   XX=   -28.4915   YX=    33.9684   ZX=   -52.3137
   XY=    22.0311   YY=    46.6072   ZY=    -3.8075
   XZ=   -44.5594   YZ=   -10.6355   ZZ=   136.3748
   Eigenvalues:   -48.3857    51.3083   151.5679
     26  H    Isotropic =    23.7431   Anisotropy =     7.4052
   XX=    24.0663   YX=     1.1141   ZX=     1.9989
   XY=     0.9693   YY=    28.1000   ZY=     1.6568
   XZ=     2.0795   YZ=     0.8886   ZZ=    19.0630
   Eigenvalues:    18.2615    24.2880    28.6799
     27  C    Isotropic =    45.8108   Anisotropy =   207.2710
   XX=    -2.7702   YX=    13.7697   ZX=   -61.4651
   XY=     6.5593   YY=   -12.0335   ZY=   -41.6456
   XZ=   -62.6381   YZ=   -44.9232   ZZ=   152.2361
   Eigenvalues:   -28.0803   -18.4787   183.9915
     28  C    Isotropic =    47.8398   Anisotropy =   197.2870
   XX=    19.6900   YX=    14.4398   ZX=   -60.5682
   XY=    28.5650   YY=   -19.3566   ZY=   -56.7015
   XZ=   -63.1331   YZ=   -24.4782   ZZ=   143.1859
   Eigenvalues:   -30.5979    -5.2472   179.3644
     29  C    Isotropic =    49.3441   Anisotropy =   179.7793
   XX=    -3.4110   YX=    38.3775   ZX=   -80.8875
   XY=    36.1252   YY=    25.9805   ZY=   -23.7573
   XZ=   -78.1065   YZ=    -3.9802   ZZ=   125.4627
   Eigenvalues:   -51.6645    30.4997   169.1970
     30  H    Isotropic =    23.1387   Anisotropy =    13.3222
   XX=    22.4354   YX=    -0.7013   ZX=    -0.2375
   XY=    -2.1539   YY=    28.3546   ZY=     4.5555
   XZ=    -3.4181   YZ=     8.3231   ZZ=    18.6259
   Eigenvalues:    15.2751    22.1208    32.0201
     31  C    Isotropic =    55.4410   Anisotropy =   174.9390
   XX=    17.1871   YX=   -14.0890   ZX=   -84.0024
   XY=   -17.9030   YY=    37.4745   ZY=   -50.3662
   XZ=   -84.6557   YZ=   -54.8325   ZZ=   111.6615
   Eigenvalues:   -51.9248    46.1808   172.0670
     32  H    Isotropic =    24.5337   Anisotropy =     7.2554
   XX=    24.6185   YX=    -2.5264   ZX=     0.7632
   XY=    -2.7385   YY=    27.4630   ZY=     1.0335
   XZ=     1.1913   YZ=     3.7573   ZZ=    21.5194
   Eigenvalues:    19.8987    24.3316    29.3706
     33  C    Isotropic =    53.1814   Anisotropy =   179.0596
   XX=    60.9231   YX=    35.2256   ZX=   -42.9515
   XY=    32.0226   YY=   -38.1801   ZY=   -45.5652
   XZ=   -44.2248   YZ=   -50.7831   ZZ=   136.8014
   Eigenvalues:   -55.1197    42.1095   172.5545
     34  H    Isotropic =    24.2825   Anisotropy =     5.1861
   XX=    26.7643   YX=    -0.0934   ZX=     2.5955
   XY=    -0.2993   YY=    24.8157   ZY=     0.8589
   XZ=     2.3715   YZ=     1.4580   ZZ=    21.2676
   Eigenvalues:    20.0339    25.0737    27.7399
     35  C    Isotropic =    51.5295   Anisotropy =   155.1748
   XX=    -0.5131   YX=    52.5760   ZX=   -52.1551
   XY=    55.6135   YY=    25.1843   ZY=   -14.2643
   XZ=   -45.7255   YZ=   -17.1625   ZZ=   129.9171
   Eigenvalues:   -48.3147    47.9237   154.9793
     36  H    Isotropic =    23.8384   Anisotropy =     7.3073
   XX=    24.2302   YX=     1.4459   ZX=     2.1759
   XY=     1.2147   YY=    27.1572   ZY=     2.0665
   XZ=     1.6853   YZ=     2.7775   ZZ=    20.1277
   Eigenvalues:    18.9464    23.8588    28.7099
     37  Bq   Isotropic =    40.2883   Anisotropy =    40.6666
   XX=    40.2991   YX=     0.8359   ZX=    -1.4142
   XY=    -1.8184   YY=    23.1890   ZY=    21.4313
   XZ=     0.8268   YZ=    20.6472   ZZ=    57.3767
   Eigenvalues:    13.1710    40.2945    67.3993
     38  Bq   Isotropic =    34.9669   Anisotropy =    26.0455
   XX=    34.8409   YX=    -2.9155   ZX=    -3.5405
   XY=    -2.5841   YY=    28.8097   ZY=    15.3526
   XZ=    -5.5944   YZ=    13.4298   ZZ=    41.2501
   Eigenvalues:    19.3490    33.2212    52.3306
     39  Bq   Isotropic =    30.1625   Anisotropy =    26.2341
   XX=    28.2757   YX=    -2.2907   ZX=    -3.1400
   XY=    -3.8958   YY=    27.9067   ZY=    14.3757
   XZ=   -10.6549   YZ=    12.3826   ZZ=    34.3051
   Eigenvalues:    16.9863    25.8493    47.6519
     40  Bq   Isotropic =    35.5604   Anisotropy =    28.6428
   XX=    35.1333   YX=    -1.3856   ZX=    -3.7733
   XY=    -1.2190   YY=    31.7857   ZY=    20.9276
   XZ=    -2.2810   YZ=    14.9244   ZZ=    39.7621
   Eigenvalues:    17.3655    34.6600    54.6555
     41  Bq   Isotropic =    26.2442   Anisotropy =    26.8591
   XX=    23.0622   YX=    -2.3007   ZX=    -2.8614
   XY=    -4.9070   YY=    24.2461   ZY=    12.2784
   XZ=   -13.7564   YZ=    11.8868   ZZ=    31.4242
   Eigenvalues:    14.4595    20.1227    44.1502
     42  Bq   Isotropic =    35.7480   Anisotropy =    33.6939
   XX=    34.6741   YX=    -0.2396   ZX=    -4.0691
   XY=    -0.1906   YY=    30.1257   ZY=    24.7150
   XZ=     1.5539   YZ=    17.2563   ZZ=    42.4442
   Eigenvalues:    14.3974    34.6360    58.2106
     43  Bq   Isotropic =    22.3231   Anisotropy =    27.5215
   XX=    17.9420   YX=    -2.1854   ZX=    -2.6095
   XY=    -5.5664   YY=    20.4632   ZY=    10.8243
   XZ=   -15.8584   YZ=    11.5855   ZZ=    28.5640
   Eigenvalues:    11.1092    15.1893    40.6708
     44  Bq   Isotropic =    34.1581   Anisotropy =    40.4404
   XX=    31.4821   YX=     1.3463   ZX=    -4.1881
   XY=     0.0225   YY=    25.5917   ZY=    27.3651
   XZ=     3.6648   YZ=    19.8942   ZZ=    45.4004
   Eigenvalues:     9.8510    31.5048    61.1183
     45  Bq   Isotropic =    18.7392   Anisotropy =    27.8672
   XX=    13.4195   YX=    -2.0235   ZX=    -2.3846
   XY=    -5.9061   YY=    16.9584   ZY=     9.8032
   XZ=   -17.0635   YZ=    11.3153   ZZ=    25.8397
   Eigenvalues:     7.4859    11.4143    37.3173
     46  Bq   Isotropic =    31.9190   Anisotropy =    46.2694
   XX=    27.5222   YX=     3.0242   ZX=    -3.8794
   XY=    -0.7846   YY=    19.4763   ZY=    27.3216
   XZ=     3.2690   YZ=    21.9208   ZZ=    48.7584
   Eigenvalues:     5.4147    27.5770    62.7652
     47  Bq   Isotropic =    15.6434   Anisotropy =    27.7869
   XX=     9.6917   YX=    -1.8581   ZX=    -2.1885
   XY=    -5.9925   YY=    13.9070   ZY=     9.0459
   XZ=   -17.5520   YZ=    10.9917   ZZ=    23.3315
   Eigenvalues:     4.2347     8.5274    34.1680
     48  Bq   Isotropic =    30.7759   Anisotropy =    48.5414
   XX=    25.8221   YX=     4.2053   ZX=    -2.9350
   XY=    -2.2420   YY=    14.3112   ZY=    23.8730
   XZ=     0.7440   YZ=    22.3331   ZZ=    52.1943
   Eigenvalues:     3.2958    25.8950    63.1368
     49  Bq   Isotropic =    33.5082   Anisotropy =    26.4166
   XX=    32.6884   YX=    -2.0343   ZX=    -3.4467
   XY=    -2.5919   YY=    30.7422   ZY=    17.2828
   XZ=    -6.6653   YZ=    13.3142   ZZ=    37.0942
   Eigenvalues:    18.1501    31.2553    51.1193
     50  Bq   Isotropic =    28.9361   Anisotropy =    25.7276
   XX=    26.4831   YX=    -1.8145   ZX=    -2.8141
   XY=    -3.9738   YY=    29.5048   ZY=    14.4069
   XZ=   -11.8697   YZ=    11.8674   ZZ=    30.8205
   Eigenvalues:    15.9815    24.7390    46.0879
     51  Bq   Isotropic =    31.3707   Anisotropy =    30.5262
   XX=    28.5421   YX=    -0.2481   ZX=    -3.5908
   XY=    -1.3079   YY=    32.1042   ZY=    22.5810
   XZ=    -3.7536   YZ=    14.3884   ZZ=    33.4656
   Eigenvalues:    14.0105    28.3800    51.7215
     52  Bq   Isotropic =    25.5333   Anisotropy =    26.1211
   XX=    22.1671   YX=    -1.9861   ZX=    -2.5840
   XY=    -4.9462   YY=    25.6768   ZY=    12.0592
   XZ=   -14.7067   YZ=    11.6537   ZZ=    28.7560
   Eigenvalues:    13.5457    20.1069    42.9474
     53  Bq   Isotropic =    28.3749   Anisotropy =    38.3688
   XX=    22.9837   YX=     1.5266   ZX=    -4.2619
   XY=    -0.3275   YY=    27.8371   ZY=    27.8789
   XZ=     0.2201   YZ=    17.3451   ZZ=    34.3038
   Eigenvalues:     8.0170    23.1535    53.9541
     54  Bq   Isotropic =    21.8621   Anisotropy =    26.7577
   XX=    17.5189   YX=    -1.9738   ZX=    -2.3941
   XY=    -5.5539   YY=    21.6328   ZY=    10.5206
   XZ=   -16.5453   YZ=    11.6234   ZZ=    26.4346
   Eigenvalues:    10.1709    15.7149    39.7006
     55  Bq   Isotropic =    22.3965   Anisotropy =    48.8874
   XX=    12.6606   YX=     4.0201   ZX=    -5.0492
   XY=    -0.2834   YY=    18.8819   ZY=    31.8987
   XZ=     2.6340   YZ=    20.9525   ZZ=    35.6471
   Eigenvalues:    -0.8246    13.0260    54.9881
     56  Bq   Isotropic =    18.4029   Anisotropy =    27.1518
   XX=    13.2511   YX=    -1.8786   ZX=    -2.2270
   XY=    -5.8469   YY=    17.8879   ZY=     9.4876
   XZ=   -17.5315   YZ=    11.5659   ZZ=    24.0698
   Eigenvalues:     6.6966    12.0080    36.5041
     57  Bq   Isotropic =    15.7738   Anisotropy =    58.4464
   XX=     1.4419   YX=     6.7194   ZX=    -5.5062
   XY=    -1.3426   YY=     7.6989   ZY=    31.9745
   XZ=     2.5833   YZ=    23.8408   ZZ=    38.1806
   Eigenvalues:    -9.6977     2.2811    54.7381
     58  Bq   Isotropic =    15.3725   Anisotropy =    27.1444
   XX=     9.6593   YX=    -1.7566   ZX=    -2.0788
   XY=    -5.9012   YY=    14.6471   ZY=     8.7452
   XZ=   -17.8615   YZ=    11.3914   ZZ=    21.8112
   Eigenvalues:     3.6519     8.9968    33.4688
     59  Bq   Isotropic =    12.5806   Anisotropy =    62.4404
   XX=    -3.6679   YX=     8.4435   ZX=    -4.9697
   XY=    -2.9044   YY=    -0.6996   ZY=    26.8846
   XZ=     0.3999   YZ=    24.6264   ZZ=    42.1095
   Eigenvalues:   -13.9604    -2.5052    54.2076
     60  Bq   Isotropic =    31.2455   Anisotropy =    26.6426
   XX=    29.1892   YX=    -1.3018   ZX=    -3.1269
   XY=    -2.6814   YY=    32.1366   ZY=    17.8829
   XZ=    -8.0795   YZ=    12.6303   ZZ=    32.4105
   Eigenvalues:    16.4733    28.2559    49.0072
     61  Bq   Isotropic =    27.3550   Anisotropy =    24.4224
   XX=    24.2634   YX=    -1.3681   ZX=    -2.2107
   XY=    -4.0364   YY=    30.3987   ZY=    12.9644
   XZ=   -13.1245   YZ=    10.9544   ZZ=    27.4028
   Eigenvalues:    14.7739    23.6544    43.6365
     62  Bq   Isotropic =    25.8335   Anisotropy =    31.2891
   XX=    19.7797   YX=     0.9441   ZX=    -2.8873
   XY=    -1.2007   YY=    30.9055   ZY=    21.7267
   XZ=    -5.6293   YZ=    13.0562   ZZ=    26.8152
   Eigenvalues:    10.3103    20.4973    46.6929
     63  Bq   Isotropic =    24.5981   Anisotropy =    24.8593
   XX=    21.0595   YX=    -1.7030   ZX=    -2.1206
   XY=    -4.9972   YY=    26.6186   ZY=    10.8336
   XZ=   -15.6234   YZ=    11.1835   ZZ=    26.1161
   Eigenvalues:    12.4929    20.1304    41.1709
     64  Bq   Isotropic =    18.0972   Anisotropy =    42.7165
   XX=     6.2299   YX=     3.5599   ZX=    -3.9659
   XY=    -0.0952   YY=    22.9448   ZY=    28.4258
   XZ=    -1.8515   YZ=    16.5683   ZZ=    25.1170
   Eigenvalues:    -0.1608     7.8776    46.5749
     65  Bq   Isotropic =    21.2375   Anisotropy =    25.6545
   XX=    16.9767   YX=    -1.7886   ZX=    -2.0546
   XY=    -5.5602   YY=    22.4669   ZY=     9.5508
   XZ=   -17.1650   YZ=    11.5228   ZZ=    24.2690
   Eigenvalues:     9.2336    16.1385    38.3405
     66  Bq   Isotropic =     4.8756   Anisotropy =    59.3910
   XX=   -16.8723   YX=     7.5665   ZX=    -5.9152
   XY=    -0.0304   YY=     7.6029   ZY=    34.0615
   XZ=     0.3977   YZ=    21.0192   ZZ=    23.8963
   Eigenvalues:   -19.9823    -9.8604    44.4697
     67  Bq   Isotropic =    17.9366   Anisotropy =    26.2042
   XX=    13.0093   YX=    -1.7536   ZX=    -1.9860
   XY=    -5.8052   YY=    18.5893   ZY=     8.7370
   XZ=   -17.9203   YZ=    11.7296   ZZ=    22.2112
   Eigenvalues:     5.9352    12.4686    35.4061
     68  Bq   Isotropic =    -9.5216   Anisotropy =    75.6928
   XX=   -42.6535   YX=    12.4777   ZX=    -8.1221
   XY=    -1.1392   YY=    -9.9830   ZY=    34.3722
   XZ=     0.3560   YZ=    24.2372   ZZ=    24.0717
   Eigenvalues:   -45.2124   -24.2927    40.9402
     69  Bq   Isotropic =    14.9949   Anisotropy =    26.3294
   XX=     9.5817   YX=    -1.6694   ZX=    -1.9126
   XY=    -5.8236   YY=    15.2326   ZY=     8.1607
   XZ=   -18.0906   YZ=    11.7276   ZZ=    20.1703
   Eigenvalues:     3.0645     9.3723    32.5478
     70  Bq   Isotropic =   -16.4335   Anisotropy =    82.5732
   XX=   -55.0563   YX=    15.6752   ZX=    -8.5102
   XY=    -2.4755   YY=   -20.2446   ZY=    28.5977
   XZ=    -0.9753   YZ=    25.8337   ZZ=    26.0005
   Eigenvalues:   -57.6478   -30.2679    38.6153
     71  Bq   Isotropic =    28.3297   Anisotropy =    25.7855
   XX=    24.7521   YX=    -0.5801   ZX=    -2.4065
   XY=    -2.6919   YY=    32.5224   ZY=    16.4528
   XZ=    -9.6718   YZ=    11.3384   ZZ=    27.7147
   Eigenvalues:    14.6373    24.8318    45.5201
     72  Bq   Isotropic =    25.5435   Anisotropy =    21.8862
   XX=    22.0688   YX=    -0.8403   ZX=    -1.3064
   XY=    -3.9732   YY=    30.1252   ZY=     9.9768
   XZ=   -14.1502   YZ=     9.8781   ZZ=    24.4363
   Eigenvalues:    13.6058    22.8903    40.1343
     73  Bq   Isotropic =    19.8568   Anisotropy =    29.0880
   XX=    10.7855   YX=     2.4568   ZX=    -1.5038
   XY=    -0.5103   YY=    27.5705   ZY=    17.4644
   XZ=    -7.6422   YZ=    11.2353   ZZ=    21.2144
   Eigenvalues:     5.9706    14.3509    39.2487
     74  Bq   Isotropic =    23.4486   Anisotropy =    22.9115
   XX=    19.9329   YX=    -1.3807   ZX=    -1.4597
   XY=    -4.9893   YY=    26.7500   ZY=     8.6339
   XZ=   -16.2982   YZ=    10.6462   ZZ=    23.6629
   Eigenvalues:    11.5004    20.1225    38.7229
     75  Bq   Isotropic =     6.6364   Anisotropy =    44.5106
   XX=   -12.3315   YX=     6.2597   ZX=    -2.9088
   XY=     1.3252   YY=    14.9561   ZY=    24.8263
   XZ=    -4.6979   YZ=    15.4849   ZZ=    17.2846
   Eigenvalues:   -14.9747    -1.4262    36.3101
     76  Bq   Isotropic =    20.4209   Anisotropy =    24.1509
   XX=    16.3918   YX=    -1.5851   ZX=    -1.5830
   XY=    -5.5392   YY=    22.7569   ZY=     7.9689
   XZ=   -17.5683   YZ=    11.3933   ZZ=    22.1140
   Eigenvalues:     8.3754    16.3658    36.5215
     77  Bq   Isotropic =   -15.2507   Anisotropy =    71.5945
   XX=   -52.4439   YX=    12.6857   ZX=    -6.8499
   XY=     2.2920   YY=    -8.3615   ZY=    32.0866
   XZ=    -4.0984   YZ=    21.2614   ZZ=    15.0534
   Eigenvalues:   -55.3491   -22.8819    32.4790
     78  Bq   Isotropic =    17.3042   Anisotropy =    24.9993
   XX=    12.7189   YX=    -1.6198   ZX=    -1.6552
   XY=    -5.7512   YY=    18.9312   ZY=     7.5971
   XZ=   -18.1291   YZ=    11.8705   ZZ=    20.2626
   Eigenvalues:     5.2195    12.7228    33.9704
     79  Bq   Isotropic =   -37.3615   Anisotropy =   100.0692
   XX=   -98.1538   YX=    22.4821   ZX=   -13.4197
   XY=     2.3245   YY=   -30.4316   ZY=    31.9750
   XZ=    -6.2125   YZ=    23.1688   ZZ=    16.5009
   Eigenvalues:  -102.2599   -39.1759    29.3513
     80  Bq   Isotropic =    14.4775   Anisotropy =    25.3298
   XX=     9.4604   YX=    -1.5778   ZX=    -1.6845
   XY=    -5.7407   YY=    15.5813   ZY=     7.3238
   XZ=   -18.1736   YZ=    12.0335   ZZ=    18.3909
   Eigenvalues:     2.4793     9.5893    31.3640
     81  Bq   Isotropic =   -46.3668   Anisotropy =   108.0415
   XX=  -120.2175   YX=    30.7770   ZX=   -15.8240
   XY=     3.2828   YY=   -32.5995   ZY=    27.5905
   XZ=    -5.2232   YZ=    25.0425   ZZ=    13.7166
   Eigenvalues:  -125.1483   -39.6129    25.6608
     82  Bq   Isotropic =    25.1545   Anisotropy =    22.8392
   XX=    20.3644   YX=     0.3040   ZX=    -1.2232
   XY=    -2.4318   YY=    31.3078   ZY=    12.6394
   XZ=   -11.1339   YZ=     9.7151   ZZ=    23.7911
   Eigenvalues:    12.8838    22.1990    40.3806
     83  Bq   Isotropic =    23.6569   Anisotropy =    18.1219
   XX=    20.4323   YX=    -0.1565   ZX=    -0.2082
   XY=    -3.7206   YY=    28.4029   ZY=     5.9133
   XZ=   -14.6625   YZ=     9.0355   ZZ=    22.1355
   Eigenvalues:    12.8142    22.4184    35.7382
     84  Bq   Isotropic =    14.9411   Anisotropy =    22.8944
   XX=     4.8939   YX=     4.4195   ZX=     0.4001
   XY=     0.9719   YY=    21.9812   ZY=    10.2498
   XZ=    -9.1763   YZ=     9.7869   ZZ=    17.9483
   Eigenvalues:     1.6574    12.9619    30.2040
     85  Bq   Isotropic =    22.0973   Anisotropy =    20.3545
   XX=    18.9856   YX=    -0.9651   ZX=    -0.6651
   XY=    -4.8714   YY=    25.8747   ZY=     5.7902
   XZ=   -16.5384   YZ=    10.2747   ZZ=    21.4315
   Eigenvalues:    10.7165    19.9084    35.6669
     86  Bq   Isotropic =    -2.2468   Anisotropy =    42.3561
   XX=   -24.6249   YX=     9.6353   ZX=    -0.9935
   XY=     4.4973   YY=     5.1379   ZY=    17.4374
   XZ=    -7.4439   YZ=    15.7482   ZZ=    12.7466
   Eigenvalues:   -27.9885    -4.7425    25.9906
     87  Bq   Isotropic =    19.3823   Anisotropy =    22.2982
   XX=    15.8313   YX=    -1.3242   ZX=    -1.0154
   XY=    -5.4509   YY=    22.3747   ZY=     5.9868
   XZ=   -17.6267   YZ=    11.3571   ZZ=    19.9409
   Eigenvalues:     7.6182    16.2810    34.2478
     88  Bq   Isotropic =   -28.9505   Anisotropy =    84.5337
   XX=   -75.3000   YX=    18.4447   ZX=    -7.0243
   XY=     7.9660   YY=   -23.6196   ZY=    28.5822
   XZ=   -10.0481   YZ=    27.3361   ZZ=    12.0680
   Eigenvalues:   -81.1406   -33.1162    27.4053
     89  Bq   Isotropic =    16.4703   Anisotropy =    23.5617
   XX=    12.3971   YX=    -1.4498   ZX=    -1.2542
   XY=    -5.6555   YY=    18.8318   ZY=     6.1971
   XZ=   -18.0739   YZ=    12.0448   ZZ=    18.1819
   Eigenvalues:     4.5293    12.7034    32.1781
     90  Bq   Isotropic =   -44.4803   Anisotropy =   136.0429
   XX=  -124.1024   YX=    34.3700   ZX=   -22.2137
   XY=    11.3418   YY=   -41.1400   ZY=    33.8902
   XZ=   -19.7386   YZ=    34.8943   ZZ=    31.8015
   Eigenvalues:  -135.2248   -44.4311    46.2150
     91  Bq   Isotropic =    13.7904   Anisotropy =    24.1557
   XX=     9.2942   YX=    -1.4626   ZX=    -1.4052
   XY=    -5.6319   YY=    15.6410   ZY=     6.3097
   XZ=   -18.0568   YZ=    12.3291   ZZ=    16.4360
   Eigenvalues:     1.8723     9.6048    29.8942
     92  Bq   Isotropic =   -29.0299   Anisotropy =   135.3999
   XX=  -126.7467   YX=    59.1024   ZX=   -29.2528
   XY=    23.1468   YY=    -7.2536   ZY=    31.4924
   XZ=   -13.8274   YZ=    31.0539   ZZ=    46.9104
   Eigenvalues:  -144.2848    -4.0418    61.2367
     93  Bq   Isotropic =    22.2621   Anisotropy =    17.4066
   XX=    17.3785   YX=     1.4533   ZX=     0.2648
   XY=    -1.8066   YY=    28.1564   ZY=     7.0014
   XZ=   -12.0465   YZ=     8.3637   ZZ=    21.2515
   Eigenvalues:    11.7096    21.2103    33.8665
     94  Bq   Isotropic =    21.7975   Anisotropy =    13.8865
   XX=    19.6710   YX=     0.6582   ZX=     0.8684
   XY=    -3.3140   YY=    25.4131   ZY=     1.7320
   XZ=   -14.4873   YZ=     8.7823   ZZ=    20.3082
   Eigenvalues:    12.5429    21.7944    31.0551
     95  Bq   Isotropic =    12.3512   Anisotropy =    14.4702
   XX=     4.7612   YX=     6.5422   ZX=     2.2364
   XY=     2.8067   YY=    15.1886   ZY=     2.2535
   XZ=    -9.5670   YZ=     9.2851   ZZ=    17.1038
   Eigenvalues:     0.9782    14.0773    21.9980
     96  Bq   Isotropic =    20.5461   Anisotropy =    17.5581
   XX=    18.3163   YX=    -0.4501   ZX=     0.1398
   XY=    -4.6342   YY=    24.0688   ZY=     2.8661
   XZ=   -16.2411   YZ=    10.2506   ZZ=    19.2531
   Eigenvalues:    10.1052    19.2815    32.2514
     97  Bq   Isotropic =    -5.2047   Anisotropy =    35.1241
   XX=   -23.2210   YX=    12.9224   ZX=     1.2991
   XY=     8.4348   YY=    -3.2854   ZY=     8.1332
   XZ=    -8.3618   YZ=    16.6263   ZZ=    10.8922
   Eigenvalues:   -29.6492    -4.1763    18.2113
     98  Bq   Isotropic =    18.0978   Anisotropy =    20.2629
   XX=    15.3179   YX=    -0.9906   ZX=    -0.4227
   XY=    -5.2736   YY=    21.3472   ZY=     3.9278
   XZ=   -17.2760   YZ=    11.4900   ZZ=    17.6285
   Eigenvalues:     6.8782    15.8088    31.6065
     99  Bq   Isotropic =   -31.3619   Anisotropy =    77.9936
   XX=   -69.0617   YX=    22.5028   ZX=    -4.2929
   XY=    15.5485   YY=   -29.5342   ZY=    22.4871
   XZ=   -11.6610   YZ=    34.2297   ZZ=     4.5102
   Eigenvalues:   -80.9786   -33.7409    20.6339
    100  Bq   Isotropic =    15.4098   Anisotropy =    21.9679
   XX=    12.0425   YX=    -1.2274   ZX=    -0.8249
   XY=    -5.4966   YY=    18.2961   ZY=     4.7193
   XZ=   -17.7141   YZ=    12.2723   ZZ=    15.8909
   Eigenvalues:     3.7869    12.3875    30.0551
    101  Bq   Isotropic =   -39.4587   Anisotropy =   125.3988
   XX=   -99.4352   YX=    34.3198   ZX=   -19.1462
   XY=    22.0065   YY=   -32.8325   ZY=    40.9234
   XZ=   -21.4410   YZ=    55.4981   ZZ=    13.8917
   Eigenvalues:  -120.3904   -42.1261    44.1405
    102  Bq   Isotropic =    12.9140   Anisotropy =    22.8434
   XX=     9.0754   YX=    -1.3100   ZX=    -1.0997
   XY=    -5.4793   YY=    15.4073   ZY=     5.2203
   XZ=   -17.7146   YZ=    12.6078   ZZ=    14.2594
   Eigenvalues:     1.1864     9.4128    28.1430
    103  Bq   Isotropic =     0.1790   Anisotropy =   105.6655
   XX=   -56.9603   YX=    46.8005   ZX=   -21.3663
   XY=    30.9622   YY=     3.5799   ZY=    32.7730
   XZ=    -5.0636   YZ=    33.4700   ZZ=    53.9175
   Eigenvalues:   -81.3444    11.2588    70.6227
    104  Bq   Isotropic =    20.0567   Anisotropy =    10.5943
   XX=    16.7148   YX=     2.7651   ZX=     1.6833
   XY=    -0.9709   YY=    23.4776   ZY=     1.0857
   XZ=   -12.0896   YZ=     7.8572   ZZ=    19.9777
   Eigenvalues:    11.8459    21.2047    27.1196
    105  Bq   Isotropic =    19.9529   Anisotropy =    10.5603
   XX=    19.6462   YX=     1.4777   ZX=     1.7053
   XY=    -2.8700   YY=    21.8359   ZY=    -1.5803
   XZ=   -13.6707   YZ=     9.1793   ZZ=    18.3765
   Eigenvalues:    12.3581    20.5074    26.9930
    106  Bq   Isotropic =    12.1112   Anisotropy =     9.6891
   XX=     9.7221   YX=     8.1504   ZX=     3.3379
   XY=     4.0424   YY=     9.0792   ZY=    -3.7786
   XZ=    -8.7888   YZ=     9.5853   ZZ=    17.5324
   Eigenvalues:     2.2576    15.5054    18.5706
    107  Bq   Isotropic =    18.7842   Anisotropy =    15.0158
   XX=    17.8517   YX=     0.1170   ZX=     0.8238
   XY=    -4.3083   YY=    21.6986   ZY=     0.4191
   XZ=   -15.4449   YZ=    10.5781   ZZ=    16.8024
   Eigenvalues:     9.3566    18.2014    28.7948
    108  Bq   Isotropic =    -2.2634   Anisotropy =    25.4708
   XX=   -10.0413   YX=    14.8584   ZX=     2.7509
   XY=    10.7171   YY=    -8.5600   ZY=    -0.0927
   XZ=    -7.2088   YZ=    15.8274   ZZ=    11.8110
   Eigenvalues:   -23.5307     2.0232    14.7171
    109  Bq   Isotropic =    16.5602   Anisotropy =    18.2600
   XX=    14.8105   YX=    -0.5978   ZX=     0.1138
   XY=    -5.0068   YY=    19.8643   ZY=     2.1047
   XZ=   -16.5435   YZ=    11.7649   ZZ=    15.0059
   Eigenvalues:     5.9478    14.9993    28.7336
    110  Bq   Isotropic =   -24.4376   Anisotropy =    51.6558
   XX=   -41.9834   YX=    23.9665   ZX=    -1.0878
   XY=    19.7932   YY=   -30.9734   ZY=    10.5931
   XZ=    -8.1517   YZ=    28.8427   ZZ=    -0.3561
   Eigenvalues:   -63.2124   -20.1001     9.9996
    111  Bq   Isotropic =    14.1191   Anisotropy =    20.3239
   XX=    11.6315   YX=    -0.9529   ZX=    -0.4179
   XY=    -5.2642   YY=    17.4190   ZY=     3.3390
   XZ=   -17.0672   YZ=    12.5141   ZZ=    13.3067
   Eigenvalues:     2.8603    11.8285    27.6684
    112  Bq   Isotropic =   -42.5433   Anisotropy =    71.4315
   XX=   -69.5781   YX=    32.7276   ZX=    -9.0381
   XY=    29.3794   YY=   -42.2586   ZY=    22.3286
   XZ=   -10.3649   YZ=    37.7025   ZZ=   -15.7930
   Eigenvalues:   -97.6878   -35.0197     5.0777
    113  Bq   Isotropic =    11.8472   Anisotropy =    21.4496
   XX=     8.7898   YX=    -1.1159   ZX=    -0.8001
   XY=    -5.2713   YY=    14.9254   ZY=     4.1536
   XZ=   -17.1577   YZ=    12.8294   ZZ=    11.8265
   Eigenvalues:     0.3414     9.0533    26.1470
    114  Bq   Isotropic =   -45.2395   Anisotropy =    62.6268
   XX=   -74.9821   YX=    36.1269   ZX=   -15.1461
   XY=    35.8256   YY=   -46.7929   ZY=    20.9986
   XZ=    -5.0288   YZ=    19.3273   ZZ=   -13.9435
   Eigenvalues:  -103.9100   -28.3201    -3.4883
    115  Bq   Isotropic =    18.5328   Anisotropy =     6.7240
   XX=    18.0861   YX=     3.9370   ZX=     2.6579
   XY=    -0.2722   YY=    18.4715   ZY=    -3.3935
   XZ=   -11.3004   YZ=     8.3035   ZZ=    19.0409
   Eigenvalues:    12.6559    19.9271    23.0155
    116  Bq   Isotropic =    18.0194   Anisotropy =     9.0425
   XX=    19.8367   YX=     2.1605   ZX=     2.1942
   XY=    -2.4953   YY=    18.5114   ZY=    -3.5445
   XZ=   -12.4586   YZ=     9.9236   ZZ=    15.7102
   Eigenvalues:    11.3007    18.7099    24.0478
    117  Bq   Isotropic =    13.0272   Anisotropy =    10.1458
   XX=    16.3373   YX=     8.7425   ZX=     3.5466
   XY=     4.1233   YY=     5.3550   ZY=    -6.4710
   XZ=    -7.4955   YZ=    10.2912   ZZ=    17.3893
   Eigenvalues:     1.9614    17.3291    19.7911
    118  Bq   Isotropic =    16.8044   Anisotropy =    13.0494
   XX=    17.3811   YX=     0.6669   ZX=     1.3016
   XY=    -3.9366   YY=    19.2562   ZY=    -1.2541
   XZ=   -14.3148   YZ=    11.0557   ZZ=    13.7760
   Eigenvalues:     7.9801    16.9291    25.5041
    119  Bq   Isotropic =     3.5011   Anisotropy =    18.3305
   XX=     6.0572   YX=    14.6829   ZX=     2.8713
   XY=    10.1421   YY=    -9.7951   ZY=    -4.0038
   XZ=    -5.5438   YZ=    14.4802   ZZ=    14.2411
   Eigenvalues:   -17.4626    12.2444    15.7214
    120  Bq   Isotropic =    14.7891   Anisotropy =    16.4676
   XX=    14.2223   YX=    -0.1777   ZX=     0.5313
   XY=    -4.6650   YY=    18.2013   ZY=     0.6991
   XZ=   -15.5388   YZ=    12.0467   ZZ=    11.9439
   Eigenvalues:     4.5651    14.0348    25.7675
    121  Bq   Isotropic =   -11.2177   Anisotropy =    33.1445
   XX=   -10.8296   YX=    22.0171   ZX=    -0.1683
   XY=    17.8343   YY=   -28.4404   ZY=     3.5596
   XZ=    -5.0969   YZ=    21.6632   ZZ=     5.6170
   Eigenvalues:   -44.3320    -0.1998    10.8787
    122  Bq   Isotropic =    12.6213   Anisotropy =    18.7379
   XX=    11.1273   YX=    -0.6400   ZX=    -0.0783
   XY=    -4.9600   YY=    16.3491   ZY=     2.1661
   XZ=   -16.2044   YZ=    12.6767   ZZ=    10.3876
   Eigenvalues:     1.6087    11.1419    25.1133
    123  Bq   Isotropic =   -25.9911   Anisotropy =    44.2736
   XX=   -28.0079   YX=    28.2376   ZX=    -6.0316
   XY=    25.1745   YY=   -43.0601   ZY=    14.0879
   XZ=    -5.8990   YZ=    25.8778   ZZ=    -6.9053
   Eigenvalues:   -69.4643   -12.0337     3.5246
    124  Bq   Isotropic =    10.6107   Anisotropy =    20.0416
   XX=     8.4213   YX=    -0.8851   ZX=    -0.5379
   XY=    -5.0043   YY=    14.2724   ZY=     3.1758
   XZ=   -16.4317   YZ=    12.9271   ZZ=     9.1384
   Eigenvalues:    -0.7373     8.5976    23.9717
    125  Bq   Isotropic =   -32.2304   Anisotropy =    46.0666
[...]
   131  Bq   0.000000
   132  Bq   0.000000
   133  Bq   0.000000
   134  Bq   0.000000
   135  Bq   0.000000
   136  Bq   0.000000
   137  Bq   0.000000
   138  Bq   0.000000
   139  Bq   0.000000
   140  Bq   0.000000
   141  Bq   0.000000
   142  Bq   0.000000
   143  Bq   0.000000
   144  Bq   0.000000
   145  Bq   0.000000
   146  Bq   0.000000
   147  Bq   0.000000
   148  Bq   0.000000
   149  Bq   0.000000
   150  Bq   0.000000
   151  Bq   0.000000
   152  Bq   0.000000
   153  Bq   0.000000
   154  Bq   0.000000
   155  Bq   0.000000
   156  Bq   0.000000
   157  Bq   0.000000
   158  Bq   0.000000
   159  Bq   0.000000
   160  Bq   0.000000
   161  Bq   0.000000
   162  Bq   0.000000
   163  Bq   0.000000
   164  Bq   0.000000
   165  Bq   0.000000
   166  Bq   0.000000
   167  Bq   0.000000
   168  Bq   0.000000
   169  Bq   0.000000
   170  Bq   0.000000
   171  Bq   0.000000
   172  Bq   0.000000
   173  Bq   0.000000
   174  Bq   0.000000
   175  Bq   0.000000
   176  Bq   0.000000
   177  Bq   0.000000
   178  Bq   0.000000
   179  Bq   0.000000
   180  Bq   0.000000
   181  Bq   0.000000
   182  Bq   0.000000
   183  Bq   0.000000
   184  Bq   0.000000
   185  Bq   0.000000
   186  Bq   0.000000
   187  Bq   0.000000
   188  Bq   0.000000
   189  Bq   0.000000
   190  Bq   0.000000
   191  Bq   0.000000
   192  Bq   0.000000
   193  Bq   0.000000
   194  Bq   0.000000
   195  Bq   0.000000
   196  Bq   0.000000
   197  Bq   0.000000
   198  Bq   0.000000
   199  Bq   0.000000
   200  Bq   0.000000
   201  Bq   0.000000
   202  Bq   0.000000
   203  Bq   0.000000
   204  Bq   0.000000
   205  Bq   0.000000
   206  Bq   0.000000
   207  Bq   0.000000
   208  Bq   0.000000
   209  Bq   0.000000
   210  Bq   0.000000
   211  Bq   0.000000
   212  Bq   0.000000
   213  Bq   0.000000
   214  Bq   0.000000
   215  Bq   0.000000
   216  Bq   0.000000
   217  Bq   0.000000
   218  Bq   0.000000
   219  Bq   0.000000
   220  Bq   0.000000
   221  Bq   0.000000
   222  Bq   0.000000
   223  Bq   0.000000
   224  Bq   0.000000
   225  Bq   0.000000
   226  Bq   0.000000
   227  Bq   0.000000
   228  Bq   0.000000
   229  Bq   0.000000
   230  Bq   0.000000
   231  Bq   0.000000
   232  Bq   0.000000
   233  Bq   0.000000
   234  Bq   0.000000
   235  Bq   0.000000
   236  Bq   0.000000
 Sum of Mulliken charges =   0.00000
 Mulliken charges with hydrogens summed into heavy atoms:
               1
     1  C   -0.255498
     3  C    0.053849
     5  C    0.448258
     6  C    0.064351
     7  C   -0.333926
     9  C   -0.139521
    11  C   -0.205988
    13  C   -0.119315
    15  C    0.653397
    16  C    0.034822
    17  C   -0.317410
    19  C   -0.316854
    21  C    0.651066
    22  C    0.037784
    23  C   -0.117289
    25  C   -0.205316
    27  C    0.448331
    28  C    0.061983
    29  C   -0.333381
    31  C   -0.139505
    33  C   -0.255977
    35  C    0.170579
    37  Bq   0.000000
    38  Bq   0.000000
    39  Bq   0.000000
    40  Bq   0.000000
    41  Bq   0.000000
    42  Bq   0.000000
    43  Bq   0.000000
    44  Bq   0.000000
    45  Bq   0.000000
    46  Bq   0.000000
    47  Bq   0.000000
    48  Bq   0.000000
    49  Bq   0.000000
    50  Bq   0.000000
    51  Bq   0.000000
    52  Bq   0.000000
    53  Bq   0.000000
    54  Bq   0.000000
    55  Bq   0.000000
    56  Bq   0.000000
    57  Bq   0.000000
    58  Bq   0.000000
    59  Bq   0.000000
    60  Bq   0.000000
    61  Bq   0.000000
    62  Bq   0.000000
    63  Bq   0.000000
    64  Bq   0.000000
    65  Bq   0.000000
    66  Bq   0.000000
    67  Bq   0.000000
    68  Bq   0.000000
    69  Bq   0.000000
    70  Bq   0.000000
    71  Bq   0.000000
    72  Bq   0.000000
    73  Bq   0.000000
    74  Bq   0.000000
    75  Bq   0.000000
    76  Bq   0.000000
    77  Bq   0.000000
    78  Bq   0.000000
    79  Bq   0.000000
    80  Bq   0.000000
    81  Bq   0.000000
    82  Bq   0.000000
    83  Bq   0.000000
    84  Bq   0.000000
    85  Bq   0.000000
    86  Bq   0.000000
    87  Bq   0.000000
    88  Bq   0.000000
    89  Bq   0.000000
    90  Bq   0.000000
    91  Bq   0.000000
    92  Bq   0.000000
    93  Bq   0.000000
    94  Bq   0.000000
    95  Bq   0.000000
    96  Bq   0.000000
    97  Bq   0.000000
    98  Bq   0.000000
    99  Bq   0.000000
   100  Bq   0.000000
   101  Bq   0.000000
   102  Bq   0.000000
   103  Bq   0.000000
   104  Bq   0.000000
   105  Bq   0.000000
   106  Bq   0.000000
   107  Bq   0.000000
   108  Bq   0.000000
   109  Bq   0.000000
   110  Bq   0.000000
   111  Bq   0.000000
   112  Bq   0.000000
   113  Bq   0.000000
   114  Bq   0.000000
   115  Bq   0.000000
   116  Bq   0.000000
   117  Bq   0.000000
   118  Bq   0.000000
   119  Bq   0.000000
   120  Bq   0.000000
   121  Bq   0.000000
   122  Bq   0.000000
   123  Bq   0.000000
   124  Bq   0.000000
   125  Bq   0.000000
   126  Bq   0.000000
   127  Bq   0.000000
   128  Bq   0.000000
   129  Bq   0.000000
   130  Bq   0.000000
   131  Bq   0.000000
   132  Bq   0.000000
   133  Bq   0.000000
   134  Bq   0.000000
   135  Bq   0.000000
   136  Bq   0.000000
   137  Bq   0.000000
   138  Bq   0.000000
   139  Bq   0.000000
   140  Bq   0.000000
   141  Bq   0.000000
   142  Bq   0.000000
   143  Bq   0.000000
   144  Bq   0.000000
   145  Bq   0.000000
   146  Bq   0.000000
   147  Bq   0.000000
   148  Bq   0.000000
   149  Bq   0.000000
   150  Bq   0.000000
   151  Bq   0.000000
   152  Bq   0.000000
   153  Bq   0.000000
   154  Bq   0.000000
   155  Bq   0.000000
   156  Bq   0.000000
   157  Bq   0.000000
   158  Bq   0.000000
   159  Bq   0.000000
   160  Bq   0.000000
   161  Bq   0.000000
   162  Bq   0.000000
   163  Bq   0.000000
   164  Bq   0.000000
   165  Bq   0.000000
   166  Bq   0.000000
   167  Bq   0.000000
   168  Bq   0.000000
   169  Bq   0.115559
   170  Bq   0.000000
   171  Bq   0.000000
   172  Bq   0.000000
   173  Bq   0.000000
   174  Bq   0.000000
   175  Bq   0.000000
   176  Bq   0.000000
   177  Bq   0.000000
   178  Bq   0.000000
   179  Bq   0.000000
   180  Bq   0.000000
   181  Bq   0.000000
   182  Bq   0.000000
   183  Bq   0.000000
   184  Bq   0.000000
   185  Bq   0.000000
   186  Bq   0.000000
   187  Bq   0.000000
   188  Bq   0.000000
   189  Bq   0.000000
   190  Bq   0.000000
   191  Bq   0.000000
   192  Bq   0.000000
   193  Bq   0.000000
   194  Bq   0.000000
   195  Bq   0.000000
   196  Bq   0.000000
   197  Bq   0.000000
   198  Bq   0.000000
   199  Bq   0.000000
   200  Bq   0.000000
   201  Bq   0.000000
   202  Bq   0.000000
   203  Bq   0.000000
   204  Bq   0.000000
   205  Bq   0.000000
   206  Bq   0.000000
   207  Bq   0.000000
   208  Bq   0.000000
   209  Bq   0.000000
   210  Bq   0.000000
   211  Bq   0.000000
   212  Bq   0.000000
   213  Bq   0.000000
   214  Bq   0.000000
   215  Bq   0.000000
   216  Bq   0.000000
   217  Bq   0.000000
   218  Bq   0.000000
   219  Bq   0.000000
   220  Bq   0.000000
   221  Bq   0.000000
   222  Bq   0.000000
   223  Bq   0.000000
   224  Bq   0.000000
   225  Bq   0.000000
   226  Bq   0.000000
   227  Bq   0.000000
   228  Bq   0.000000
   229  Bq   0.000000
   230  Bq   0.000000
   231  Bq   0.000000
   232  Bq   0.000000
   233  Bq   0.000000
   234  Bq   0.000000
   235  Bq   0.000000
   236  Bq   0.000000
 Electronic spatial extent (au):  <R**2>=           5736.9264
 Charge=              0.0000 electrons
 Dipole moment (field-independent basis, Debye):
    X=              0.0475    Y=              0.0856    Z=              0.0029  Tot=              0.0979
 Quadrupole moment (field-independent basis, Debye-Ang):
   XX=           -113.7056   YY=           -113.9456   ZZ=           -133.2669
   XY=             -0.3834   XZ=              3.2102   YZ=             -1.1839
 Traceless Quadrupole moment (field-independent basis, Debye-Ang):
   XX=              6.6005   YY=              6.3604   ZZ=            -12.9609
   XY=             -0.3834   XZ=              3.2102   YZ=             -1.1839
 Octapole moment (field-independent basis, Debye-Ang**2):
  XXX=            -16.4668  YYY=            -16.1860  ZZZ=             -1.7007  XYY=              2.5576
  XXY=             -6.5650  XXZ=             13.6547  XZZ=             -8.9478  YZZ=            -17.7168
  YYZ=            -13.2941  XYZ=              8.8036
 Hexadecapole moment (field-independent basis, Debye-Ang**3):
 XXXX=          -3951.1638 YYYY=          -3112.2161 ZZZZ=           -504.8311 XXXY=            340.6935
 XXXZ=            156.4968 YYYX=            335.5625 YYYZ=            -87.0893 ZZZX=            120.2262
 ZZZY=           -108.7373 XXYY=          -1176.4844 XXZZ=           -856.7291 YYZZ=           -665.7275
 XXYZ=            -68.9016 YYXZ=             48.1602 ZZXY=            153.0375
 N-N= 1.610917615562D+03 E-N=-5.186891130729D+03  KE= 8.436329774448D+02
 1\1\GINC-URBICANDE\SP\RB3LYP\6-311+G(d,p)\C22H14\YANNICK\23-Aug-2020\0
 \\# rb3lyp/6-311+g** NMR geom=connectivity\\Title\\0,1\C,0,-4.0500558,
 -0.5771862,0.8136712\H,0,-5.0263804,-1.0082727,1.002476\C,0,-3.9381552
 ,0.6617804,0.2400876\H,0,-4.8252424,1.233889,-0.0111295\C,0,-2.676841,
 1.2433246,0.0057578\C,0,-1.4974121,0.5051527,0.2848253\C,0,-1.6508332,
 -0.7338728,0.9404026\H,0,-0.7713646,-1.2730967,1.2633753\C,0,-2.889854
 8,-1.2624035,1.1994307\H,0,-2.9683706,-2.2124563,1.7152676\C,0,-2.5773
 185,2.5963696,-0.419293\H,0,-3.4870728,3.1412239,-0.6474055\C,0,-1.374
 1895,3.2147896,-0.436403\H,0,-1.2997315,4.2742019,-0.6578144\C,0,-0.17
 19488,2.499409,-0.1734588\C,0,-0.2043917,1.1018437,0.0192689\C,0,1.051
 3491,3.204256,-0.0676222\H,0,1.0427344,4.2819499,-0.1896997\C,0,2.1942
 091,2.5487446,0.2579577\H,0,3.1168527,3.0912848,0.4334727\C,0,2.221647
 3,1.1336562,0.293499\C,0,1.0486931,0.3945528,0.0302412\C,0,3.4483363,0
 .4614633,0.5573939\H,0,4.3095794,1.0606054,0.8334846\C,0,3.5427346,-0.
 8855926,0.4749463\H,0,4.4731467,-1.3939704,0.7038822\C,0,2.4490052,-1.
 6474447,-0.0196319\C,0,1.2150704,-1.0057258,-0.3013573\C,0,0.2531113,-
 1.743444,-1.0216591\H,0,-0.6541356,-1.2535051,-1.3462847\C,0,0.4494193
 ,-3.0628597,-1.3413779\H,0,-0.3083162,-3.5944309,-1.905406\C,0,1.62517
 26,-3.7207967,-0.9552541\H,0,1.7670048,-4.7687404,-1.1927019\C,0,2.610
 9872,-3.0144177,-0.318305\H,0,3.5525612,-3.4902813,-0.0646367\Bq,0,-3.
 9835075469,0.1529019853,0.4890138573\Bq,0,-3.9852775248,0.3703155704,0
 .9392673417\Bq,0,-3.9854605881,0.50384968,0.9858356576\Bq,0,-3.9847525
 969,0.416884246,0.8057342638\Bq,0,-3.9858145837,0.547332397,1.07588635
 44\Bq,0,-3.9843986014,0.373401529,0.7156835669\Bq,0,-3.9861685792,0.59
 0815114,1.1659370513\Bq,0,-3.9840446058,0.329918812,0.62563287\Bq,0,-3
 .9865225748,0.6342978311,1.2559877482\Bq,0,-3.9836906102,0.286436095,0
 .5355821731\Bq,0,-3.9868765704,0.6777805481,1.3460384451\Bq,0,-3.98333
 66146,0.242953378,0.4455314763\Bq,0,-3.9851065925,0.460366963,0.895784
 9607\Bq,0,-3.9852896558,0.5939010727,0.9423532765\Bq,0,-3.9845816647,0
 .5069356387,0.7622518828\Bq,0,-3.9856436514,0.6373837897,1.0324039734\
 Bq,0,-3.9842276691,0.4634529217,0.6722011859\Bq,0,-3.985997647,0.68086
 65067,1.1224546703\Bq,0,-3.9838736735,0.4199702047,0.582150489\Bq,0,-3
 .9863516425,0.7243492237,1.2125053672\Bq,0,-3.9835196779,0.3764874877,
 0.4920997921\Bq,0,-3.9867056381,0.7678319407,1.3025560641\Bq,0,-3.9831
 656824,0.3330047707,0.4020490952\Bq,0,-3.9849356602,0.5504183557,0.852
 3025796\Bq,0,-3.9851187235,0.6839524654,0.8988708955\Bq,0,-3.984410732
 4,0.5969870314,0.7187695017\Bq,0,-3.9854727191,0.7274351824,0.98892159
 24\Bq,0,-3.9840567368,0.5535043144,0.6287188048\Bq,0,-3.9858267147,0.7
 709178994,1.0789722893\Bq,0,-3.9837027412,0.5100215974,0.538668108\Bq,
 0,-3.9861807103,0.8144006164,1.1690229861\Bq,0,-3.9833487457,0.4665388
 804,0.4486174111\Bq,0,-3.9865347058,0.8578833334,1.259073683\Bq,0,-3.9
 829947501,0.4230561634,0.3585667142\Bq,0,-3.984764728,0.6404697484,0.8
 088201986\Bq,0,-3.9849477913,0.7740038581,0.8553885145\Bq,0,-3.9842398
 001,0.687038424,0.6752871207\Bq,0,-3.9853017868,0.8174865751,0.9454392
 113\Bq,0,-3.9838858045,0.643555707,0.5852364238\Bq,0,-3.9856557824,0.8
 609692921,1.0354899082\Bq,0,-3.983531809,0.60007299,0.4951857269\Bq,0,
 -3.986009778,0.9044520091,1.1255406051\Bq,0,-3.9831778134,0.556590273,
 0.40513503\Bq,0,-3.9863637736,0.9479347261,1.215591302\Bq,0,-3.9828238
 178,0.513107556,0.3150843332\Bq,0,-3.9845937957,0.730521141,0.76533781
 76\Bq,0,-3.984776859,0.8640552507,0.8119061334\Bq,0,-3.9840688678,0.77
 70898167,0.6318047397\Bq,0,-3.9851308546,0.9075379677,0.9019568303\Bq,
 0,-3.9837148723,0.7336070997,0.5417540428\Bq,0,-3.9854848501,0.9510206
 847,0.9920075272\Bq,0,-3.9833608767,0.6901243827,0.4517033459\Bq,0,-3.
 9858388457,0.9945034017,1.0820582241\Bq,0,-3.9830068811,0.6466416657,0
 .361652649\Bq,0,-3.9861928413,1.0379861187,1.172108921\Bq,0,-3.9826528
 855,0.6031589487,0.2716019521\Bq,0,-3.9844228634,0.8205725337,0.721855
 4365\Bq,0,-3.9846059267,0.9541066434,0.7684237524\Bq,0,-3.9838979356,0
 .8671412094,0.5883223586\Bq,0,-3.9849599223,0.9975893604,0.8584744493\
 Bq,0,-3.98354394,0.8236584924,0.4982716617\Bq,0,-3.9853139179,1.041072
 0774,0.9485251462\Bq,0,-3.9831899444,0.7801757754,0.4082209649\Bq,0,-3
 .9856679134,1.0845547944,1.038575843\Bq,0,-3.9828359488,0.7366930584,0
 .318170268\Bq,0,-3.986021909,1.1280375114,1.1286265399\Bq,0,-3.9824819
 533,0.6932103414,0.2281195711\Bq,0,-3.9842519311,0.9106239264,0.678373
 0555\Bq,0,-3.9844349944,1.0441580361,0.7249413714\Bq,0,-3.9837270033,0
 .9571926021,0.5448399776\Bq,0,-3.98478899,1.0876407531,0.8149920682\Bq
 ,0,-3.9833730077,0.913709885,0.4547892807\Bq,0,-3.9851429856,1.1311234
 701,0.9050427651\Bq,0,-3.9830190121,0.870227168,0.3647385838\Bq,0,-3.9
 854969812,1.1746061871,0.995093462\Bq,0,-3.9826650166,0.826744451,0.27
 4687887\Bq,0,-3.9858509767,1.2180889041,1.0851441589\Bq,0,-3.982311021
 ,0.783261734,0.1846371901\Bq,0,-3.9840809989,1.0006753191,0.6348906745
 \Bq,0,-3.9842640622,1.1342094287,0.6814589903\Bq,0,-3.983556071,1.0472
 439947,0.5013575966\Bq,0,-3.9846180577,1.1776921457,0.7715096872\Bq,0,
 -3.9832020754,1.0037612777,0.4113068997\Bq,0,-3.9849720533,1.221174862
 7,0.8615603841\Bq,0,-3.9828480799,0.9602785607,0.3212562028\Bq,0,-3.98
 53260489,1.2646575797,0.951611081\Bq,0,-3.9824940843,0.9167958437,0.23
 12055059\Bq,0,-3.9856800445,1.3081402968,1.0416617779\Bq,0,-3.98214008
 87,0.8733131267,0.141154809\Bq,0,-3.9839100666,1.0907267117,0.59140829
 34\Bq,0,-3.9840931299,1.2242608214,0.6379766093\Bq,0,-3.9833851387,1.1
 372953874,0.4578752155\Bq,0,-3.9844471255,1.2677435384,0.7280273062\Bq
 ,0,-3.9830311432,1.0938126704,0.3678245187\Bq,0,-3.984801121,1.3112262
 554,0.8180780031\Bq,0,-3.9826771476,1.0503299534,0.2777738218\Bq,0,-3.
 9851551166,1.3547089724,0.9081286999\Bq,0,-3.982323152,1.0068472364,0.
 1877231249\Bq,0,-3.9855091122,1.3981916894,0.9981793968\Bq,0,-3.981969
 1564,0.9633645194,0.097672428\Bq,0,-3.9837391343,1.1807781044,0.547925
 9124\Bq,0,-3.9839221976,1.3143122141,0.5944942283\Bq,0,-3.9832142065,1
 .2273467801,0.4143928345\Bq,0,-3.9842761932,1.3577949311,0.6845449251\
 Bq,0,-3.9828602109,1.1838640631,0.3243421376\Bq,0,-3.9846301888,1.4012
 776481,0.774595622\Bq,0,-3.9825062153,1.1403813461,0.2342914407\Bq,0,-
 3.9849841843,1.4447603651,0.8646463189\Bq,0,-3.9821522197,1.0968986291
 ,0.1442407439\Bq,0,-3.9853381799,1.4882430821,0.9546970158\Bq,0,-3.981
 7982242,1.053415912,0.054190047\Bq,0,-3.983568202,1.2708294971,0.50444
 35314\Bq,0,-3.9837512653,1.4043636067,0.5510118472\Bq,0,-3.9830432742,
 1.3173981727,0.3709104535\Bq,0,-3.9841052609,1.4478463237,0.6410625441
 \Bq,0,-3.9826892786,1.2739154557,0.2808597566\Bq,0,-3.9844592565,1.491
 3290408,0.731113241\Bq,0,-3.982335283,1.2304327387,0.1908090597\Bq,0,-
 3.9848132521,1.5348117578,0.8211639379\Bq,0,-3.9819812875,1.1869500217
 ,0.1007583628\Bq,0,-3.9851672476,1.5782944748,0.9112146348\Bq,0,-3.981
 6272919,1.1434673047,0.0107076659\Bq,0,-3.9833972698,1.3608808897,0.46
 09611504\Bq,0,-3.9835803331,1.4944149994,0.5075294662\Bq,0,-3.98287234
 19,1.4074495654,0.3274280724\Bq,0,-3.9839343286,1.5378977164,0.5975801
 631\Bq,0,-3.9825183463,1.3639668484,0.2373773756\Bq,0,-3.9842883242,1.
 5813804334,0.68763086\Bq,0,-3.9821643508,1.3204841314,0.1473266787\Bq,
 0,-3.9846423198,1.6248631504,0.7776815568\Bq,0,-3.9818103552,1.2770014
 144,0.0572759818\Bq,0,-3.9849963154,1.6683458674,0.8677322537\Bq,0,-3.
 9814563596,1.2335186974,-0.0327747151\Bq,0,-3.9832263375,1.4509322824,
 0.4174787693\Bq,0,-3.9834094008,1.5844663921,0.4640470852\Bq,0,-3.9827
 014096,1.4975009581,0.2839456914\Bq,0,-3.9837633964,1.6279491091,0.554
 0977821\Bq,0,-3.9823474141,1.4540182411,0.1938949945\Bq,0,-3.984117391
 9,1.6714318261,0.6441484789\Bq,0,-3.9819934185,1.4105355241,0.10384429
 76\Bq,0,-3.9844713875,1.7149145431,0.7341991758\Bq,0,-3.9816394229,1.3
 670528071,0.0137936008\Bq,0,-3.9848253831,1.7583972601,0.8242498727\Bq
 ,0,-3.9812854273,1.3235700901,-0.0762570961\Bq,0,-3.9830554052,1.54098
 36751,0.3739963883\Bq,0,-3.9832384685,1.6745177848,0.4205647041\Bq,0,-
 3.9825304774,1.5875523507,0.2404633104\Bq,0,-3.9835924641,1.7180005018
 ,0.510615401\Bq,0,-3.9821764818,1.5440696337,0.1504126135\Bq,0,-3.9839
 464597,1.7614832188,0.6006660979\Bq,0,-3.9818224862,1.5005869167,0.060
 3619166\Bq,0,-3.9843004552,1.8049659358,0.6907167948\Bq,0,-3.981468490
 6,1.4571041997,-0.0296887803\Bq,0,-3.9846544508,1.8484486528,0.7807674
 917\Bq,0,-3.9811144951,1.4136214827,-0.1197394772\Bq,0,-3.9828844729,1
 .6310350678,0.3305140073\Bq,0,-3.9830675362,1.7645691774,0.3770823231\
 Bq,0,-3.9823595451,1.6776037434,0.1969809293\Bq,0,-3.9834215318,1.8080
 518944,0.46713302\Bq,0,-3.9820055495,1.6341210264,0.1069302325\Bq,0,-3
 .9837755274,1.8515346114,0.5571837169\Bq,0,-3.9816515539,1.5906383094,
 0.0168795356\Bq,0,-3.984129523,1.8950173284,0.6472344138\Bq,0,-3.98129
 75584,1.5471555924,-0.0731711613\Bq,0,-3.9844835185,1.9385000454,0.737
 2851106\Bq,0,-3.9809435628,1.5036728754,-0.1632218582\Bq,0,-3.98271354
 07,1.7210864604,0.2870316262\Bq,0,-3.982896604,1.8546205701,0.33359994
 21\Bq,0,-3.9821886128,1.7676551361,0.1534985483\Bq,0,-3.9832505995,1.8
 981032871,0.423650639\Bq,0,-3.9818346172,1.7241724191,0.0634478514\Bq,
 0,-3.9836045951,1.9415860041,0.5137013358\Bq,0,-3.9814806217,1.6806897
 021,-0.0266028455\Bq,0,-3.9839585907,1.9850687211,0.6037520327\Bq,0,-3
 .9811266261,1.6372069851,-0.1166535423\Bq,0,-3.9843125863,2.0285514381
 ,0.6938027296\Bq,0,-3.9807726305,1.5937242681,-0.2067042392\Bq,0,-3.98
 25426084,1.8111378531,0.2435492452\Bq,0,-3.9827256717,1.9446719628,0.2
 90117561\Bq,0,-3.9820176805,1.8577065288,0.1100161673\Bq,0,-3.98307966
 73,1.9881546798,0.3801682579\Bq,0,-3.981663685,1.8142238118,0.01996547
 04\Bq,0,-3.9834336628,2.0316373968,0.4702189548\Bq,0,-3.9813096894,1.7
 707410947,-0.0700852265\Bq,0,-3.9837876584,2.0751201138,0.5602696517\B
 q,0,-3.9809556938,1.7272583777,-0.1601359234\Bq,0,-3.984141654,2.11860
 28308,0.6503203486\Bq,0,-3.9806016982,1.6837756607,-0.2501866203\Bq,0,
 -3.9823716761,1.9011892458,0.2000668642\Bq,0,-3.9825547394,2.034723355
 4,0.24663518\Bq,0,-3.9818467483,1.9477579214,0.0665337862\Bq,0,-3.9829
 08735,2.0782060724,0.3366858769\Bq,0,-3.9814927527,1.9042752044,-0.023
 5169106\Bq,0,-3.9832627306,2.1216887894,0.4267365738\Bq,0,-3.981138757
 1,1.8607924874,-0.1135676075\Bq,0,-3.9836167261,2.1651715065,0.5167872
 707\Bq,0,-3.9807847615,1.8173097704,-0.2036183044\Bq,0,-3.9839707217,2
 .2086542235,0.6068379675\Bq,0,-3.980430766,1.7738270534,-0.2936690013\
 Bq,0,-3.9822007438,1.9912406384,0.1565844831\\Version=ES64L-G09RevD.01
 \HF=-847.0032898\RMSD=7.554e-09\Dipole=0.0186808,0.0336671,0.0011595\Q
 uadrupole=4.9072795,4.7288219,-9.6361014,-0.2850201,2.3867064,-0.88017
 2\PG=C01 [X(C22H14)]\\@


 THE MEEK SHALL INHERIT THE EARTH.
 (THE REST OF US WILL ESCAPE TO THE STARS)
 Job cpu time:       0 days  2 hours 37 minutes 34.9 seconds.
 File lengths (MBytes):  RWF=    184 Int=      0 D2E=      0 Chk=     19 Scr=      1
 Normal termination of Gaussian 09 at Sun Aug 23 02:01:01 2020.
