 Entering Gaussian System, Link 0=g09
 Input=input_cycle_01_batch_10800.com
 Output=input_cycle_01_batch_10800.log
 Initial command:
 /share/programs/GAUSSIAN/64/g09/l1.exe "/scratch/yannick.29906/Gau-19175.inp" -scrdir="/scratch/yannick.29906/"
 Entering Link 1 = /share/programs/GAUSSIAN/64/g09/l1.exe PID=     19176.
  
 Copyright (c) 1988,1990,1992,1993,1995,1998,2003,2009,2013,
            Gaussian, Inc.  All Rights Reserved.
  
 This is part of the Gaussian(R) 09 program.  It is based on
 the Gaussian(R) 03 system (copyright 2003, Gaussian, Inc.),
 the Gaussian(R) 98 system (copyright 1998, Gaussian, Inc.),
 the Gaussian(R) 94 system (copyright 1995, Gaussian, Inc.),
 the Gaussian 92(TM) system (copyright 1992, Gaussian, Inc.),
 the Gaussian 90(TM) system (copyright 1990, Gaussian, Inc.),
 the Gaussian 88(TM) system (copyright 1988, Gaussian, Inc.),
 the Gaussian 86(TM) system (copyright 1986, Carnegie Mellon
 University), and the Gaussian 82(TM) system (copyright 1983,
 Carnegie Mellon University). Gaussian is a federally registered
 trademark of Gaussian, Inc.
  
 This software contains proprietary and confidential information,
 including trade secrets, belonging to Gaussian, Inc.
  
 This software is provided under written license and may be
 used, copied, transmitted, or stored only in accord with that
 written license.
  
 The following legend is applicable only to US Government
 contracts under FAR:
  
                    RESTRICTED RIGHTS LEGEND
  
 Use, reproduction and disclosure by the US Government is
 subject to restrictions as set forth in subparagraphs (a)
 and (c) of the Commercial Computer Software - Restricted
 Rights clause in FAR 52.227-19.
  
 Gaussian, Inc.
 340 Quinnipiac St., Bldg. 40, Wallingford CT 06492
  
  
 ---------------------------------------------------------------
 Warning -- This program may not be used in any manner that
 competes with the business of Gaussian, Inc. or will provide
 assistance to any competitor of Gaussian, Inc.  The licensee
 of this program is prohibited from giving any competitor of
 Gaussian, Inc. access to this program.  By using this program,
 the user acknowledges that Gaussian, Inc. is engaged in the
 business of creating and licensing software in the field of
 computational chemistry and represents and warrants to the
 licensee that it is not a competitor of Gaussian, Inc. and that
 it will not use this program in any manner prohibited above.
 ---------------------------------------------------------------
  

 Cite this work as:
 Gaussian 09, Revision D.01,
 M. J. Frisch, G. W. Trucks, H. B. Schlegel, G. E. Scuseria, 
 M. A. Robb, J. R. Cheeseman, G. Scalmani, V. Barone, B. Mennucci, 
 G. A. Petersson, H. Nakatsuji, M. Caricato, X. Li, H. P. Hratchian, 
 A. F. Izmaylov, J. Bloino, G. Zheng, J. L. Sonnenberg, M. Hada, 
 M. Ehara, K. Toyota, R. Fukuda, J. Hasegawa, M. Ishida, T. Nakajima, 
 Y. Honda, O. Kitao, H. Nakai, T. Vreven, J. A. Montgomery, Jr., 
 J. E. Peralta, F. Ogliaro, M. Bearpark, J. J. Heyd, E. Brothers, 
 K. N. Kudin, V. N. Staroverov, T. Keith, R. Kobayashi, J. Normand, 
 K. Raghavachari, A. Rendell, J. C. Burant, S. S. Iyengar, J. Tomasi, 
 M. Cossi, N. Rega, J. M. Millam, M. Klene, J. E. Knox, J. B. Cross, 
 V. Bakken, C. Adamo, J. Jaramillo, R. Gomperts, R. E. Stratmann, 
 O. Yazyev, A. J. Austin, R. Cammi, C. Pomelli, J. W. Ochterski, 
 R. L. Martin, K. Morokuma, V. G. Zakrzewski, G. A. Voth, 
 P. Salvador, J. J. Dannenberg, S. Dapprich, A. D. Daniels, 
 O. Farkas, J. B. Foresman, J. V. Ortiz, J. Cioslowski, 
 and D. J. Fox, Gaussian, Inc., Wallingford CT, 2013.
 
 ******************************************
 Gaussian 09:  ES64L-G09RevD.01 24-Apr-2013
                21-Aug-2020 
 ******************************************
 %nproc=8
 Will use up to    8 processors via shared memory.
 %mem=1000MB
 ----------------------------------------
 # rb3lyp/6-311+g** NMR geom=connectivity
 ----------------------------------------
 1/38=1,57=2/1;
 2/12=2,17=6,18=5,40=1/2;
 3/5=4,6=6,7=111,11=2,16=1,25=1,30=1,74=-5,116=1/1,2,8,3;
 4//1;
 5/5=2,38=5/2;
 8/6=1,10=90,11=11/1;
 10/13=100,45=16/2;
 6/7=2,8=2,9=2,10=2,28=1/1;
 99/9=1/99;
 -----
 Title
 -----
 Symbolic Z-matrix:
 Charge =  0 Multiplicity = 1
 C                    -4.05006  -0.57719   0.81367 
 H                    -5.02638  -1.00827   1.00248 
 C                    -3.93816   0.66178   0.24009 
 H                    -4.82524   1.23389  -0.01113 
 C                    -2.67684   1.24332   0.00576 
 C                    -1.49741   0.50515   0.28483 
 C                    -1.65083  -0.73387   0.9404 
 H                    -0.77136  -1.2731    1.26338 
 C                    -2.88985  -1.2624    1.19943 
 H                    -2.96837  -2.21246   1.71527 
 C                    -2.57732   2.59637  -0.41929 
 H                    -3.48707   3.14122  -0.64741 
 C                    -1.37419   3.21479  -0.4364 
 H                    -1.29973   4.2742   -0.65781 
 C                    -0.17195   2.49941  -0.17346 
 C                    -0.20439   1.10184   0.01927 
 C                     1.05135   3.20426  -0.06762 
 H                     1.04273   4.28195  -0.1897 
 C                     2.19421   2.54874   0.25796 
 H                     3.11685   3.09128   0.43347 
 C                     2.22165   1.13366   0.2935 
 C                     1.04869   0.39455   0.03024 
 C                     3.44834   0.46146   0.55739 
 H                     4.30958   1.06061   0.83348 
 C                     3.54273  -0.88559   0.47495 
 H                     4.47315  -1.39397   0.70388 
 C                     2.44901  -1.64744  -0.01963 
 C                     1.21507  -1.00573  -0.30136 
 C                     0.25311  -1.74344  -1.02166 
 H                    -0.65414  -1.25351  -1.34628 
 C                     0.44942  -3.06286  -1.34138 
 H                    -0.30832  -3.59443  -1.90541 
 C                     1.62517  -3.7208   -0.95525 
 H                     1.767    -4.76874  -1.1927 
 C                     2.61099  -3.01442  -0.31831 
 H                     3.55256  -3.49028  -0.06464 
 Bq                    0.63197  -3.88505  -0.3451 
 Bq                    1.03059  -3.61889  -1.22275 
 Bq                    0.83128  -3.75197  -0.78393 
 Bq                    0.78041  -3.68219  -0.67193 
 Bq                    0.86013  -3.62896  -0.84746 
 Bq                    0.74055  -3.70881  -0.58416 
 Bq                    0.89999  -3.60234  -0.93522 
 Bq                    0.70068  -3.73542  -0.4964 
 Bq                    0.93986  -3.57573  -1.02299 
 Bq                    0.66082  -3.76204  -0.40863 
 Bq                    0.97972  -3.54911  -1.11075 
 Bq                    0.62096  -3.78865  -0.32087 
 Bq                    1.01958  -3.5225   -1.19852 
 Bq                    0.82027  -3.65558  -0.75969 
 Bq                    0.7694   -3.5858   -0.6477 
 Bq                    0.84913  -3.53257  -0.82322 
 Bq                    0.72954  -3.61241  -0.55993 
 Bq                    0.88899  -3.50595  -0.91099 
 Bq                    0.68968  -3.63903  -0.47217 
 Bq                    0.92885  -3.47934  -0.99875 
 Bq                    0.64982  -3.66565  -0.3844 
 Bq                    0.96871  -3.45272  -1.08652 
 Bq                    0.60995  -3.69226  -0.29664 
 Bq                    1.00857  -3.4261   -1.17428 
 Bq                    0.80926  -3.55918  -0.73546 
 Bq                    0.7584   -3.48941  -0.62346 
 Bq                    0.83812  -3.43617  -0.79899 
 Bq                    0.71853  -3.51602  -0.5357 
 Bq                    0.87798  -3.40956  -0.88676 
 Bq                    0.67867  -3.54264  -0.44793 
 Bq                    0.91784  -3.38294  -0.97452 
 Bq                    0.63881  -3.56925  -0.36017 
 Bq                    0.9577   -3.35633  -1.06229 
 Bq                    0.59895  -3.59587  -0.2724 
 Bq                    0.99757  -3.32971  -1.15005 
 Bq                    0.79826  -3.46279  -0.71123 
 Bq                    0.74739  -3.39301  -0.59923 
 Bq                    0.82711  -3.33978  -0.77476 
 Bq                    0.70753  -3.41963  -0.51146 
 Bq                    0.86697  -3.31317  -0.86252 
 Bq                    0.66767  -3.44624  -0.4237 
 Bq                    0.90684  -3.28655  -0.95029 
 Bq                    0.6278   -3.47286  -0.33593 
 Bq                    0.9467   -3.25993  -1.03805 
 Bq                    0.58794  -3.49947  -0.24817 
 Bq                    0.98656  -3.23332  -1.12582 
 Bq                    0.78725  -3.3664   -0.68699 
 Bq                    0.73638  -3.29662  -0.575 
 Bq                    0.81611  -3.24339  -0.75052 
 Bq                    0.69652  -3.32323  -0.48723 
 Bq                    0.85597  -3.21677  -0.83829 
 Bq                    0.65666  -3.34985  -0.39947 
 Bq                    0.89583  -3.19016  -0.92605 
 Bq                    0.6168   -3.37647  -0.3117 
 Bq                    0.93569  -3.16354  -1.01382 
 Bq                    0.57694  -3.40308  -0.22394 
 Bq                    0.97555  -3.13693  -1.10158 
 Bq                    0.77624  -3.27     -0.66276 
 Bq                    0.72538  -3.20023  -0.55076 
 Bq                    0.8051   -3.14699  -0.72629 
 Bq                    0.68551  -3.22684  -0.463 
 Bq                    0.84496  -3.12038  -0.81406 
 Bq                    0.64565  -3.25346  -0.37523 
 Bq                    0.88482  -3.09376  -0.90182 
 Bq                    0.60579  -3.28007  -0.28747 
 Bq                    0.92468  -3.06715  -0.98959 
 Bq                    0.56593  -3.30669  -0.1997 
 Bq                    0.96455  -3.04053  -1.07735 
 Bq                    0.76524  -3.17361  -0.63853 
 Bq                    0.71437  -3.10383  -0.52653 
 Bq                    0.79409  -3.0506   -0.70206 
 Bq                    0.67451  -3.13045  -0.43876 
 Bq                    0.83395  -3.02399  -0.78982 
 Bq                    0.63465  -3.15706  -0.351 
 Bq                    0.87382  -2.99737  -0.87759 
 Bq                    0.59478  -3.18368  -0.26323 
 Bq                    0.91368  -2.97075  -0.96535 
 Bq                    0.55492  -3.2103   -0.17547 
 Bq                    0.95354  -2.94414  -1.05312 
 Bq                    0.75423  -3.07722  -0.61429 
 Bq                    0.70336  -3.00744  -0.5023 
 Bq                    0.78309  -2.95421  -0.67783 
 Bq                    0.6635   -3.03406  -0.41453 
 Bq                    0.82295  -2.92759  -0.76559 
 Bq                    0.62364  -3.06067  -0.32677 
 Bq                    0.86281  -2.90098  -0.85335 
 Bq                    0.58378  -3.08729  -0.239 
 Bq                    0.90267  -2.87436  -0.94112 
 Bq                    0.54392  -3.1139   -0.15124 
 Bq                    0.94253  -2.84775  -1.02888 
 Bq                    0.74322  -2.98082  -0.59006 
 Bq                    0.69236  -2.91105  -0.47806 
 Bq                    0.77208  -2.85782  -0.65359 
 Bq                    0.65249  -2.93766  -0.3903 
 Bq                    0.81194  -2.8312   -0.74136 
 Bq                    0.61263  -2.96428  -0.30253 
 Bq                    0.8518   -2.80458  -0.82912 
 Bq                    0.57277  -2.99089  -0.21477 
 Bq                    0.89167  -2.77797  -0.91689 
 Bq                    0.53291  -3.01751  -0.127 
 Bq                    0.93153  -2.75135  -1.00465 
 Bq                    0.73222  -2.88443  -0.56583 
 Bq                    0.68135  -2.81465  -0.45383 
 Bq                    0.76107  -2.76142  -0.62936 
 Bq                    0.64149  -2.84127  -0.36606 
 Bq                    0.80094  -2.73481  -0.71712 
 Bq                    0.60163  -2.86789  -0.2783 
 Bq                    0.8408   -2.70819  -0.80489 
 Bq                    0.56176  -2.8945   -0.19054 
 Bq                    0.88066  -2.68158  -0.89265 
 Bq                    0.5219   -2.92112  -0.10277 
 Bq                    0.92052  -2.65496  -0.98042 
 Bq                    0.72121  -2.78804  -0.54159 
 Bq                    0.67034  -2.71826  -0.4296 
 Bq                    0.75007  -2.66503  -0.60513 
 Bq                    0.63048  -2.74488  -0.34183 
 Bq                    0.78993  -2.63841  -0.69289 
 Bq                    0.59062  -2.77149  -0.25407 
 Bq                    0.82979  -2.6118   -0.78065 
 Bq                    0.55076  -2.79811  -0.1663 
 Bq                    0.86965  -2.58518  -0.86842 
 Bq                    0.5109   -2.82472  -0.07854 
 Bq                    0.90951  -2.55857  -0.95618 
 Bq                    0.71021  -2.69165  -0.51736 
 Bq                    0.65934  -2.62187  -0.40536 
 Bq                    0.73906  -2.56864  -0.58089 
 Bq                    0.61948  -2.64848  -0.3176 
 Bq                    0.77892  -2.54202  -0.66866 
 Bq                    0.57961  -2.6751   -0.22983 
 Bq                    0.81878  -2.51541  -0.75642 
 Bq                    0.53975  -2.70172  -0.14207 
 Bq                    0.85865  -2.48879  -0.84419 
 Bq                    0.49989  -2.72833  -0.0543 
 Bq                    0.89851  -2.46217  -0.93195 
 Bq                    0.6992   -2.59525  -0.49313 
 Bq                    0.64833  -2.52548  -0.38113 
 Bq                    0.72805  -2.47224  -0.55666 
 Bq                    0.60847  -2.55209  -0.29336 
 Bq                    0.76792  -2.44563  -0.64442 
 Bq                    0.56861  -2.57871  -0.2056 
 Bq                    0.80778  -2.41901  -0.73219 
 Bq                    0.52875  -2.60532  -0.11784 
 Bq                    0.84764  -2.3924   -0.81995 
 Bq                    0.48888  -2.63194  -0.03007 
 Bq                    0.8875   -2.36578  -0.90772 
 Bq                    0.68819  -2.49886  -0.46889 
 Bq                    0.63732  -2.42908  -0.3569 
 Bq                    0.71705  -2.37585  -0.53243 
 Bq                    0.59746  -2.4557   -0.26913 
 Bq                    0.75691  -2.34924  -0.62019 
 Bq                    0.5576   -2.48231  -0.18137 
 Bq                    0.79677  -2.32262  -0.70796 
 Bq                    0.51774  -2.50893  -0.0936 
 Bq                    0.83663  -2.296    -0.79572 
 Bq                    0.47788  -2.53554  -0.00584 
 Bq                    0.87649  -2.26939  -0.88348 
 Bq                    0.67719  -2.40247  -0.44466 
 Bq                    0.62632  -2.33269  -0.33266 
 Bq                    0.70604  -2.27946  -0.50819 
 Bq                    0.58646  -2.35931  -0.2449 
 Bq                    0.7459   -2.25284  -0.59596 
 Bq                    0.54659  -2.38592  -0.15713 
 Bq                    0.78576  -2.22623  -0.68372 
 Bq                    0.50673  -2.41254  -0.06937 
 Bq                    0.82563  -2.19961  -0.77149 
 Bq                    0.46687  -2.43915   0.0184 
 Bq                    0.86549  -2.173    -0.85925 
 Bq                    0.66618  -2.30607  -0.42043 
 Bq                    0.61531  -2.2363   -0.30843 
 Bq                    0.69503  -2.18307  -0.48396 
 Bq                    0.57545  -2.26291  -0.22067 
 Bq                    0.7349   -2.15645  -0.57172 
 Bq                    0.53559  -2.28953  -0.1329 
 Bq                    0.77476  -2.12983  -0.65949 
 Bq                    0.49573  -2.31614  -0.04514 
 Bq                    0.81462  -2.10322  -0.74725 
 Bq                    0.45586  -2.34276   0.04263 
 Bq                    0.85448  -2.0766   -0.83502 
 Bq                    0.65517  -2.20968  -0.39619 
 Bq                    0.6043   -2.1399   -0.2842 
 Bq                    0.68403  -2.08667  -0.45973 
 Bq                    0.56444  -2.16652  -0.19643 
 Bq                    0.72389  -2.06006  -0.54749 
 Bq                    0.52458  -2.19313  -0.10867 
 Bq                    0.76375  -2.03344  -0.63526 
 Bq                    0.48472  -2.21975  -0.0209 
 Bq                    0.80361  -2.00683  -0.72302 
 Bq                    0.44486  -2.24637   0.06686 
 Bq                    0.84348  -1.98021  -0.81078 
 Bq                    0.64417  -2.11329  -0.37196 
 Bq                    0.5933   -2.04351  -0.25996 
 Bq                    0.67302  -1.99028  -0.43549 
 Bq                    0.55344  -2.07013  -0.1722 
 Bq                    0.71288  -1.96366  -0.52326 
 Bq                    0.51357  -2.09674  -0.08443 
 Bq                    0.75275  -1.93705  -0.61102 
 Bq                    0.47371  -2.12336   0.00333 
 Bq                    0.79261  -1.91043  -0.69879 
 Bq                    0.43385  -2.14997   0.0911 
 Bq                    0.83247  -1.88382  -0.78655 
 
 Symmetry turned off:
 Cannot cope with ghost atoms or with translation vectors.
 Stoichiometry    C22H14
 Framework group  C1[X(C22H14)]
 NUMDOF-- NAT=    36 NAtoms=   236
 Deg. of freedom     0
 Full point group                 C1      NOp   1
                          Input orientation:                          
 ---------------------------------------------------------------------
 Center     Atomic      Atomic             Coordinates (Angstroms)
 Number     Number       Type             X           Y           Z
 ---------------------------------------------------------------------
      1          6           0       -4.050056   -0.577186    0.813671
      2          1           0       -5.026380   -1.008273    1.002476
      3          6           0       -3.938155    0.661780    0.240088
      4          1           0       -4.825242    1.233889   -0.011130
      5          6           0       -2.676841    1.243325    0.005758
      6          6           0       -1.497412    0.505153    0.284825
      7          6           0       -1.650833   -0.733873    0.940403
      8          1           0       -0.771365   -1.273097    1.263375
      9          6           0       -2.889855   -1.262404    1.199431
     10          1           0       -2.968371   -2.212456    1.715268
     11          6           0       -2.577319    2.596370   -0.419293
     12          1           0       -3.487073    3.141224   -0.647406
     13          6           0       -1.374190    3.214790   -0.436403
     14          1           0       -1.299732    4.274202   -0.657814
     15          6           0       -0.171949    2.499409   -0.173459
     16          6           0       -0.204392    1.101844    0.019269
     17          6           0        1.051349    3.204256   -0.067622
     18          1           0        1.042734    4.281950   -0.189700
     19          6           0        2.194209    2.548745    0.257958
     20          1           0        3.116853    3.091285    0.433473
     21          6           0        2.221647    1.133656    0.293499
     22          6           0        1.048693    0.394553    0.030241
     23          6           0        3.448336    0.461463    0.557394
     24          1           0        4.309579    1.060605    0.833485
     25          6           0        3.542735   -0.885593    0.474946
     26          1           0        4.473147   -1.393970    0.703882
     27          6           0        2.449005   -1.647445   -0.019632
     28          6           0        1.215070   -1.005726   -0.301357
     29          6           0        0.253111   -1.743444   -1.021659
     30          1           0       -0.654136   -1.253505   -1.346285
     31          6           0        0.449419   -3.062860   -1.341378
     32          1           0       -0.308316   -3.594431   -1.905406
     33          6           0        1.625173   -3.720797   -0.955254
     34          1           0        1.767005   -4.768740   -1.192702
     35          6           0        2.610987   -3.014418   -0.318305
     36          1           0        3.552561   -3.490281   -0.064637
     37          0           0        0.631968   -3.885047   -0.345103
     38          0           0        1.030585   -3.618890   -1.222750
     39          0           0        0.831276   -3.751968   -0.783927
     40          0           0        0.780408   -3.682191   -0.671929
     41          0           0        0.860132   -3.628960   -0.847458
     42          0           0        0.740546   -3.708807   -0.584164
     43          0           0        0.899993   -3.602344   -0.935223
     44          0           0        0.700685   -3.735422   -0.496399
     45          0           0        0.939855   -3.575729   -1.022987
     46          0           0        0.660823   -3.762038   -0.408634
     47          0           0        0.979717   -3.549113   -1.110752
     48          0           0        0.620961   -3.788654   -0.320870
     49          0           0        1.019579   -3.522497   -1.198517
     50          0           0        0.820270   -3.655575   -0.759693
     51          0           0        0.769402   -3.585798   -0.647695
     52          0           0        0.849125   -3.532567   -0.823225
     53          0           0        0.729540   -3.612414   -0.559931
     54          0           0        0.888987   -3.505951   -0.910989
     55          0           0        0.689678   -3.639029   -0.472166
     56          0           0        0.928849   -3.479336   -0.998754
     57          0           0        0.649816   -3.665645   -0.384401
     58          0           0        0.968711   -3.452720   -1.086519
     59          0           0        0.609955   -3.692261   -0.296636
     60          0           0        1.008572   -3.426104   -1.174284
     61          0           0        0.809263   -3.559182   -0.735460
     62          0           0        0.758395   -3.489405   -0.623462
     63          0           0        0.838119   -3.436174   -0.798991
     64          0           0        0.718533   -3.516021   -0.535697
     65          0           0        0.877981   -3.409558   -0.886756
     66          0           0        0.678672   -3.542636   -0.447933
     67          0           0        0.917842   -3.382943   -0.974521
     68          0           0        0.638810   -3.569252   -0.360168
     69          0           0        0.957704   -3.356327   -1.062286
     70          0           0        0.598948   -3.595868   -0.272403
     71          0           0        0.997566   -3.329711   -1.150050
     72          0           0        0.798257   -3.462790   -0.711227
     73          0           0        0.747389   -3.393012   -0.599229
     74          0           0        0.827112   -3.339781   -0.774758
     75          0           0        0.707527   -3.419628   -0.511464
     76          0           0        0.866974   -3.313165   -0.862523
     77          0           0        0.667665   -3.446243   -0.423699
     78          0           0        0.906836   -3.286550   -0.950288
     79          0           0        0.627803   -3.472859   -0.335935
     80          0           0        0.946698   -3.259934   -1.038052
     81          0           0        0.587942   -3.499475   -0.248170
     82          0           0        0.986559   -3.233318   -1.125817
     83          0           0        0.787251   -3.366397   -0.686994
     84          0           0        0.736382   -3.296619   -0.574996
     85          0           0        0.816106   -3.243388   -0.750525
     86          0           0        0.696521   -3.323235   -0.487231
     87          0           0        0.855968   -3.216772   -0.838290
     88          0           0        0.656659   -3.349851   -0.399466
     89          0           0        0.895829   -3.190157   -0.926054
     90          0           0        0.616797   -3.376466   -0.311701
     91          0           0        0.935691   -3.163541   -1.013819
     92          0           0        0.576935   -3.403082   -0.223937
     93          0           0        0.975553   -3.136925   -1.101584
     94          0           0        0.776244   -3.270004   -0.662760
     95          0           0        0.725376   -3.200226   -0.550762
     96          0           0        0.805099   -3.146995   -0.726292
     97          0           0        0.685514   -3.226842   -0.462998
     98          0           0        0.844961   -3.120379   -0.814056
     99          0           0        0.645652   -3.253458   -0.375233
    100          0           0        0.884823   -3.093764   -0.901821
    101          0           0        0.605791   -3.280073   -0.287468
    102          0           0        0.924685   -3.067148   -0.989586
    103          0           0        0.565929   -3.306689   -0.199703
    104          0           0        0.964546   -3.040532   -1.077351
    105          0           0        0.765238   -3.173611   -0.638527
    106          0           0        0.714369   -3.103833   -0.526529
    107          0           0        0.794093   -3.050602   -0.702058
    108          0           0        0.674508   -3.130449   -0.438764
    109          0           0        0.833955   -3.023986   -0.789823
    110          0           0        0.634646   -3.157065   -0.351000
    111          0           0        0.873816   -2.997371   -0.877588
    112          0           0        0.594784   -3.183680   -0.263235
    113          0           0        0.913678   -2.970755   -0.965353
    114          0           0        0.554922   -3.210296   -0.175470
    115          0           0        0.953540   -2.944139   -1.053117
    116          0           0        0.754231   -3.077218   -0.614294
    117          0           0        0.703363   -3.007440   -0.502296
    118          0           0        0.783086   -2.954209   -0.677825
    119          0           0        0.663501   -3.034056   -0.414531
    120          0           0        0.822948   -2.927593   -0.765590
    121          0           0        0.623639   -3.060672   -0.326766
    122          0           0        0.862810   -2.900978   -0.853355
    123          0           0        0.583778   -3.087287   -0.239002
    124          0           0        0.902672   -2.874362   -0.941119
    125          0           0        0.543916   -3.113903   -0.151237
    126          0           0        0.942533   -2.847746   -1.028884
    127          0           0        0.743225   -2.980825   -0.590061
    128          0           0        0.692356   -2.911047   -0.478063
    129          0           0        0.772080   -2.857816   -0.653592
    130          0           0        0.652495   -2.937663   -0.390298
    131          0           0        0.811942   -2.831200   -0.741357
    132          0           0        0.612633   -2.964279   -0.302533
    133          0           0        0.851803   -2.804585   -0.829121
    134          0           0        0.572771   -2.990894   -0.214768
    135          0           0        0.891665   -2.777969   -0.916886
    136          0           0        0.532909   -3.017510   -0.127004
    137          0           0        0.931527   -2.751353   -1.004651
    138          0           0        0.732218   -2.884432   -0.565827
    139          0           0        0.681350   -2.814654   -0.453829
    140          0           0        0.761073   -2.761423   -0.629359
    141          0           0        0.641488   -2.841270   -0.366065
    142          0           0        0.800935   -2.734807   -0.717123
    143          0           0        0.601626   -2.867886   -0.278300
    144          0           0        0.840797   -2.708192   -0.804888
    145          0           0        0.561765   -2.894501   -0.190535
    146          0           0        0.880659   -2.681576   -0.892653
    147          0           0        0.521903   -2.921117   -0.102770
    148          0           0        0.920521   -2.654960   -0.980418
    149          0           0        0.721212   -2.788039   -0.541594
    150          0           0        0.670343   -2.718261   -0.429596
    151          0           0        0.750067   -2.665030   -0.605125
    152          0           0        0.630482   -2.744877   -0.341831
    153          0           0        0.789929   -2.638414   -0.692890
    154          0           0        0.590620   -2.771493   -0.254067
    155          0           0        0.829791   -2.611799   -0.780655
    156          0           0        0.550758   -2.798108   -0.166302
    157          0           0        0.869652   -2.585183   -0.868420
    158          0           0        0.510896   -2.824724   -0.078537
    159          0           0        0.909514   -2.558567   -0.956184
    160          0           0        0.710205   -2.691646   -0.517361
    161          0           0        0.659337   -2.621868   -0.405363
    162          0           0        0.739061   -2.568637   -0.580892
    163          0           0        0.619475   -2.648484   -0.317598
    164          0           0        0.778922   -2.542021   -0.668657
    165          0           0        0.579613   -2.675100   -0.229833
    166          0           0        0.818784   -2.515406   -0.756422
    167          0           0        0.539752   -2.701715   -0.142069
    168          0           0        0.858646   -2.488790   -0.844186
    169          0           0        0.499890   -2.728331   -0.054304
    170          0           0        0.898508   -2.462174   -0.931951
    171          0           0        0.699199   -2.595253   -0.493128
    172          0           0        0.648331   -2.525475   -0.381130
    173          0           0        0.728054   -2.472244   -0.556659
    174          0           0        0.608469   -2.552091   -0.293365
    175          0           0        0.767916   -2.445628   -0.644424
    176          0           0        0.568607   -2.578707   -0.205600
    177          0           0        0.807778   -2.419013   -0.732188
    178          0           0        0.528745   -2.605322   -0.117835
    179          0           0        0.847639   -2.392397   -0.819953
    180          0           0        0.488883   -2.631938   -0.030071
    181          0           0        0.887501   -2.365781   -0.907718
    182          0           0        0.688192   -2.498860   -0.468894
    183          0           0        0.637324   -2.429082   -0.356896
    184          0           0        0.717048   -2.375851   -0.532426
    185          0           0        0.597462   -2.455698   -0.269132
    186          0           0        0.756909   -2.349235   -0.620190
    187          0           0        0.557601   -2.482314   -0.181367
    188          0           0        0.796771   -2.322620   -0.707955
    189          0           0        0.517739   -2.508929   -0.093602
    190          0           0        0.836633   -2.296004   -0.795720
    191          0           0        0.477877   -2.535545   -0.005837
    192          0           0        0.876495   -2.269388   -0.883485
    193          0           0        0.677186   -2.402467   -0.444661
    194          0           0        0.626318   -2.332689   -0.332663
    195          0           0        0.706041   -2.279458   -0.508192
    196          0           0        0.586456   -2.359305   -0.244898
    197          0           0        0.745903   -2.252842   -0.595957
    198          0           0        0.546594   -2.385921   -0.157134
    199          0           0        0.785765   -2.226227   -0.683722
    200          0           0        0.506732   -2.412536   -0.069369
    201          0           0        0.825626   -2.199611   -0.771487
    202          0           0        0.466871   -2.439152    0.018396
    203          0           0        0.865488   -2.172995   -0.859251
    204          0           0        0.666179   -2.306074   -0.420428
    205          0           0        0.615311   -2.236296   -0.308430
    206          0           0        0.695035   -2.183065   -0.483959
    207          0           0        0.575449   -2.262912   -0.220665
    208          0           0        0.734896   -2.156449   -0.571724
    209          0           0        0.535588   -2.289528   -0.132900
    210          0           0        0.774758   -2.129834   -0.659489
    211          0           0        0.495726   -2.316143   -0.045136
    212          0           0        0.814620   -2.103218   -0.747253
    213          0           0        0.455864   -2.342759    0.042629
    214          0           0        0.854482   -2.076602   -0.835018
    215          0           0        0.655173   -2.209681   -0.396195
    216          0           0        0.604305   -2.139903   -0.284197
    217          0           0        0.684028   -2.086672   -0.459726
    218          0           0        0.564443   -2.166519   -0.196432
    219          0           0        0.723890   -2.060056   -0.547491
    220          0           0        0.524581   -2.193135   -0.108667
    221          0           0        0.763752   -2.033441   -0.635255
    222          0           0        0.484719   -2.219750   -0.020902
    223          0           0        0.803613   -2.006825   -0.723020
    224          0           0        0.444858   -2.246366    0.066862
    225          0           0        0.843475   -1.980210   -0.810785
    226          0           0        0.644166   -2.113288   -0.371961
    227          0           0        0.593298   -2.043510   -0.259963
    228          0           0        0.673022   -1.990279   -0.435493
    229          0           0        0.553436   -2.070126   -0.172199
    230          0           0        0.712883   -1.963663   -0.523257
    231          0           0        0.513575   -2.096742   -0.084434
    232          0           0        0.752745   -1.937048   -0.611022
    233          0           0        0.473713   -2.123357    0.003331
    234          0           0        0.792607   -1.910432   -0.698787
    235          0           0        0.433851   -2.149973    0.091096
    236          0           0        0.832469   -1.883817   -0.786552
 ---------------------------------------------------------------------
 Rotational constants (GHZ):      0.4529074      0.2836956      0.1879557
 Standard basis: 6-311+G(d,p) (5D, 7F)
 Warning:  center  37 has no basis functions!
 Warning:  center  38 has no basis functions!
 Warning:  center  39 has no basis functions!
 Warning:  center  40 has no basis functions!
 Warning:  center  41 has no basis functions!
 Warning:  center  42 has no basis functions!
 Warning:  center  43 has no basis functions!
 Warning:  center  44 has no basis functions!
 Warning:  center  45 has no basis functions!
 Warning:  center  46 has no basis functions!
 Warning:  center  47 has no basis functions!
 Warning:  center  48 has no basis functions!
 Warning:  center  49 has no basis functions!
 Warning:  center  50 has no basis functions!
 Warning:  center  51 has no basis functions!
 Warning:  center  52 has no basis functions!
 Warning:  center  53 has no basis functions!
 Warning:  center  54 has no basis functions!
 Warning:  center  55 has no basis functions!
 Warning:  center  56 has no basis functions!
 Warning:  center  57 has no basis functions!
 Warning:  center  58 has no basis functions!
 Warning:  center  59 has no basis functions!
 Warning:  center  60 has no basis functions!
 Warning:  center  61 has no basis functions!
 Warning:  center  62 has no basis functions!
 Warning:  center  63 has no basis functions!
 Warning:  center  64 has no basis functions!
 Warning:  center  65 has no basis functions!
 Warning:  center  66 has no basis functions!
 Warning:  center  67 has no basis functions!
 Warning:  center  68 has no basis functions!
 Warning:  center  69 has no basis functions!
 Warning:  center  70 has no basis functions!
 Warning:  center  71 has no basis functions!
 Warning:  center  72 has no basis functions!
 Warning:  center  73 has no basis functions!
 Warning:  center  74 has no basis functions!
 Warning:  center  75 has no basis functions!
 Warning:  center  76 has no basis functions!
 Warning:  center  77 has no basis functions!
 Warning:  center  78 has no basis functions!
 Warning:  center  79 has no basis functions!
 Warning:  center  80 has no basis functions!
 Warning:  center  81 has no basis functions!
 Warning:  center  82 has no basis functions!
 Warning:  center  83 has no basis functions!
 Warning:  center  84 has no basis functions!
 Warning:  center  85 has no basis functions!
 Warning:  center  86 has no basis functions!
 Warning:  center  87 has no basis functions!
 Warning:  center  88 has no basis functions!
 Warning:  center  89 has no basis functions!
 Warning:  center  90 has no basis functions!
 Warning:  center  91 has no basis functions!
 Warning:  center  92 has no basis functions!
 Warning:  center  93 has no basis functions!
 Warning:  center  94 has no basis functions!
 Warning:  center  95 has no basis functions!
 Warning:  center  96 has no basis functions!
 Warning:  center  97 has no basis functions!
 Warning:  center  98 has no basis functions!
 Warning:  center  99 has no basis functions!
 Warning:  center 100 has no basis functions!
 Warning:  center 101 has no basis functions!
 Warning:  center 102 has no basis functions!
 Warning:  center 103 has no basis functions!
 Warning:  center 104 has no basis functions!
 Warning:  center 105 has no basis functions!
 Warning:  center 106 has no basis functions!
 Warning:  center 107 has no basis functions!
 Warning:  center 108 has no basis functions!
 Warning:  center 109 has no basis functions!
 Warning:  center 110 has no basis functions!
 Warning:  center 111 has no basis functions!
 Warning:  center 112 has no basis functions!
 Warning:  center 113 has no basis functions!
 Warning:  center 114 has no basis functions!
 Warning:  center 115 has no basis functions!
 Warning:  center 116 has no basis functions!
 Warning:  center 117 has no basis functions!
 Warning:  center 118 has no basis functions!
 Warning:  center 119 has no basis functions!
 Warning:  center 120 has no basis functions!
 Warning:  center 121 has no basis functions!
 Warning:  center 122 has no basis functions!
 Warning:  center 123 has no basis functions!
 Warning:  center 124 has no basis functions!
 Warning:  center 125 has no basis functions!
 Warning:  center 126 has no basis functions!
 Warning:  center 127 has no basis functions!
 Warning:  center 128 has no basis functions!
 Warning:  center 129 has no basis functions!
 Warning:  center 130 has no basis functions!
 Warning:  center 131 has no basis functions!
 Warning:  center 132 has no basis functions!
 Warning:  center 133 has no basis functions!
 Warning:  center 134 has no basis functions!
 Warning:  center 135 has no basis functions!
 Warning:  center 136 has no basis functions!
 Warning:  center 137 has no basis functions!
 Warning:  center 138 has no basis functions!
 Warning:  center 139 has no basis functions!
 Warning:  center 140 has no basis functions!
 Warning:  center 141 has no basis functions!
 Warning:  center 142 has no basis functions!
 Warning:  center 143 has no basis functions!
 Warning:  center 144 has no basis functions!
 Warning:  center 145 has no basis functions!
 Warning:  center 146 has no basis functions!
 Warning:  center 147 has no basis functions!
 Warning:  center 148 has no basis functions!
 Warning:  center 149 has no basis functions!
 Warning:  center 150 has no basis functions!
 Warning:  center 151 has no basis functions!
 Warning:  center 152 has no basis functions!
 Warning:  center 153 has no basis functions!
 Warning:  center 154 has no basis functions!
 Warning:  center 155 has no basis functions!
 Warning:  center 156 has no basis functions!
 Warning:  center 157 has no basis functions!
 Warning:  center 158 has no basis functions!
 Warning:  center 159 has no basis functions!
 Warning:  center 160 has no basis functions!
 Warning:  center 161 has no basis functions!
 Warning:  center 162 has no basis functions!
 Warning:  center 163 has no basis functions!
 Warning:  center 164 has no basis functions!
 Warning:  center 165 has no basis functions!
 Warning:  center 166 has no basis functions!
 Warning:  center 167 has no basis functions!
 Warning:  center 168 has no basis functions!
 Warning:  center 169 has no basis functions!
 Warning:  center 170 has no basis functions!
 Warning:  center 171 has no basis functions!
 Warning:  center 172 has no basis functions!
 Warning:  center 173 has no basis functions!
 Warning:  center 174 has no basis functions!
 Warning:  center 175 has no basis functions!
 Warning:  center 176 has no basis functions!
 Warning:  center 177 has no basis functions!
 Warning:  center 178 has no basis functions!
 Warning:  center 179 has no basis functions!
 Warning:  center 180 has no basis functions!
 Warning:  center 181 has no basis functions!
 Warning:  center 182 has no basis functions!
 Warning:  center 183 has no basis functions!
 Warning:  center 184 has no basis functions!
 Warning:  center 185 has no basis functions!
 Warning:  center 186 has no basis functions!
 Warning:  center 187 has no basis functions!
 Warning:  center 188 has no basis functions!
 Warning:  center 189 has no basis functions!
 Warning:  center 190 has no basis functions!
 Warning:  center 191 has no basis functions!
 Warning:  center 192 has no basis functions!
 Warning:  center 193 has no basis functions!
 Warning:  center 194 has no basis functions!
 Warning:  center 195 has no basis functions!
 Warning:  center 196 has no basis functions!
 Warning:  center 197 has no basis functions!
 Warning:  center 198 has no basis functions!
 Warning:  center 199 has no basis functions!
 Warning:  center 200 has no basis functions!
 Warning:  center 201 has no basis functions!
 Warning:  center 202 has no basis functions!
 Warning:  center 203 has no basis functions!
 Warning:  center 204 has no basis functions!
 Warning:  center 205 has no basis functions!
 Warning:  center 206 has no basis functions!
 Warning:  center 207 has no basis functions!
 Warning:  center 208 has no basis functions!
 Warning:  center 209 has no basis functions!
 Warning:  center 210 has no basis functions!
 Warning:  center 211 has no basis functions!
 Warning:  center 212 has no basis functions!
 Warning:  center 213 has no basis functions!
 Warning:  center 214 has no basis functions!
 Warning:  center 215 has no basis functions!
 Warning:  center 216 has no basis functions!
 Warning:  center 217 has no basis functions!
 Warning:  center 218 has no basis functions!
 Warning:  center 219 has no basis functions!
 Warning:  center 220 has no basis functions!
 Warning:  center 221 has no basis functions!
 Warning:  center 222 has no basis functions!
 Warning:  center 223 has no basis functions!
 Warning:  center 224 has no basis functions!
 Warning:  center 225 has no basis functions!
 Warning:  center 226 has no basis functions!
 Warning:  center 227 has no basis functions!
 Warning:  center 228 has no basis functions!
 Warning:  center 229 has no basis functions!
 Warning:  center 230 has no basis functions!
 Warning:  center 231 has no basis functions!
 Warning:  center 232 has no basis functions!
 Warning:  center 233 has no basis functions!
 Warning:  center 234 has no basis functions!
 Warning:  center 235 has no basis functions!
 Warning:  center 236 has no basis functions!
   568 basis functions,   904 primitive gaussians,   590 cartesian basis functions
    73 alpha electrons       73 beta electrons
       nuclear repulsion energy      1610.9176155625 Hartrees.
 NAtoms=  236 NActive=  236 NUniq=  236 SFac= 1.00D+00 NAtFMM=   60 NAOKFM=T Big=T
 Integral buffers will be    131072 words long.
 Raffenetti 2 integral format.
 Two-electron integral symmetry is turned off.
 One-electron integrals computed using PRISM.
 NBasis=   568 RedAO= T EigKep=  1.78D-06  NBF=   568
 NBsUse=   556 1.00D-06 EigRej=  9.09D-07 NBFU=   556
 ExpMin= 4.38D-02 ExpMax= 4.56D+03 ExpMxC= 6.82D+02 IAcc=2 IRadAn=         4 AccDes= 0.00D+00
 Harris functional with IExCor=  402 and IRadAn=       4 diagonalized for initial guess.
 HarFok:  IExCor=  402 AccDes= 0.00D+00 IRadAn=         4 IDoV= 1 UseB2=F ITyADJ=14
 ICtDFT=  3500011 ScaDFX=  1.000000  1.000000  1.000000  1.000000
 FoFCou: FMM=F IPFlag=           0 FMFlag=      100000 FMFlg1=        2001
         NFxFlg=           0 DoJE=T BraDBF=F KetDBF=T FulRan=T
         wScrn=  0.000000 ICntrl=     500 IOpCl=  0 I1Cent=   200000004 NGrid=           0
         NMat0=    1 NMatS0=      1 NMatT0=    0 NMatD0=    1 NMtDS0=    0 NMtDT0=    0
 Symmetry not used in FoFCou.
 Requested convergence on RMS density matrix=1.00D-08 within 128 cycles.
 Requested convergence on MAX density matrix=1.00D-06.
 Requested convergence on             energy=1.00D-06.
 No special actions if energy rises.
 SCF Done:  E(RB3LYP) =  -847.003289847     A.U. after   15 cycles
            NFock= 15  Conv=0.75D-08     -V/T= 2.0040
 DoSCS=F DFT=T ScalE2(SS,OS)=  1.000000  1.000000
 Range of M.O.s used for correlation:     1   556
 NBasis=   568 NAE=    73 NBE=    73 NFC=     0 NFV=     0
 NROrb=    556 NOA=    73 NOB=    73 NVA=   483 NVB=   483

 **** Warning!!: The largest alpha MO coefficient is  0.10971036D+03

          Differentiating once with respect to magnetic field using GIAOs.
          Electric field/nuclear overlap derivatives assumed to be zero.
 FoFCou: FMM=F IPFlag=           0 FMFlag=      100000 FMFlg1=        2001
         NFxFlg=           0 DoJE=F BraDBF=F KetDBF=T FulRan=T
         wScrn=  0.000000 ICntrl=    6100 IOpCl=  0 I1Cent=           7 NGrid=         236
         NMat0=    1 NMatS0=      1 NMatT0=    0 NMatD0=    1 NMtDS0=    0 NMtDT0=    0
 Symmetry not used in FoFCou.
 FoFJK:  IHMeth= 1 ICntrl=    6127 DoSepK=F KAlg= 0 I1Cent=   0 FoldK=F
 IRaf=         1 NMat=   1 IRICut=       1 DoRegI=T DoRafI=F ISym2E= 0.
          There are     3 degrees of freedom in the 1st order CPHF.  IDoFFX=0 NUNeed=     3.
      3 vectors produced by pass  0 Test12= 1.18D-12 3.33D-08 XBig12= 2.07D+03 9.18D+00.
 AX will form     3 AO Fock derivatives at one time.
      3 vectors produced by pass  1 Test12= 1.18D-12 3.33D-08 XBig12= 3.56D+00 8.03D-01.
      3 vectors produced by pass  2 Test12= 1.18D-12 3.33D-08 XBig12= 2.10D-02 6.92D-02.
      3 vectors produced by pass  3 Test12= 1.18D-12 3.33D-08 XBig12= 5.45D-05 1.89D-03.
      3 vectors produced by pass  4 Test12= 1.18D-12 3.33D-08 XBig12= 1.20D-07 7.79D-05.
      3 vectors produced by pass  5 Test12= 1.18D-12 3.33D-08 XBig12= 4.02D-10 4.73D-06.
      3 vectors produced by pass  6 Test12= 1.18D-12 3.33D-08 XBig12= 1.32D-12 2.61D-07.
 InvSVY:  IOpt=1 It=  1 EMax= 7.11D-15
 Solved reduced A of dimension    21 with     3 vectors.
 Calculating GIAO nuclear magnetic shielding tensors.
 SCF GIAO Magnetic shielding tensor (ppm):
      1  C    Isotropic =    53.8139   Anisotropy =   178.0260
   XX=   -41.4327   YX=   -32.3458   ZX=    10.0287
   XY=   -28.3572   YY=    59.0527   ZY=    55.1899
   XZ=    13.1759   YZ=    58.7550   ZZ=   143.8218
   Eigenvalues:   -53.8775    42.8214   172.4979
      2  H    Isotropic =    24.3095   Anisotropy =     4.8536
   XX=    25.5771   YX=    -1.0289   ZX=     0.5661
   XY=    -0.7431   YY=    26.1829   ZY=    -2.3306
   XZ=    -0.1707   YZ=    -2.4411   ZZ=    21.1687
   Eigenvalues:    20.2108    25.1725    27.5453
      3  C    Isotropic =    51.4055   Anisotropy =   157.8639
   XX=   -31.5399   YX=    38.5015   ZX=   -17.9316
   XY=    34.3519   YY=    49.9437   ZY=    49.6392
   XZ=    -9.8383   YZ=    44.6006   ZZ=   135.8127
   Eigenvalues:   -50.5747    48.1432   156.6481
      4  H    Isotropic =    23.8290   Anisotropy =     7.1838
   XX=    25.3635   YX=     1.8486   ZX=    -0.3559
   XY=     1.9656   YY=    26.4581   ZY=    -2.4103
   XZ=    -1.2941   YZ=    -2.6614   ZZ=    19.6654
   Eigenvalues:    18.8176    24.0511    28.6182
      5  C    Isotropic =    46.0697   Anisotropy =   207.6751
   XX=   -19.2123   YX=    -4.8852   ZX=    -1.6475
   XY=     2.8938   YY=    -2.9860   ZY=    66.5656
   XZ=     2.5356   YZ=    67.9144   ZZ=   160.4073
   Eigenvalues:   -27.2455   -19.0652   184.5197
      6  C    Isotropic =    47.5218   Anisotropy =   196.9389
   XX=   -28.1552   YX=    -2.7889   ZX=    12.0660
   XY=   -14.3886   YY=    21.2063   ZY=    74.2521
   XZ=   -18.6356   YZ=    61.1113   ZZ=   149.5144
   Eigenvalues:   -30.2925    -5.9564   178.8144
      7  C    Isotropic =    49.3915   Anisotropy =   179.8333
   XX=   -12.5211   YX=    28.7048   ZX=   -24.6745
   XY=    31.5123   YY=    29.7000   ZY=    77.7459
   XZ=   -40.0095   YZ=    65.3072   ZZ=   130.9956
   Eigenvalues:   -52.1299    31.0240   169.2804
      8  H    Isotropic =    23.1586   Anisotropy =    13.5525
   XX=    28.5711   YX=     1.5482   ZX=    -3.6986
   XY=     3.2466   YY=    22.7592   ZY=    -2.1157
   XZ=    -8.3753   YZ=    -1.0821   ZZ=    18.1456
   Eigenvalues:    15.3521    21.9301    32.1936
      9  C    Isotropic =    55.1460   Anisotropy =   174.7426
   XX=    46.7071   YX=    -2.6162   ZX=    -2.8420
   XY=     0.6223   YY=    -1.6258   ZY=    92.8272
   XZ=     0.5159   YZ=    95.6598   ZZ=   120.3568
   Eigenvalues:   -52.8932    46.6901   171.6411
     10  H    Isotropic =    24.6278   Anisotropy =     7.1815
   XX=    29.1040   YX=     0.1399   ZX=    -0.3694
   XY=     0.3642   YY=    23.4778   ZY=    -1.0805
   XZ=    -2.4493   YZ=    -2.9465   ZZ=    21.3016
   Eigenvalues:    19.9703    24.4977    29.4155
     11  C    Isotropic =    51.5607   Anisotropy =   151.2142
   XX=     2.1639   YX=    40.9287   ZX=   -26.0048
   XY=    49.9131   YY=    12.2331   ZY=    42.1342
   XZ=   -15.6145   YZ=    38.6614   ZZ=   140.2851
   Eigenvalues:   -48.1951    50.5071   152.3701
     12  H    Isotropic =    23.8537   Anisotropy =     7.3815
   XX=    25.9672   YX=     2.3738   ZX=    -0.2390
   XY=     2.4320   YY=    26.3975   ZY=    -1.8291
   XZ=     0.3529   YZ=    -1.7731   ZZ=    19.1964
   Eigenvalues:    18.7149    24.0714    28.7747
     13  C    Isotropic =    52.8653   Anisotropy =   147.4265
   XX=    51.2944   YX=    19.9221   ZX=   -13.4678
   XY=    11.5478   YY=   -34.0176   ZY=    42.5079
   XZ=    -9.2241   YZ=    40.0716   ZZ=   141.3192
   Eigenvalues:   -46.5152    53.9616   151.1497
     14  H    Isotropic =    24.0156   Anisotropy =     7.3485
   XX=    28.6644   YX=     0.6281   ZX=     1.0808
   XY=     0.5926   YY=    24.4325   ZY=    -1.0823
   XZ=     1.6846   YZ=    -0.3842   ZZ=    18.9500
   Eigenvalues:    18.6430    24.4892    28.9146
     15  C    Isotropic =    46.2221   Anisotropy =   203.9048
   XX=   -27.2215   YX=    -0.0442   ZX=   -28.9124
   XY=     4.6427   YY=   -10.5571   ZY=    28.3830
   XZ=   -10.2704   YZ=    26.7376   ZZ=   176.4448
   Eigenvalues:   -30.5512   -12.9411   182.1586
     16  C    Isotropic =    51.9375   Anisotropy =   188.2004
   XX=   -19.4441   YX=     5.5046   ZX=    15.7858
   XY=    -8.3874   YY=     2.4863   ZY=    22.9264
   XZ=   -50.6243   YZ=    23.3340   ZZ=   172.7704
   Eigenvalues:   -21.0294    -0.5625   177.4045
     17  C    Isotropic =    51.9482   Anisotropy =   149.1264
   XX=    50.7296   YX=   -23.9353   ZX=   -18.4207
   XY=   -16.7271   YY=   -41.8764   ZY=    17.8662
   XZ=   -14.3278   YZ=    11.4871   ZZ=   146.9915
   Eigenvalues:   -46.7796    51.2584   151.3658
     18  H    Isotropic =    24.0122   Anisotropy =     7.5163
   XX=    28.5811   YX=    -0.0866   ZX=     1.5071
   XY=    -0.2466   YY=    24.3342   ZY=    -0.7657
   XZ=     2.5088   YZ=    -1.5208   ZZ=    19.1214
   Eigenvalues:    18.5094    24.5041    29.0231
     19  C    Isotropic =    51.7356   Anisotropy =   148.5924
   XX=     2.4559   YX=   -45.6913   ZX=   -31.2531
   XY=   -53.4448   YY=     7.4698   ZY=    -1.8888
   XZ=   -23.5601   YZ=    -1.2765   ZZ=   145.2810
   Eigenvalues:   -46.9894    51.3989   150.7972
     20  H    Isotropic =    23.9071   Anisotropy =     7.6651
   XX=    25.5796   YX=    -2.0226   ZX=     1.4905
   XY=    -1.9998   YY=    27.3706   ZY=    -0.5164
   XZ=     2.7276   YZ=    -1.1179   ZZ=    18.7711
   Eigenvalues:    18.1643    24.5398    29.0172
     21  C    Isotropic =    45.9767   Anisotropy =   203.9316
   XX=   -16.2108   YX=    13.1802   ZX=   -44.5913
   XY=     6.5714   YY=   -20.6329   ZY=     0.0949
   XZ=   -28.8984   YZ=   -13.0883   ZZ=   174.7736
   Eigenvalues:   -30.5796   -13.4215   181.9311
     22  C    Isotropic =    52.0450   Anisotropy =   188.1157
   XX=    -0.0787   YX=     2.5023   ZX=   -16.3451
   XY=    18.9327   YY=   -14.4798   ZY=   -34.4335
   XZ=   -50.6032   YZ=    19.9104   ZZ=   170.6934
   Eigenvalues:   -20.7705    -0.5500   177.4554
     23  C    Isotropic =    53.2392   Anisotropy =   146.7412
   XX=   -22.0674   YX=   -32.0012   ZX=   -49.4857
   XY=   -23.2043   YY=    44.3661   ZY=   -15.6400
   XZ=   -43.8090   YZ=   -20.2525   ZZ=   137.4189
   Eigenvalues:   -45.6776    54.3286   151.0667
     24  H    Isotropic =    23.8249   Anisotropy =     7.5289
   XX=    25.1073   YX=    -1.7330   ZX=     1.5380
   XY=    -1.5944   YY=    28.0047   ZY=     0.0879
   XZ=     1.2557   YZ=    -0.8283   ZZ=    18.3628
   Eigenvalues:    18.0848    24.5458    28.8442
     25  C    Isotropic =    51.4969   Anisotropy =   150.1066
   XX=   -28.4915   YX=    33.9684   ZX=   -52.3137
   XY=    22.0311   YY=    46.6072   ZY=    -3.8075
   XZ=   -44.5594   YZ=   -10.6355   ZZ=   136.3748
   Eigenvalues:   -48.3857    51.3083   151.5679
     26  H    Isotropic =    23.7431   Anisotropy =     7.4052
   XX=    24.0663   YX=     1.1141   ZX=     1.9989
   XY=     0.9693   YY=    28.1000   ZY=     1.6568
   XZ=     2.0795   YZ=     0.8886   ZZ=    19.0630
   Eigenvalues:    18.2615    24.2880    28.6799
     27  C    Isotropic =    45.8108   Anisotropy =   207.2710
   XX=    -2.7702   YX=    13.7697   ZX=   -61.4651
   XY=     6.5593   YY=   -12.0335   ZY=   -41.6456
   XZ=   -62.6381   YZ=   -44.9232   ZZ=   152.2361
   Eigenvalues:   -28.0803   -18.4787   183.9915
     28  C    Isotropic =    47.8398   Anisotropy =   197.2870
   XX=    19.6900   YX=    14.4398   ZX=   -60.5682
   XY=    28.5650   YY=   -19.3566   ZY=   -56.7015
   XZ=   -63.1331   YZ=   -24.4782   ZZ=   143.1859
   Eigenvalues:   -30.5979    -5.2472   179.3644
     29  C    Isotropic =    49.3441   Anisotropy =   179.7793
   XX=    -3.4110   YX=    38.3775   ZX=   -80.8875
   XY=    36.1252   YY=    25.9805   ZY=   -23.7573
   XZ=   -78.1065   YZ=    -3.9802   ZZ=   125.4627
   Eigenvalues:   -51.6645    30.4997   169.1970
     30  H    Isotropic =    23.1387   Anisotropy =    13.3222
   XX=    22.4354   YX=    -0.7013   ZX=    -0.2375
   XY=    -2.1539   YY=    28.3546   ZY=     4.5555
   XZ=    -3.4181   YZ=     8.3231   ZZ=    18.6259
   Eigenvalues:    15.2751    22.1208    32.0201
     31  C    Isotropic =    55.4410   Anisotropy =   174.9390
   XX=    17.1871   YX=   -14.0890   ZX=   -84.0024
   XY=   -17.9030   YY=    37.4745   ZY=   -50.3662
   XZ=   -84.6557   YZ=   -54.8325   ZZ=   111.6615
   Eigenvalues:   -51.9248    46.1808   172.0670
     32  H    Isotropic =    24.5337   Anisotropy =     7.2554
   XX=    24.6185   YX=    -2.5264   ZX=     0.7632
   XY=    -2.7385   YY=    27.4630   ZY=     1.0335
   XZ=     1.1913   YZ=     3.7573   ZZ=    21.5194
   Eigenvalues:    19.8987    24.3316    29.3706
     33  C    Isotropic =    53.1814   Anisotropy =   179.0596
   XX=    60.9231   YX=    35.2256   ZX=   -42.9515
   XY=    32.0226   YY=   -38.1801   ZY=   -45.5652
   XZ=   -44.2248   YZ=   -50.7831   ZZ=   136.8014
   Eigenvalues:   -55.1197    42.1095   172.5545
     34  H    Isotropic =    24.2825   Anisotropy =     5.1861
   XX=    26.7643   YX=    -0.0934   ZX=     2.5955
   XY=    -0.2993   YY=    24.8157   ZY=     0.8589
   XZ=     2.3715   YZ=     1.4580   ZZ=    21.2676
   Eigenvalues:    20.0339    25.0737    27.7399
     35  C    Isotropic =    51.5295   Anisotropy =   155.1748
   XX=    -0.5131   YX=    52.5760   ZX=   -52.1551
   XY=    55.6135   YY=    25.1843   ZY=   -14.2643
   XZ=   -45.7255   YZ=   -17.1625   ZZ=   129.9171
   Eigenvalues:   -48.3147    47.9237   154.9793
     36  H    Isotropic =    23.8384   Anisotropy =     7.3073
   XX=    24.2302   YX=     1.4459   ZX=     2.1759
   XY=     1.2147   YY=    27.1572   ZY=     2.0665
   XZ=     1.6853   YZ=     2.7775   ZZ=    20.1277
   Eigenvalues:    18.9464    23.8588    28.7099
     37  Bq   Isotropic =    11.6256   Anisotropy =    23.2146
   XX=    11.7094   YX=     7.4061   ZX=    -3.8042
   XY=     3.3279   YY=    13.6542   ZY=    -4.8827
   XZ=   -10.6346   YZ=   -15.7279   ZZ=     9.5131
   Eigenvalues:     0.4555     7.3193    27.1020
     38  Bq   Isotropic =    33.3964   Anisotropy =    19.6195
   XX=    21.9875   YX=     6.7033   ZX=   -10.2725
   XY=     6.6575   YY=    36.6312   ZY=     0.8962
   XZ=   -10.5724   YZ=     0.9077   ZZ=    41.5705
   Eigenvalues:    15.4775    38.2356    46.4760
     39  Bq   Isotropic =    26.5189   Anisotropy =    16.4128
   XX=    20.6686   YX=     6.5153   ZX=    -2.8291
   XY=     4.9105   YY=    31.2899   ZY=    -2.2293
   XZ=    -8.2828   YZ=    -5.6387   ZZ=    27.5980
   Eigenvalues:    16.7742    25.3216    37.4608
     40  Bq   Isotropic =    26.0793   Anisotropy =    21.2415
   XX=    21.6787   YX=     7.7407   ZX=    -5.6020
   XY=     6.0380   YY=    28.1188   ZY=    -4.3892
   XZ=    -9.9220   YZ=    -7.9392   ZZ=    28.4403
   Eigenvalues:    15.8590    22.1385    40.2403
     41  Bq   Isotropic =    33.1012   Anisotropy =    20.0317
   XX=    24.2143   YX=     8.0390   ZX=    -7.6015
   XY=     8.2081   YY=    34.9698   ZY=    -3.0771
   XZ=    -9.2338   YZ=    -1.1348   ZZ=    40.1195
   Eigenvalues:    17.8572    34.9908    46.4557
     42  Bq   Isotropic =    22.2956   Anisotropy =    22.6533
   XX=    19.5795   YX=     7.6954   ZX=    -5.2297
   XY=     5.1828   YY=    24.0369   ZY=    -4.9093
   XZ=   -10.6144   YZ=   -11.0000   ZZ=    23.2704
   Eigenvalues:    13.2886    16.2004    37.3978
     43  Bq   Isotropic =    35.6514   Anisotropy =    22.0861
   XX=    24.5436   YX=     8.5409   ZX=    -9.2549
   XY=     9.3864   YY=    36.9619   ZY=    -2.3785
   XZ=    -9.7397   YZ=     1.2793   ZZ=    45.4487
   Eigenvalues:    17.3902    39.1886    50.3755
     44  Bq   Isotropic =    18.7289   Anisotropy =    23.8168
   XX=    17.2191   YX=     7.6120   ZX=    -5.1021
   XY=     4.4914   YY=    20.0675   ZY=    -5.2775
   XZ=   -11.2288   YZ=   -13.3372   ZZ=    18.9002
   Eigenvalues:     9.0886    12.4914    34.6068
     45  Bq   Isotropic =    37.2843   Anisotropy =    25.5098
   XX=    24.5717   YX=     9.3897   ZX=   -11.0057
   XY=    10.4314   YY=    37.8882   ZY=    -1.6339
   XZ=   -10.8748   YZ=     2.1774   ZZ=    49.3930
   Eigenvalues:    16.3166    41.2455    54.2908
     46  Bq   Isotropic =    15.5495   Anisotropy =    24.5224
   XX=    14.8240   YX=     7.4630   ZX=    -5.0922
   XY=     3.9413   YY=    16.4772   ZY=    -5.4814
   XZ=   -11.6414   YZ=   -14.8747   ZZ=    15.3474
   Eigenvalues:     4.8504     9.9004    31.8978
     47  Bq   Isotropic =    38.0738   Anisotropy =    28.3804
   XX=    24.7340   YX=    10.4534   ZX=   -12.3308
   XY=    11.1331   YY=    38.0856   ZY=    -0.7590
   XZ=   -12.2580   YZ=     1.5363   ZZ=    51.4016
   Eigenvalues:    15.3055    41.9218    56.9940
     48  Bq   Isotropic =    12.8286   Anisotropy =    24.7243
   XX=    12.5594   YX=     7.2473   ZX=    -5.1115
   XY=     3.5053   YY=    13.3970   ZY=    -5.5348
   XZ=   -11.8101   YZ=   -15.6794   ZZ=    12.5294
   Eigenvalues:     1.5082     7.6661    29.3115
     49  Bq   Isotropic =    38.2337   Anisotropy =    29.3863
   XX=    25.2903   YX=    11.3264   ZX=   -12.7447
   XY=    11.2757   YY=    37.9359   ZY=     0.2880
   XZ=   -13.2305   YZ=     0.1090   ZZ=    51.4747
   Eigenvalues:    15.0200    41.8564    57.8245
     50  Bq   Isotropic =    29.7999   Anisotropy =    20.0645
   XX=    23.2759   YX=     7.8169   ZX=    -6.3617
   XY=     7.0593   YY=    31.9137   ZY=    -3.7591
   XZ=    -9.3693   YZ=    -4.4585   ZZ=    34.2102
   Eigenvalues:    17.3568    28.8668    43.1762
     51  Bq   Isotropic =    27.9181   Anisotropy =    24.3220
   XX=    23.2544   YX=     7.7699   ZX=    -8.8169
   XY=     6.6162   YY=    27.6895   ZY=    -5.6098
   XZ=   -11.1258   YZ=    -6.6625   ZZ=    32.8104
   Eigenvalues:    16.0027    23.6189    44.1328
     52  Bq   Isotropic =    35.3874   Anisotropy =    25.5413
   XX=    26.3491   YX=     8.9663   ZX=   -11.9136
   XY=     9.4228   YY=    34.7136   ZY=    -4.5995
   XZ=   -10.5887   YZ=     0.6123   ZZ=    45.0996
   Eigenvalues:    17.6062    36.1412    52.4149
     53  Bq   Isotropic =    23.8798   Anisotropy =    25.0402
   XX=    20.8423   YX=     7.4771   ZX=    -7.8451
   XY=     5.5118   YY=    23.5417   ZY=    -5.9334
   XZ=   -11.8004   YZ=   -10.0076   ZZ=    27.2555
   Eigenvalues:    13.6470    17.4192    40.5733
     54  Bq   Isotropic =    38.0606   Anisotropy =    28.7095
   XX=    26.7336   YX=    10.0830   ZX=   -13.7654
   XY=    10.9021   YY=    36.7817   ZY=    -3.9535
   XZ=   -11.3146   YZ=     2.9865   ZZ=    50.6665
   Eigenvalues:    16.7750    40.2065    57.2003
     55  Bq   Isotropic =    20.0735   Anisotropy =    25.7456
   XX=    18.2144   YX=     7.2557   ZX=    -7.1902
   XY=     4.6380   YY=    19.5356   ZY=    -6.1084
   XZ=   -12.3993   YZ=   -12.5905   ZZ=    22.4704
   Eigenvalues:     9.9057    13.0775    37.2372
     56  Bq   Isotropic =    39.7252   Anisotropy =    32.7467
   XX=    26.5405   YX=    11.5580   ZX=   -15.2591
   XY=    12.1619   YY=    37.7819   ZY=    -3.1748
   XZ=   -12.8188   YZ=     3.4696   ZZ=    54.8532
   Eigenvalues:    15.2613    42.3579    61.5563
     57  Bq   Isotropic =    16.6817   Anisotropy =    26.1316
   XX=    15.6086   YX=     7.0473   ZX=    -6.7465
   XY=     3.9671   YY=    15.9391   ZY=    -6.1386
   XZ=   -12.7869   YZ=   -14.3229   ZZ=    18.4972
   Eigenvalues:     5.6766    10.2656    34.1027
     58  Bq   Isotropic =    40.4850   Anisotropy =    36.0410
   XX=    26.2130   YX=    13.1390   ZX=   -15.8257
   XY=    12.9575   YY=    38.0960   ZY=    -2.1839
   XZ=   -14.7066   YZ=     1.9743   ZZ=    57.1459
   Eigenvalues:    13.8484    43.0941    64.5123
     59  Bq   Isotropic =    13.7797   Anisotropy =    26.0967
   XX=    13.1865   YX=     6.8233   ZX=    -6.4230
   XY=     3.4588   YY=    12.8785   ZY=    -6.0452
   XZ=   -12.9178   YZ=   -15.2736   ZZ=    15.2741
   Eigenvalues:     2.2075     7.9542    31.1775
     60  Bq   Isotropic =    40.6159   Anisotropy =    37.3459
   XX=    26.1577   YX=    14.3092   ZX=   -15.1333
   XY=    13.0737   YY=    38.1591   ZY=    -0.9650
   XZ=   -16.2289   YZ=    -0.6427   ZZ=    57.5309
   Eigenvalues:    13.3453    42.9892    65.5132
     61  Bq   Isotropic =    31.8844   Anisotropy =    24.2030
   XX=    25.1692   YX=     8.2273   ZX=   -10.1838
   XY=     7.9436   YY=    31.5699   ZY=    -5.1552
   XZ=   -10.6165   YZ=    -2.9007   ZZ=    38.9141
   Eigenvalues:    17.3510    30.2824    48.0197
     62  Bq   Isotropic =    28.6418   Anisotropy =    27.0446
   XX=    23.9496   YX=     7.0068   ZX=   -11.8966
   XY=     6.1799   YY=    26.6394   ZY=    -6.6493
   XZ=   -12.2584   YZ=    -5.2162   ZZ=    35.3365
   Eigenvalues:    15.6077    23.6463    46.6716
     63  Bq   Isotropic =    35.7898   Anisotropy =    29.8079
   XX=    26.9343   YX=     8.5406   ZX=   -16.1594
   XY=     8.7664   YY=    33.6344   ZY=    -6.0625
   XZ=   -12.0809   YZ=     2.3541   ZZ=    46.8006
   Eigenvalues:    16.7061    35.0015    55.6617
     64  Bq   Isotropic =    24.6375   Anisotropy =    27.1450
   XX=    21.4381   YX=     6.6689   ZX=   -10.3222
   XY=     5.1297   YY=    22.5509   ZY=    -6.7631
   XZ=   -12.8622   YZ=    -8.7763   ZZ=    29.9235
   Eigenvalues:    13.3092    17.8691    42.7342
     65  Bq   Isotropic =    38.1440   Anisotropy =    33.4044
   XX=    26.8868   YX=     9.9418   ZX=   -18.2755
   XY=    10.0457   YY=    35.7280   ZY=    -5.5858
   XZ=   -13.1615   YZ=     4.6347   ZZ=    51.8172
   Eigenvalues:    15.3911    38.6273    60.4136
     66  Bq   Isotropic =    20.8168   Anisotropy =    27.4157
   XX=    18.7042   YX=     6.4621   ZX=    -9.1483
   XY=     4.2971   YY=    18.6279   ZY=    -6.7510
   XZ=   -13.4216   YZ=   -11.5618   ZZ=    25.1184
   Eigenvalues:     9.8162    13.5403    39.0940
     67  Bq   Isotropic =    39.4293   Anisotropy =    37.6276
   XX=    25.9187   YX=    11.7237   ZX=   -19.5726
   XY=    11.0557   YY=    36.7828   ZY=    -4.9154
   XZ=   -15.1461   YZ=     4.7114   ZZ=    55.5865
   Eigenvalues:    13.3062    40.4674    64.5144
     68  Bq   Isotropic =    17.3833   Anisotropy =    27.4993
   XX=    16.0117   YX=     6.3065   ZX=    -8.2842
   XY=     3.6636   YY=    15.1291   ZY=    -6.6246
   XZ=   -13.7813   YZ=   -13.4713   ZZ=    21.0091
   Eigenvalues:     5.8678    10.5659    35.7161
     69  Bq   Isotropic =    39.8633   Anisotropy =    41.1048
   XX=    24.5893   YX=    13.5627   ZX=   -19.3953
   XY=    11.6069   YY=    37.2079   ZY=    -3.9499
   XZ=   -17.5821   YZ=     2.4322   ZZ=    57.7927
   Eigenvalues:    11.3803    40.9431    67.2665
     70  Bq   Isotropic =    14.4260   Anisotropy =    27.2477
   XX=    13.5271   YX=     6.1552   ZX=    -7.6327
   XY=     3.1926   YY=    12.1712   ZY=    -6.4070
   XZ=   -13.8844   YZ=   -14.5711   ZZ=    17.5797
   Eigenvalues:     2.5060     8.1809    32.5911
     71  Bq   Isotropic =    39.8657   Anisotropy =    42.6466
   XX=    23.6087   YX=    14.8849   ZX=   -17.5365
   XY=    11.5677   YY=    37.4822   ZY=    -2.6656
   XZ=   -19.6030   YZ=    -1.2813   ZZ=    58.5061
   Eigenvalues:    10.6122    40.6880    68.2967
     72  Bq   Isotropic =    32.4985   Anisotropy =    27.7165
   XX=    25.8955   YX=     7.5888   ZX=   -13.8927
   XY=     7.4230   YY=    30.4904   ZY=    -6.4126
   XZ=   -11.8806   YZ=    -1.2614   ZZ=    41.1096
   Eigenvalues:    16.7827    29.7367    50.9761
     73  Bq   Isotropic =    28.2540   Anisotropy =    28.9146
   XX=    23.6674   YX=     5.5381   ZX=   -14.4792
   XY=     4.8923   YY=    25.1495   ZY=    -7.5610
   XZ=   -13.1106   YZ=    -3.9244   ZZ=    35.9452
   Eigenvalues:    14.5287    22.7030    47.5304
     74  Bq   Isotropic =    34.3568   Anisotropy =    32.2388
   XX=    25.8756   YX=     6.7673   ZX=   -19.7925
   XY=     6.5286   YY=    31.9433   ZY=    -7.5401
   XZ=   -13.3709   YZ=     3.5891   ZZ=    45.2515
   Eigenvalues:    14.9601    32.2609    55.8493
     75  Bq   Isotropic =    24.5624   Anisotropy =    28.6540
   XX=    21.2929   YX=     5.3628   ZX=   -12.3911
   XY=     4.1562   YY=    21.2182   ZY=    -7.4383
   XZ=   -13.6434   YZ=    -7.5511   ZZ=    31.1760
   Eigenvalues:    12.2920    17.7301    43.6651
     76  Bq   Isotropic =    35.9889   Anisotropy =    35.7730
   XX=    24.9790   YX=     8.0313   ZX=   -22.2044
   XY=     7.1764   YY=    33.9973   ZY=    -7.3339
   XZ=   -14.8809   YZ=     5.6695   ZZ=    48.9903
   Eigenvalues:    12.9793    35.1498    59.8375
     77  Bq   Isotropic =    20.9478   Anisotropy =    28.6381
   XX=    18.6361   YX=     5.3172   ZX=   -10.7815
   XY=     3.5566   YY=    17.4705   ZY=    -7.2352
   XZ=   -14.1803   YZ=   -10.4328   ZZ=    26.7369
   Eigenvalues:     9.0371    13.7665    40.0399
     78  Bq   Isotropic =    36.5276   Anisotropy =    39.8205
   XX=    22.8201   YX=     9.6809   ZX=   -23.4153
   XY=     7.5227   YY=    35.0403   ZY=    -6.8601
   XZ=   -17.4189   YZ=     5.3665   ZZ=    51.7224
   Eigenvalues:    10.0881    36.4201    63.0746
     79  Bq   Isotropic =    17.6412   Anisotropy =    28.5114
   XX=    15.9973   YX=     5.3149   ZX=    -9.5676
   XY=     3.0967   YY=    14.1476   ZY=    -6.9630
   XZ=   -14.5394   YZ=   -12.4536   ZZ=    22.7787
   Eigenvalues:     5.5087    10.7662    36.6488
     80  Bq   Isotropic =    36.3748   Anisotropy =    43.2245
   XX=    20.1680   YX=    11.3949   ZX=   -22.6525
   XY=     7.5038   YY=    35.4893   ZY=    -5.9633
   XZ=   -20.4397   YZ=     2.4907   ZZ=    53.4671
   Eigenvalues:     7.4219    36.5114    65.1911
     81  Bq   Isotropic =    14.7541   Anisotropy =    28.1075
   XX=    13.5572   YX=     5.3048   ZX=    -8.6449
   XY=     2.7562   YY=    11.3535   ZY=    -6.6391
   XZ=   -14.6466   YZ=   -13.6692   ZZ=    19.3516
   Eigenvalues:     2.4356     8.3343    33.4924
     82  Bq   Isotropic =    36.1609   Anisotropy =    44.8945
   XX=    18.1454   YX=    12.6326   ZX=   -19.7732
   XY=     7.1467   YY=    35.8663   ZY=    -4.5955
   XZ=   -22.9325   YZ=    -2.0185   ZZ=    54.4710
   Eigenvalues:     6.2696    36.1224    66.0906
     83  Bq   Isotropic =    31.6632   Anisotropy =    29.9493
   XX=    25.3445   YX=     5.9628   ZX=   -17.0270
   XY=     5.7180   YY=    28.8780   ZY=    -7.5988
   XZ=   -12.8892   YZ=     0.0448   ZZ=    40.7669
   Eigenvalues:    15.4822    27.8779    51.6294
     84  Bq   Isotropic =    26.9620   Anisotropy =    29.6968
   XX=    22.5557   YX=     3.6003   ZX=   -16.2529
   XY=     3.0961   YY=    23.3459   ZY=    -8.3887
   XZ=   -13.4763   YZ=    -3.0861   ZZ=    34.9845
   Eigenvalues:    12.6422    21.4839    46.7599
     85  Bq   Isotropic =    31.5580   Anisotropy =    32.7081
   XX=    23.6451   YX=     3.9462   ZX=   -22.2479
   XY=     3.3587   YY=    29.7311   ZY=    -9.0467
   XZ=   -14.0185   YZ=     3.8679   ZZ=    41.2978
   Eigenvalues:    12.1313    29.1793    53.3634
     86  Bq   Isotropic =    23.7865   Anisotropy =    29.3918
   XX=    20.4913   YX=     3.7520   ZX=   -13.8332
   XY=     2.8309   YY=    19.6639   ZY=    -8.0031
   XZ=   -14.0086   YZ=    -6.5670   ZZ=    31.2042
   Eigenvalues:    10.6460    17.3324    43.3810
     87  Bq   Isotropic =    32.2564   Anisotropy =    35.7965
   XX=    21.8048   YX=     4.6480   ZX=   -24.8649
   XY=     3.1308   YY=    31.6364   ZY=    -9.1716
   XZ=   -15.8761   YZ=     5.5811   ZZ=    43.3279
   Eigenvalues:     9.2663    31.3821    56.1207
     88  Bq   Isotropic =    20.5480   Anisotropy =    29.3011
   XX=    18.0608   YX=     3.9736   ZX=   -11.9396
   XY=     2.5829   YY=    16.1685   ZY=    -7.6022
   XZ=   -14.5873   YZ=    -9.3872   ZZ=    27.4145
   Eigenvalues:     7.7978    13.7641    40.0820
     89  Bq   Isotropic =    31.8864   Anisotropy =    39.3565
   XX=    18.4651   YX=     5.6940   ZX=   -26.0399
   XY=     2.5780   YY=    32.5463   ZY=    -8.9204
   XZ=   -18.8882   YZ=     4.9092   ZZ=    44.6478
   Eigenvalues:     5.3080    32.2272    58.1241
     90  Bq   Isotropic =    17.5036   Anisotropy =    29.1027
   XX=    15.5970   YX=     4.1910   ZX=   -10.4952
   XY=     2.3816   YY=    13.0813   ZY=    -7.1901
   XZ=   -15.0032   YZ=   -11.4123   ZZ=    23.8326
   Eigenvalues:     4.7767    10.8289    36.9054
     91  Bq   Isotropic =    31.0522   Anisotropy =    42.4340
   XX=    14.6156   YX=     6.8558   ZX=   -24.9022
   XY=     1.7961   YY=    32.8717   ZY=    -8.0598
   XZ=   -22.4264   YZ=     1.6828   ZZ=    45.6693
   Eigenvalues:     1.6685    32.1466    59.3416
     92  Bq   Isotropic =    14.7908   Anisotropy =    28.6397
   XX=    13.2967   YX=     4.3624   ZX=    -9.3917
   XY=     2.2300   YY=    10.4937   ZY=    -6.7729
   XZ=   -15.1655   YZ=   -12.6779   ZZ=    20.5821
   Eigenvalues:     2.0945     8.3940    33.8839
     93  Bq   Isotropic =    30.5990   Anisotropy =    44.0870
   XX=    11.7578   YX=     7.7425   ZX=   -21.3249
   XY=     1.0117   YY=    33.1786   ZY=    -6.5197
   XZ=   -25.3516   YZ=    -3.1765   ZZ=    46.8606
   Eigenvalues:     0.0134    31.7933    59.9904
     94  Bq   Isotropic =    29.6955   Anisotropy =    30.6719
   XX=    23.7820   YX=     3.6249   ZX=   -19.1563
   XY=     3.3086   YY=    26.8502   ZY=    -8.7495
   XZ=   -13.3353   YZ=     0.6444   ZZ=    38.4544
   Eigenvalues:    13.2530    25.6902    50.1435
     95  Bq   Isotropic =    25.1164   Anisotropy =    29.4287
   XX=    20.9320   YX=     1.5362   ZX=   -17.0348
   XY=     1.2001   YY=    21.3168   ZY=    -9.1045
   XZ=   -13.2399   YZ=    -2.8507   ZZ=    33.1002
   Eigenvalues:    10.2173    20.3963    44.7355
     96  Bq   Isotropic =    28.1345   Anisotropy =    31.4317
   XX=    21.0315   YX=     0.6590   ZX=   -23.1170
   XY=     0.0528   YY=    27.0529   ZY=   -10.4295
   XZ=   -13.6891   YZ=     3.0466   ZZ=    36.3191
   Eigenvalues:     8.5791    26.7354    49.0890
     97  Bq   Isotropic =    22.5422   Anisotropy =    29.3657
   XX=    19.2361   YX=     2.0922   ZX=   -14.5309
   XY=     1.4371   YY=    17.9764   ZY=    -8.4621
   XZ=   -13.8966   YZ=    -5.9657   ZZ=    30.4141
   Eigenvalues:     8.6783    16.8289    42.1194
     98  Bq   Isotropic =    27.9628   Anisotropy =    33.7795
   XX=    18.5601   YX=     0.5169   ZX=   -25.6980
   XY=    -1.0383   YY=    28.6812   ZY=   -10.8622
   XZ=   -15.6388   YZ=     4.2368   ZZ=    36.6472
   Eigenvalues:     4.8689    28.5371    50.4825
     99  Bq   Isotropic =    19.7682   Anisotropy =    29.4076
   XX=    17.1098   YX=     2.6206   ZX=   -12.5481
   XY=     1.5700   YY=    14.8015   ZY=    -7.8734
   XZ=   -14.6127   YZ=    -8.5534   ZZ=    27.3934
   Eigenvalues:     6.3672    13.5642    39.3733
    100  Bq   Isotropic =    26.8142   Anisotropy =    36.6017
   XX=    14.5527   YX=     0.6323   ZX=   -26.7581
   XY=    -2.4541   YY=    29.3343   ZY=   -10.7884
   XZ=   -18.8533   YZ=     3.2204   ZZ=    36.5556
   Eigenvalues:    -0.0316    29.2589    51.2153
    101  Bq   Isotropic =    17.0664   Anisotropy =    29.2792
   XX=    14.8972   YX=     3.0743   ZX=   -11.0201
   XY=     1.6507   YY=    11.9960   ZY=    -7.3343
   XZ=   -15.1600   YZ=   -10.4598   ZZ=    24.3061
   Eigenvalues:     3.8796    10.7337    36.5859
    102  Bq   Isotropic =    25.4415   Anisotropy =    39.1321
   XX=    10.1244   YX=     0.9423   ZX=   -25.4156
   XY=    -3.9509   YY=    29.4089   ZY=    -9.9025
   XZ=   -22.6828   YZ=    -0.0887   ZZ=    36.7912
   Eigenvalues:    -4.4764    29.2713    51.5295
    103  Bq   Isotropic =    14.5952   Anisotropy =    28.8537
   XX=    12.8026   YX=     3.4308   ZX=    -9.8440
   XY=     1.7043   YY=     9.6429   ZY=    -6.8375
   XZ=   -15.4363   YZ=   -11.6922   ZZ=    21.3401
   Eigenvalues:     1.6147     8.3398    33.8310
    104  Bq   Isotropic =    24.8225   Anisotropy =    40.6135
   XX=     6.9543   YX=     1.2983   ZX=   -21.5569
   XY=    -5.1253   YY=    29.5005   ZY=    -8.1331
   XZ=   -25.9399   YZ=    -4.8124   ZZ=    38.0129
   Eigenvalues:    -6.5281    29.0975    51.8982
    105  Bq   Isotropic =    27.1129   Anisotropy =    29.9964
   XX=    21.7102   YX=     1.0273   ZX=   -20.0017
   XY=     0.7739   YY=    24.4832   ZY=    -9.7845
   XZ=   -13.0154   YZ=     0.3871   ZZ=    35.1453
   Eigenvalues:    10.3461    23.8821    47.1105
    106  Bq   Isotropic =    23.1081   Anisotropy =    28.3744
   XX=    19.1539   YX=    -0.2792   ZX=   -16.8287
   XY=    -0.4340   YY=    19.1624   ZY=    -9.6058
   XZ=   -12.4332   YZ=    -3.1566   ZZ=    31.0080
   Eigenvalues:     7.8751    19.4250    42.0244
    107  Bq   Isotropic =    24.8411   Anisotropy =    28.9041
   XX=    18.7565   YX=    -2.3512   ZX=   -22.3326
   XY=    -2.6833   YY=    24.0535   ZY=   -11.4006
   XZ=   -12.3398   YZ=     1.3975   ZZ=    31.7133
   Eigenvalues:     5.4162    24.9967    44.1105
    108  Bq   Isotropic =    21.0992   Anisotropy =    28.7490
   XX=    17.7736   YX=     0.6482   ZX=   -14.4978
   XY=     0.2259   YY=    16.2385   ZY=    -8.7698
   XZ=   -13.3485   YZ=    -5.7490   ZZ=    29.2855
   Eigenvalues:     6.8158    16.2166    40.2652
    109  Bq   Isotropic =    24.0948   Anisotropy =    30.3176
   XX=    16.2237   YX=    -3.3484   ZX=   -24.5617
   XY=    -4.3891   YY=    25.3203   ZY=   -12.0174
   XZ=   -14.0479   YZ=     2.0269   ZZ=    30.7403
   Eigenvalues:     1.3391    26.6387    44.3065
    110  Bq   Isotropic =    18.7902   Anisotropy =    29.0706
   XX=    15.9519   YX=     1.4461   ZX=   -12.6232
   XY=     0.6902   YY=    13.4352   ZY=    -8.0383
   XZ=   -14.2982   YZ=    -7.9701   ZZ=    26.9836
   Eigenvalues:     5.0219    13.1782    38.1706
    111  Bq   Isotropic =    22.5281   Anisotropy =    32.2536
   XX=    12.3387   YX=    -4.1835   ZX=   -25.3372
   XY=    -6.3721   YY=    25.6659   ZY=   -12.0146
   XZ=   -17.0923   YZ=     0.7718   ZZ=    29.5797
   Eigenvalues:    -3.8581    27.4119    44.0305
    112  Bq   Isotropic =    16.4492   Anisotropy =    29.1175
   XX=    14.0133   YX=     2.0990   ZX=   -11.1578
   XY=     1.0215   YY=    10.9416   ZY=    -7.4039
   XZ=   -15.0472   YZ=    -9.6522   ZZ=    24.3926
   Eigenvalues:     3.0135    10.4732    35.8608
    113  Bq   Isotropic =    20.9380   Anisotropy =    34.1105
   XX=     8.1865   YX=    -4.7391   ZX=   -23.8842
   XY=    -8.2945   YY=    25.4633   ZY=   -11.0592
   XZ=   -20.8880   YZ=    -2.3428   ZZ=    29.1641
   Eigenvalues:    -8.4888    27.6244    43.6783
    114  Bq   Isotropic =    14.2443   Anisotropy =    28.8037
   XX=    12.1541   YX=     2.6067   ZX=   -10.0154
   XY=     1.2592   YY=     8.8376   ZY=    -6.8499
   XZ=   -15.4905   YZ=   -10.7724   ZZ=    21.7414
   Eigenvalues:     1.1270     8.1593    33.4468
    115  Bq   Isotropic =    20.2960   Anisotropy =    35.3120
   XX=     5.3438   YX=    -4.9132   ZX=   -20.1389
   XY=    -9.6599   YY=    25.2980   ZY=    -9.1080
   XZ=   -24.3142   YZ=    -6.5163   ZZ=    30.2463
   Eigenvalues:   -10.6135    27.6642    43.8374
    116  Bq   Isotropic =    24.4679   Anisotropy =    28.3022
   XX=    19.6425   YX=    -1.2993   ZX=   -19.5430
   XY=    -1.3747   YY=    21.8960   ZY=   -10.5186
   XZ=   -11.9362   YZ=    -0.5718   ZZ=    31.8651
   Eigenvalues:     7.5789    22.4887    43.3360
    117  Bq   Isotropic =    21.2628   Anisotropy =    26.9326
   XX=    17.5004   YX=    -1.5299   ZX=   -15.8286
   XY=    -1.5715   YY=    17.0238   ZY=    -9.7702
   XZ=   -11.2290   YZ=    -3.7718   ZZ=    29.2643
   Eigenvalues:     6.1563    18.4143    39.2179
    118  Bq   Isotropic =    22.2023   Anisotropy =    25.8047
   XX=    17.1928   YX=    -4.4152   ZX=   -20.2281
   XY=    -4.4200   YY=    21.0058   ZY=   -11.6933
   XZ=   -10.2532   YZ=    -0.5220   ZZ=    28.4081
   Eigenvalues:     3.6180    23.5834    39.4054
    119  Bq   Isotropic =    19.6965   Anisotropy =    27.8143
   XX=    16.3197   YX=    -0.3636   ZX=   -13.8750
   XY=    -0.6357   YY=    14.5478   ZY=    -8.8576
   XZ=   -12.4979   YZ=    -5.7955   ZZ=    28.2220
   Eigenvalues:     5.4021    15.4481    38.2394
    120  Bq   Isotropic =    21.2605   Anisotropy =    26.2006
   XX=    15.1458   YX=    -6.0088   ZX=   -21.8516
   XY=    -6.3690   YY=    21.9172   ZY=   -12.3117
   XZ=   -11.4529   YZ=    -0.3263   ZZ=    26.7185
   Eigenvalues:    -0.1424    25.1963    38.7276
    121  Bq   Isotropic =    17.7838   Anisotropy =    28.4716
   XX=    14.7481   YX=     0.6000   ZX=   -12.2659
   XY=     0.0605   YY=    12.1353   ZY=    -8.0650
   XZ=   -13.7466   YZ=    -7.5894   ZZ=    26.4680
   Eigenvalues:     3.9812    12.6054    36.7649
    122  Bq   Isotropic =    19.6881   Anisotropy =    27.2221
   XX=    12.0735   YX=    -7.5066   ZX=   -22.1940
   XY=    -8.4971   YY=    22.0088   ZY=   -12.2584
   XZ=   -14.0181   YZ=    -1.6155   ZZ=    24.9819
   Eigenvalues:    -4.8346    26.0627    37.8362
    123  Bq   Isotropic =    15.7693   Anisotropy =    28.7390
   XX=    13.0629   YX=     1.3703   ZX=   -10.9805
   XY=     0.5749   YY=     9.9610   ZY=    -7.3900
   XZ=   -14.7439   YZ=    -8.9852   ZZ=    24.2840
   Eigenvalues:     2.3309    10.0483    34.9286
    124  Bq   Isotropic =    18.2187   Anisotropy =    28.4258
   XX=     8.8923   YX=    -8.6609   ZX=   -20.6766
   XY=   -10.4446   YY=    21.6150   ZY=   -11.2345
   XZ=   -17.4938   YZ=    -4.2795   ZZ=    24.1488
   Eigenvalues:    -8.9532    26.4401    37.1692
    125  Bq   Isotropic =    13.8174   Anisotropy =    28.5732
[...]
   160  Bq   0.000000
   161  Bq   0.000000
   162  Bq   0.000000
   163  Bq   0.000000
   164  Bq   0.000000
   165  Bq   0.000000
   166  Bq   0.000000
   167  Bq   0.000000
   168  Bq   0.000000
   169  Bq   0.000000
   170  Bq   0.000000
   171  Bq   0.000000
   172  Bq   0.000000
   173  Bq   0.000000
   174  Bq   0.000000
   175  Bq   0.000000
   176  Bq   0.000000
   177  Bq   0.000000
   178  Bq   0.000000
   179  Bq   0.000000
   180  Bq   0.000000
   181  Bq   0.000000
   182  Bq   0.000000
   183  Bq   0.000000
   184  Bq   0.000000
   185  Bq   0.000000
   186  Bq   0.000000
   187  Bq   0.000000
   188  Bq   0.000000
   189  Bq   0.000000
   190  Bq   0.000000
   191  Bq   0.000000
   192  Bq   0.000000
   193  Bq   0.000000
   194  Bq   0.000000
   195  Bq   0.000000
   196  Bq   0.000000
   197  Bq   0.000000
   198  Bq   0.000000
   199  Bq   0.000000
   200  Bq   0.000000
   201  Bq   0.000000
   202  Bq   0.000000
   203  Bq   0.000000
   204  Bq   0.000000
   205  Bq   0.000000
   206  Bq   0.000000
   207  Bq   0.000000
   208  Bq   0.000000
   209  Bq   0.000000
   210  Bq   0.000000
   211  Bq   0.000000
   212  Bq   0.000000
   213  Bq   0.000000
   214  Bq   0.000000
   215  Bq   0.000000
   216  Bq   0.000000
   217  Bq   0.000000
   218  Bq   0.000000
   219  Bq   0.000000
   220  Bq   0.000000
   221  Bq   0.000000
   222  Bq   0.000000
   223  Bq   0.000000
   224  Bq   0.000000
   225  Bq   0.000000
   226  Bq   0.000000
   227  Bq   0.000000
   228  Bq   0.000000
   229  Bq   0.000000
   230  Bq   0.000000
   231  Bq   0.000000
   232  Bq   0.000000
   233  Bq   0.000000
   234  Bq   0.000000
   235  Bq   0.000000
   236  Bq   0.000000
 Sum of Mulliken charges =   0.00000
 Mulliken charges with hydrogens summed into heavy atoms:
               1
     1  C   -0.255498
     3  C    0.169409
     5  C    0.448258
     6  C    0.064351
     7  C   -0.333926
     9  C   -0.139521
    11  C   -0.205988
    13  C   -0.119315
    15  C    0.653397
    16  C    0.034822
    17  C   -0.317410
    19  C   -0.316854
    21  C    0.651066
    22  C    0.037784
    23  C   -0.117289
    25  C   -0.205316
    27  C    0.448331
    28  C    0.061983
    29  C   -0.333381
    31  C   -0.139505
    33  C   -0.255977
    35  C    0.170579
    37  Bq   0.000000
    38  Bq   0.000000
    39  Bq   0.000000
    40  Bq   0.000000
    41  Bq   0.000000
    42  Bq   0.000000
    43  Bq   0.000000
    44  Bq   0.000000
    45  Bq   0.000000
    46  Bq   0.000000
    47  Bq   0.000000
    48  Bq   0.000000
    49  Bq   0.000000
    50  Bq   0.000000
    51  Bq   0.000000
    52  Bq   0.000000
    53  Bq   0.000000
    54  Bq   0.000000
    55  Bq   0.000000
    56  Bq   0.000000
    57  Bq   0.000000
    58  Bq   0.000000
    59  Bq   0.000000
    60  Bq   0.000000
    61  Bq   0.000000
    62  Bq   0.000000
    63  Bq   0.000000
    64  Bq   0.000000
    65  Bq   0.000000
    66  Bq   0.000000
    67  Bq   0.000000
    68  Bq   0.000000
    69  Bq   0.000000
    70  Bq   0.000000
    71  Bq   0.000000
    72  Bq   0.000000
    73  Bq   0.000000
    74  Bq   0.000000
    75  Bq   0.000000
    76  Bq   0.000000
    77  Bq   0.000000
    78  Bq   0.000000
    79  Bq   0.000000
    80  Bq   0.000000
    81  Bq   0.000000
    82  Bq   0.000000
    83  Bq   0.000000
    84  Bq   0.000000
    85  Bq   0.000000
    86  Bq   0.000000
    87  Bq   0.000000
    88  Bq   0.000000
    89  Bq   0.000000
    90  Bq   0.000000
    91  Bq   0.000000
    92  Bq   0.000000
    93  Bq   0.000000
    94  Bq   0.000000
    95  Bq   0.000000
    96  Bq   0.000000
    97  Bq   0.000000
    98  Bq   0.000000
    99  Bq   0.000000
   100  Bq   0.000000
   101  Bq   0.000000
   102  Bq   0.000000
   103  Bq   0.000000
   104  Bq   0.000000
   105  Bq   0.000000
   106  Bq   0.000000
   107  Bq   0.000000
   108  Bq   0.000000
   109  Bq   0.000000
   110  Bq   0.000000
   111  Bq   0.000000
   112  Bq   0.000000
   113  Bq   0.000000
   114  Bq   0.000000
   115  Bq   0.000000
   116  Bq   0.000000
   117  Bq   0.000000
   118  Bq   0.000000
   119  Bq   0.000000
   120  Bq   0.000000
   121  Bq   0.000000
   122  Bq   0.000000
   123  Bq   0.000000
   124  Bq   0.000000
   125  Bq   0.000000
   126  Bq   0.000000
   127  Bq   0.000000
   128  Bq   0.000000
   129  Bq   0.000000
   130  Bq   0.000000
   131  Bq   0.000000
   132  Bq   0.000000
   133  Bq   0.000000
   134  Bq   0.000000
   135  Bq   0.000000
   136  Bq   0.000000
   137  Bq   0.000000
   138  Bq   0.000000
   139  Bq   0.000000
   140  Bq   0.000000
   141  Bq   0.000000
   142  Bq   0.000000
   143  Bq   0.000000
   144  Bq   0.000000
   145  Bq   0.000000
   146  Bq   0.000000
   147  Bq   0.000000
   148  Bq   0.000000
   149  Bq   0.000000
   150  Bq   0.000000
   151  Bq   0.000000
   152  Bq   0.000000
   153  Bq   0.000000
   154  Bq   0.000000
   155  Bq   0.000000
   156  Bq   0.000000
   157  Bq   0.000000
   158  Bq   0.000000
   159  Bq   0.000000
   160  Bq   0.000000
   161  Bq   0.000000
   162  Bq   0.000000
   163  Bq   0.000000
   164  Bq   0.000000
   165  Bq   0.000000
   166  Bq   0.000000
   167  Bq   0.000000
   168  Bq   0.000000
   169  Bq   0.000000
   170  Bq   0.000000
   171  Bq   0.000000
   172  Bq   0.000000
   173  Bq   0.000000
   174  Bq   0.000000
   175  Bq   0.000000
   176  Bq   0.000000
   177  Bq   0.000000
   178  Bq   0.000000
   179  Bq   0.000000
   180  Bq   0.000000
   181  Bq   0.000000
   182  Bq   0.000000
   183  Bq   0.000000
   184  Bq   0.000000
   185  Bq   0.000000
   186  Bq   0.000000
   187  Bq   0.000000
   188  Bq   0.000000
   189  Bq   0.000000
   190  Bq   0.000000
   191  Bq   0.000000
   192  Bq   0.000000
   193  Bq   0.000000
   194  Bq   0.000000
   195  Bq   0.000000
   196  Bq   0.000000
   197  Bq   0.000000
   198  Bq   0.000000
   199  Bq   0.000000
   200  Bq   0.000000
   201  Bq   0.000000
   202  Bq   0.000000
   203  Bq   0.000000
   204  Bq   0.000000
   205  Bq   0.000000
   206  Bq   0.000000
   207  Bq   0.000000
   208  Bq   0.000000
   209  Bq   0.000000
   210  Bq   0.000000
   211  Bq   0.000000
   212  Bq   0.000000
   213  Bq   0.000000
   214  Bq   0.000000
   215  Bq   0.000000
   216  Bq   0.000000
   217  Bq   0.000000
   218  Bq   0.000000
   219  Bq   0.000000
   220  Bq   0.000000
   221  Bq   0.000000
   222  Bq   0.000000
   223  Bq   0.000000
   224  Bq   0.000000
   225  Bq   0.000000
   226  Bq   0.000000
   227  Bq   0.000000
   228  Bq   0.000000
   229  Bq   0.000000
   230  Bq   0.000000
   231  Bq   0.000000
   232  Bq   0.000000
   233  Bq   0.000000
   234  Bq   0.000000
   235  Bq   0.000000
   236  Bq   0.000000
 Electronic spatial extent (au):  <R**2>=           5736.9264
 Charge=              0.0000 electrons
 Dipole moment (field-independent basis, Debye):
    X=              0.0475    Y=              0.0856    Z=              0.0029  Tot=              0.0979
 Quadrupole moment (field-independent basis, Debye-Ang):
   XX=           -113.7056   YY=           -113.9456   ZZ=           -133.2669
   XY=             -0.3834   XZ=              3.2102   YZ=             -1.1839
 Traceless Quadrupole moment (field-independent basis, Debye-Ang):
   XX=              6.6005   YY=              6.3604   ZZ=            -12.9609
   XY=             -0.3834   XZ=              3.2102   YZ=             -1.1839
 Octapole moment (field-independent basis, Debye-Ang**2):
  XXX=            -16.4668  YYY=            -16.1860  ZZZ=             -1.7007  XYY=              2.5576
  XXY=             -6.5650  XXZ=             13.6547  XZZ=             -8.9478  YZZ=            -17.7168
  YYZ=            -13.2941  XYZ=              8.8036
 Hexadecapole moment (field-independent basis, Debye-Ang**3):
 XXXX=          -3951.1638 YYYY=          -3112.2161 ZZZZ=           -504.8311 XXXY=            340.6935
 XXXZ=            156.4968 YYYX=            335.5625 YYYZ=            -87.0893 ZZZX=            120.2262
 ZZZY=           -108.7373 XXYY=          -1176.4844 XXZZ=           -856.7291 YYZZ=           -665.7275
 XXYZ=            -68.9016 YYXZ=             48.1602 ZZXY=            153.0375
 N-N= 1.610917615562D+03 E-N=-5.186891130729D+03  KE= 8.436329774448D+02
 1\1\GINC-URBICANDE\SP\RB3LYP\6-311+G(d,p)\C22H14\YANNICK\21-Aug-2020\0
 \\# rb3lyp/6-311+g** NMR geom=connectivity\\Title\\0,1\C,0,-4.0500558,
 -0.5771862,0.8136712\H,0,-5.0263804,-1.0082727,1.002476\C,0,-3.9381552
 ,0.6617804,0.2400876\H,0,-4.8252424,1.233889,-0.0111295\C,0,-2.676841,
 1.2433246,0.0057578\C,0,-1.4974121,0.5051527,0.2848253\C,0,-1.6508332,
 -0.7338728,0.9404026\H,0,-0.7713646,-1.2730967,1.2633753\C,0,-2.889854
 8,-1.2624035,1.1994307\H,0,-2.9683706,-2.2124563,1.7152676\C,0,-2.5773
 185,2.5963696,-0.419293\H,0,-3.4870728,3.1412239,-0.6474055\C,0,-1.374
 1895,3.2147896,-0.436403\H,0,-1.2997315,4.2742019,-0.6578144\C,0,-0.17
 19488,2.499409,-0.1734588\C,0,-0.2043917,1.1018437,0.0192689\C,0,1.051
 3491,3.204256,-0.0676222\H,0,1.0427344,4.2819499,-0.1896997\C,0,2.1942
 091,2.5487446,0.2579577\H,0,3.1168527,3.0912848,0.4334727\C,0,2.221647
 3,1.1336562,0.293499\C,0,1.0486931,0.3945528,0.0302412\C,0,3.4483363,0
 .4614633,0.5573939\H,0,4.3095794,1.0606054,0.8334846\C,0,3.5427346,-0.
 8855926,0.4749463\H,0,4.4731467,-1.3939704,0.7038822\C,0,2.4490052,-1.
 6474447,-0.0196319\C,0,1.2150704,-1.0057258,-0.3013573\C,0,0.2531113,-
 1.743444,-1.0216591\H,0,-0.6541356,-1.2535051,-1.3462847\C,0,0.4494193
 ,-3.0628597,-1.3413779\H,0,-0.3083162,-3.5944309,-1.905406\C,0,1.62517
 26,-3.7207967,-0.9552541\H,0,1.7670048,-4.7687404,-1.1927019\C,0,2.610
 9872,-3.0144177,-0.318305\H,0,3.5525612,-3.4902813,-0.0646367\Bq,0,0.6
 319676094,-3.8850467197,-0.3451028846\Bq,0,1.0305852473,-3.6188902086,
 -1.2227501317\Bq,0,0.8312764284,-3.7519684641,-0.7839265082\Bq,0,0.780
 4081912,-3.6821911325,-0.671928533\Bq,0,0.8601317188,-3.6289598303,-0.
 8474579824\Bq,0,0.7405464274,-3.7088067836,-0.5841638083\Bq,0,0.899993
 4826,-3.6023441792,-0.9352227071\Bq,0,0.7006846636,-3.7354224347,-0.49
 63990836\Bq,0,0.9398552463,-3.5757285281,-1.0229874318\Bq,0,0.66082289
 98,-3.7620380858,-0.4086343589\Bq,0,0.9797170101,-3.549112877,-1.11075
 21566\Bq,0,0.620961136,-3.7886537369,-0.3208696341\Bq,0,1.0195787739,-
 3.5224972259,-1.1985168813\Bq,0,0.820269955,-3.6555754814,-0.759693257
 7\Bq,0,0.7694017178,-3.5857981498,-0.6476952825\Bq,0,0.8491252454,-3.5
 325668476,-0.823224732\Bq,0,0.729539954,-3.6124138009,-0.5599305578\Bq
 ,0,0.8889870092,-3.5059511965,-0.9109894567\Bq,0,0.6896781902,-3.63902
 9452,-0.4721658331\Bq,0,0.928848773,-3.4793355454,-0.9987541814\Bq,0,0
 .6498164265,-3.6656451031,-0.3844011084\Bq,0,0.9687105368,-3.452719894
 3,-1.0865189061\Bq,0,0.6099546627,-3.6922607542,-0.2966363837\Bq,0,1.0
 085723005,-3.4261042432,-1.1742836308\Bq,0,0.8092634816,-3.5591824987,
 -0.7354600072\Bq,0,0.7583952444,-3.4894051671,-0.6234620321\Bq,0,0.838
 118772,-3.4361738649,-0.7989914815\Bq,0,0.7185334807,-3.5160208182,-0.
 5356973074\Bq,0,0.8779805358,-3.4095582138,-0.8867562062\Bq,0,0.678671
 7169,-3.5426364693,-0.4479325826\Bq,0,0.9178422996,-3.3829425627,-0.97
 45209309\Bq,0,0.6388099531,-3.5692521204,-0.3601678579\Bq,0,0.95770406
 34,-3.3563269116,-1.0622856556\Bq,0,0.5989481893,-3.5958677715,-0.2724
 031332\Bq,0,0.9975658272,-3.3297112605,-1.1500503804\Bq,0,0.7982570082
 ,-3.462789516,-0.7112267568\Bq,0,0.7473887711,-3.3930121844,-0.5992287
 816\Bq,0,0.8271122987,-3.3397808822,-0.774758231\Bq,0,0.7075270073,-3.
 4196278355,-0.5114640569\Bq,0,0.8669740624,-3.3131652311,-0.8625229558
 \Bq,0,0.6676652435,-3.4462434866,-0.4236993322\Bq,0,0.9068358262,-3.28
 654958,-0.9502876805\Bq,0,0.6278034797,-3.4728591377,-0.3359346075\Bq,
 0,0.94669759,-3.2599339288,-1.0380524052\Bq,0,0.5879417159,-3.49947478
 88,-0.2481698828\Bq,0,0.9865593538,-3.2333182777,-1.1258171299\Bq,0,0.
 7872505349,-3.3663965333,-0.6869935063\Bq,0,0.7363822977,-3.2966192017
 ,-0.5749955312\Bq,0,0.8161058253,-3.2433878995,-0.7505249806\Bq,0,0.69
 65205339,-3.3232348528,-0.4872308064\Bq,0,0.8559675891,-3.2167722484,-
 0.8382897053\Bq,0,0.6566587701,-3.3498505039,-0.3994660817\Bq,0,0.8958
 293529,-3.1901565972,-0.92605443\Bq,0,0.6167970063,-3.376466155,-0.311
 701357\Bq,0,0.9356911166,-3.1635409461,-1.0138191547\Bq,0,0.5769352426
 ,-3.4030818061,-0.2239366323\Bq,0,0.9755528804,-3.136925295,-1.1015838
 794\Bq,0,0.7762440615,-3.2700035506,-0.6627602559\Bq,0,0.7253758243,-3
 .200226219,-0.5507622807\Bq,0,0.8050993519,-3.1469949167,-0.7262917301
 \Bq,0,0.6855140605,-3.2268418701,-0.462997556\Bq,0,0.8449611157,-3.120
 3792656,-0.8140564548\Bq,0,0.6456522968,-3.2534575212,-0.3752328313\Bq
 ,0,0.8848228795,-3.0937636145,-0.9018211796\Bq,0,0.605790533,-3.280073
 1723,-0.2874681066\Bq,0,0.9246846433,-3.0671479634,-0.9895859043\Bq,0,
 0.5659287692,-3.3066888234,-0.1997033818\Bq,0,0.9645464071,-3.04053231
 23,-1.077350629\Bq,0,0.7652375881,-3.1736105679,-0.6385270054\Bq,0,0.7
 14369351,-3.1038332362,-0.5265290302\Bq,0,0.7940928785,-3.050601934,-0
 .7020584797\Bq,0,0.6745075872,-3.1304488874,-0.4387643055\Bq,0,0.83395
 46423,-3.0239862829,-0.7898232044\Bq,0,0.6346458234,-3.1570645385,-0.3
 509995808\Bq,0,0.8738164061,-2.9973706318,-0.8775879291\Bq,0,0.5947840
 596,-3.1836801896,-0.2632348561\Bq,0,0.9136781699,-2.9707549807,-0.965
 3526538\Bq,0,0.5549222958,-3.2102958407,-0.1754701314\Bq,0,0.953539933
 7,-2.9441393296,-1.0531173785\Bq,0,0.7542311147,-3.0772175851,-0.61429
 3755\Bq,0,0.7033628776,-3.0074402535,-0.5022957798\Bq,0,0.7830864052,-
 2.9542089513,-0.6778252292\Bq,0,0.6635011138,-3.0340559046,-0.41453105
 51\Bq,0,0.822948169,-2.9275933002,-0.7655899539\Bq,0,0.62363935,-3.060
 6715558,-0.3267663304\Bq,0,0.8628099327,-2.9009776491,-0.8533546786\Bq
 ,0,0.5837775862,-3.0872872069,-0.2390016056\Bq,0,0.9026716965,-2.87436
 1998,-0.9411194033\Bq,0,0.5439158224,-3.113902858,-0.1512368809\Bq,0,0
 .9425334603,-2.8477463469,-1.0288841281\Bq,0,0.7432246414,-2.980824602
 4,-0.5900605045\Bq,0,0.6923564042,-2.9110472708,-0.4780625293\Bq,0,0.7
 720799318,-2.8578159686,-0.6535919788\Bq,0,0.6524946404,-2.9376629219,
 -0.3902978046\Bq,0,0.8119416956,-2.8312003175,-0.7413567035\Bq,0,0.612
 6328766,-2.964278573,-0.3025330799\Bq,0,0.8518034594,-2.8045846664,-0.
 8291214282\Bq,0,0.5727711129,-2.9908942241,-0.2147683552\Bq,0,0.891665
 2232,-2.7779690153,-0.9168861529\Bq,0,0.5329093491,-3.0175098753,-0.12
 70036305\Bq,0,0.9315269869,-2.7513533642,-1.0046508776\Bq,0,0.73221816
 8,-2.8844316197,-0.565827254\Bq,0,0.6813499308,-2.8146542881,-0.453829
 2789\Bq,0,0.7610734584,-2.7614229859,-0.6293587283\Bq,0,0.6414881671,-
 2.8412699392,-0.3660645542\Bq,0,0.8009352222,-2.7348073348,-0.71712345
 3\Bq,0,0.6016264033,-2.8678855903,-0.2782998294\Bq,0,0.840796986,-2.70
 81916837,-0.8048881777\Bq,0,0.5617646395,-2.8945012414,-0.1905351047\B
 q,0,0.8806587498,-2.6815760326,-0.8926529024\Bq,0,0.5219028757,-2.9211
 168925,-0.10277038\Bq,0,0.9205205136,-2.6549603815,-0.9804176271\Bq,0,
 0.7212116946,-2.788038637,-0.5415940036\Bq,0,0.6703434575,-2.718261305
 4,-0.4295960284\Bq,0,0.750066985,-2.6650300032,-0.6051254778\Bq,0,0.63
 04816937,-2.7448769565,-0.3418313037\Bq,0,0.7899287488,-2.6384143521,-
 0.6928902025\Bq,0,0.5906199299,-2.7714926076,-0.254066579\Bq,0,0.82979
 05126,-2.611798701,-0.7806549273\Bq,0,0.5507581661,-2.7981082587,-0.16
 63018543\Bq,0,0.8696522764,-2.5851830499,-0.868419652\Bq,0,0.510896402
 3,-2.8247239098,-0.0785371296\Bq,0,0.9095140402,-2.5585673988,-0.95618
 43767\Bq,0,0.7102052213,-2.6916456543,-0.5173607531\Bq,0,0.6593369841,
 -2.6218683227,-0.405362778\Bq,0,0.7390605117,-2.5686370205,-0.58089222
 74\Bq,0,0.6194752203,-2.6484839738,-0.3175980532\Bq,0,0.7789222755,-2.
 5420213694,-0.6686569521\Bq,0,0.5796134565,-2.6750996249,-0.2298333285
 \Bq,0,0.8187840392,-2.5154057183,-0.7564216768\Bq,0,0.5397516927,-2.70
 1715276,-0.1420686038\Bq,0,0.858645803,-2.4887900672,-0.8441864015\Bq,
 0,0.4998899289,-2.7283309271,-0.0543038791\Bq,0,0.8985075668,-2.462174
 416,-0.9319511262\Bq,0,0.6991987479,-2.5952526716,-0.4931275027\Bq,0,0
 .6483305107,-2.52547534,-0.3811295275\Bq,0,0.7280540383,-2.4722440378,
 -0.5566589769\Bq,0,0.6084687469,-2.5520909911,-0.2933648028\Bq,0,0.767
 9158021,-2.4456283867,-0.6444237016\Bq,0,0.5686069832,-2.5787066422,-0
 .2056000781\Bq,0,0.8077775659,-2.4190127355,-0.7321884263\Bq,0,0.52874
 52194,-2.6053222933,-0.1178353534\Bq,0,0.8476393297,-2.3923970844,-0.8
 199531511\Bq,0,0.4888834556,-2.6319379444,-0.0300706286\Bq,0,0.8875010
 935,-2.3657814333,-0.9077178758\Bq,0,0.6881922745,-2.4988596889,-0.468
 8942522\Bq,0,0.6373240374,-2.4290823573,-0.356896277\Bq,0,0.7170475649
 ,-2.375851055,-0.5324257265\Bq,0,0.5974622736,-2.4556980084,-0.2691315
 523\Bq,0,0.7569093287,-2.3492354039,-0.6201904512\Bq,0,0.5576005098,-2
 .4823136595,-0.1813668276\Bq,0,0.7967710925,-2.3226197528,-0.707955175
 9\Bq,0,0.517738746,-2.5089293106,-0.0936021029\Bq,0,0.8366328563,-2.29
 60041017,-0.7957199006\Bq,0,0.4778769822,-2.5355449617,-0.0058373782\B
 q,0,0.8764946201,-2.2693884506,-0.8834846253\Bq,0,0.6771858011,-2.4024
 667062,-0.4446610017\Bq,0,0.626317564,-2.3326893746,-0.3326630266\Bq,0
 ,0.7060410916,-2.2794580723,-0.508192476\Bq,0,0.5864558002,-2.35930502
 57,-0.2448983019\Bq,0,0.7459028553,-2.2528424212,-0.5959572007\Bq,0,0.
 5465940364,-2.3859206768,-0.1571335772\Bq,0,0.7857646191,-2.2262267701
 ,-0.6837219254\Bq,0,0.5067322726,-2.4125363279,-0.0693688524\Bq,0,0.82
 56263829,-2.199611119,-0.7714866501\Bq,0,0.4668705088,-2.439151979,0.0
 183958723\Bq,0,0.8654881467,-2.1729954679,-0.8592513749\Bq,0,0.6661793
 278,-2.3060737234,-0.4204277513\Bq,0,0.6153110906,-2.2362963918,-0.308
 4297761\Bq,0,0.6950346182,-2.1830650896,-0.4839592255\Bq,0,0.575449326
 8,-2.2629120429,-0.2206650514\Bq,0,0.734896382,-2.1564494385,-0.571723
 9503\Bq,0,0.535587563,-2.2895276941,-0.1329003267\Bq,0,0.7747581458,-2
 .1298337874,-0.659488675\Bq,0,0.4957257992,-2.3161433452,-0.045135602\
 Bq,0,0.8146199095,-2.1032181363,-0.7472533997\Bq,0,0.4558640355,-2.342
 7589963,0.0426291227\Bq,0,0.8544816733,-2.0766024852,-0.8350181244\Bq,
 0,0.6551728544,-2.2096807407,-0.3961945008\Bq,0,0.6043046172,-2.139903
 4091,-0.2841965257\Bq,0,0.6840281448,-2.0866721069,-0.4597259751\Bq,0,
 0.5644428535,-2.1665190602,-0.1964318009\Bq,0,0.7238899086,-2.06005645
 58,-0.5474906998\Bq,0,0.5245810897,-2.1931347113,-0.1086670762\Bq,0,0.
 7637516724,-2.0334408047,-0.6352554245\Bq,0,0.4847193259,-2.2197503624
 ,-0.0209023515\Bq,0,0.8036134362,-2.0068251536,-0.7230201492\Bq,0,0.44
 48575621,-2.2463660136,0.0668623732\Bq,0,0.8434752,-1.9802095025,-0.81
 07848739\Bq,0,0.644166381,-2.113287758,-0.3719612504\Bq,0,0.5932981439
 ,-2.0435104264,-0.2599632752\Bq,0,0.6730216714,-1.9902791242,-0.435492
 7246\Bq,0,0.5534363801,-2.0701260775,-0.1721985505\Bq,0,0.7128834352,-
 1.9636634731,-0.5232574493\Bq,0,0.5135746163,-2.0967417286,-0.08443382
 58\Bq,0,0.752745199,-1.937047822,-0.6110221741\Bq,0,0.4737128525,-2.12
 33573797,0.0033308989\Bq,0,0.7926069628,-1.9104321709,-0.6987868988\Bq
 ,0,0.4338510887,-2.1499730308,0.0910956236\Bq,0,0.8324687266,-1.883816
 5198,-0.7865516235\\Version=ES64L-G09RevD.01\HF=-847.0032898\RMSD=7.46
 3e-09\Dipole=0.0186808,0.0336671,0.0011595\Quadrupole=4.9072795,4.7288
 219,-9.6361014,-0.2850201,2.3867064,-0.880172\PG=C01 [X(C22H14)]\\@


 THESE ARE THE TIMES THAT TRY MENS SOULS.
 THE SUMMER SOLDIER AND THE SUNSHINE PATRIOT WILL IN THIS CRISIS,
 SHRINK FROM THE SERVICE OF HIS COUNTRY.  BUT HE THAT STANDS NOW,
 DESERVES THE LOVE AND THANKS OF MAN AND WOMAN.
 TYRANNY, LIKE HELL, IS NOT EASILY CONQUERED,
 YET WE HAVE THIS CONSOLATION WITH US,
 THAT THE HARDER THE CONFLICT, THE MORE GLORIOUS THE TRIUMPH.
 WHAT WE OBTAIN TOO CHEAP, WE ESTEEM TOO LIGHTLY, 
 'TIS DEARNESS ONLY THAT GIVES EVERYTHING ITS VALUE.

                                              -- TOM PAINE
 Job cpu time:       0 days  2 hours 37 minutes 39.4 seconds.
 File lengths (MBytes):  RWF=    184 Int=      0 D2E=      0 Chk=     19 Scr=      1
 Normal termination of Gaussian 09 at Fri Aug 21 14:07:24 2020.
