 Entering Gaussian System, Link 0=g09
 Input=input_cycle_04_batch_13000.com
 Output=input_cycle_04_batch_13000.log
 Initial command:
 /share/programs/GAUSSIAN/64/g09/l1.exe "/scratch/yannick.30508/Gau-2951296.inp" -scrdir="/scratch/yannick.30508/"
 Entering Link 1 = /share/programs/GAUSSIAN/64/g09/l1.exe PID=   2951297.
  
 Copyright (c) 1988,1990,1992,1993,1995,1998,2003,2009,2013,
            Gaussian, Inc.  All Rights Reserved.
  
 This is part of the Gaussian(R) 09 program.  It is based on
 the Gaussian(R) 03 system (copyright 2003, Gaussian, Inc.),
 the Gaussian(R) 98 system (copyright 1998, Gaussian, Inc.),
 the Gaussian(R) 94 system (copyright 1995, Gaussian, Inc.),
 the Gaussian 92(TM) system (copyright 1992, Gaussian, Inc.),
 the Gaussian 90(TM) system (copyright 1990, Gaussian, Inc.),
 the Gaussian 88(TM) system (copyright 1988, Gaussian, Inc.),
 the Gaussian 86(TM) system (copyright 1986, Carnegie Mellon
 University), and the Gaussian 82(TM) system (copyright 1983,
 Carnegie Mellon University). Gaussian is a federally registered
 trademark of Gaussian, Inc.
  
 This software contains proprietary and confidential information,
 including trade secrets, belonging to Gaussian, Inc.
  
 This software is provided under written license and may be
 used, copied, transmitted, or stored only in accord with that
 written license.
  
 The following legend is applicable only to US Government
 contracts under FAR:
  
                    RESTRICTED RIGHTS LEGEND
  
 Use, reproduction and disclosure by the US Government is
 subject to restrictions as set forth in subparagraphs (a)
 and (c) of the Commercial Computer Software - Restricted
 Rights clause in FAR 52.227-19.
  
 Gaussian, Inc.
 340 Quinnipiac St., Bldg. 40, Wallingford CT 06492
  
  
 ---------------------------------------------------------------
 Warning -- This program may not be used in any manner that
 competes with the business of Gaussian, Inc. or will provide
 assistance to any competitor of Gaussian, Inc.  The licensee
 of this program is prohibited from giving any competitor of
 Gaussian, Inc. access to this program.  By using this program,
 the user acknowledges that Gaussian, Inc. is engaged in the
 business of creating and licensing software in the field of
 computational chemistry and represents and warrants to the
 licensee that it is not a competitor of Gaussian, Inc. and that
 it will not use this program in any manner prohibited above.
 ---------------------------------------------------------------
  

 Cite this work as:
 Gaussian 09, Revision D.01,
 M. J. Frisch, G. W. Trucks, H. B. Schlegel, G. E. Scuseria, 
 M. A. Robb, J. R. Cheeseman, G. Scalmani, V. Barone, B. Mennucci, 
 G. A. Petersson, H. Nakatsuji, M. Caricato, X. Li, H. P. Hratchian, 
 A. F. Izmaylov, J. Bloino, G. Zheng, J. L. Sonnenberg, M. Hada, 
 M. Ehara, K. Toyota, R. Fukuda, J. Hasegawa, M. Ishida, T. Nakajima, 
 Y. Honda, O. Kitao, H. Nakai, T. Vreven, J. A. Montgomery, Jr., 
 J. E. Peralta, F. Ogliaro, M. Bearpark, J. J. Heyd, E. Brothers, 
 K. N. Kudin, V. N. Staroverov, T. Keith, R. Kobayashi, J. Normand, 
 K. Raghavachari, A. Rendell, J. C. Burant, S. S. Iyengar, J. Tomasi, 
 M. Cossi, N. Rega, J. M. Millam, M. Klene, J. E. Knox, J. B. Cross, 
 V. Bakken, C. Adamo, J. Jaramillo, R. Gomperts, R. E. Stratmann, 
 O. Yazyev, A. J. Austin, R. Cammi, C. Pomelli, J. W. Ochterski, 
 R. L. Martin, K. Morokuma, V. G. Zakrzewski, G. A. Voth, 
 P. Salvador, J. J. Dannenberg, S. Dapprich, A. D. Daniels, 
 O. Farkas, J. B. Foresman, J. V. Ortiz, J. Cioslowski, 
 and D. J. Fox, Gaussian, Inc., Wallingford CT, 2013.
 
 ******************************************
 Gaussian 09:  ES64L-G09RevD.01 24-Apr-2013
                22-Aug-2020 
 ******************************************
 %nproc=8
 Will use up to    8 processors via shared memory.
 %mem=1000MB
 ----------------------------------------
 # rb3lyp/6-311+g** NMR geom=connectivity
 ----------------------------------------
 1/38=1,57=2/1;
 2/12=2,17=6,18=5,40=1/2;
 3/5=4,6=6,7=111,11=2,16=1,25=1,30=1,74=-5,116=1/1,2,8,3;
 4//1;
 5/5=2,38=5/2;
 8/6=1,10=90,11=11/1;
 10/13=100,45=16/2;
 6/7=2,8=2,9=2,10=2,28=1/1;
 99/9=1/99;
 -----
 Title
 -----
 Symbolic Z-matrix:
 Charge =  0 Multiplicity = 1
 C                    -4.05006  -0.57719   0.81367 
 H                    -5.02638  -1.00827   1.00248 
 C                    -3.93816   0.66178   0.24009 
 H                    -4.82524   1.23389  -0.01113 
 C                    -2.67684   1.24332   0.00576 
 C                    -1.49741   0.50515   0.28483 
 C                    -1.65083  -0.73387   0.9404 
 H                    -0.77136  -1.2731    1.26338 
 C                    -2.88985  -1.2624    1.19943 
 H                    -2.96837  -2.21246   1.71527 
 C                    -2.57732   2.59637  -0.41929 
 H                    -3.48707   3.14122  -0.64741 
 C                    -1.37419   3.21479  -0.4364 
 H                    -1.29973   4.2742   -0.65781 
 C                    -0.17195   2.49941  -0.17346 
 C                    -0.20439   1.10184   0.01927 
 C                     1.05135   3.20426  -0.06762 
 H                     1.04273   4.28195  -0.1897 
 C                     2.19421   2.54874   0.25796 
 H                     3.11685   3.09128   0.43347 
 C                     2.22165   1.13366   0.2935 
 C                     1.04869   0.39455   0.03024 
 C                     3.44834   0.46146   0.55739 
 H                     4.30958   1.06061   0.83348 
 C                     3.54273  -0.88559   0.47495 
 H                     4.47315  -1.39397   0.70388 
 C                     2.44901  -1.64744  -0.01963 
 C                     1.21507  -1.00573  -0.30136 
 C                     0.25311  -1.74344  -1.02166 
 H                    -0.65414  -1.25351  -1.34628 
 C                     0.44942  -3.06286  -1.34138 
 H                    -0.30832  -3.59443  -1.90541 
 C                     1.62517  -3.7208   -0.95525 
 H                     1.767    -4.76874  -1.1927 
 C                     2.61099  -3.01442  -0.31831 
 H                     3.55256  -3.49028  -0.06464 
 Bq                    1.93372  -2.08316   0.84298 
 Bq                    2.19051  -1.94089  -0.11296 
 Bq                    2.06212  -2.01203   0.36501 
 Bq                    2.03275  -1.92727   0.47434 
 Bq                    2.0841   -1.89882   0.28316 
 Bq                    2.00707  -1.9415    0.56994 
 Bq                    2.10978  -1.88459   0.18756 
 Bq                    1.98139  -1.95573   0.66553 
 Bq                    2.13546  -1.87036   0.09197 
 Bq                    1.95571  -1.96995   0.76112 
 Bq                    2.16114  -1.85613  -0.00363 
 Bq                    1.93003  -1.98418   0.85672 
 Bq                    2.18682  -1.8419   -0.09922 
 Bq                    2.05842  -1.91304   0.37875 
 Bq                    2.02905  -1.82829   0.48808 
 Bq                    2.08041  -1.79983   0.2969 
 Bq                    2.00338  -1.84252   0.58368 
 Bq                    2.10609  -1.78561   0.2013 
 Bq                    1.9777   -1.85674   0.67927 
 Bq                    2.13177  -1.77138   0.10571 
 Bq                    1.95202  -1.87097   0.77487 
 Bq                    2.15745  -1.75715   0.01012 
 Bq                    1.92634  -1.8852    0.87046 
 Bq                    2.18313  -1.74292  -0.08548 
 Bq                    2.05473  -1.81406   0.39249 
 Bq                    2.02536  -1.72931   0.50182 
 Bq                    2.07672  -1.70085   0.31064 
 Bq                    1.99968  -1.74353   0.59742 
 Bq                    2.1024   -1.68662   0.21504 
 Bq                    1.97401  -1.75776   0.69301 
 Bq                    2.12808  -1.67239   0.11945 
 Bq                    1.94833  -1.77199   0.78861 
 Bq                    2.15376  -1.65817   0.02386 
 Bq                    1.92265  -1.78622   0.8842 
 Bq                    2.17944  -1.64394  -0.07174 
 Bq                    2.05104  -1.71508   0.40623 
 Bq                    2.02167  -1.63032   0.51557 
 Bq                    2.07303  -1.60187   0.32438 
 Bq                    1.99599  -1.64455   0.61116 
 Bq                    2.09871  -1.58764   0.22878 
 Bq                    1.97031  -1.65878   0.70675 
 Bq                    2.12439  -1.57341   0.13319 
 Bq                    1.94464  -1.67301   0.80235 
 Bq                    2.15007  -1.55918   0.0376 
 Bq                    1.91896  -1.68723   0.89794 
 Bq                    2.17575  -1.54496  -0.058 
 Bq                    2.04735  -1.6161    0.41997 
 Bq                    2.01798  -1.53134   0.52931 
 Bq                    2.06934  -1.50288   0.33812 
 Bq                    1.9923   -1.54557   0.6249 
 Bq                    2.09502  -1.48866   0.24252 
 Bq                    1.96662  -1.5598    0.72049 
 Bq                    2.1207   -1.47443   0.14693 
 Bq                    1.94094  -1.57402   0.81609 
 Bq                    2.14638  -1.4602    0.05134 
 Bq                    1.91527  -1.58825   0.91168 
 Bq                    2.17205  -1.44597  -0.04426 
 Bq                    2.04366  -1.51711   0.43371 
 Bq                    2.01429  -1.43236   0.54305 
 Bq                    2.06565  -1.4039    0.35186 
 Bq                    1.98861  -1.44659   0.63864 
 Bq                    2.09133  -1.38967   0.25627 
 Bq                    1.96293  -1.46081   0.73423 
 Bq                    2.11701  -1.37545   0.16067 
 Bq                    1.93725  -1.47504   0.82983 
 Bq                    2.14268  -1.36122   0.06508 
 Bq                    1.91157  -1.48927   0.92542 
 Bq                    2.16836  -1.34699  -0.03052 
 Bq                    2.03997  -1.41813   0.44745 
 Bq                    2.0106   -1.33337   0.55679 
 Bq                    2.06196  -1.30492   0.3656 
 Bq                    1.98492  -1.3476    0.65238 
 Bq                    2.08764  -1.29069   0.27001 
 Bq                    1.95924  -1.36183   0.74797 
 Bq                    2.11331  -1.27646   0.17441 
 Bq                    1.93356  -1.37606   0.84357 
 Bq                    2.13899  -1.26224   0.07882 
 Bq                    1.90788  -1.39029   0.93916 
 Bq                    2.16467  -1.24801  -0.01678 
 Bq                    2.03628  -1.31915   0.46119 
 Bq                    2.00691  -1.23439   0.57053 
 Bq                    2.05827  -1.20594   0.37934 
 Bq                    1.98123  -1.24862   0.66612 
 Bq                    2.08394  -1.19171   0.28375 
 Bq                    1.95555  -1.26285   0.76171 
 Bq                    2.10962  -1.17748   0.18815 
 Bq                    1.92987  -1.27707   0.85731 
 Bq                    2.1353   -1.16325   0.09256 
 Bq                    1.90419  -1.2913    0.9529 
 Bq                    2.16098  -1.14903  -0.00304 
 Bq                    2.03259  -1.22016   0.47493 
 Bq                    2.00322  -1.13541   0.58427 
 Bq                    2.05457  -1.10695   0.39308 
 Bq                    1.97754  -1.14964   0.67986 
 Bq                    2.08025  -1.09273   0.29749 
 Bq                    1.95186  -1.16386   0.77546 
 Bq                    2.10593  -1.0785    0.20189 
 Bq                    1.92618  -1.17809   0.87105 
 Bq                    2.13161  -1.06427   0.1063 
 Bq                    1.9005   -1.19232   0.96664 
 Bq                    2.15729  -1.05004   0.01071 
 Bq                    2.0289   -1.12118   0.48867 
 Bq                    1.99953  -1.03643   0.59801 
 Bq                    2.05088  -1.00797   0.40682 
 Bq                    1.97385  -1.05065   0.6936 
 Bq                    2.07656  -0.99374   0.31123 
 Bq                    1.94817  -1.06488   0.7892 
 Bq                    2.10224  -0.97952   0.21563 
 Bq                    1.92249  -1.07911   0.88479 
 Bq                    2.12792  -0.96529   0.12004 
 Bq                    1.89681  -1.09334   0.98038 
 Bq                    2.1536   -0.95106   0.02445 
 Bq                    2.02521  -1.0222    0.50241 
 Bq                    1.99584  -0.93744   0.61175 
 Bq                    2.04719  -0.90899   0.42056 
 Bq                    1.97016  -0.95167   0.70734 
 Bq                    2.07287  -0.89476   0.32497 
 Bq                    1.94448  -0.9659    0.80294 
 Bq                    2.09855  -0.88053   0.22937 
 Bq                    1.9188   -0.98013   0.89853 
 Bq                    2.12423  -0.86631   0.13378 
 Bq                    1.89312  -0.99435   0.99412 
 Bq                    2.14991  -0.85208   0.03819 
 Bq                    2.02151  -0.92322   0.51616 
 Bq                    1.99214  -0.83846   0.62549 
 Bq                    2.0435   -0.81001   0.4343 
 Bq                    1.96647  -0.85269   0.72108 
 Bq                    2.06918  -0.79578   0.33871 
 Bq                    1.94079  -0.86692   0.81668 
 Bq                    2.09486  -0.78155   0.24311 
 Bq                    1.91511  -0.88114   0.91227 
 Bq                    2.12054  -0.76732   0.14752 
 Bq                    1.88943  -0.89537   1.00786 
 Bq                    2.14622  -0.7531    0.05193 
 Bq                    2.01782  -0.82423   0.5299 
 Bq                    1.98845  -0.73948   0.63923 
 Bq                    2.03981  -0.71102   0.44804 
 Bq                    1.96277  -0.75371   0.73482 
 Bq                    2.06549  -0.6968    0.35245 
 Bq                    1.9371   -0.76793   0.83042 
 Bq                    2.09117  -0.68257   0.25686 
 Bq                    1.91142  -0.78216   0.92601 
 Bq                    2.11685  -0.66834   0.16126 
 Bq                    1.88574  -0.79639   1.02161 
 Bq                    2.14253  -0.65411   0.06567 
 Bq                    2.01413  -0.72525   0.54364 
 Bq                    1.98476  -0.6405    0.65297 
 Bq                    2.03612  -0.61204   0.46178 
 Bq                    1.95908  -0.65472   0.74856 
 Bq                    2.0618   -0.59781   0.36619 
 Bq                    1.9334   -0.66895   0.84416 
 Bq                    2.08748  -0.58359   0.2706 
 Bq                    1.90773  -0.68318   0.93975 
 Bq                    2.11316  -0.56936   0.175 
 Bq                    1.88205  -0.69741   1.03535 
 Bq                    2.13884  -0.55513   0.07941 
 Bq                    2.01044  -0.62627   0.55738 
 Bq                    1.98107  -0.54151   0.66671 
 Bq                    2.03243  -0.51306   0.47552 
 Bq                    1.95539  -0.55574   0.7623 
 Bq                    2.05811  -0.49883   0.37993 
 Bq                    1.92971  -0.56997   0.8579 
 Bq                    2.08379  -0.4846    0.28434 
 Bq                    1.90403  -0.5842    0.95349 
 Bq                    2.10947  -0.47037   0.18874 
 Bq                    1.87836  -0.59842   1.04909 
 Bq                    2.13514  -0.45615   0.09315 
 Bq                    2.00675  -0.52729   0.57112 
 Bq                    1.97738  -0.44253   0.68045 
 Bq                    2.02874  -0.41408   0.48926 
 Bq                    1.9517   -0.45676   0.77605 
 Bq                    2.05442  -0.39985   0.39367 
 Bq                    1.92602  -0.47099   0.87164 
 Bq                    2.0801   -0.38562   0.29808 
 Bq                    1.90034  -0.48521   0.96723 
 Bq                    2.10577  -0.37139   0.20248 
 Bq                    1.87466  -0.49944   1.06283 
 Bq                    2.13145  -0.35716   0.10689 
 Bq                    2.00306  -0.4283    0.58486 
 Bq                    1.97369  -0.34355   0.69419 
 Bq                    2.02505  -0.31509   0.503 
 Bq                    1.94801  -0.35778   0.78979 
 Bq                    2.05073  -0.30086   0.40741 
 Bq                    1.92233  -0.372     0.88538 
 Bq                    2.0764   -0.28664   0.31182 
 Bq                    1.89665  -0.38623   0.98097 
 Bq                    2.10208  -0.27241   0.21622 
 Bq                    1.87097  -0.40046   1.07657 
 Bq                    2.12776  -0.25818   0.12063 
 Bq                    1.99937  -0.32932   0.5986 
 Bq                    1.97     -0.24457   0.70793 
 Bq                    2.02136  -0.21611   0.51675 
 Bq                    1.94432  -0.25879   0.80353 
 Bq                    2.04703  -0.20188   0.42115 
 Bq                    1.91864  -0.27302   0.89912 
 Bq                    2.07271  -0.18765   0.32556 
 Bq                    1.89296  -0.28725   0.99471 
 Bq                    2.09839  -0.17343   0.22996 
 Bq                    1.86728  -0.30148   1.09031 
 Bq                    2.12407  -0.1592    0.13437 
 
 Symmetry turned off:
 Cannot cope with ghost atoms or with translation vectors.
 Stoichiometry    C22H14
 Framework group  C1[X(C22H14)]
 NUMDOF-- NAT=    36 NAtoms=   236
 Deg. of freedom     0
 Full point group                 C1      NOp   1
                          Input orientation:                          
 ---------------------------------------------------------------------
 Center     Atomic      Atomic             Coordinates (Angstroms)
 Number     Number       Type             X           Y           Z
 ---------------------------------------------------------------------
      1          6           0       -4.050056   -0.577186    0.813671
      2          1           0       -5.026380   -1.008273    1.002476
      3          6           0       -3.938155    0.661780    0.240088
      4          1           0       -4.825242    1.233889   -0.011130
      5          6           0       -2.676841    1.243325    0.005758
      6          6           0       -1.497412    0.505153    0.284825
      7          6           0       -1.650833   -0.733873    0.940403
      8          1           0       -0.771365   -1.273097    1.263375
      9          6           0       -2.889855   -1.262404    1.199431
     10          1           0       -2.968371   -2.212456    1.715268
     11          6           0       -2.577319    2.596370   -0.419293
     12          1           0       -3.487073    3.141224   -0.647406
     13          6           0       -1.374190    3.214790   -0.436403
     14          1           0       -1.299732    4.274202   -0.657814
     15          6           0       -0.171949    2.499409   -0.173459
     16          6           0       -0.204392    1.101844    0.019269
     17          6           0        1.051349    3.204256   -0.067622
     18          1           0        1.042734    4.281950   -0.189700
     19          6           0        2.194209    2.548745    0.257958
     20          1           0        3.116853    3.091285    0.433473
     21          6           0        2.221647    1.133656    0.293499
     22          6           0        1.048693    0.394553    0.030241
     23          6           0        3.448336    0.461463    0.557394
     24          1           0        4.309579    1.060605    0.833485
     25          6           0        3.542735   -0.885593    0.474946
     26          1           0        4.473147   -1.393970    0.703882
     27          6           0        2.449005   -1.647445   -0.019632
     28          6           0        1.215070   -1.005726   -0.301357
     29          6           0        0.253111   -1.743444   -1.021659
     30          1           0       -0.654136   -1.253505   -1.346285
     31          6           0        0.449419   -3.062860   -1.341378
     32          1           0       -0.308316   -3.594431   -1.905406
     33          6           0        1.625173   -3.720797   -0.955254
     34          1           0        1.767005   -4.768740   -1.192702
     35          6           0        2.610987   -3.014418   -0.318305
     36          1           0        3.552561   -3.490281   -0.064637
     37          0           0        1.933721   -2.083164    0.842978
     38          0           0        2.190510   -1.940888   -0.112960
     39          0           0        2.062116   -2.012026    0.365009
     40          0           0        2.032746   -1.927271    0.474344
     41          0           0        2.084103   -1.898816    0.283156
     42          0           0        2.007067   -1.941499    0.569937
     43          0           0        2.109782   -1.884588    0.187562
     44          0           0        1.981388   -1.955726    0.665531
     45          0           0        2.135461   -1.870360    0.091969
     46          0           0        1.955709   -1.969954    0.761125
     47          0           0        2.161140   -1.856133   -0.003625
     48          0           0        1.930030   -1.984181    0.856719
     49          0           0        2.186819   -1.841905   -0.099219
     50          0           0        2.058424   -1.913043    0.378750
     51          0           0        2.029055   -1.828288    0.488084
     52          0           0        2.080412   -1.799833    0.296897
     53          0           0        2.003376   -1.842516    0.583678
     54          0           0        2.106091   -1.785605    0.201303
     55          0           0        1.977697   -1.856743    0.679272
     56          0           0        2.131770   -1.771378    0.105709
     57          0           0        1.952018   -1.870971    0.774866
     58          0           0        2.157449   -1.757150    0.010115
     59          0           0        1.926339   -1.885199    0.870459
     60          0           0        2.183128   -1.742922   -0.085478
     61          0           0        2.054733   -1.814061    0.392490
     62          0           0        2.025364   -1.729305    0.501825
     63          0           0        2.076721   -1.700850    0.310637
     64          0           0        1.999685   -1.743533    0.597419
     65          0           0        2.102400   -1.686622    0.215043
     66          0           0        1.974006   -1.757761    0.693012
     67          0           0        2.128079   -1.672395    0.119450
     68          0           0        1.948327   -1.771988    0.788606
     69          0           0        2.153758   -1.658167    0.023856
     70          0           0        1.922648   -1.786216    0.884200
     71          0           0        2.179437   -1.643940   -0.071738
     72          0           0        2.051042   -1.715078    0.406231
     73          0           0        2.021672   -1.630323    0.515565
     74          0           0        2.073030   -1.601867    0.324378
     75          0           0        1.995994   -1.644550    0.611159
     76          0           0        2.098709   -1.587640    0.228784
     77          0           0        1.970315   -1.658778    0.706753
     78          0           0        2.124388   -1.573412    0.133190
     79          0           0        1.944636   -1.673006    0.802347
     80          0           0        2.150067   -1.559184    0.037596
     81          0           0        1.918957   -1.687233    0.897940
     82          0           0        2.175746   -1.544957   -0.057997
     83          0           0        2.047351   -1.616095    0.419971
     84          0           0        2.017981   -1.531340    0.529306
     85          0           0        2.069339   -1.502885    0.338118
     86          0           0        1.992303   -1.545568    0.624900
     87          0           0        2.095018   -1.488657    0.242524
     88          0           0        1.966624   -1.559795    0.720493
     89          0           0        2.120697   -1.474429    0.146931
     90          0           0        1.940945   -1.574023    0.816087
     91          0           0        2.146376   -1.460202    0.051337
     92          0           0        1.915266   -1.588251    0.911681
     93          0           0        2.172055   -1.445974   -0.044257
     94          0           0        2.043660   -1.517112    0.433712
     95          0           0        2.014290   -1.432357    0.543046
     96          0           0        2.065648   -1.403902    0.351859
     97          0           0        1.988611   -1.446585    0.638640
     98          0           0        2.091327   -1.389674    0.256265
     99          0           0        1.962933   -1.460813    0.734234
    100          0           0        2.117006   -1.375447    0.160671
    101          0           0        1.937254   -1.475040    0.829828
    102          0           0        2.142685   -1.361219    0.065077
    103          0           0        1.911575   -1.489268    0.925421
    104          0           0        2.168364   -1.346991   -0.030516
    105          0           0        2.039969   -1.418130    0.447453
    106          0           0        2.010599   -1.333375    0.556787
    107          0           0        2.061957   -1.304919    0.365599
    108          0           0        1.984920   -1.347602    0.652381
    109          0           0        2.087636   -1.290692    0.270006
    110          0           0        1.959242   -1.361830    0.747974
    111          0           0        2.113315   -1.276464    0.174412
    112          0           0        1.933563   -1.376058    0.843568
    113          0           0        2.138994   -1.262236    0.078818
    114          0           0        1.907884   -1.390285    0.939162
    115          0           0        2.164672   -1.248009   -0.016776
    116          0           0        2.036278   -1.319147    0.461193
    117          0           0        2.006908   -1.234392    0.570527
    118          0           0        2.058266   -1.205937    0.379340
    119          0           0        1.981229   -1.248620    0.666121
    120          0           0        2.083945   -1.191709    0.283746
    121          0           0        1.955551   -1.262847    0.761715
    122          0           0        2.109624   -1.177481    0.188152
    123          0           0        1.929872   -1.277075    0.857309
    124          0           0        2.135303   -1.163254    0.092559
    125          0           0        1.904193   -1.291303    0.952903
    126          0           0        2.160981   -1.149026   -0.003035
    127          0           0        2.032587   -1.220164    0.474934
    128          0           0        2.003217   -1.135409    0.584268
    129          0           0        2.054575   -1.106954    0.393080
    130          0           0        1.977538   -1.149637    0.679862
    131          0           0        2.080254   -1.092726    0.297487
    132          0           0        1.951859   -1.163865    0.775456
    133          0           0        2.105933   -1.078499    0.201893
    134          0           0        1.926181   -1.178092    0.871049
    135          0           0        2.131612   -1.064271    0.106299
    136          0           0        1.900502   -1.192320    0.966643
    137          0           0        2.157290   -1.050043    0.010705
    138          0           0        2.028896   -1.121182    0.488674
    139          0           0        1.999526   -1.036427    0.598009
    140          0           0        2.050884   -1.007971    0.406821
    141          0           0        1.973847   -1.050654    0.693602
    142          0           0        2.076563   -0.993744    0.311227
    143          0           0        1.948168   -1.064882    0.789196
    144          0           0        2.102242   -0.979516    0.215633
    145          0           0        1.922490   -1.079110    0.884790
    146          0           0        2.127920   -0.965288    0.120040
    147          0           0        1.896811   -1.093337    0.980384
    148          0           0        2.153599   -0.951061    0.024446
    149          0           0        2.025205   -1.022199    0.502415
    150          0           0        1.995835   -0.937444    0.611749
    151          0           0        2.047193   -0.908989    0.420561
    152          0           0        1.970156   -0.951672    0.707343
    153          0           0        2.072872   -0.894761    0.324968
    154          0           0        1.944477   -0.965899    0.802937
    155          0           0        2.098551   -0.880533    0.229374
    156          0           0        1.918799   -0.980127    0.898530
    157          0           0        2.124229   -0.866306    0.133780
    158          0           0        1.893120   -0.994355    0.994124
    159          0           0        2.149908   -0.852078    0.038186
    160          0           0        2.021514   -0.923216    0.516155
    161          0           0        1.992144   -0.838461    0.625490
    162          0           0        2.043502   -0.810006    0.434302
    163          0           0        1.966465   -0.852689    0.721083
    164          0           0        2.069181   -0.795778    0.338708
    165          0           0        1.940786   -0.866917    0.816677
    166          0           0        2.094860   -0.781551    0.243114
    167          0           0        1.915107   -0.881144    0.912271
    168          0           0        2.120538   -0.767323    0.147521
    169          0           0        1.889429   -0.895372    1.007865
    170          0           0        2.146217   -0.753095    0.051927
    171          0           0        2.017823   -0.824234    0.529896
    172          0           0        1.988453   -0.739479    0.639230
    173          0           0        2.039811   -0.711023    0.448043
    174          0           0        1.962774   -0.753706    0.734824
    175          0           0        2.065490   -0.696796    0.352449
    176          0           0        1.937095   -0.767934    0.830418
    177          0           0        2.091168   -0.682568    0.256855
    178          0           0        1.911416   -0.782162    0.926011
    179          0           0        2.116847   -0.668340    0.161261
    180          0           0        1.885738   -0.796389    1.021605
    181          0           0        2.142526   -0.654113    0.065667
    182          0           0        2.014132   -0.725251    0.543636
    183          0           0        1.984762   -0.640496    0.652971
    184          0           0        2.036120   -0.612041    0.461783
    185          0           0        1.959083   -0.654723    0.748564
    186          0           0        2.061799   -0.597813    0.366189
    187          0           0        1.933404   -0.668951    0.844158
    188          0           0        2.087477   -0.583585    0.270596
    189          0           0        1.907725   -0.683179    0.939752
    190          0           0        2.113156   -0.569358    0.175002
    191          0           0        1.882046   -0.697406    1.035346
    192          0           0        2.138835   -0.555130    0.079408
    193          0           0        2.010441   -0.626268    0.557377
    194          0           0        1.981071   -0.541513    0.666711
    195          0           0        2.032429   -0.513058    0.475524
    196          0           0        1.955392   -0.555741    0.762305
    197          0           0        2.058107   -0.498830    0.379930
    198          0           0        1.929713   -0.569968    0.857899
    199          0           0        2.083786   -0.484603    0.284336
    200          0           0        1.904034   -0.584196    0.953493
    201          0           0        2.109465   -0.470375    0.188742
    202          0           0        1.878355   -0.598424    1.049086
    203          0           0        2.135144   -0.456147    0.093149
    204          0           0        2.006750   -0.527285    0.571117
    205          0           0        1.977380   -0.442530    0.680452
    206          0           0        2.028738   -0.414075    0.489264
    207          0           0        1.951701   -0.456758    0.776046
    208          0           0        2.054416   -0.399847    0.393670
    209          0           0        1.926022   -0.470986    0.871639
    210          0           0        2.080095   -0.385620    0.298077
    211          0           0        1.900343   -0.485213    0.967233
    212          0           0        2.105774   -0.371392    0.202483
    213          0           0        1.874664   -0.499441    1.062827
    214          0           0        2.131453   -0.357164    0.106889
    215          0           0        2.003059   -0.428303    0.584858
    216          0           0        1.973689   -0.343548    0.694192
    217          0           0        2.025047   -0.315092    0.503005
    218          0           0        1.948010   -0.357775    0.789786
    219          0           0        2.050725   -0.300865    0.407411
    220          0           0        1.922331   -0.372003    0.885380
    221          0           0        2.076404   -0.286637    0.311817
    222          0           0        1.896652   -0.386231    0.980974
    223          0           0        2.102083   -0.272409    0.216223
    224          0           0        1.870973   -0.400458    1.076567
    225          0           0        2.127762   -0.258182    0.120630
    226          0           0        1.999368   -0.329320    0.598599
    227          0           0        1.969998   -0.244565    0.707933
    228          0           0        2.021355   -0.216110    0.516745
    229          0           0        1.944319   -0.258793    0.803527
    230          0           0        2.047034   -0.201882    0.421151
    231          0           0        1.918640   -0.273020    0.899120
    232          0           0        2.072713   -0.187654    0.325558
    233          0           0        1.892961   -0.287248    0.994714
    234          0           0        2.098392   -0.173427    0.229964
    235          0           0        1.867282   -0.301476    1.090308
    236          0           0        2.124071   -0.159199    0.134370
 ---------------------------------------------------------------------
 Rotational constants (GHZ):      0.4529074      0.2836956      0.1879557
 Standard basis: 6-311+G(d,p) (5D, 7F)
 Warning:  center  37 has no basis functions!
 Warning:  center  38 has no basis functions!
 Warning:  center  39 has no basis functions!
 Warning:  center  40 has no basis functions!
 Warning:  center  41 has no basis functions!
 Warning:  center  42 has no basis functions!
 Warning:  center  43 has no basis functions!
 Warning:  center  44 has no basis functions!
 Warning:  center  45 has no basis functions!
 Warning:  center  46 has no basis functions!
 Warning:  center  47 has no basis functions!
 Warning:  center  48 has no basis functions!
 Warning:  center  49 has no basis functions!
 Warning:  center  50 has no basis functions!
 Warning:  center  51 has no basis functions!
 Warning:  center  52 has no basis functions!
 Warning:  center  53 has no basis functions!
 Warning:  center  54 has no basis functions!
 Warning:  center  55 has no basis functions!
 Warning:  center  56 has no basis functions!
 Warning:  center  57 has no basis functions!
 Warning:  center  58 has no basis functions!
 Warning:  center  59 has no basis functions!
 Warning:  center  60 has no basis functions!
 Warning:  center  61 has no basis functions!
 Warning:  center  62 has no basis functions!
 Warning:  center  63 has no basis functions!
 Warning:  center  64 has no basis functions!
 Warning:  center  65 has no basis functions!
 Warning:  center  66 has no basis functions!
 Warning:  center  67 has no basis functions!
 Warning:  center  68 has no basis functions!
 Warning:  center  69 has no basis functions!
 Warning:  center  70 has no basis functions!
 Warning:  center  71 has no basis functions!
 Warning:  center  72 has no basis functions!
 Warning:  center  73 has no basis functions!
 Warning:  center  74 has no basis functions!
 Warning:  center  75 has no basis functions!
 Warning:  center  76 has no basis functions!
 Warning:  center  77 has no basis functions!
 Warning:  center  78 has no basis functions!
 Warning:  center  79 has no basis functions!
 Warning:  center  80 has no basis functions!
 Warning:  center  81 has no basis functions!
 Warning:  center  82 has no basis functions!
 Warning:  center  83 has no basis functions!
 Warning:  center  84 has no basis functions!
 Warning:  center  85 has no basis functions!
 Warning:  center  86 has no basis functions!
 Warning:  center  87 has no basis functions!
 Warning:  center  88 has no basis functions!
 Warning:  center  89 has no basis functions!
 Warning:  center  90 has no basis functions!
 Warning:  center  91 has no basis functions!
 Warning:  center  92 has no basis functions!
 Warning:  center  93 has no basis functions!
 Warning:  center  94 has no basis functions!
 Warning:  center  95 has no basis functions!
 Warning:  center  96 has no basis functions!
 Warning:  center  97 has no basis functions!
 Warning:  center  98 has no basis functions!
 Warning:  center  99 has no basis functions!
 Warning:  center 100 has no basis functions!
 Warning:  center 101 has no basis functions!
 Warning:  center 102 has no basis functions!
 Warning:  center 103 has no basis functions!
 Warning:  center 104 has no basis functions!
 Warning:  center 105 has no basis functions!
 Warning:  center 106 has no basis functions!
 Warning:  center 107 has no basis functions!
 Warning:  center 108 has no basis functions!
 Warning:  center 109 has no basis functions!
 Warning:  center 110 has no basis functions!
 Warning:  center 111 has no basis functions!
 Warning:  center 112 has no basis functions!
 Warning:  center 113 has no basis functions!
 Warning:  center 114 has no basis functions!
 Warning:  center 115 has no basis functions!
 Warning:  center 116 has no basis functions!
 Warning:  center 117 has no basis functions!
 Warning:  center 118 has no basis functions!
 Warning:  center 119 has no basis functions!
 Warning:  center 120 has no basis functions!
 Warning:  center 121 has no basis functions!
 Warning:  center 122 has no basis functions!
 Warning:  center 123 has no basis functions!
 Warning:  center 124 has no basis functions!
 Warning:  center 125 has no basis functions!
 Warning:  center 126 has no basis functions!
 Warning:  center 127 has no basis functions!
 Warning:  center 128 has no basis functions!
 Warning:  center 129 has no basis functions!
 Warning:  center 130 has no basis functions!
 Warning:  center 131 has no basis functions!
 Warning:  center 132 has no basis functions!
 Warning:  center 133 has no basis functions!
 Warning:  center 134 has no basis functions!
 Warning:  center 135 has no basis functions!
 Warning:  center 136 has no basis functions!
 Warning:  center 137 has no basis functions!
 Warning:  center 138 has no basis functions!
 Warning:  center 139 has no basis functions!
 Warning:  center 140 has no basis functions!
 Warning:  center 141 has no basis functions!
 Warning:  center 142 has no basis functions!
 Warning:  center 143 has no basis functions!
 Warning:  center 144 has no basis functions!
 Warning:  center 145 has no basis functions!
 Warning:  center 146 has no basis functions!
 Warning:  center 147 has no basis functions!
 Warning:  center 148 has no basis functions!
 Warning:  center 149 has no basis functions!
 Warning:  center 150 has no basis functions!
 Warning:  center 151 has no basis functions!
 Warning:  center 152 has no basis functions!
 Warning:  center 153 has no basis functions!
 Warning:  center 154 has no basis functions!
 Warning:  center 155 has no basis functions!
 Warning:  center 156 has no basis functions!
 Warning:  center 157 has no basis functions!
 Warning:  center 158 has no basis functions!
 Warning:  center 159 has no basis functions!
 Warning:  center 160 has no basis functions!
 Warning:  center 161 has no basis functions!
 Warning:  center 162 has no basis functions!
 Warning:  center 163 has no basis functions!
 Warning:  center 164 has no basis functions!
 Warning:  center 165 has no basis functions!
 Warning:  center 166 has no basis functions!
 Warning:  center 167 has no basis functions!
 Warning:  center 168 has no basis functions!
 Warning:  center 169 has no basis functions!
 Warning:  center 170 has no basis functions!
 Warning:  center 171 has no basis functions!
 Warning:  center 172 has no basis functions!
 Warning:  center 173 has no basis functions!
 Warning:  center 174 has no basis functions!
 Warning:  center 175 has no basis functions!
 Warning:  center 176 has no basis functions!
 Warning:  center 177 has no basis functions!
 Warning:  center 178 has no basis functions!
 Warning:  center 179 has no basis functions!
 Warning:  center 180 has no basis functions!
 Warning:  center 181 has no basis functions!
 Warning:  center 182 has no basis functions!
 Warning:  center 183 has no basis functions!
 Warning:  center 184 has no basis functions!
 Warning:  center 185 has no basis functions!
 Warning:  center 186 has no basis functions!
 Warning:  center 187 has no basis functions!
 Warning:  center 188 has no basis functions!
 Warning:  center 189 has no basis functions!
 Warning:  center 190 has no basis functions!
 Warning:  center 191 has no basis functions!
 Warning:  center 192 has no basis functions!
 Warning:  center 193 has no basis functions!
 Warning:  center 194 has no basis functions!
 Warning:  center 195 has no basis functions!
 Warning:  center 196 has no basis functions!
 Warning:  center 197 has no basis functions!
 Warning:  center 198 has no basis functions!
 Warning:  center 199 has no basis functions!
 Warning:  center 200 has no basis functions!
 Warning:  center 201 has no basis functions!
 Warning:  center 202 has no basis functions!
 Warning:  center 203 has no basis functions!
 Warning:  center 204 has no basis functions!
 Warning:  center 205 has no basis functions!
 Warning:  center 206 has no basis functions!
 Warning:  center 207 has no basis functions!
 Warning:  center 208 has no basis functions!
 Warning:  center 209 has no basis functions!
 Warning:  center 210 has no basis functions!
 Warning:  center 211 has no basis functions!
 Warning:  center 212 has no basis functions!
 Warning:  center 213 has no basis functions!
 Warning:  center 214 has no basis functions!
 Warning:  center 215 has no basis functions!
 Warning:  center 216 has no basis functions!
 Warning:  center 217 has no basis functions!
 Warning:  center 218 has no basis functions!
 Warning:  center 219 has no basis functions!
 Warning:  center 220 has no basis functions!
 Warning:  center 221 has no basis functions!
 Warning:  center 222 has no basis functions!
 Warning:  center 223 has no basis functions!
 Warning:  center 224 has no basis functions!
 Warning:  center 225 has no basis functions!
 Warning:  center 226 has no basis functions!
 Warning:  center 227 has no basis functions!
 Warning:  center 228 has no basis functions!
 Warning:  center 229 has no basis functions!
 Warning:  center 230 has no basis functions!
 Warning:  center 231 has no basis functions!
 Warning:  center 232 has no basis functions!
 Warning:  center 233 has no basis functions!
 Warning:  center 234 has no basis functions!
 Warning:  center 235 has no basis functions!
 Warning:  center 236 has no basis functions!
   568 basis functions,   904 primitive gaussians,   590 cartesian basis functions
    73 alpha electrons       73 beta electrons
       nuclear repulsion energy      1610.9176155625 Hartrees.
 NAtoms=  236 NActive=  236 NUniq=  236 SFac= 1.00D+00 NAtFMM=   60 NAOKFM=T Big=T
 Integral buffers will be    131072 words long.
 Raffenetti 2 integral format.
 Two-electron integral symmetry is turned off.
 One-electron integrals computed using PRISM.
 NBasis=   568 RedAO= T EigKep=  1.78D-06  NBF=   568
 NBsUse=   556 1.00D-06 EigRej=  9.09D-07 NBFU=   556
 ExpMin= 4.38D-02 ExpMax= 4.56D+03 ExpMxC= 6.82D+02 IAcc=2 IRadAn=         4 AccDes= 0.00D+00
 Harris functional with IExCor=  402 and IRadAn=       4 diagonalized for initial guess.
 HarFok:  IExCor=  402 AccDes= 0.00D+00 IRadAn=         4 IDoV= 1 UseB2=F ITyADJ=14
 ICtDFT=  3500011 ScaDFX=  1.000000  1.000000  1.000000  1.000000
 FoFCou: FMM=F IPFlag=           0 FMFlag=      100000 FMFlg1=        2001
         NFxFlg=           0 DoJE=T BraDBF=F KetDBF=T FulRan=T
         wScrn=  0.000000 ICntrl=     500 IOpCl=  0 I1Cent=   200000004 NGrid=           0
         NMat0=    1 NMatS0=      1 NMatT0=    0 NMatD0=    1 NMtDS0=    0 NMtDT0=    0
 Symmetry not used in FoFCou.
 Requested convergence on RMS density matrix=1.00D-08 within 128 cycles.
 Requested convergence on MAX density matrix=1.00D-06.
 Requested convergence on             energy=1.00D-06.
 No special actions if energy rises.
 SCF Done:  E(RB3LYP) =  -847.003289848     A.U. after   15 cycles
            NFock= 15  Conv=0.75D-08     -V/T= 2.0040
 DoSCS=F DFT=T ScalE2(SS,OS)=  1.000000  1.000000
 Range of M.O.s used for correlation:     1   556
 NBasis=   568 NAE=    73 NBE=    73 NFC=     0 NFV=     0
 NROrb=    556 NOA=    73 NOB=    73 NVA=   483 NVB=   483

 **** Warning!!: The largest alpha MO coefficient is  0.10971036D+03

          Differentiating once with respect to magnetic field using GIAOs.
          Electric field/nuclear overlap derivatives assumed to be zero.
 FoFCou: FMM=F IPFlag=           0 FMFlag=      100000 FMFlg1=        2001
         NFxFlg=           0 DoJE=F BraDBF=F KetDBF=T FulRan=T
         wScrn=  0.000000 ICntrl=    6100 IOpCl=  0 I1Cent=           7 NGrid=         236
         NMat0=    1 NMatS0=      1 NMatT0=    0 NMatD0=    1 NMtDS0=    0 NMtDT0=    0
 Symmetry not used in FoFCou.
 FoFJK:  IHMeth= 1 ICntrl=    6127 DoSepK=F KAlg= 0 I1Cent=   0 FoldK=F
 IRaf=         1 NMat=   1 IRICut=       1 DoRegI=T DoRafI=F ISym2E= 0.
          There are     3 degrees of freedom in the 1st order CPHF.  IDoFFX=0 NUNeed=     3.
      3 vectors produced by pass  0 Test12= 1.18D-12 3.33D-08 XBig12= 2.07D+03 9.18D+00.
 AX will form     3 AO Fock derivatives at one time.
      3 vectors produced by pass  1 Test12= 1.18D-12 3.33D-08 XBig12= 3.56D+00 8.03D-01.
      3 vectors produced by pass  2 Test12= 1.18D-12 3.33D-08 XBig12= 2.10D-02 6.92D-02.
      3 vectors produced by pass  3 Test12= 1.18D-12 3.33D-08 XBig12= 5.45D-05 1.89D-03.
      3 vectors produced by pass  4 Test12= 1.18D-12 3.33D-08 XBig12= 1.20D-07 7.79D-05.
      3 vectors produced by pass  5 Test12= 1.18D-12 3.33D-08 XBig12= 4.02D-10 4.73D-06.
      3 vectors produced by pass  6 Test12= 1.18D-12 3.33D-08 XBig12= 1.32D-12 2.61D-07.
 InvSVY:  IOpt=1 It=  1 EMax= 7.11D-15
 Solved reduced A of dimension    21 with     3 vectors.
 Calculating GIAO nuclear magnetic shielding tensors.
 SCF GIAO Magnetic shielding tensor (ppm):
      1  C    Isotropic =    53.8139   Anisotropy =   178.0260
   XX=   -41.4327   YX=   -32.3458   ZX=    10.0287
   XY=   -28.3572   YY=    59.0527   ZY=    55.1899
   XZ=    13.1759   YZ=    58.7550   ZZ=   143.8218
   Eigenvalues:   -53.8775    42.8214   172.4979
      2  H    Isotropic =    24.3095   Anisotropy =     4.8536
   XX=    25.5771   YX=    -1.0289   ZX=     0.5661
   XY=    -0.7431   YY=    26.1829   ZY=    -2.3306
   XZ=    -0.1707   YZ=    -2.4411   ZZ=    21.1687
   Eigenvalues:    20.2108    25.1725    27.5453
      3  C    Isotropic =    51.4055   Anisotropy =   157.8639
   XX=   -31.5399   YX=    38.5015   ZX=   -17.9316
   XY=    34.3519   YY=    49.9437   ZY=    49.6392
   XZ=    -9.8383   YZ=    44.6006   ZZ=   135.8127
   Eigenvalues:   -50.5747    48.1432   156.6481
      4  H    Isotropic =    23.8290   Anisotropy =     7.1838
   XX=    25.3635   YX=     1.8486   ZX=    -0.3559
   XY=     1.9656   YY=    26.4581   ZY=    -2.4103
   XZ=    -1.2941   YZ=    -2.6614   ZZ=    19.6654
   Eigenvalues:    18.8176    24.0511    28.6182
      5  C    Isotropic =    46.0697   Anisotropy =   207.6751
   XX=   -19.2123   YX=    -4.8852   ZX=    -1.6475
   XY=     2.8938   YY=    -2.9860   ZY=    66.5656
   XZ=     2.5356   YZ=    67.9144   ZZ=   160.4073
   Eigenvalues:   -27.2455   -19.0652   184.5197
      6  C    Isotropic =    47.5218   Anisotropy =   196.9389
   XX=   -28.1552   YX=    -2.7889   ZX=    12.0660
   XY=   -14.3886   YY=    21.2063   ZY=    74.2521
   XZ=   -18.6356   YZ=    61.1113   ZZ=   149.5144
   Eigenvalues:   -30.2925    -5.9564   178.8144
      7  C    Isotropic =    49.3915   Anisotropy =   179.8333
   XX=   -12.5211   YX=    28.7048   ZX=   -24.6745
   XY=    31.5123   YY=    29.7000   ZY=    77.7459
   XZ=   -40.0095   YZ=    65.3072   ZZ=   130.9956
   Eigenvalues:   -52.1299    31.0240   169.2804
      8  H    Isotropic =    23.1586   Anisotropy =    13.5525
   XX=    28.5711   YX=     1.5482   ZX=    -3.6986
   XY=     3.2466   YY=    22.7592   ZY=    -2.1157
   XZ=    -8.3753   YZ=    -1.0821   ZZ=    18.1456
   Eigenvalues:    15.3521    21.9301    32.1936
      9  C    Isotropic =    55.1460   Anisotropy =   174.7426
   XX=    46.7071   YX=    -2.6162   ZX=    -2.8420
   XY=     0.6223   YY=    -1.6258   ZY=    92.8272
   XZ=     0.5159   YZ=    95.6598   ZZ=   120.3568
   Eigenvalues:   -52.8932    46.6901   171.6411
     10  H    Isotropic =    24.6278   Anisotropy =     7.1815
   XX=    29.1040   YX=     0.1399   ZX=    -0.3694
   XY=     0.3642   YY=    23.4778   ZY=    -1.0805
   XZ=    -2.4493   YZ=    -2.9465   ZZ=    21.3016
   Eigenvalues:    19.9703    24.4977    29.4155
     11  C    Isotropic =    51.5607   Anisotropy =   151.2142
   XX=     2.1639   YX=    40.9287   ZX=   -26.0048
   XY=    49.9131   YY=    12.2331   ZY=    42.1342
   XZ=   -15.6145   YZ=    38.6614   ZZ=   140.2851
   Eigenvalues:   -48.1951    50.5071   152.3701
     12  H    Isotropic =    23.8537   Anisotropy =     7.3815
   XX=    25.9672   YX=     2.3738   ZX=    -0.2390
   XY=     2.4320   YY=    26.3975   ZY=    -1.8291
   XZ=     0.3529   YZ=    -1.7731   ZZ=    19.1964
   Eigenvalues:    18.7149    24.0714    28.7747
     13  C    Isotropic =    52.8653   Anisotropy =   147.4265
   XX=    51.2944   YX=    19.9221   ZX=   -13.4678
   XY=    11.5478   YY=   -34.0176   ZY=    42.5079
   XZ=    -9.2241   YZ=    40.0716   ZZ=   141.3192
   Eigenvalues:   -46.5152    53.9616   151.1497
     14  H    Isotropic =    24.0156   Anisotropy =     7.3485
   XX=    28.6644   YX=     0.6281   ZX=     1.0808
   XY=     0.5926   YY=    24.4325   ZY=    -1.0823
   XZ=     1.6846   YZ=    -0.3842   ZZ=    18.9500
   Eigenvalues:    18.6430    24.4892    28.9146
     15  C    Isotropic =    46.2221   Anisotropy =   203.9048
   XX=   -27.2215   YX=    -0.0442   ZX=   -28.9124
   XY=     4.6427   YY=   -10.5571   ZY=    28.3830
   XZ=   -10.2704   YZ=    26.7376   ZZ=   176.4448
   Eigenvalues:   -30.5512   -12.9411   182.1586
     16  C    Isotropic =    51.9375   Anisotropy =   188.2004
   XX=   -19.4441   YX=     5.5046   ZX=    15.7858
   XY=    -8.3874   YY=     2.4863   ZY=    22.9264
   XZ=   -50.6243   YZ=    23.3340   ZZ=   172.7704
   Eigenvalues:   -21.0294    -0.5625   177.4045
     17  C    Isotropic =    51.9482   Anisotropy =   149.1264
   XX=    50.7296   YX=   -23.9353   ZX=   -18.4207
   XY=   -16.7271   YY=   -41.8764   ZY=    17.8662
   XZ=   -14.3278   YZ=    11.4871   ZZ=   146.9915
   Eigenvalues:   -46.7796    51.2584   151.3658
     18  H    Isotropic =    24.0122   Anisotropy =     7.5163
   XX=    28.5811   YX=    -0.0866   ZX=     1.5071
   XY=    -0.2466   YY=    24.3342   ZY=    -0.7657
   XZ=     2.5088   YZ=    -1.5208   ZZ=    19.1214
   Eigenvalues:    18.5094    24.5041    29.0231
     19  C    Isotropic =    51.7356   Anisotropy =   148.5924
   XX=     2.4559   YX=   -45.6913   ZX=   -31.2531
   XY=   -53.4448   YY=     7.4698   ZY=    -1.8888
   XZ=   -23.5601   YZ=    -1.2765   ZZ=   145.2810
   Eigenvalues:   -46.9894    51.3989   150.7972
     20  H    Isotropic =    23.9071   Anisotropy =     7.6651
   XX=    25.5796   YX=    -2.0226   ZX=     1.4905
   XY=    -1.9998   YY=    27.3706   ZY=    -0.5164
   XZ=     2.7276   YZ=    -1.1179   ZZ=    18.7711
   Eigenvalues:    18.1643    24.5398    29.0172
     21  C    Isotropic =    45.9767   Anisotropy =   203.9316
   XX=   -16.2108   YX=    13.1802   ZX=   -44.5913
   XY=     6.5714   YY=   -20.6329   ZY=     0.0949
   XZ=   -28.8984   YZ=   -13.0883   ZZ=   174.7736
   Eigenvalues:   -30.5796   -13.4215   181.9311
     22  C    Isotropic =    52.0450   Anisotropy =   188.1157
   XX=    -0.0787   YX=     2.5023   ZX=   -16.3451
   XY=    18.9327   YY=   -14.4798   ZY=   -34.4335
   XZ=   -50.6032   YZ=    19.9104   ZZ=   170.6934
   Eigenvalues:   -20.7705    -0.5500   177.4554
     23  C    Isotropic =    53.2392   Anisotropy =   146.7412
   XX=   -22.0674   YX=   -32.0012   ZX=   -49.4857
   XY=   -23.2043   YY=    44.3661   ZY=   -15.6400
   XZ=   -43.8090   YZ=   -20.2525   ZZ=   137.4189
   Eigenvalues:   -45.6776    54.3286   151.0667
     24  H    Isotropic =    23.8249   Anisotropy =     7.5289
   XX=    25.1073   YX=    -1.7330   ZX=     1.5380
   XY=    -1.5944   YY=    28.0047   ZY=     0.0879
   XZ=     1.2557   YZ=    -0.8283   ZZ=    18.3628
   Eigenvalues:    18.0848    24.5458    28.8442
     25  C    Isotropic =    51.4969   Anisotropy =   150.1066
   XX=   -28.4915   YX=    33.9684   ZX=   -52.3137
   XY=    22.0311   YY=    46.6072   ZY=    -3.8075
   XZ=   -44.5594   YZ=   -10.6355   ZZ=   136.3748
   Eigenvalues:   -48.3857    51.3083   151.5679
     26  H    Isotropic =    23.7431   Anisotropy =     7.4052
   XX=    24.0663   YX=     1.1141   ZX=     1.9989
   XY=     0.9693   YY=    28.1000   ZY=     1.6568
   XZ=     2.0795   YZ=     0.8886   ZZ=    19.0630
   Eigenvalues:    18.2615    24.2880    28.6799
     27  C    Isotropic =    45.8108   Anisotropy =   207.2710
   XX=    -2.7702   YX=    13.7697   ZX=   -61.4651
   XY=     6.5593   YY=   -12.0335   ZY=   -41.6456
   XZ=   -62.6381   YZ=   -44.9232   ZZ=   152.2361
   Eigenvalues:   -28.0803   -18.4787   183.9915
     28  C    Isotropic =    47.8398   Anisotropy =   197.2870
   XX=    19.6900   YX=    14.4398   ZX=   -60.5682
   XY=    28.5650   YY=   -19.3566   ZY=   -56.7015
   XZ=   -63.1331   YZ=   -24.4782   ZZ=   143.1859
   Eigenvalues:   -30.5979    -5.2472   179.3644
     29  C    Isotropic =    49.3441   Anisotropy =   179.7793
   XX=    -3.4110   YX=    38.3775   ZX=   -80.8875
   XY=    36.1252   YY=    25.9805   ZY=   -23.7573
   XZ=   -78.1065   YZ=    -3.9802   ZZ=   125.4627
   Eigenvalues:   -51.6645    30.4997   169.1970
     30  H    Isotropic =    23.1387   Anisotropy =    13.3222
   XX=    22.4354   YX=    -0.7013   ZX=    -0.2375
   XY=    -2.1539   YY=    28.3546   ZY=     4.5555
   XZ=    -3.4181   YZ=     8.3231   ZZ=    18.6259
   Eigenvalues:    15.2751    22.1208    32.0201
     31  C    Isotropic =    55.4410   Anisotropy =   174.9390
   XX=    17.1871   YX=   -14.0890   ZX=   -84.0024
   XY=   -17.9030   YY=    37.4745   ZY=   -50.3662
   XZ=   -84.6557   YZ=   -54.8325   ZZ=   111.6615
   Eigenvalues:   -51.9248    46.1808   172.0670
     32  H    Isotropic =    24.5337   Anisotropy =     7.2554
   XX=    24.6185   YX=    -2.5264   ZX=     0.7632
   XY=    -2.7385   YY=    27.4630   ZY=     1.0335
   XZ=     1.1913   YZ=     3.7573   ZZ=    21.5194
   Eigenvalues:    19.8987    24.3316    29.3706
     33  C    Isotropic =    53.1814   Anisotropy =   179.0596
   XX=    60.9231   YX=    35.2256   ZX=   -42.9515
   XY=    32.0226   YY=   -38.1801   ZY=   -45.5652
   XZ=   -44.2248   YZ=   -50.7831   ZZ=   136.8014
   Eigenvalues:   -55.1197    42.1095   172.5545
     34  H    Isotropic =    24.2825   Anisotropy =     5.1861
   XX=    26.7643   YX=    -0.0934   ZX=     2.5955
   XY=    -0.2993   YY=    24.8157   ZY=     0.8589
   XZ=     2.3715   YZ=     1.4580   ZZ=    21.2676
   Eigenvalues:    20.0339    25.0737    27.7399
     35  C    Isotropic =    51.5295   Anisotropy =   155.1748
   XX=    -0.5131   YX=    52.5760   ZX=   -52.1551
   XY=    55.6135   YY=    25.1843   ZY=   -14.2643
   XZ=   -45.7255   YZ=   -17.1625   ZZ=   129.9171
   Eigenvalues:   -48.3147    47.9237   154.9793
     36  H    Isotropic =    23.8384   Anisotropy =     7.3073
   XX=    24.2302   YX=     1.4459   ZX=     2.1759
   XY=     1.2147   YY=    27.1572   ZY=     2.0665
   XZ=     1.6853   YZ=     2.7775   ZZ=    20.1277
   Eigenvalues:    18.9464    23.8588    28.7099
     37  Bq   Isotropic =    12.9777   Anisotropy =    26.3397
   XX=     5.3542   YX=     1.3121   ZX=    -8.7226
   XY=    -0.9988   YY=     7.6275   ZY=    -5.7594
   XZ=    -2.7342   YZ=   -11.5143   ZZ=    25.9513
   Eigenvalues:     2.2732     6.1224    30.5375
     38  Bq   Isotropic =     3.5499   Anisotropy =    64.3899
   XX=    -9.2199   YX=   -19.1736   ZX=   -19.7545
   XY=   -21.6896   YY=   -13.5440   ZY=   -16.6630
   XZ=   -30.6429   YZ=   -20.5128   ZZ=    33.4137
   Eigenvalues:   -44.1711     8.3443    46.4765
     39  Bq   Isotropic =    25.1345   Anisotropy =    28.1870
   XX=    17.5407   YX=    -4.0152   ZX=    -3.4658
   XY=    -6.2100   YY=    17.3144   ZY=     0.6856
   XZ=   -13.8718   YZ=   -11.4101   ZZ=    40.5484
   Eigenvalues:     9.1503    22.3274    43.9258
     40  Bq   Isotropic =    24.6485   Anisotropy =    27.7153
   XX=    15.1226   YX=    -1.5811   ZX=    -4.0714
   XY=    -3.4107   YY=    18.8853   ZY=    -2.1888
   XZ=    -9.1524   YZ=   -11.4908   ZZ=    39.9375
   Eigenvalues:    10.9898    19.8303    43.1254
     41  Bq   Isotropic =    24.2065   Anisotropy =    35.5463
   XX=    10.7655   YX=    -6.3997   ZX=    -0.5020
   XY=    -8.5586   YY=    16.8587   ZY=     0.5944
   XZ=   -18.3154   YZ=   -12.2609   ZZ=    44.9953
   Eigenvalues:     2.8330    21.8825    47.9040
     42  Bq   Isotropic =    22.1179   Anisotropy =    27.2482
   XX=    13.3357   YX=    -0.2989   ZX=    -5.9215
   XY=    -2.1687   YY=    16.4516   ZY=    -3.6693
   XZ=    -6.5246   YZ=   -11.6256   ZZ=    36.5663
   Eigenvalues:     9.8354    16.2349    40.2833
     43  Bq   Isotropic =    18.6212   Anisotropy =    45.6504
   XX=     1.4344   YX=    -9.8983   ZX=    -1.0247
   XY=   -12.6904   YY=     9.3955   ZY=     0.1871
   XZ=   -25.1924   YZ=   -14.2181   ZZ=    45.0338
   Eigenvalues:   -10.4888    17.2976    49.0548
     44  Bq   Isotropic =    19.1181   Anisotropy =    27.3287
   XX=    10.7448   YX=     0.4643   ZX=    -7.2597
   XY=    -1.4611   YY=    13.3988   ZY=    -4.7844
   XZ=    -4.7640   YZ=   -11.7163   ZZ=    33.2107
   Eigenvalues:     7.5148    12.5022    37.3372
     45  Bq   Isotropic =     8.7966   Anisotropy =    59.4665
   XX=   -12.7747   YX=   -13.3507   ZX=    -5.4012
   XY=   -17.1547   YY=    -2.6775   ZY=    -3.2066
   XZ=   -32.6609   YZ=   -17.6423   ZZ=    41.8420
   Eigenvalues:   -30.2409     8.1897    48.4409
     46  Bq   Isotropic =    16.1781   Anisotropy =    27.3451
   XX=     8.0910   YX=     0.8832   ZX=    -8.0673
   XY=    -1.0752   YY=    10.3881   ZY=    -5.5136
   XZ=    -3.5983   YZ=   -11.6761   ZZ=    30.0552
   Eigenvalues:     4.9655     9.1606    34.4081
     47  Bq   Isotropic =    -2.5953   Anisotropy =    73.0294
   XX=   -27.5312   YX=   -15.6052   ZX=   -14.3632
   XY=   -20.4835   YY=   -15.5716   ZY=   -10.1589
   XZ=   -37.8181   YZ=   -21.3346   ZZ=    35.3168
   Eigenvalues:   -51.2339    -2.6430    46.0910
     48  Bq   Isotropic =    13.5432   Anisotropy =    27.0777
   XX=     5.7289   YX=     1.0875   ZX=    -8.4342
   XY=    -0.8675   YY=     7.7254   ZY=    -5.9181
   XZ=    -2.8309   YZ=   -11.4945   ZZ=    27.1753
   Eigenvalues:     2.6439     6.3907    31.5950
     49  Bq   Isotropic =    -9.6327   Anisotropy =    80.5069
   XX=   -35.2057   YX=   -16.0545   ZX=   -25.7852
   XY=   -21.3880   YY=   -22.2888   ZY=   -18.9563
   XZ=   -37.2298   YZ=   -22.7959   ZZ=    28.5965
   Eigenvalues:   -63.9707    -8.9659    44.0386
     50  Bq   Isotropic =    25.7804   Anisotropy =    29.9398
   XX=    14.8356   YX=    -3.5746   ZX=    -2.0020
   XY=    -5.4586   YY=    19.5464   ZY=    -0.5678
   XZ=   -12.9799   YZ=   -11.5505   ZZ=    42.9594
   Eigenvalues:     9.3728    22.2282    45.7403
     51  Bq   Isotropic =    25.6563   Anisotropy =    29.6334
   XX=    14.4582   YX=    -0.7412   ZX=    -3.0732
   XY=    -1.7449   YY=    20.3380   ZY=    -4.1564
   XZ=    -8.1646   YZ=   -11.1989   ZZ=    42.1728
   Eigenvalues:    12.2304    19.3266    45.4119
     52  Bq   Isotropic =    24.3895   Anisotropy =    39.2073
   XX=     6.5378   YX=    -3.5600   ZX=     1.1532
   XY=    -4.8284   YY=    19.0281   ZY=    -3.0952
   XZ=   -16.8165   YZ=   -12.1981   ZZ=    47.6025
   Eigenvalues:     3.0663    19.5744    50.5277
     53  Bq   Isotropic =    23.0501   Anisotropy =    28.7105
   XX=    13.2863   YX=     0.0431   ZX=    -5.2015
   XY=    -1.1173   YY=    17.3403   ZY=    -4.9512
   XZ=    -5.9431   YZ=   -11.3054   ZZ=    38.5238
   Eigenvalues:    10.9645    15.9954    42.1905
     54  Bq   Isotropic =    17.1939   Anisotropy =    51.4415
   XX=    -6.6732   YX=    -5.3509   ZX=     0.5435
   XY=    -7.5405   YY=    10.7807   ZY=    -4.1481
   XZ=   -24.3639   YZ=   -14.3648   ZZ=    47.4743
   Eigenvalues:   -12.2351    12.3286    51.4882
     55  Bq   Isotropic =    19.8990   Anisotropy =    28.4709
   XX=    10.9748   YX=     0.5125   ZX=    -6.7370
   XY=    -0.8156   YY=    13.8274   ZY=    -5.5599
   XZ=    -4.5087   YZ=   -11.4056   ZZ=    34.8948
   Eigenvalues:     8.3863    12.4312    38.8796
     56  Bq   Isotropic =     4.4779   Anisotropy =    68.9105
   XX=   -26.2036   YX=    -6.5712   ZX=    -4.9710
   XY=   -10.5529   YY=    -3.7509   ZY=    -7.5513
   XZ=   -33.8078   YZ=   -18.0422   ZZ=    43.3881
   Eigenvalues:   -35.5705    -1.4141    50.4182
     57  Bq   Isotropic =    16.8041   Anisotropy =    28.2629
   XX=     8.4312   YX=     0.7689   ZX=    -7.6793
   XY=    -0.6881   YY=    10.4893   ZY=    -5.9378
   XZ=    -3.5713   YZ=   -11.3956   ZZ=    31.4918
   Eigenvalues:     5.5533     9.2129    35.6460
     58  Bq   Isotropic =   -10.4577   Anisotropy =    86.4293
   XX=   -45.9588   YX=    -6.4104   ZX=   -16.2794
   XY=   -12.8286   YY=   -20.3928   ZY=   -13.4163
   XZ=   -41.5124   YZ=   -21.8193   ZZ=    34.9784
   Eigenvalues:   -60.7062   -17.8288    47.1618
     59  Bq   Isotropic =    14.0361   Anisotropy =    27.8349
   XX=     6.0960   YX=     0.8917   ZX=    -8.1394
   XY=    -0.6404   YY=     7.6148   ZY=    -6.1099
   XZ=    -2.9473   YZ=   -11.2519   ZZ=    28.3976
   Eigenvalues:     2.9947     6.5210    32.5927
     60  Bq   Isotropic =   -19.5941   Anisotropy =    95.6712
   XX=   -55.9105   YX=    -5.4367   ZX=   -30.2011
   XY=   -13.7400   YY=   -29.6930   ZY=   -19.8857
   XZ=   -41.9246   YZ=   -22.7467   ZZ=    26.8213
   Eigenvalues:   -75.6399   -27.3290    44.1867
     61  Bq   Isotropic =    26.6323   Anisotropy =    32.5132
   XX=    12.9271   YX=    -1.9381   ZX=    -0.6558
   XY=    -2.9092   YY=    21.5337   ZY=    -3.3788
   XZ=   -11.6004   YZ=   -11.3416   ZZ=    45.4360
   Eigenvalues:    10.4155    21.1736    48.3078
     62  Bq   Isotropic =    26.4596   Anisotropy =    31.6512
   XX=    14.4728   YX=     0.4782   ZX=    -2.3991
   XY=     0.6510   YY=    20.8054   ZY=    -6.6614
   XZ=    -7.0917   YZ=   -10.4196   ZZ=    44.1007
   Eigenvalues:    13.6124    18.2061    47.5604
     63  Bq   Isotropic =    25.2779   Anisotropy =    42.8258
   XX=     5.4617   YX=     0.6023   ZX=     2.2371
   XY=     1.0856   YY=    20.2347   ZY=    -8.1692
   XZ=   -14.4697   YZ=   -11.4137   ZZ=    50.1372
   Eigenvalues:     4.6233    17.3820    53.8284
     64  Bq   Isotropic =    23.7204   Anisotropy =    30.1818
   XX=    13.4965   YX=     0.5653   ZX=    -4.6749
   XY=     0.3316   YY=    17.4574   ZY=    -6.4984
   XZ=    -5.3674   YZ=   -10.5517   ZZ=    40.2074
   Eigenvalues:    12.1667    15.1529    43.8416
     65  Bq   Isotropic =    17.8280   Anisotropy =    56.1848
   XX=    -8.8914   YX=     1.3361   ZX=     1.7150
   XY=     1.0379   YY=    11.9242   ZY=   -10.1465
   XZ=   -21.6551   YZ=   -13.3458   ZZ=    50.4513
   Eigenvalues:   -10.5476     8.7471    55.2845
     66  Bq   Isotropic =    20.4412   Anisotropy =    29.5636
   XX=    11.2747   YX=     0.6358   ZX=    -6.3165
   XY=     0.0374   YY=    13.6917   ZY=    -6.4325
   XZ=    -4.2854   YZ=   -10.7181   ZZ=    36.3572
   Eigenvalues:     9.2213    11.9520    40.1503
     67  Bq   Isotropic =     4.5104   Anisotropy =    75.1608
   XX=   -29.8292   YX=     3.0981   ZX=    -4.1560
   XY=     0.7175   YY=    -3.5375   ZY=   -13.1331
   XZ=   -31.5083   YZ=   -16.3782   ZZ=    46.8981
   Eigenvalues:   -33.8341    -7.2522    54.6176
     68  Bq   Isotropic =    17.2384   Anisotropy =    29.1022
   XX=     8.7639   YX=     0.6774   ZX=    -7.3360
   XY=    -0.1991   YY=    10.1940   ZY=    -6.3645
   XZ=    -3.5772   YZ=   -10.7959   ZZ=    32.7573
   Eigenvalues:     6.0287     9.0467    36.6399
     69  Bq   Isotropic =   -11.1483   Anisotropy =    94.1513
   XX=   -50.4513   YX=     5.8150   ZX=   -16.3387
   XY=    -0.0596   YY=   -21.9454   ZY=   -16.4712
   XZ=   -40.4185   YZ=   -19.4016   ZZ=    38.9518
   Eigenvalues:   -58.8471   -26.2170    51.6192
     70  Bq   Isotropic =    14.3853   Anisotropy =    28.5021
   XX=     6.4315   YX=     0.6948   ZX=    -7.8550
   XY=    -0.3680   YY=     7.2331   ZY=    -6.2560
   XZ=    -3.0898   YZ=   -10.7444   ZZ=    29.4913
   Eigenvalues:     3.2286     6.5406    33.3867
     71  Bq   Isotropic =   -20.5092   Anisotropy =   103.9804
   XX=   -60.3637   YX=     8.1234   ZX=   -31.0397
   XY=    -1.3034   YY=   -32.5379   ZY=   -18.8170
   XZ=   -41.8474   YZ=   -20.2974   ZZ=    31.3740
   Eigenvalues:   -73.3555   -36.9832    48.8111
     72  Bq   Isotropic =    27.5341   Anisotropy =    35.2523
   XX=    12.5555   YX=     0.4342   ZX=     0.2138
   XY=     0.9313   YY=    22.4092   ZY=    -7.1178
   XZ=    -9.9003   YZ=   -10.5753   ZZ=    47.6377
   Eigenvalues:    11.8679    19.6987    51.0357
     73  Bq   Isotropic =    26.8027   Anisotropy =    33.0527
   XX=    15.1070   YX=     1.6357   ZX=    -2.1696
   XY=     3.1121   YY=    19.9745   ZY=    -8.9441
   XZ=    -6.0801   YZ=    -9.0532   ZZ=    45.3266
   Eigenvalues:    14.1301    17.4402    48.8378
     74  Bq   Isotropic =    26.5207   Anisotropy =    44.7153
   XX=     7.8595   YX=     4.6190   ZX=     2.4243
   XY=     7.2433   YY=    19.7470   ZY=   -12.8550
   XZ=   -11.6297   YZ=    -9.7856   ZZ=    51.9556
   Eigenvalues:     5.4063    17.8250    56.3309
     75  Bq   Isotropic =    23.9411   Anisotropy =    31.2276
   XX=    13.8870   YX=     1.0333   ZX=    -4.4060
   XY=     1.7987   YY=    16.6273   ZY=    -7.8512
   XZ=    -4.8704   YZ=    -9.3062   ZZ=    41.3089
   Eigenvalues:    13.1237    13.9400    44.7594
     76  Bq   Isotropic =    20.2792   Anisotropy =    57.5276
   XX=    -4.3163   YX=     7.6766   ZX=     2.1349
   XY=     9.9739   YY=    12.0476   ZY=   -15.5070
   XZ=   -17.3391   YZ=   -11.2673   ZZ=    53.1062
   Eigenvalues:    -8.2192    10.4258    58.6309
     77  Bq   Isotropic =    20.6127   Anisotropy =    30.3405
   XX=    11.5746   YX=     0.7111   ZX=    -6.0304
   XY=     0.8826   YY=    12.9024   ZY=    -7.1323
   XZ=    -4.1237   YZ=    -9.6230   ZZ=    37.3611
   Eigenvalues:     9.7447    11.2536    40.8397
     78  Bq   Isotropic =     9.0007   Anisotropy =    74.9644
   XX=   -22.0478   YX=    11.9452   ZX=    -2.9778
   XY=    12.4565   YY=    -2.2083   ZY=   -17.6157
   XZ=   -25.4206   YZ=   -13.3452   ZZ=    51.2582
   Eigenvalues:   -28.4203    -3.5545    58.9769
     79  Bq   Isotropic =    17.3904   Anisotropy =    29.6938
   XX=     9.0359   YX=     0.5451   ZX=    -7.0528
   XY=     0.2702   YY=     9.4634   ZY=    -6.6389
   XZ=    -3.6230   YZ=    -9.8621   ZZ=    33.6719
   Eigenvalues:     6.1945     8.7905    37.1863
     80  Bq   Isotropic =    -4.1279   Anisotropy =    92.1586
   XX=   -39.4461   YX=    16.5148   ZX=   -13.9373
   XY=    13.3905   YY=   -18.9634   ZY=   -17.8133
   XZ=   -33.2622   YZ=   -15.3380   ZZ=    46.0259
   Eigenvalues:   -49.5324   -20.1624    57.3112
     81  Bq   Isotropic =    14.5290   Anisotropy =    28.9675
   XX=     6.6970   YX=     0.4645   ZX=    -7.5882
   XY=    -0.1187   YY=     6.5693   ZY=    -6.2704
   XZ=    -3.2549   YZ=    -9.9653   ZZ=    30.3207
   Eigenvalues:     3.2441     6.5021    33.8407
     82  Bq   Isotropic =   -11.7246   Anisotropy =   101.4608
   XX=   -47.4518   YX=    19.7635   ZX=   -27.6742
   XY=    12.2491   YY=   -28.5641   ZY=   -15.5182
   XZ=   -35.9448   YZ=   -16.2664   ZZ=    40.8420
   Eigenvalues:   -61.3817   -29.7081    55.9159
     83  Bq   Isotropic =    28.1628   Anisotropy =    37.0170
   XX=    13.7615   YX=     2.7260   ZX=     0.3959
   XY=     4.9121   YY=    21.6631   ZY=   -10.5829
   XZ=    -8.1331   YZ=    -9.1105   ZZ=    49.0640
   Eigenvalues:    12.2169    19.4308    52.8408
     84  Bq   Isotropic =    26.4732   Anisotropy =    33.2981
   XX=    15.9526   YX=     2.3265   ZX=    -2.3493
   XY=     4.9390   YY=    17.9900   ZY=   -10.2956
   XZ=    -5.2195   YZ=    -7.1376   ZZ=    45.4772
   Eigenvalues:    12.9635    17.7843    48.6720
     85  Bq   Isotropic =    27.4355   Anisotropy =    43.7570
   XX=    12.2447   YX=     7.1542   ZX=     1.7703
   XY=    11.5972   YY=    17.7673   ZY=   -15.4850
   XZ=    -8.8246   YZ=    -7.4052   ZZ=    52.2944
   Eigenvalues:     4.8367    20.8629    56.6068
     86  Bq   Isotropic =    23.5815   Anisotropy =    31.5176
   XX=    14.2349   YX=     1.2368   ZX=    -4.3743
   XY=     2.8895   YY=    14.9576   ZY=    -8.5930
   XZ=    -4.4784   YZ=    -7.6180   ZZ=    41.5520
   Eigenvalues:    12.2016    13.9497    44.5932
     87  Bq   Isotropic =    23.2129   Anisotropy =    54.5001
   XX=     4.2515   YX=    11.5131   ZX=     1.7220
   XY=    16.0578   YY=    11.1881   ZY=   -18.1615
   XZ=   -12.6101   YZ=    -8.5266   ZZ=    54.1990
   Eigenvalues:    -6.7770    16.8694    59.5463
     88  Bq   Isotropic =    20.3289   Anisotropy =    30.5975
   XX=    11.7482   YX=     0.6328   ZX=    -5.8672
   XY=     1.5004   YY=    11.5396   ZY=    -7.4253
   XZ=    -4.0223   YZ=    -8.1710   ZZ=    37.6987
   Eigenvalues:     9.3397    10.9196    40.7272
     89  Bq   Isotropic =    15.4162   Anisotropy =    68.4277
   XX=    -7.5309   YX=    17.0555   ZX=    -2.0330
   XY=    20.3083   YY=    -0.4435   ZY=   -19.2169
   XZ=   -17.9465   YZ=   -10.0970   ZZ=    54.2230
   Eigenvalues:   -23.0419     8.2558    61.0347
     90  Bq   Isotropic =    17.2034   Anisotropy =    29.9069
   XX=     9.1731   YX=     0.3207   ZX=    -6.8230
   XY=     0.5989   YY=     8.3584   ZY=    -6.6359
   XZ=    -3.6968   YZ=    -8.6399   ZZ=    34.0786
   Eigenvalues:     5.8853     8.5835    37.1413
     91  Bq   Isotropic =     6.5435   Anisotropy =    81.9130
   XX=   -19.0458   YX=    22.6189   ZX=   -10.3554
   XY=    22.7496   YY=   -13.5796   ZY=   -17.0336
   XZ=   -23.4294   YZ=   -11.6037   ZZ=    52.2558
   Eigenvalues:   -39.2825    -2.2392    61.1521
     92  Bq   Isotropic =    14.4285   Anisotropy =    29.1438
   XX=     6.8478   YX=     0.1775   ZX=    -7.3350
   XY=     0.0418   YY=     5.6711   ZY=    -6.0904
   XZ=    -3.4284   YZ=    -8.9525   ZZ=    30.7666
   Eigenvalues:     2.9895     6.4384    33.8577
     93  Bq   Isotropic =     1.6849   Anisotropy =    89.5827
   XX=   -23.9222   YX=    26.4027   ZX=   -21.3316
   XY=    22.3307   YY=   -21.0719   ZY=   -11.4599
   XZ=   -26.4950   YZ=   -12.3864   ZZ=    50.0489
   Eigenvalues:   -47.9006    -8.4513    61.4067
     94  Bq   Isotropic =    28.1503   Anisotropy =    36.9660
   XX=    15.7730   YX=     4.1830   ZX=    -0.0545
   XY=     7.8165   YY=    19.4822   ZY=   -12.6369
   XZ=    -6.5253   YZ=    -6.9773   ZZ=    49.1957
   Eigenvalues:    11.0192    20.6375    52.7943
     95  Bq   Isotropic =    25.3862   Anisotropy =    32.2735
   XX=    16.4758   YX=     2.3606   ZX=    -2.7777
   XY=     5.7149   YY=    15.3451   ZY=   -10.4017
   XZ=    -4.5184   YZ=    -4.8755   ZZ=    44.3375
   Eigenvalues:    11.3954    17.8613    46.9018
     96  Bq   Isotropic =    27.4013   Anisotropy =    40.0754
   XX=    16.3992   YX=     7.7243   ZX=     0.6504
   XY=    13.1779   YY=    15.1587   ZY=   -15.5044
   XZ=    -6.4352   YZ=    -4.5468   ZZ=    50.6460
   Eigenvalues:     4.6418    23.4438    54.1182
     97  Bq   Isotropic =    22.6120   Anisotropy =    30.9518
   XX=    14.2801   YX=     1.0738   ZX=    -4.4911
   XY=     3.3541   YY=    12.7760   ZY=    -8.5330
   XZ=    -4.1692   YZ=    -5.6548   ZZ=    40.7798
   Eigenvalues:    10.6344    13.9550    43.2465
     98  Bq   Isotropic =    25.1545   Anisotropy =    47.9037
   XX=    12.5884   YX=    12.2144   ZX=     0.7833
   XY=    17.9669   YY=    10.0473   ZY=   -17.6047
   XZ=    -8.5513   YZ=    -5.4122   ZZ=    52.8278
   Eigenvalues:    -4.4630    22.8362    57.0903
     99  Bq   Isotropic =    19.5767   Anisotropy =    30.2561
   XX=    11.6657   YX=     0.3509   ZX=    -5.7804
   XY=     1.7469   YY=     9.8158   ZY=    -7.2084
   XZ=    -3.9532   YZ=    -6.4967   ZZ=    37.2487
   Eigenvalues:     8.1959    10.7869    39.7475
    100  Bq   Isotropic =    20.6888   Anisotropy =    57.7599
   XX=     6.6015   YX=    17.6299   ZX=    -1.6484
   XY=    22.4577   YY=     1.4677   ZY=   -17.6999
   XZ=   -11.5593   YZ=    -6.8529   ZZ=    53.9972
   Eigenvalues:   -16.5279    19.3989    59.1954
    101  Bq   Isotropic =    16.6689   Anisotropy =    29.6818
   XX=     9.1084   YX=    -0.0168   ZX=    -6.6230
   XY=     0.7073   YY=     7.0175   ZY=    -6.3078
   XZ=    -3.7734   YZ=    -7.2341   ZZ=    33.8808
   Eigenvalues:     5.1631     8.3869    36.4567
    102  Bq   Isotropic =    15.7427   Anisotropy =    67.1803
   XX=     0.8425   YX=    22.9044   ZX=    -7.1775
   XY=    25.2549   YY=    -7.8078   ZY=   -14.4559
   XZ=   -14.8592   YZ=    -8.4157   ZZ=    54.1933
   Eigenvalues:   -27.9853    14.6838    60.5295
    103  Bq   Isotropic =    14.0771   Anisotropy =    28.9861
   XX=     6.8479   YX=    -0.1719   ZX=    -7.0840
   XY=     0.0715   YY=     4.6310   ZY=    -5.7012
   XZ=    -3.5896   YZ=    -7.7867   ZZ=    30.7525
   Eigenvalues:     2.4970     6.3332    33.4012
    104  Bq   Isotropic =    13.3000   Anisotropy =    72.7445
   XX=    -1.1501   YX=    26.4541   ZX=   -14.6791
   XY=    25.2787   YY=   -13.0094   ZY=    -8.0083
   XZ=   -17.3664   YZ=    -9.4686   ZZ=    54.0594
   Eigenvalues:   -33.7385    11.8421    61.7963
    105  Bq   Isotropic =    27.2571   Anisotropy =    35.0179
   XX=    17.4905   YX=     4.4836   ZX=    -0.8699
   XY=     8.9853   YY=    16.5655   ZY=   -12.8236
   XZ=    -5.1834   YZ=    -4.4142   ZZ=    47.7153
   Eigenvalues:     9.7394    21.4295    50.6024
    106  Bq   Isotropic =    23.6127   Anisotropy =    30.2435
   XX=    16.3038   YX=     1.7967   ZX=    -3.2574
   XY=     5.4223   YY=    12.5934   ZY=    -9.4183
   XZ=    -3.9322   YZ=    -2.5794   ZZ=    41.9409
   Eigenvalues:    10.0056    17.0574    43.7750
    107  Bq   Isotropic =    26.1700   Anisotropy =    34.6934
   XX=    18.7713   YX=     6.6947   ZX=    -0.5019
   XY=    12.2783   YY=    12.7254   ZY=   -13.5011
   XZ=    -4.5629   YZ=    -1.6335   ZZ=    47.0132
   Eigenvalues:     5.2552    23.9559    49.2989
    108  Bq   Isotropic =    21.1094   Anisotropy =    29.6462
   XX=    13.8537   YX=     0.5709   ZX=    -4.6432
   XY=     3.1583   YY=    10.4659   ZY=    -7.7562
   XZ=    -3.8957   YZ=    -3.6610   ZZ=    39.0086
   Eigenvalues:     9.1095    13.3451    40.8735
    109  Bq   Isotropic =    25.3461   Anisotropy =    39.4645
   XX=    17.9088   YX=    10.5675   ZX=    -0.2106
   XY=    16.4363   YY=     9.2413   ZY=   -14.7879
   XZ=    -5.4991   YZ=    -2.2669   ZZ=    48.8880
   Eigenvalues:    -1.1680    25.5504    51.6558
    110  Bq   Isotropic =    18.4159   Anisotropy =    29.3610
   XX=    11.2526   YX=    -0.1174   ZX=    -5.7092
   XY=     1.5948   YY=     7.9846   ZY=    -6.5375
   XZ=    -3.8777   YZ=    -4.7879   ZZ=    36.0106
   Eigenvalues:     6.8737    10.3841    37.9900
    111  Bq   Isotropic =    23.2319   Anisotropy =    45.5345
   XX=    15.8630   YX=    15.0522   ZX=    -1.5609
   XY=    20.1937   YY=     3.5847   ZY=   -14.2110
   XZ=    -6.9662   YZ=    -3.6594   ZZ=    50.2480
   Eigenvalues:    -9.3401    25.4476    53.5883
    112  Bq   Isotropic =    15.8276   Anisotropy =    29.0316
   XX=     8.8100   YX=    -0.4525   ZX=    -6.4221
   XY=     0.5794   YY=     5.6062   ZY=    -5.6992
   XZ=    -3.8239   YZ=    -5.7880   ZZ=    33.0666
   Eigenvalues:     4.2146     8.0861    35.1820
    113  Bq   Isotropic =    20.9211   Anisotropy =    51.4010
   XX=    13.8617   YX=    19.3281   ZX=    -4.8244
   XY=    22.5338   YY=    -2.2792   ZY=   -10.9226
   XZ=    -8.7777   YZ=    -5.4577   ZZ=    51.1809
   Eigenvalues:   -16.7703    24.3452    55.1884
    114  Bq   Isotropic =    13.5008   Anisotropy =    28.4951
   XX=     6.6844   YX=    -0.5702   ZX=    -6.8209
   XY=    -0.0362   YY=     3.5575   ZY=    -5.1422
   XZ=    -3.7177   YZ=    -6.5765   ZZ=    30.2603
   Eigenvalues:     1.8485     6.1562    32.4975
    115  Bq   Isotropic =    20.0134   Anisotropy =    55.0641
   XX=    13.5615   YX=    22.2901   ZX=    -9.3609
   XY=    22.7072   YY=    -5.3896   ZY=    -5.2345
   XZ=   -10.5445   YZ=    -7.1014   ZZ=    51.8683
   Eigenvalues:   -20.3286    23.6460    56.7228
    116  Bq   Isotropic =    25.4752   Anisotropy =    31.7188
   XX=    18.1261   YX=     3.7765   ZX=    -1.7370
   XY=     8.4841   YY=    13.6402   ZY=   -11.4524
   XZ=    -4.0986   YZ=    -1.8048   ZZ=    44.6593
   Eigenvalues:     8.9253    20.8792    46.6211
    117  Bq   Isotropic =    21.3455   Anisotropy =    27.6316
   XX=    15.3673   YX=     0.8464   ZX=    -3.6333
   XY=     4.3396   YY=    10.1156   ZY=    -7.7879
   XZ=    -3.4086   YZ=    -0.5638   ZZ=    38.5537
   Eigenvalues:     8.8118    15.4582    39.7666
    118  Bq   Isotropic =    23.9023   Anisotropy =    28.8245
   XX=    18.9996   YX=     4.7850   ZX=    -1.4056
   XY=     9.8352   YY=    10.8132   ZY=   -10.5330
   XZ=    -3.1461   YZ=     0.8888   ZZ=    41.8942
   Eigenvalues:     6.2658    22.3226    43.1186
    119  Bq   Isotropic =    19.2281   Anisotropy =    27.8279
   XX=    12.9449   YX=    -0.1570   ZX=    -4.7354
   XY=     2.4472   YY=     8.3203   ZY=    -6.5341
   XZ=    -3.6163   YZ=    -1.8835   ZZ=    36.4192
   Eigenvalues:     7.6439    12.2604    37.7801
    120  Bq   Isotropic =    23.8619   Anisotropy =    30.9033
   XX=    19.6841   YX=     7.7929   ZX=    -0.9630
   XY=    13.0041   YY=     8.8606   ZY=   -11.0919
   XZ=    -3.3431   YZ=     0.4707   ZZ=    43.0409
   Eigenvalues:     2.2561    24.8654    44.4641
    121  Bq   Isotropic =    16.9592   Anisotropy =    28.0325
   XX=    10.5215   YX=    -0.7058   ZX=    -5.6003
   XY=     1.1212   YY=     6.2548   ZY=    -5.5835
   XZ=    -3.7656   YZ=    -3.2366   ZZ=    34.1013
   Eigenvalues:     5.5121     9.7180    35.6475
    122  Bq   Isotropic =    23.0872   Anisotropy =    33.8592
   XX=    19.6816   YX=    11.2025   ZX=    -1.4982
   XY=    15.7807   YY=     5.6496   ZY=   -10.1803
   XZ=    -3.9077   YZ=    -0.8397   ZZ=    43.9304
   Eigenvalues:    -2.7798    26.3815    45.6600
    123  Bq   Isotropic =    14.7576   Anisotropy =    28.0215
   XX=     8.2964   YX=    -0.9446   ZX=    -6.1932
   XY=     0.2591   YY=     4.2677   ZY=    -4.9239
   XZ=    -3.8271   YZ=    -4.4504   ZZ=    31.7088
   Eigenvalues:     3.1771     7.6571    33.4387
    124  Bq   Isotropic =    22.2280   Anisotropy =    36.9400
   XX=    19.5377   YX=    14.4607   ZX=    -3.1522
   XY=    17.5154   YY=     2.4502   ZY=    -7.3557
   XZ=    -4.8506   YZ=    -2.8078   ZZ=    44.6960
   Eigenvalues:    -7.2377    27.0670    46.8546
    125  Bq   Isotropic =    12.7516   Anisotropy =    27.7082
[...]
   133  Bq   0.000000
   134  Bq   0.000000
   135  Bq   0.000000
   136  Bq   0.000000
   137  Bq   0.000000
   138  Bq   0.000000
   139  Bq   0.000000
   140  Bq   0.000000
   141  Bq   0.000000
   142  Bq   0.000000
   143  Bq   0.000000
   144  Bq   0.000000
   145  Bq   0.000000
   146  Bq   0.000000
   147  Bq   0.000000
   148  Bq   0.000000
   149  Bq   0.000000
   150  Bq   0.000000
   151  Bq   0.000000
   152  Bq   0.000000
   153  Bq   0.000000
   154  Bq   0.000000
   155  Bq   0.000000
   156  Bq   0.000000
   157  Bq   0.000000
   158  Bq   0.000000
   159  Bq   0.000000
   160  Bq   0.000000
   161  Bq   0.000000
   162  Bq   0.000000
   163  Bq   0.000000
   164  Bq   0.000000
   165  Bq   0.000000
   166  Bq   0.000000
   167  Bq   0.000000
   168  Bq   0.000000
   169  Bq   0.000000
   170  Bq   0.000000
   171  Bq   0.000000
   172  Bq   0.000000
   173  Bq   0.000000
   174  Bq   0.000000
   175  Bq   0.000000
   176  Bq   0.000000
   177  Bq   0.000000
   178  Bq   0.000000
   179  Bq   0.000000
   180  Bq   0.000000
   181  Bq   0.000000
   182  Bq   0.000000
   183  Bq   0.000000
   184  Bq   0.000000
   185  Bq   0.000000
   186  Bq   0.000000
   187  Bq   0.000000
   188  Bq   0.000000
   189  Bq   0.000000
   190  Bq   0.000000
   191  Bq   0.000000
   192  Bq   0.000000
   193  Bq   0.000000
   194  Bq   0.000000
   195  Bq   0.000000
   196  Bq   0.000000
   197  Bq   0.000000
   198  Bq   0.000000
   199  Bq   0.000000
   200  Bq   0.000000
   201  Bq   0.000000
   202  Bq   0.000000
   203  Bq   0.000000
   204  Bq   0.000000
   205  Bq   0.000000
   206  Bq   0.000000
   207  Bq   0.000000
   208  Bq   0.000000
   209  Bq   0.000000
   210  Bq   0.000000
   211  Bq   0.000000
   212  Bq   0.000000
   213  Bq   0.000000
   214  Bq   0.000000
   215  Bq   0.000000
   216  Bq   0.000000
   217  Bq   0.000000
   218  Bq   0.000000
   219  Bq   0.000000
   220  Bq   0.000000
   221  Bq   0.000000
   222  Bq   0.000000
   223  Bq   0.000000
   224  Bq   0.000000
   225  Bq   0.000000
   226  Bq   0.000000
   227  Bq   0.000000
   228  Bq   0.000000
   229  Bq   0.000000
   230  Bq   0.000000
   231  Bq   0.000000
   232  Bq   0.000000
   233  Bq   0.000000
   234  Bq   0.000000
   235  Bq   0.000000
   236  Bq   0.000000
 Sum of Mulliken charges =   0.00000
 Mulliken charges with hydrogens summed into heavy atoms:
               1
     1  C   -0.255498
     3  C    0.169409
     5  C    0.448258
     6  C    0.064351
     7  C   -0.333926
     9  C   -0.139521
    11  C   -0.205988
    13  C   -0.119315
    15  C    0.653397
    16  C    0.034822
    17  C   -0.317410
    19  C   -0.316854
    21  C    0.651066
    22  C    0.037784
    23  C   -0.117289
    25  C   -0.205316
    27  C    0.448331
    28  C    0.061983
    29  C   -0.333381
    31  C   -0.139505
    33  C   -0.255977
    35  C    0.170579
    37  Bq   0.000000
    38  Bq   0.000000
    39  Bq   0.000000
    40  Bq   0.000000
    41  Bq   0.000000
    42  Bq   0.000000
    43  Bq   0.000000
    44  Bq   0.000000
    45  Bq   0.000000
    46  Bq   0.000000
    47  Bq   0.000000
    48  Bq   0.000000
    49  Bq   0.000000
    50  Bq   0.000000
    51  Bq   0.000000
    52  Bq   0.000000
    53  Bq   0.000000
    54  Bq   0.000000
    55  Bq   0.000000
    56  Bq   0.000000
    57  Bq   0.000000
    58  Bq   0.000000
    59  Bq   0.000000
    60  Bq   0.000000
    61  Bq   0.000000
    62  Bq   0.000000
    63  Bq   0.000000
    64  Bq   0.000000
    65  Bq   0.000000
    66  Bq   0.000000
    67  Bq   0.000000
    68  Bq   0.000000
    69  Bq   0.000000
    70  Bq   0.000000
    71  Bq   0.000000
    72  Bq   0.000000
    73  Bq   0.000000
    74  Bq   0.000000
    75  Bq   0.000000
    76  Bq   0.000000
    77  Bq   0.000000
    78  Bq   0.000000
    79  Bq   0.000000
    80  Bq   0.000000
    81  Bq   0.000000
    82  Bq   0.000000
    83  Bq   0.000000
    84  Bq   0.000000
    85  Bq   0.000000
    86  Bq   0.000000
    87  Bq   0.000000
    88  Bq   0.000000
    89  Bq   0.000000
    90  Bq   0.000000
    91  Bq   0.000000
    92  Bq   0.000000
    93  Bq   0.000000
    94  Bq   0.000000
    95  Bq   0.000000
    96  Bq   0.000000
    97  Bq   0.000000
    98  Bq   0.000000
    99  Bq   0.000000
   100  Bq   0.000000
   101  Bq   0.000000
   102  Bq   0.000000
   103  Bq   0.000000
   104  Bq   0.000000
   105  Bq   0.000000
   106  Bq   0.000000
   107  Bq   0.000000
   108  Bq   0.000000
   109  Bq   0.000000
   110  Bq   0.000000
   111  Bq   0.000000
   112  Bq   0.000000
   113  Bq   0.000000
   114  Bq   0.000000
   115  Bq   0.000000
   116  Bq   0.000000
   117  Bq   0.000000
   118  Bq   0.000000
   119  Bq   0.000000
   120  Bq   0.000000
   121  Bq   0.000000
   122  Bq   0.000000
   123  Bq   0.000000
   124  Bq   0.000000
   125  Bq   0.000000
   126  Bq   0.000000
   127  Bq   0.000000
   128  Bq   0.000000
   129  Bq   0.000000
   130  Bq   0.000000
   131  Bq   0.000000
   132  Bq   0.000000
   133  Bq   0.000000
   134  Bq   0.000000
   135  Bq   0.000000
   136  Bq   0.000000
   137  Bq   0.000000
   138  Bq   0.000000
   139  Bq   0.000000
   140  Bq   0.000000
   141  Bq   0.000000
   142  Bq   0.000000
   143  Bq   0.000000
   144  Bq   0.000000
   145  Bq   0.000000
   146  Bq   0.000000
   147  Bq   0.000000
   148  Bq   0.000000
   149  Bq   0.000000
   150  Bq   0.000000
   151  Bq   0.000000
   152  Bq   0.000000
   153  Bq   0.000000
   154  Bq   0.000000
   155  Bq   0.000000
   156  Bq   0.000000
   157  Bq   0.000000
   158  Bq   0.000000
   159  Bq   0.000000
   160  Bq   0.000000
   161  Bq   0.000000
   162  Bq   0.000000
   163  Bq   0.000000
   164  Bq   0.000000
   165  Bq   0.000000
   166  Bq   0.000000
   167  Bq   0.000000
   168  Bq   0.000000
   169  Bq   0.000000
   170  Bq   0.000000
   171  Bq   0.000000
   172  Bq   0.000000
   173  Bq   0.000000
   174  Bq   0.000000
   175  Bq   0.000000
   176  Bq   0.000000
   177  Bq   0.000000
   178  Bq   0.000000
   179  Bq   0.000000
   180  Bq   0.000000
   181  Bq   0.000000
   182  Bq   0.000000
   183  Bq   0.000000
   184  Bq   0.000000
   185  Bq   0.000000
   186  Bq   0.000000
   187  Bq   0.000000
   188  Bq   0.000000
   189  Bq   0.000000
   190  Bq   0.000000
   191  Bq   0.000000
   192  Bq   0.000000
   193  Bq   0.000000
   194  Bq   0.000000
   195  Bq   0.000000
   196  Bq   0.000000
   197  Bq   0.000000
   198  Bq   0.000000
   199  Bq   0.000000
   200  Bq   0.000000
   201  Bq   0.000000
   202  Bq   0.000000
   203  Bq   0.000000
   204  Bq   0.000000
   205  Bq   0.000000
   206  Bq   0.000000
   207  Bq   0.000000
   208  Bq   0.000000
   209  Bq   0.000000
   210  Bq   0.000000
   211  Bq   0.000000
   212  Bq   0.000000
   213  Bq   0.000000
   214  Bq   0.000000
   215  Bq   0.000000
   216  Bq   0.000000
   217  Bq   0.000000
   218  Bq   0.000000
   219  Bq   0.000000
   220  Bq   0.000000
   221  Bq   0.000000
   222  Bq   0.000000
   223  Bq   0.000000
   224  Bq   0.000000
   225  Bq   0.000000
   226  Bq   0.000000
   227  Bq   0.000000
   228  Bq   0.000000
   229  Bq   0.000000
   230  Bq   0.000000
   231  Bq   0.000000
   232  Bq   0.000000
   233  Bq   0.000000
   234  Bq   0.000000
   235  Bq   0.000000
   236  Bq   0.000000
 Electronic spatial extent (au):  <R**2>=           5736.9264
 Charge=              0.0000 electrons
 Dipole moment (field-independent basis, Debye):
    X=              0.0475    Y=              0.0856    Z=              0.0029  Tot=              0.0979
 Quadrupole moment (field-independent basis, Debye-Ang):
   XX=           -113.7056   YY=           -113.9456   ZZ=           -133.2669
   XY=             -0.3834   XZ=              3.2102   YZ=             -1.1839
 Traceless Quadrupole moment (field-independent basis, Debye-Ang):
   XX=              6.6005   YY=              6.3604   ZZ=            -12.9609
   XY=             -0.3834   XZ=              3.2102   YZ=             -1.1839
 Octapole moment (field-independent basis, Debye-Ang**2):
  XXX=            -16.4668  YYY=            -16.1860  ZZZ=             -1.7007  XYY=              2.5576
  XXY=             -6.5650  XXZ=             13.6547  XZZ=             -8.9478  YZZ=            -17.7168
  YYZ=            -13.2941  XYZ=              8.8036
 Hexadecapole moment (field-independent basis, Debye-Ang**3):
 XXXX=          -3951.1638 YYYY=          -3112.2161 ZZZZ=           -504.8311 XXXY=            340.6935
 XXXZ=            156.4968 YYYX=            335.5625 YYYZ=            -87.0893 ZZZX=            120.2262
 ZZZY=           -108.7373 XXYY=          -1176.4844 XXZZ=           -856.7291 YYZZ=           -665.7275
 XXYZ=            -68.9016 YYXZ=             48.1602 ZZXY=            153.0375
 N-N= 1.610917615562D+03 E-N=-5.186891130729D+03  KE= 8.436329774448D+02
 1\1\GINC-MUHKA\SP\RB3LYP\6-311+G(d,p)\C22H14\YANNICK\22-Aug-2020\0\\# 
 rb3lyp/6-311+g** NMR geom=connectivity\\Title\\0,1\C,0,-4.0500558,-0.5
 771862,0.8136712\H,0,-5.0263804,-1.0082727,1.002476\C,0,-3.9381552,0.6
 617804,0.2400876\H,0,-4.8252424,1.233889,-0.0111295\C,0,-2.676841,1.24
 33246,0.0057578\C,0,-1.4974121,0.5051527,0.2848253\C,0,-1.6508332,-0.7
 338728,0.9404026\H,0,-0.7713646,-1.2730967,1.2633753\C,0,-2.8898548,-1
 .2624035,1.1994307\H,0,-2.9683706,-2.2124563,1.7152676\C,0,-2.5773185,
 2.5963696,-0.419293\H,0,-3.4870728,3.1412239,-0.6474055\C,0,-1.3741895
 ,3.2147896,-0.436403\H,0,-1.2997315,4.2742019,-0.6578144\C,0,-0.171948
 8,2.499409,-0.1734588\C,0,-0.2043917,1.1018437,0.0192689\C,0,1.0513491
 ,3.204256,-0.0676222\H,0,1.0427344,4.2819499,-0.1896997\C,0,2.1942091,
 2.5487446,0.2579577\H,0,3.1168527,3.0912848,0.4334727\C,0,2.2216473,1.
 1336562,0.293499\C,0,1.0486931,0.3945528,0.0302412\C,0,3.4483363,0.461
 4633,0.5573939\H,0,4.3095794,1.0606054,0.8334846\C,0,3.5427346,-0.8855
 926,0.4749463\H,0,4.4731467,-1.3939704,0.7038822\C,0,2.4490052,-1.6474
 447,-0.0196319\C,0,1.2150704,-1.0057258,-0.3013573\C,0,0.2531113,-1.74
 3444,-1.0216591\H,0,-0.6541356,-1.2535051,-1.3462847\C,0,0.4494193,-3.
 0628597,-1.3413779\H,0,-0.3083162,-3.5944309,-1.905406\C,0,1.6251726,-
 3.7207967,-0.9552541\H,0,1.7670048,-4.7687404,-1.1927019\C,0,2.6109872
 ,-3.0144177,-0.318305\H,0,3.5525612,-3.4902813,-0.0646367\Bq,0,1.93372
 11991,-2.0831641889,0.8429782049\Bq,0,2.1905098423,-1.9408875986,-0.11
 29595361\Bq,0,2.0621155207,-2.0120258937,0.3650093344\Bq,0,2.032745605
 9,-1.9272708587,0.474343648\Bq,0,2.0841033345,-1.8988155407,0.28315609
 99\Bq,0,2.0070667415,-1.9414985178,0.5699374221\Bq,0,2.1097821988,-1.8
 845878817,0.1875623258\Bq,0,1.9813878772,-1.9557261768,0.6655311962\Bq
 ,0,2.1354610632,-1.8703602226,0.0919685517\Bq,0,1.9557090129,-1.969953
 8358,0.7611249703\Bq,0,2.1611399275,-1.8561325636,-0.0036252224\Bq,0,1
 .9300301486,-1.9841814949,0.8567187444\Bq,0,2.1868187918,-1.8419049046
 ,-0.0992189965\Bq,0,2.0584244702,-1.9130431997,0.378749874\Bq,0,2.0290
 545553,-1.8282881647,0.4880841876\Bq,0,2.080412284,-1.7998328466,0.296
 8966394\Bq,0,2.003375691,-1.8425158237,0.5836779617\Bq,0,2.1060911483,
 -1.7856051876,0.2013028653\Bq,0,1.9776968267,-1.8567434828,0.679271735
 8\Bq,0,2.1317700126,-1.7713775286,0.1057090912\Bq,0,1.9520179624,-1.87
 09711418,0.7748655099\Bq,0,2.1574488769,-1.7571498696,0.0101153171\Bq,
 0,1.926339098,-1.8851988008,0.870459284\Bq,0,2.1831277413,-1.742922210
 5,-0.085478457\Bq,0,2.0547334197,-1.8140605057,0.3924904135\Bq,0,2.025
 3635048,-1.7293054707,0.5018247272\Bq,0,2.0767212334,-1.7008501526,0.3
 10637179\Bq,0,1.9996846405,-1.7435331297,0.5974185013\Bq,0,2.102400097
 8,-1.6866224936,0.2150434049\Bq,0,1.9740057762,-1.7577607887,0.6930122
 754\Bq,0,2.1280789621,-1.6723948346,0.1194496308\Bq,0,1.9483269118,-1.
 7719884478,0.7886060495\Bq,0,2.1537578264,-1.6581671755,0.0238558567\B
 q,0,1.9226480475,-1.7862161068,0.8841998235\Bq,0,2.1794366907,-1.64393
 95165,-0.0717379174\Bq,0,2.0510423691,-1.7150778116,0.4062309531\Bq,0,
 2.0216724543,-1.6303227766,0.5155652667\Bq,0,2.0730301829,-1.601867458
 6,0.3243777185\Bq,0,1.9959935899,-1.6445504357,0.6111590408\Bq,0,2.098
 7090472,-1.5876397995,0.2287839444\Bq,0,1.9703147256,-1.6587780947,0.7
 067528149\Bq,0,2.1243879116,-1.5734121405,0.1331901703\Bq,0,1.94463586
 13,-1.6730057537,0.802346589\Bq,0,2.1500667759,-1.5591844815,0.0375963
 963\Bq,0,1.918956997,-1.6872334127,0.8979403631\Bq,0,2.1757456402,-1.5
 449568225,-0.0579973778\Bq,0,2.0473513186,-1.6160951176,0.4199714926\B
 q,0,2.0179814037,-1.5313400826,0.5293058063\Bq,0,2.0693391324,-1.50288
 47645,0.3381182581\Bq,0,1.9923025394,-1.5455677416,0.6248995804\Bq,0,2
 .0950179967,-1.4886571055,0.242524484\Bq,0,1.9666236751,-1.5597954007,
 0.7204933545\Bq,0,2.120696861,-1.4744294465,0.1469307099\Bq,0,1.940944
 8108,-1.5740230597,0.8160871286\Bq,0,2.1463757253,-1.4602017875,0.0513
 369358\Bq,0,1.9152659464,-1.5882507187,0.9116809027\Bq,0,2.1720545897,
 -1.4459741284,-0.0442568383\Bq,0,2.0436602681,-1.5171124236,0.43371203
 22\Bq,0,2.0142903532,-1.4323573886,0.5430463458\Bq,0,2.0656480818,-1.4
 039020705,0.3518587977\Bq,0,1.9886114889,-1.4465850476,0.6386401199\Bq
 ,0,2.0913269462,-1.3896744115,0.2562650236\Bq,0,1.9629326245,-1.460812
 7066,0.734233894\Bq,0,2.1170058105,-1.3754467524,0.1606712495\Bq,0,1.9
 372537602,-1.4750403656,0.8298276681\Bq,0,2.1426846748,-1.3612190934,0
 .0650774754\Bq,0,1.9115748959,-1.4892680247,0.9254214422\Bq,0,2.168363
 5391,-1.3469914344,-0.0305162987\Bq,0,2.0399692175,-1.4181297295,0.447
 4525717\Bq,0,2.0105993027,-1.3333746945,0.5567868854\Bq,0,2.0619570313
 ,-1.3049193765,0.3655993372\Bq,0,1.9849204383,-1.3476023536,0.65238065
 95\Bq,0,2.0876358956,-1.2906917174,0.2700055631\Bq,0,1.959241574,-1.36
 18300126,0.7479744336\Bq,0,2.1133147599,-1.2764640584,0.174411789\Bq,0
 ,1.9335627097,-1.3760576716,0.8435682077\Bq,0,2.1389936243,-1.26223639
 94,0.0788180149\Bq,0,1.9078838454,-1.3902853306,0.9391619818\Bq,0,2.16
 46724886,-1.2480087404,-0.0167757592\Bq,0,2.036278167,-1.3191470355,0.
 4611931113\Bq,0,2.0069082521,-1.2343920005,0.570527425\Bq,0,2.05826598
 08,-1.2059366824,0.3793398768\Bq,0,1.9812293878,-1.2486196595,0.666121
 1991\Bq,0,2.0839448451,-1.1917090234,0.2837461027\Bq,0,1.9555505235,-1
 .2628473185,0.7617149732\Bq,0,2.1096237094,-1.1774813644,0.1881523286\
 Bq,0,1.9298716592,-1.2770749776,0.8573087472\Bq,0,2.1353025737,-1.1632
 537054,0.0925585545\Bq,0,1.9041927948,-1.2913026366,0.9529025213\Bq,0,
 2.1609814381,-1.1490260463,-0.0030352196\Bq,0,2.0325871164,-1.22016434
 15,0.4749336509\Bq,0,2.0032172016,-1.1354093065,0.5842679645\Bq,0,2.05
 45749302,-1.1069539884,0.3930804163\Bq,0,1.9775383373,-1.1496369655,0.
 6798617386\Bq,0,2.0802537946,-1.0927263294,0.2974866422\Bq,0,1.9518594
 729,-1.1638646245,0.7754555127\Bq,0,2.1059326589,-1.0784986703,0.20189
 28681\Bq,0,1.9261806086,-1.1780922835,0.8710492868\Bq,0,2.1316115232,-
 1.0642710113,0.106299094\Bq,0,1.9005017443,-1.1923199426,0.9666430609\
 Bq,0,2.1572903875,-1.0500433523,0.01070532\Bq,0,2.0288960659,-1.121181
 6474,0.4886741904\Bq,0,1.9995261511,-1.0364266124,0.5980085041\Bq,0,2.
 0508838797,-1.0079712944,0.4068209559\Bq,0,1.9738472867,-1.0506542714,
 0.6936022782\Bq,0,2.076562744,-0.9937436353,0.3112271818\Bq,0,1.948168
 4224,-1.0648819305,0.7891960523\Bq,0,2.1022416083,-0.9795159763,0.2156
 334077\Bq,0,1.9224895581,-1.0791095895,0.8847898264\Bq,0,2.1279204727,
 -0.9652883173,0.1200396336\Bq,0,1.8968106938,-1.0933372485,0.980383600
 5\Bq,0,2.153599337,-0.9510606583,0.0244458595\Bq,0,2.0252050154,-1.022
 1989534,0.50241473\Bq,0,1.9958351005,-0.9374439184,0.6117490436\Bq,0,2
 .0471928292,-0.9089886003,0.4205614954\Bq,0,1.9701562362,-0.9516715774
 ,0.7073428177\Bq,0,2.0728716935,-0.8947609413,0.3249677214\Bq,0,1.9444
 773719,-0.9658992364,0.8029365918\Bq,0,2.0985505578,-0.8805332823,0.22
 93739473\Bq,0,1.9187985075,-0.9801268955,0.8985303659\Bq,0,2.124229422
 1,-0.8663056232,0.1337801732\Bq,0,1.8931196432,-0.9943545545,0.9941241
 4\Bq,0,2.1499082865,-0.8520779642,0.0381863991\Bq,0,2.0215139648,-0.92
 32162594,0.5161552695\Bq,0,1.99214405,-0.8384612243,0.6254895832\Bq,0,
 2.0435017786,-0.8100059063,0.434302035\Bq,0,1.9664651857,-0.8526888834
 ,0.7210833573\Bq,0,2.0691806429,-0.7957782473,0.3387082609\Bq,0,1.9407
 863213,-0.8669165424,0.8166771314\Bq,0,2.0948595073,-0.7815505882,0.24
 31144868\Bq,0,1.915107457,-0.8811442014,0.9122709055\Bq,0,2.1205383716
 ,-0.7673229292,0.1475207127\Bq,0,1.8894285927,-0.8953718605,1.00786467
 96\Bq,0,2.1462172359,-0.7530952702,0.0519269386\Bq,0,2.0178229143,-0.8
 242335653,0.5298958091\Bq,0,1.9884529994,-0.7394785303,0.6392301228\Bq
 ,0,2.0398107281,-0.7110232123,0.4480425746\Bq,0,1.9627741351,-0.753706
 1893,0.7348238968\Bq,0,2.0654895924,-0.6967955532,0.3524488005\Bq,0,1.
 9370952708,-0.7679338484,0.8304176709\Bq,0,2.0911684567,-0.6825678942,
 0.2568550264\Bq,0,1.9114164065,-0.7821615074,0.926011445\Bq,0,2.116847
 3211,-0.6683402352,0.1612612523\Bq,0,1.8857375422,-0.7963891664,1.0216
 052191\Bq,0,2.1425261854,-0.6541125761,0.0656674782\Bq,0,2.0141318638,
 -0.7252508713,0.5436363487\Bq,0,1.9847619489,-0.6404958363,0.652970662
 3\Bq,0,2.0361196776,-0.6120405182,0.4617831141\Bq,0,1.9590830846,-0.65
 47234953,0.7485644364\Bq,0,2.0617985419,-0.5978128592,0.36618934\Bq,0,
 1.9334042203,-0.6689511543,0.8441582105\Bq,0,2.0874774062,-0.583585200
 2,0.2705955659\Bq,0,1.9077253559,-0.6831788134,0.9397519846\Bq,0,2.113
 1562705,-0.5693575411,0.1750017918\Bq,0,1.8820464916,-0.6974064724,1.0
 353457587\Bq,0,2.1388351348,-0.5551298821,0.0794080177\Bq,0,2.01044081
 32,-0.6262681772,0.5573768882\Bq,0,1.9810708984,-0.5415131422,0.666711
 2019\Bq,0,2.032428627,-0.5130578242,0.4755236537\Bq,0,1.9553920341,-0.
 5557408013,0.762304976\Bq,0,2.0581074913,-0.4988301652,0.3799298796\Bq
 ,0,1.9297131697,-0.5699684603,0.8578987501\Bq,0,2.0837863557,-0.484602
 5061,0.2843361055\Bq,0,1.9040343054,-0.5841961193,0.9534925242\Bq,0,2.
 10946522,-0.4703748471,0.1887423314\Bq,0,1.8783554411,-0.5984237784,1.
 0490862983\Bq,0,2.1351440843,-0.4561471881,0.0931485573\Bq,0,2.0067497
 627,-0.5272854832,0.5711174278\Bq,0,1.9773798478,-0.4425304482,0.68045
 17414\Bq,0,2.0287375765,-0.4140751301,0.4892641932\Bq,0,1.9517009835,-
 0.4567581072,0.7760455155\Bq,0,2.0544164408,-0.3998474711,0.3936704191
 \Bq,0,1.9260221192,-0.4709857663,0.8716392896\Bq,0,2.0800953051,-0.385
 6198121,0.2980766451\Bq,0,1.9003432549,-0.4852134253,0.9672330637\Bq,0
 ,2.1057741695,-0.3713921531,0.202482871\Bq,0,1.8746643906,-0.499441084
 3,1.0628268378\Bq,0,2.1314530338,-0.357164494,0.1068890969\Bq,0,2.0030
 587122,-0.4283027892,0.5848579673\Bq,0,1.9736887973,-0.3435477542,0.69
 4192281\Bq,0,2.025046526,-0.3150924361,0.5030047328\Bq,0,1.948009933,-
 0.3577754132,0.7897860551\Bq,0,2.0507253903,-0.3008647771,0.4074109587
 \Bq,0,1.9223310687,-0.3720030722,0.8853798292\Bq,0,2.0764042546,-0.286
 6371181,0.3118171846\Bq,0,1.8966522043,-0.3862307313,0.9809736033\Bq,0
 ,2.1020831189,-0.272409459,0.2162234105\Bq,0,1.87097334,-0.4004583903,
 1.0765673774\Bq,0,2.1277619832,-0.2581818,0.1206296364\Bq,0,1.99936766
 16,-0.3293200951,0.5985985069\Bq,0,1.9699977468,-0.2445650601,0.707932
 8205\Bq,0,2.0213554754,-0.2161097421,0.5167452724\Bq,0,1.9443188824,-0
 .2587927192,0.8035265946\Bq,0,2.0470343397,-0.201882083,0.4211514983\B
 q,0,1.9186400181,-0.2730203782,0.8991203687\Bq,0,2.0727132041,-0.18765
 4424,0.3255577242\Bq,0,1.8929611538,-0.2872480372,0.9947141428\Bq,0,2.
 0983920684,-0.173426765,0.2299639501\Bq,0,1.8672822895,-0.3014756962,1
 .0903079169\Bq,0,2.1240709327,-0.159199106,0.134370176\\Version=ES64L-
 G09RevD.01\HF=-847.0032898\RMSD=7.504e-09\Dipole=0.0186808,0.0336671,0
 .0011595\Quadrupole=4.9072795,4.7288219,-9.6361014,-0.2850201,2.386706
 4,-0.880172\PG=C01 [X(C22H14)]\\@


 THERE ARE PEOPLE SO ADDICTED TO EXAGERATING THEY
 CAN'T TELL THE TRUTH WITHOUT LYING. -- FORTUNE COOKIE
 Job cpu time:       0 days  2 hours 47 minutes 31.3 seconds.
 File lengths (MBytes):  RWF=    184 Int=      0 D2E=      0 Chk=     19 Scr=      1
 Normal termination of Gaussian 09 at Sat Aug 22 17:55:49 2020.
