 Entering Gaussian System, Link 0=g09
 Input=input_cycle_01_batch_13400.com
 Output=input_cycle_01_batch_13400.log
 Initial command:
 /share/programs/GAUSSIAN/64/g09/l1.exe "/scratch/yannick.29928/Gau-28191.inp" -scrdir="/scratch/yannick.29928/"
 Entering Link 1 = /share/programs/GAUSSIAN/64/g09/l1.exe PID=     28192.
  
 Copyright (c) 1988,1990,1992,1993,1995,1998,2003,2009,2013,
            Gaussian, Inc.  All Rights Reserved.
  
 This is part of the Gaussian(R) 09 program.  It is based on
 the Gaussian(R) 03 system (copyright 2003, Gaussian, Inc.),
 the Gaussian(R) 98 system (copyright 1998, Gaussian, Inc.),
 the Gaussian(R) 94 system (copyright 1995, Gaussian, Inc.),
 the Gaussian 92(TM) system (copyright 1992, Gaussian, Inc.),
 the Gaussian 90(TM) system (copyright 1990, Gaussian, Inc.),
 the Gaussian 88(TM) system (copyright 1988, Gaussian, Inc.),
 the Gaussian 86(TM) system (copyright 1986, Carnegie Mellon
 University), and the Gaussian 82(TM) system (copyright 1983,
 Carnegie Mellon University). Gaussian is a federally registered
 trademark of Gaussian, Inc.
  
 This software contains proprietary and confidential information,
 including trade secrets, belonging to Gaussian, Inc.
  
 This software is provided under written license and may be
 used, copied, transmitted, or stored only in accord with that
 written license.
  
 The following legend is applicable only to US Government
 contracts under FAR:
  
                    RESTRICTED RIGHTS LEGEND
  
 Use, reproduction and disclosure by the US Government is
 subject to restrictions as set forth in subparagraphs (a)
 and (c) of the Commercial Computer Software - Restricted
 Rights clause in FAR 52.227-19.
  
 Gaussian, Inc.
 340 Quinnipiac St., Bldg. 40, Wallingford CT 06492
  
  
 ---------------------------------------------------------------
 Warning -- This program may not be used in any manner that
 competes with the business of Gaussian, Inc. or will provide
 assistance to any competitor of Gaussian, Inc.  The licensee
 of this program is prohibited from giving any competitor of
 Gaussian, Inc. access to this program.  By using this program,
 the user acknowledges that Gaussian, Inc. is engaged in the
 business of creating and licensing software in the field of
 computational chemistry and represents and warrants to the
 licensee that it is not a competitor of Gaussian, Inc. and that
 it will not use this program in any manner prohibited above.
 ---------------------------------------------------------------
  

 Cite this work as:
 Gaussian 09, Revision D.01,
 M. J. Frisch, G. W. Trucks, H. B. Schlegel, G. E. Scuseria, 
 M. A. Robb, J. R. Cheeseman, G. Scalmani, V. Barone, B. Mennucci, 
 G. A. Petersson, H. Nakatsuji, M. Caricato, X. Li, H. P. Hratchian, 
 A. F. Izmaylov, J. Bloino, G. Zheng, J. L. Sonnenberg, M. Hada, 
 M. Ehara, K. Toyota, R. Fukuda, J. Hasegawa, M. Ishida, T. Nakajima, 
 Y. Honda, O. Kitao, H. Nakai, T. Vreven, J. A. Montgomery, Jr., 
 J. E. Peralta, F. Ogliaro, M. Bearpark, J. J. Heyd, E. Brothers, 
 K. N. Kudin, V. N. Staroverov, T. Keith, R. Kobayashi, J. Normand, 
 K. Raghavachari, A. Rendell, J. C. Burant, S. S. Iyengar, J. Tomasi, 
 M. Cossi, N. Rega, J. M. Millam, M. Klene, J. E. Knox, J. B. Cross, 
 V. Bakken, C. Adamo, J. Jaramillo, R. Gomperts, R. E. Stratmann, 
 O. Yazyev, A. J. Austin, R. Cammi, C. Pomelli, J. W. Ochterski, 
 R. L. Martin, K. Morokuma, V. G. Zakrzewski, G. A. Voth, 
 P. Salvador, J. J. Dannenberg, S. Dapprich, A. D. Daniels, 
 O. Farkas, J. B. Foresman, J. V. Ortiz, J. Cioslowski, 
 and D. J. Fox, Gaussian, Inc., Wallingford CT, 2013.
 
 ******************************************
 Gaussian 09:  ES64L-G09RevD.01 24-Apr-2013
                21-Aug-2020 
 ******************************************
 %nproc=8
 Will use up to    8 processors via shared memory.
 %mem=1000MB
 ----------------------------------------
 # rb3lyp/6-311+g** NMR geom=connectivity
 ----------------------------------------
 1/38=1,57=2/1;
 2/12=2,17=6,18=5,40=1/2;
 3/5=4,6=6,7=111,11=2,16=1,25=1,30=1,74=-5,116=1/1,2,8,3;
 4//1;
 5/5=2,38=5/2;
 8/6=1,10=90,11=11/1;
 10/13=100,45=16/2;
 6/7=2,8=2,9=2,10=2,28=1/1;
 99/9=1/99;
 -----
 Title
 -----
 Symbolic Z-matrix:
 Charge =  0 Multiplicity = 1
 C                    -4.05006  -0.57719   0.81367 
 H                    -5.02638  -1.00827   1.00248 
 C                    -3.93816   0.66178   0.24009 
 H                    -4.82524   1.23389  -0.01113 
 C                    -2.67684   1.24332   0.00576 
 C                    -1.49741   0.50515   0.28483 
 C                    -1.65083  -0.73387   0.9404 
 H                    -0.77136  -1.2731    1.26338 
 C                    -2.88985  -1.2624    1.19943 
 H                    -2.96837  -2.21246   1.71527 
 C                    -2.57732   2.59637  -0.41929 
 H                    -3.48707   3.14122  -0.64741 
 C                    -1.37419   3.21479  -0.4364 
 H                    -1.29973   4.2742   -0.65781 
 C                    -0.17195   2.49941  -0.17346 
 C                    -0.20439   1.10184   0.01927 
 C                     1.05135   3.20426  -0.06762 
 H                     1.04273   4.28195  -0.1897 
 C                     2.19421   2.54874   0.25796 
 H                     3.11685   3.09128   0.43347 
 C                     2.22165   1.13366   0.2935 
 C                     1.04869   0.39455   0.03024 
 C                     3.44834   0.46146   0.55739 
 H                     4.30958   1.06061   0.83348 
 C                     3.54273  -0.88559   0.47495 
 H                     4.47315  -1.39397   0.70388 
 C                     2.44901  -1.64744  -0.01963 
 C                     1.21507  -1.00573  -0.30136 
 C                     0.25311  -1.74344  -1.02166 
 H                    -0.65414  -1.25351  -1.34628 
 C                     0.44942  -3.06286  -1.34138 
 H                    -0.30832  -3.59443  -1.90541 
 C                     1.62517  -3.7208   -0.95525 
 H                     1.767    -4.76874  -1.1927 
 C                     2.61099  -3.01442  -0.31831 
 H                     3.55256  -3.49028  -0.06464 
 Bq                    0.87212  -0.54438   0.09342 
 Bq                    0.75253  -0.62423   0.35671 
 Bq                    0.91198  -0.51777   0.00565 
 Bq                    0.71267  -0.65085   0.44448 
 Bq                    0.95184  -0.49115  -0.08211 
 Bq                    0.67281  -0.67746   0.53224 
 Bq                    0.99171  -0.46454  -0.16987 
 Bq                    0.63295  -0.70408   0.62001 
 Bq                    1.03157  -0.43792  -0.25764 
 Bq                    0.83226  -0.571     0.18118 
 Bq                    0.78139  -0.50122   0.29318 
 Bq                    0.86111  -0.44799   0.11765 
 Bq                    0.74153  -0.52784   0.38095 
 Bq                    0.90098  -0.42138   0.02989 
 Bq                    0.70167  -0.55445   0.46871 
 Bq                    0.94084  -0.39476  -0.05788 
 Bq                    0.6618   -0.58107   0.55648 
 Bq                    0.9807   -0.36814  -0.14564 
 Bq                    0.62194  -0.60769   0.64424 
 Bq                    1.02056  -0.34153  -0.23341 
 Bq                    0.82125  -0.47461   0.20542 
 Bq                    0.77038  -0.40483   0.31742 
 Bq                    0.85011  -0.3516    0.14189 
 Bq                    0.73052  -0.43145   0.40518 
 Bq                    0.88997  -0.32498   0.05412 
 Bq                    0.69066  -0.45806   0.49294 
 Bq                    0.92983  -0.29837  -0.03364 
 Bq                    0.6508   -0.48468   0.58071 
 Bq                    0.96969  -0.27175  -0.12141 
 Bq                    0.61094  -0.51129   0.66847 
 Bq                    1.00955  -0.24514  -0.20917 
 Bq                    0.81025  -0.37821   0.22965 
 Bq                    0.75938  -0.30844   0.34165 
 Bq                    0.8391   -0.25521   0.16612 
 Bq                    0.71952  -0.33505   0.42941 
 Bq                    0.87896  -0.22859   0.07835 
 Bq                    0.67965  -0.36167   0.51718 
 Bq                    0.91882  -0.20197  -0.00941 
 Bq                    0.63979  -0.38828   0.60494 
 Bq                    0.95869  -0.17536  -0.09717 
 Bq                    0.59993  -0.4149    0.69271 
 Bq                    0.99855  -0.14874  -0.18494 
 Bq                    0.79924  -0.28182   0.25388 
 Bq                    0.74837  -0.21204   0.36588 
 Bq                    0.82809  -0.15881   0.19035 
 Bq                    0.70851  -0.23866   0.45365 
 Bq                    0.86796  -0.1322    0.10259 
 Bq                    0.66865  -0.26528   0.54141 
 Bq                    0.90782  -0.10558   0.01482 
 Bq                    0.62879  -0.29189   0.62918 
 Bq                    0.94768  -0.07897  -0.07294 
 Bq                    0.58892  -0.31851   0.71694 
 Bq                    0.98754  -0.05235  -0.16071 
 Bq                    0.78823  -0.18543   0.27812 
 Bq                    0.73736  -0.11565   0.39012 
 Bq                    0.81709  -0.06242   0.21459 
 Bq                    0.6975   -0.14227   0.47788 
 Bq                    0.85695  -0.0358    0.12682 
 Bq                    0.65764  -0.16888   0.56564 
 Bq                    0.89681  -0.00919   0.03906 
 Bq                    0.61778  -0.1955    0.65341 
 Bq                    0.93667   0.01743  -0.04871 
 Bq                    0.57792  -0.22211   0.74117 
 Bq                    0.97653   0.04404  -0.13647 
 Bq                    0.77723  -0.08904   0.30235 
 Bq                    1.37874  -4.9353   -0.78019 
 Bq                    1.45846  -4.88207  -0.95572 
 Bq                    1.33887  -4.96192  -0.69243 
 Bq                    1.49832  -4.85545  -1.04349 
 Bq                    1.29901  -4.98853  -0.60466 
 Bq                    1.53818  -4.82884  -1.13125 
 Bq                    1.25915  -5.01515  -0.5169 
 Bq                    1.57805  -4.80222  -1.21902 
 Bq                    1.21929  -5.04176  -0.42913 
 Bq                    1.61791  -4.77561  -1.30678 
 Bq                    1.4186   -4.90868  -0.86796 
 Bq                    1.36773  -4.83891  -0.75596 
 Bq                    1.44745  -4.78568  -0.93149 
 Bq                    1.32787  -4.86552  -0.6682 
 Bq                    1.48732  -4.75906  -1.01925 
 Bq                    1.28801  -4.89214  -0.58043 
 Bq                    1.52718  -4.73244  -1.10702 
 Bq                    1.24814  -4.91875  -0.49267 
 Bq                    1.56704  -4.70583  -1.19478 
 Bq                    1.20828  -4.94537  -0.4049 
 Bq                    1.6069   -4.67921  -1.28255 
 Bq                    1.40759  -4.81229  -0.84373 
 Bq                    1.35672  -4.74251  -0.73173 
 Bq                    1.43645  -4.68928  -0.90726 
 Bq                    1.31686  -4.76913  -0.64396 
 Bq                    1.47631  -4.66267  -0.99502 
 Bq                    1.277    -4.79575  -0.5562 
 Bq                    1.51617  -4.63605  -1.08279 
 Bq                    1.23714  -4.82236  -0.46843 
 Bq                    1.55603  -4.60944  -1.17055 
 Bq                    1.19728  -4.84898  -0.38067 
 Bq                    1.59589  -4.58282  -1.25832 
 Bq                    1.39659  -4.7159   -0.81949 
 Bq                    1.34572  -4.64612  -0.70749 
 Bq                    1.42544  -4.59289  -0.88302 
 Bq                    1.30586  -4.67274  -0.61973 
 Bq                    1.4653   -4.56627  -0.97079 
 Bq                    1.26599  -4.69935  -0.53196 
 Bq                    1.50516  -4.53966  -1.05855 
 Bq                    1.22613  -4.72597  -0.4442 
 Bq                    1.54503  -4.51304  -1.14632 
 Bq                    1.18627  -4.75258  -0.35644 
 Bq                    1.58489  -4.48643  -1.23408 
 Bq                    1.38558  -4.61951  -0.79526 
 Bq                    1.33471  -4.54973  -0.68326 
 Bq                    1.41443  -4.4965   -0.85879 
 Bq                    1.29485  -4.57634  -0.5955 
 Bq                    1.4543   -4.46988  -0.94656 
 Bq                    1.25499  -4.60296  -0.50773 
 Bq                    1.49416  -4.44327  -1.03432 
 Bq                    1.21513  -4.62957  -0.41997 
 Bq                    1.53402  -4.41665  -1.12208 
 Bq                    1.17526  -4.65619  -0.3322 
 Bq                    1.57388  -4.39003  -1.20985 
 Bq                    1.37457  -4.52311  -0.77103 
 Bq                    1.3237   -4.45333  -0.65903 
 Bq                    1.40343  -4.4001   -0.83456 
 Bq                    1.28384  -4.47995  -0.57126 
 Bq                    1.44329  -4.37349  -0.92232 
 Bq                    1.24398  -4.50657  -0.4835 
 Bq                    1.48315  -4.34687  -1.01009 
 Bq                    1.20412  -4.53318  -0.39573 
 Bq                    1.52301  -4.32026  -1.09785 
 Bq                    1.16426  -4.5598   -0.30797 
 Bq                    1.56287  -4.29364  -1.18562 
 Bq                    1.36357  -4.42672  -0.74679 
 Bq                    1.3127   -4.35694  -0.63479 
 Bq                    1.39242  -4.30371  -0.81032 
 Bq                    1.27284  -4.38356  -0.54703 
 Bq                    1.43228  -4.2771   -0.89809 
 Bq                    1.23297  -4.41017  -0.45926 
 Bq                    1.47214  -4.25048  -0.98585 
 Bq                    1.19311  -4.43679  -0.3715 
 Bq                    1.51201  -4.22386  -1.07362 
 Bq                    1.15325  -4.4634   -0.28374 
 Bq                    1.55187  -4.19725  -1.16138 
 Bq                    1.35256  -4.33033  -0.72256 
 Bq                    1.30169  -4.26055  -0.61056 
 Bq                    1.38141  -4.20732  -0.78609 
 Bq                    1.26183  -4.28716  -0.5228 
 Bq                    1.42128  -4.1807   -0.87386 
 Bq                    1.22197  -4.31378  -0.43503 
 Bq                    1.46114  -4.15409  -0.96162 
 Bq                    1.18211  -4.3404   -0.34727 
 Bq                    1.501    -4.12747  -1.04938 
 Bq                    1.14224  -4.36701  -0.2595 
 Bq                    1.54086  -4.10086  -1.13715 
 Bq                    1.34155  -4.23393  -0.69833 
 Bq                    1.29068  -4.16416  -0.58633 
 Bq                    1.37041  -4.11092  -0.76186 
 Bq                    1.25082  -4.19077  -0.49856 
 Bq                    1.41027  -4.08431  -0.84962 
 Bq                    1.21096  -4.21739  -0.4108 
 Bq                    1.45013  -4.05769  -0.93739 
 Bq                    1.1711   -4.244    -0.32303 
 Bq                    1.48999  -4.03108  -1.02515 
 Bq                    1.13124  -4.27062  -0.23527 
 Bq                    1.52986  -4.00446  -1.11292 
 Bq                    1.33055  -4.13754  -0.67409 
 Bq                    1.27968  -4.06776  -0.56209 
 Bq                    1.3594   -4.01453  -0.73762 
 Bq                    1.23982  -4.09438  -0.47433 
 Bq                    1.39926  -3.98792  -0.82539 
 Bq                    1.19995  -4.12099  -0.38657 
 Bq                    1.43913  -3.9613   -0.91315 
 Bq                    1.16009  -4.14761  -0.2988 
 Bq                    1.47899  -3.93468  -1.00092 
 Bq                    1.12023  -4.17423  -0.21104 
 Bq                    1.51885  -3.90807  -1.08868 
 Bq                    1.31954  -4.04115  -0.64986 
 Bq                    1.26867  -3.97137  -0.53786 
 Bq                    1.3484   -3.91814  -0.71339 
 Bq                    1.22881  -3.99799  -0.4501 
 Bq                    1.38826  -3.89152  -0.80116 
 Bq                    1.18895  -4.0246   -0.36233 
 Bq                    1.42812  -3.86491  -0.88892 
 Bq                    1.14909  -4.05122  -0.27457 
 Bq                    1.46798  -3.83829  -0.97668 
 Bq                    1.10922  -4.07783  -0.1868 
 Bq                    1.50784  -3.81168  -1.06445 
 Bq                    1.30853  -3.94475  -0.62563 
 Bq                    1.25767  -3.87498  -0.51363 
 Bq                    1.33739  -3.82175  -0.68916 
 Bq                    1.2178   -3.90159  -0.42586 
 Bq                    1.37725  -3.79513  -0.77692 
 Bq                    1.17794  -3.92821  -0.3381 
 Bq                    1.41711  -3.76851  -0.86469 
 Bq                    1.13808  -3.95482  -0.25033 
 Bq                    1.45697  -3.7419   -0.95245 
 Bq                    1.09822  -3.98144  -0.16257 
 Bq                    1.49684  -3.71528  -1.04022 
 Bq                    1.29753  -3.84836  -0.60139 
 Bq                    1.24666  -3.77858  -0.48939 
 Bq                    1.32638  -3.72535  -0.66492 
 Bq                    1.2068   -3.8052   -0.40163 
 
 Symmetry turned off:
 Cannot cope with ghost atoms or with translation vectors.
 Stoichiometry    C22H14
 Framework group  C1[X(C22H14)]
 NUMDOF-- NAT=    36 NAtoms=   236
 Deg. of freedom     0
 Full point group                 C1      NOp   1
                          Input orientation:                          
 ---------------------------------------------------------------------
 Center     Atomic      Atomic             Coordinates (Angstroms)
 Number     Number       Type             X           Y           Z
 ---------------------------------------------------------------------
      1          6           0       -4.050056   -0.577186    0.813671
      2          1           0       -5.026380   -1.008273    1.002476
      3          6           0       -3.938155    0.661780    0.240088
      4          1           0       -4.825242    1.233889   -0.011130
      5          6           0       -2.676841    1.243325    0.005758
      6          6           0       -1.497412    0.505153    0.284825
      7          6           0       -1.650833   -0.733873    0.940403
      8          1           0       -0.771365   -1.273097    1.263375
      9          6           0       -2.889855   -1.262404    1.199431
     10          1           0       -2.968371   -2.212456    1.715268
     11          6           0       -2.577319    2.596370   -0.419293
     12          1           0       -3.487073    3.141224   -0.647406
     13          6           0       -1.374190    3.214790   -0.436403
     14          1           0       -1.299732    4.274202   -0.657814
     15          6           0       -0.171949    2.499409   -0.173459
     16          6           0       -0.204392    1.101844    0.019269
     17          6           0        1.051349    3.204256   -0.067622
     18          1           0        1.042734    4.281950   -0.189700
     19          6           0        2.194209    2.548745    0.257958
     20          1           0        3.116853    3.091285    0.433473
     21          6           0        2.221647    1.133656    0.293499
     22          6           0        1.048693    0.394553    0.030241
     23          6           0        3.448336    0.461463    0.557394
     24          1           0        4.309579    1.060605    0.833485
     25          6           0        3.542735   -0.885593    0.474946
     26          1           0        4.473147   -1.393970    0.703882
     27          6           0        2.449005   -1.647445   -0.019632
     28          6           0        1.215070   -1.005726   -0.301357
     29          6           0        0.253111   -1.743444   -1.021659
     30          1           0       -0.654136   -1.253505   -1.346285
     31          6           0        0.449419   -3.062860   -1.341378
     32          1           0       -0.308316   -3.594431   -1.905406
     33          6           0        1.625173   -3.720797   -0.955254
     34          1           0        1.767005   -4.768740   -1.192702
     35          6           0        2.610987   -3.014418   -0.318305
     36          1           0        3.552561   -3.490281   -0.064637
     37          0           0        0.872120   -0.544384    0.093420
     38          0           0        0.752535   -0.624231    0.356714
     39          0           0        0.911982   -0.517769    0.005655
     40          0           0        0.712673   -0.650847    0.444478
     41          0           0        0.951844   -0.491153   -0.082110
     42          0           0        0.672811   -0.677463    0.532243
     43          0           0        0.991705   -0.464537   -0.169875
     44          0           0        0.632949   -0.704078    0.620008
     45          0           0        1.031567   -0.437922   -0.257639
     46          0           0        0.832258   -0.571000    0.181184
     47          0           0        0.781390   -0.501223    0.293182
     48          0           0        0.861114   -0.447991    0.117653
     49          0           0        0.741528   -0.527838    0.380947
     50          0           0        0.900975   -0.421376    0.029888
     51          0           0        0.701667   -0.554454    0.468712
     52          0           0        0.940837   -0.394760   -0.057877
     53          0           0        0.661805   -0.581070    0.556476
     54          0           0        0.980699   -0.368144   -0.145641
     55          0           0        0.621943   -0.607685    0.644241
     56          0           0        1.020561   -0.341529   -0.233406
     57          0           0        0.821252   -0.474607    0.205418
     58          0           0        0.770384   -0.404830    0.317416
     59          0           0        0.850107   -0.351598    0.141886
     60          0           0        0.730522   -0.431445    0.405180
     61          0           0        0.889969   -0.324983    0.054121
     62          0           0        0.690660   -0.458061    0.492945
     63          0           0        0.929831   -0.298367   -0.033643
     64          0           0        0.650798   -0.484677    0.580710
     65          0           0        0.969692   -0.271751   -0.121408
     66          0           0        0.610937   -0.511292    0.668474
     67          0           0        1.009554   -0.245136   -0.209173
     68          0           0        0.810245   -0.378214    0.229651
     69          0           0        0.759377   -0.308437    0.341649
     70          0           0        0.839101   -0.255205    0.166119
     71          0           0        0.719515   -0.335052    0.429414
     72          0           0        0.878962   -0.228590    0.078355
     73          0           0        0.679654   -0.361668    0.517178
     74          0           0        0.918824   -0.201974   -0.009410
     75          0           0        0.639792   -0.388284    0.604943
     76          0           0        0.958686   -0.175358   -0.097175
     77          0           0        0.599930   -0.414899    0.692708
     78          0           0        0.998548   -0.148743   -0.184940
     79          0           0        0.799239   -0.281821    0.253884
     80          0           0        0.748371   -0.212044    0.365882
     81          0           0        0.828094   -0.158812    0.190353
     82          0           0        0.708509   -0.238659    0.453647
     83          0           0        0.867956   -0.132197    0.102588
     84          0           0        0.668647   -0.265275    0.541411
     85          0           0        0.907818   -0.105581    0.014823
     86          0           0        0.628785   -0.291891    0.629176
     87          0           0        0.947679   -0.078965   -0.072942
     88          0           0        0.588924   -0.318506    0.716941
     89          0           0        0.987541   -0.052350   -0.160706
     90          0           0        0.788232   -0.185428    0.278117
     91          0           0        0.737364   -0.115651    0.390115
     92          0           0        0.817088   -0.062419    0.214586
     93          0           0        0.697502   -0.142266    0.477880
     94          0           0        0.856949   -0.035804    0.126821
     95          0           0        0.657641   -0.168882    0.565645
     96          0           0        0.896811   -0.009188    0.039056
     97          0           0        0.617779   -0.195498    0.653409
     98          0           0        0.936673    0.017427   -0.048708
     99          0           0        0.577917   -0.222113    0.741174
    100          0           0        0.976535    0.044043   -0.136473
    101          0           0        0.777226   -0.089035    0.302351
    102          0           0        1.378737   -4.935300   -0.780194
    103          0           0        1.458460   -4.882069   -0.955723
    104          0           0        1.338875   -4.961916   -0.692429
    105          0           0        1.498322   -4.855453   -1.043488
    106          0           0        1.299013   -4.988531   -0.604664
    107          0           0        1.538184   -4.828837   -1.131253
    108          0           0        1.259151   -5.015147   -0.516900
    109          0           0        1.578046   -4.802222   -1.219017
    110          0           0        1.219290   -5.041763   -0.429135
    111          0           0        1.617907   -4.775606   -1.306782
    112          0           0        1.418598   -4.908684   -0.867959
    113          0           0        1.367730   -4.838907   -0.755961
    114          0           0        1.447454   -4.785676   -0.931490
    115          0           0        1.327868   -4.865523   -0.668196
    116          0           0        1.487316   -4.759060   -1.019255
    117          0           0        1.288007   -4.892138   -0.580431
    118          0           0        1.527177   -4.732444   -1.107019
    119          0           0        1.248145   -4.918754   -0.492666
    120          0           0        1.567039   -4.705829   -1.194784
    121          0           0        1.208283   -4.945370   -0.404902
    122          0           0        1.606901   -4.679213   -1.282549
    123          0           0        1.407592   -4.812291   -0.843725
    124          0           0        1.356724   -4.742514   -0.731727
    125          0           0        1.436447   -4.689283   -0.907257
    126          0           0        1.316862   -4.769130   -0.643963
    127          0           0        1.476309   -4.662667   -0.995022
    128          0           0        1.277000   -4.795745   -0.556198
    129          0           0        1.516171   -4.636051   -1.082786
    130          0           0        1.237138   -4.822361   -0.468433
    131          0           0        1.556033   -4.609436   -1.170551
    132          0           0        1.197277   -4.848977   -0.380668
    133          0           0        1.595894   -4.582820   -1.258316
    134          0           0        1.396586   -4.715898   -0.819492
    135          0           0        1.345717   -4.646121   -0.707494
    136          0           0        1.425441   -4.592890   -0.883024
    137          0           0        1.305856   -4.672737   -0.619729
    138          0           0        1.465303   -4.566274   -0.970788
    139          0           0        1.265994   -4.699352   -0.531965
    140          0           0        1.505164   -4.539658   -1.058553
    141          0           0        1.226132   -4.725968   -0.444200
    142          0           0        1.545026   -4.513043   -1.146318
    143          0           0        1.186270   -4.752584   -0.356435
    144          0           0        1.584888   -4.486427   -1.234082
    145          0           0        1.385579   -4.619505   -0.795259
    146          0           0        1.334711   -4.549728   -0.683261
    147          0           0        1.414434   -4.496497   -0.858790
    148          0           0        1.294849   -4.576344   -0.595496
    149          0           0        1.454296   -4.469881   -0.946555
    150          0           0        1.254987   -4.602959   -0.507731
    151          0           0        1.494158   -4.443265   -1.034320
    152          0           0        1.215126   -4.629575   -0.419967
    153          0           0        1.534020   -4.416650   -1.122084
    154          0           0        1.175264   -4.656191   -0.332202
    155          0           0        1.573881   -4.390034   -1.209849
    156          0           0        1.374573   -4.523112   -0.771026
    157          0           0        1.323704   -4.453335   -0.659028
    158          0           0        1.403428   -4.400104   -0.834557
    159          0           0        1.283843   -4.479951   -0.571263
    160          0           0        1.443290   -4.373488   -0.922322
    161          0           0        1.243981   -4.506566   -0.483498
    162          0           0        1.483151   -4.346872   -1.010086
    163          0           0        1.204119   -4.533182   -0.395733
    164          0           0        1.523013   -4.320257   -1.097851
    165          0           0        1.164257   -4.559798   -0.307969
    166          0           0        1.562875   -4.293641   -1.185616
    167          0           0        1.363566   -4.426719   -0.746792
    168          0           0        1.312698   -4.356942   -0.634794
    169          0           0        1.392421   -4.303711   -0.810324
    170          0           0        1.272836   -4.383558   -0.547030
    171          0           0        1.432283   -4.277095   -0.898089
    172          0           0        1.232974   -4.410173   -0.459265
    173          0           0        1.472145   -4.250479   -0.985853
    174          0           0        1.193113   -4.436789   -0.371500
    175          0           0        1.512007   -4.223864   -1.073618
    176          0           0        1.153251   -4.463405   -0.283735
    177          0           0        1.551868   -4.197248   -1.161383
    178          0           0        1.352560   -4.330326   -0.722559
    179          0           0        1.301691   -4.260549   -0.610561
    180          0           0        1.381415   -4.207318   -0.786091
    181          0           0        1.261830   -4.287165   -0.522796
    182          0           0        1.421277   -4.180702   -0.873855
    183          0           0        1.221968   -4.313780   -0.435032
    184          0           0        1.461138   -4.154086   -0.961620
    185          0           0        1.182106   -4.340396   -0.347267
    186          0           0        1.501000   -4.127471   -1.049385
    187          0           0        1.142244   -4.367012   -0.259502
    188          0           0        1.540862   -4.100855   -1.137149
    189          0           0        1.341553   -4.233933   -0.698326
    190          0           0        1.290685   -4.164156   -0.586328
    191          0           0        1.370408   -4.110925   -0.761857
    192          0           0        1.250823   -4.190772   -0.498563
    193          0           0        1.410270   -4.084309   -0.849622
    194          0           0        1.210961   -4.217387   -0.410798
    195          0           0        1.450132   -4.057693   -0.937387
    196          0           0        1.171100   -4.244003   -0.323034
    197          0           0        1.489994   -4.031078   -1.025151
    198          0           0        1.131238   -4.270619   -0.235269
    199          0           0        1.529856   -4.004462   -1.112916
    200          0           0        1.330547   -4.137540   -0.674093
    201          0           0        1.279678   -4.067763   -0.562095
    202          0           0        1.359402   -4.014532   -0.737624
    203          0           0        1.239817   -4.094379   -0.474330
    204          0           0        1.399264   -3.987916   -0.825389
    205          0           0        1.199955   -4.120994   -0.386565
    206          0           0        1.439126   -3.961300   -0.913153
    207          0           0        1.160093   -4.147610   -0.298800
    208          0           0        1.478987   -3.934685   -1.000918
    209          0           0        1.120231   -4.174226   -0.211036
    210          0           0        1.518849   -3.908069   -1.088683
    211          0           0        1.319540   -4.041147   -0.649859
    212          0           0        1.268672   -3.971370   -0.537861
    213          0           0        1.348396   -3.918139   -0.713391
    214          0           0        1.228810   -3.997986   -0.450097
    215          0           0        1.388257   -3.891523   -0.801156
    216          0           0        1.188948   -4.024601   -0.362332
    217          0           0        1.428119   -3.864907   -0.888920
    218          0           0        1.149087   -4.051217   -0.274567
    219          0           0        1.467981   -3.838292   -0.976685
    220          0           0        1.109225   -4.077833   -0.186802
    221          0           0        1.507843   -3.811676   -1.064450
    222          0           0        1.308534   -3.944754   -0.625626
    223          0           0        1.257666   -3.874977   -0.513628
    224          0           0        1.337389   -3.821746   -0.689158
    225          0           0        1.217804   -3.901593   -0.425863
    226          0           0        1.377251   -3.795130   -0.776922
    227          0           0        1.177942   -3.928208   -0.338099
    228          0           0        1.417113   -3.768514   -0.864687
    229          0           0        1.138080   -3.954824   -0.250334
    230          0           0        1.456974   -3.741899   -0.952452
    231          0           0        1.098218   -3.981440   -0.162569
    232          0           0        1.496836   -3.715283   -1.040216
    233          0           0        1.297527   -3.848361   -0.601393
    234          0           0        1.246659   -3.778584   -0.489395
    235          0           0        1.326383   -3.725353   -0.664924
    236          0           0        1.206797   -3.805200   -0.401630
 ---------------------------------------------------------------------
 Rotational constants (GHZ):      0.4529074      0.2836956      0.1879557
 Standard basis: 6-311+G(d,p) (5D, 7F)
 Warning:  center  37 has no basis functions!
 Warning:  center  38 has no basis functions!
 Warning:  center  39 has no basis functions!
 Warning:  center  40 has no basis functions!
 Warning:  center  41 has no basis functions!
 Warning:  center  42 has no basis functions!
 Warning:  center  43 has no basis functions!
 Warning:  center  44 has no basis functions!
 Warning:  center  45 has no basis functions!
 Warning:  center  46 has no basis functions!
 Warning:  center  47 has no basis functions!
 Warning:  center  48 has no basis functions!
 Warning:  center  49 has no basis functions!
 Warning:  center  50 has no basis functions!
 Warning:  center  51 has no basis functions!
 Warning:  center  52 has no basis functions!
 Warning:  center  53 has no basis functions!
 Warning:  center  54 has no basis functions!
 Warning:  center  55 has no basis functions!
 Warning:  center  56 has no basis functions!
 Warning:  center  57 has no basis functions!
 Warning:  center  58 has no basis functions!
 Warning:  center  59 has no basis functions!
 Warning:  center  60 has no basis functions!
 Warning:  center  61 has no basis functions!
 Warning:  center  62 has no basis functions!
 Warning:  center  63 has no basis functions!
 Warning:  center  64 has no basis functions!
 Warning:  center  65 has no basis functions!
 Warning:  center  66 has no basis functions!
 Warning:  center  67 has no basis functions!
 Warning:  center  68 has no basis functions!
 Warning:  center  69 has no basis functions!
 Warning:  center  70 has no basis functions!
 Warning:  center  71 has no basis functions!
 Warning:  center  72 has no basis functions!
 Warning:  center  73 has no basis functions!
 Warning:  center  74 has no basis functions!
 Warning:  center  75 has no basis functions!
 Warning:  center  76 has no basis functions!
 Warning:  center  77 has no basis functions!
 Warning:  center  78 has no basis functions!
 Warning:  center  79 has no basis functions!
 Warning:  center  80 has no basis functions!
 Warning:  center  81 has no basis functions!
 Warning:  center  82 has no basis functions!
 Warning:  center  83 has no basis functions!
 Warning:  center  84 has no basis functions!
 Warning:  center  85 has no basis functions!
 Warning:  center  86 has no basis functions!
 Warning:  center  87 has no basis functions!
 Warning:  center  88 has no basis functions!
 Warning:  center  89 has no basis functions!
 Warning:  center  90 has no basis functions!
 Warning:  center  91 has no basis functions!
 Warning:  center  92 has no basis functions!
 Warning:  center  93 has no basis functions!
 Warning:  center  94 has no basis functions!
 Warning:  center  95 has no basis functions!
 Warning:  center  96 has no basis functions!
 Warning:  center  97 has no basis functions!
 Warning:  center  98 has no basis functions!
 Warning:  center  99 has no basis functions!
 Warning:  center 100 has no basis functions!
 Warning:  center 101 has no basis functions!
 Warning:  center 102 has no basis functions!
 Warning:  center 103 has no basis functions!
 Warning:  center 104 has no basis functions!
 Warning:  center 105 has no basis functions!
 Warning:  center 106 has no basis functions!
 Warning:  center 107 has no basis functions!
 Warning:  center 108 has no basis functions!
 Warning:  center 109 has no basis functions!
 Warning:  center 110 has no basis functions!
 Warning:  center 111 has no basis functions!
 Warning:  center 112 has no basis functions!
 Warning:  center 113 has no basis functions!
 Warning:  center 114 has no basis functions!
 Warning:  center 115 has no basis functions!
 Warning:  center 116 has no basis functions!
 Warning:  center 117 has no basis functions!
 Warning:  center 118 has no basis functions!
 Warning:  center 119 has no basis functions!
 Warning:  center 120 has no basis functions!
 Warning:  center 121 has no basis functions!
 Warning:  center 122 has no basis functions!
 Warning:  center 123 has no basis functions!
 Warning:  center 124 has no basis functions!
 Warning:  center 125 has no basis functions!
 Warning:  center 126 has no basis functions!
 Warning:  center 127 has no basis functions!
 Warning:  center 128 has no basis functions!
 Warning:  center 129 has no basis functions!
 Warning:  center 130 has no basis functions!
 Warning:  center 131 has no basis functions!
 Warning:  center 132 has no basis functions!
 Warning:  center 133 has no basis functions!
 Warning:  center 134 has no basis functions!
 Warning:  center 135 has no basis functions!
 Warning:  center 136 has no basis functions!
 Warning:  center 137 has no basis functions!
 Warning:  center 138 has no basis functions!
 Warning:  center 139 has no basis functions!
 Warning:  center 140 has no basis functions!
 Warning:  center 141 has no basis functions!
 Warning:  center 142 has no basis functions!
 Warning:  center 143 has no basis functions!
 Warning:  center 144 has no basis functions!
 Warning:  center 145 has no basis functions!
 Warning:  center 146 has no basis functions!
 Warning:  center 147 has no basis functions!
 Warning:  center 148 has no basis functions!
 Warning:  center 149 has no basis functions!
 Warning:  center 150 has no basis functions!
 Warning:  center 151 has no basis functions!
 Warning:  center 152 has no basis functions!
 Warning:  center 153 has no basis functions!
 Warning:  center 154 has no basis functions!
 Warning:  center 155 has no basis functions!
 Warning:  center 156 has no basis functions!
 Warning:  center 157 has no basis functions!
 Warning:  center 158 has no basis functions!
 Warning:  center 159 has no basis functions!
 Warning:  center 160 has no basis functions!
 Warning:  center 161 has no basis functions!
 Warning:  center 162 has no basis functions!
 Warning:  center 163 has no basis functions!
 Warning:  center 164 has no basis functions!
 Warning:  center 165 has no basis functions!
 Warning:  center 166 has no basis functions!
 Warning:  center 167 has no basis functions!
 Warning:  center 168 has no basis functions!
 Warning:  center 169 has no basis functions!
 Warning:  center 170 has no basis functions!
 Warning:  center 171 has no basis functions!
 Warning:  center 172 has no basis functions!
 Warning:  center 173 has no basis functions!
 Warning:  center 174 has no basis functions!
 Warning:  center 175 has no basis functions!
 Warning:  center 176 has no basis functions!
 Warning:  center 177 has no basis functions!
 Warning:  center 178 has no basis functions!
 Warning:  center 179 has no basis functions!
 Warning:  center 180 has no basis functions!
 Warning:  center 181 has no basis functions!
 Warning:  center 182 has no basis functions!
 Warning:  center 183 has no basis functions!
 Warning:  center 184 has no basis functions!
 Warning:  center 185 has no basis functions!
 Warning:  center 186 has no basis functions!
 Warning:  center 187 has no basis functions!
 Warning:  center 188 has no basis functions!
 Warning:  center 189 has no basis functions!
 Warning:  center 190 has no basis functions!
 Warning:  center 191 has no basis functions!
 Warning:  center 192 has no basis functions!
 Warning:  center 193 has no basis functions!
 Warning:  center 194 has no basis functions!
 Warning:  center 195 has no basis functions!
 Warning:  center 196 has no basis functions!
 Warning:  center 197 has no basis functions!
 Warning:  center 198 has no basis functions!
 Warning:  center 199 has no basis functions!
 Warning:  center 200 has no basis functions!
 Warning:  center 201 has no basis functions!
 Warning:  center 202 has no basis functions!
 Warning:  center 203 has no basis functions!
 Warning:  center 204 has no basis functions!
 Warning:  center 205 has no basis functions!
 Warning:  center 206 has no basis functions!
 Warning:  center 207 has no basis functions!
 Warning:  center 208 has no basis functions!
 Warning:  center 209 has no basis functions!
 Warning:  center 210 has no basis functions!
 Warning:  center 211 has no basis functions!
 Warning:  center 212 has no basis functions!
 Warning:  center 213 has no basis functions!
 Warning:  center 214 has no basis functions!
 Warning:  center 215 has no basis functions!
 Warning:  center 216 has no basis functions!
 Warning:  center 217 has no basis functions!
 Warning:  center 218 has no basis functions!
 Warning:  center 219 has no basis functions!
 Warning:  center 220 has no basis functions!
 Warning:  center 221 has no basis functions!
 Warning:  center 222 has no basis functions!
 Warning:  center 223 has no basis functions!
 Warning:  center 224 has no basis functions!
 Warning:  center 225 has no basis functions!
 Warning:  center 226 has no basis functions!
 Warning:  center 227 has no basis functions!
 Warning:  center 228 has no basis functions!
 Warning:  center 229 has no basis functions!
 Warning:  center 230 has no basis functions!
 Warning:  center 231 has no basis functions!
 Warning:  center 232 has no basis functions!
 Warning:  center 233 has no basis functions!
 Warning:  center 234 has no basis functions!
 Warning:  center 235 has no basis functions!
 Warning:  center 236 has no basis functions!
   568 basis functions,   904 primitive gaussians,   590 cartesian basis functions
    73 alpha electrons       73 beta electrons
       nuclear repulsion energy      1610.9176155625 Hartrees.
 NAtoms=  236 NActive=  236 NUniq=  236 SFac= 1.00D+00 NAtFMM=   60 NAOKFM=T Big=T
 Integral buffers will be    131072 words long.
 Raffenetti 2 integral format.
 Two-electron integral symmetry is turned off.
 One-electron integrals computed using PRISM.
 NBasis=   568 RedAO= T EigKep=  1.78D-06  NBF=   568
 NBsUse=   556 1.00D-06 EigRej=  9.09D-07 NBFU=   556
 ExpMin= 4.38D-02 ExpMax= 4.56D+03 ExpMxC= 6.82D+02 IAcc=2 IRadAn=         4 AccDes= 0.00D+00
 Harris functional with IExCor=  402 and IRadAn=       4 diagonalized for initial guess.
 HarFok:  IExCor=  402 AccDes= 0.00D+00 IRadAn=         4 IDoV= 1 UseB2=F ITyADJ=14
 ICtDFT=  3500011 ScaDFX=  1.000000  1.000000  1.000000  1.000000
 FoFCou: FMM=F IPFlag=           0 FMFlag=      100000 FMFlg1=        2001
         NFxFlg=           0 DoJE=T BraDBF=F KetDBF=T FulRan=T
         wScrn=  0.000000 ICntrl=     500 IOpCl=  0 I1Cent=   200000004 NGrid=           0
         NMat0=    1 NMatS0=      1 NMatT0=    0 NMatD0=    1 NMtDS0=    0 NMtDT0=    0
 Symmetry not used in FoFCou.
 Requested convergence on RMS density matrix=1.00D-08 within 128 cycles.
 Requested convergence on MAX density matrix=1.00D-06.
 Requested convergence on             energy=1.00D-06.
 No special actions if energy rises.
 SCF Done:  E(RB3LYP) =  -847.003289848     A.U. after   15 cycles
            NFock= 15  Conv=0.75D-08     -V/T= 2.0040
 DoSCS=F DFT=T ScalE2(SS,OS)=  1.000000  1.000000
 Range of M.O.s used for correlation:     1   556
 NBasis=   568 NAE=    73 NBE=    73 NFC=     0 NFV=     0
 NROrb=    556 NOA=    73 NOB=    73 NVA=   483 NVB=   483

 **** Warning!!: The largest alpha MO coefficient is  0.10971037D+03

          Differentiating once with respect to magnetic field using GIAOs.
          Electric field/nuclear overlap derivatives assumed to be zero.
 FoFCou: FMM=F IPFlag=           0 FMFlag=      100000 FMFlg1=        2001
         NFxFlg=           0 DoJE=F BraDBF=F KetDBF=T FulRan=T
         wScrn=  0.000000 ICntrl=    6100 IOpCl=  0 I1Cent=           7 NGrid=         236
         NMat0=    1 NMatS0=      1 NMatT0=    0 NMatD0=    1 NMtDS0=    0 NMtDT0=    0
 Symmetry not used in FoFCou.
 FoFJK:  IHMeth= 1 ICntrl=    6127 DoSepK=F KAlg= 0 I1Cent=   0 FoldK=F
 IRaf=         1 NMat=   1 IRICut=       1 DoRegI=T DoRafI=F ISym2E= 0.
          There are     3 degrees of freedom in the 1st order CPHF.  IDoFFX=0 NUNeed=     3.
      3 vectors produced by pass  0 Test12= 1.18D-12 3.33D-08 XBig12= 2.07D+03 9.18D+00.
 AX will form     3 AO Fock derivatives at one time.
      3 vectors produced by pass  1 Test12= 1.18D-12 3.33D-08 XBig12= 3.56D+00 8.03D-01.
      3 vectors produced by pass  2 Test12= 1.18D-12 3.33D-08 XBig12= 2.10D-02 6.92D-02.
      3 vectors produced by pass  3 Test12= 1.18D-12 3.33D-08 XBig12= 5.45D-05 1.89D-03.
      3 vectors produced by pass  4 Test12= 1.18D-12 3.33D-08 XBig12= 1.20D-07 7.79D-05.
      3 vectors produced by pass  5 Test12= 1.18D-12 3.33D-08 XBig12= 4.02D-10 4.73D-06.
      3 vectors produced by pass  6 Test12= 1.18D-12 3.33D-08 XBig12= 1.32D-12 2.61D-07.
 InvSVY:  IOpt=1 It=  1 EMax= 2.84D-14
 Solved reduced A of dimension    21 with     3 vectors.
 Calculating GIAO nuclear magnetic shielding tensors.
 SCF GIAO Magnetic shielding tensor (ppm):
      1  C    Isotropic =    53.8139   Anisotropy =   178.0260
   XX=   -41.4327   YX=   -32.3458   ZX=    10.0287
   XY=   -28.3572   YY=    59.0527   ZY=    55.1899
   XZ=    13.1759   YZ=    58.7550   ZZ=   143.8218
   Eigenvalues:   -53.8775    42.8214   172.4979
      2  H    Isotropic =    24.3095   Anisotropy =     4.8536
   XX=    25.5771   YX=    -1.0289   ZX=     0.5661
   XY=    -0.7431   YY=    26.1829   ZY=    -2.3306
   XZ=    -0.1707   YZ=    -2.4411   ZZ=    21.1687
   Eigenvalues:    20.2108    25.1725    27.5453
      3  C    Isotropic =    51.4055   Anisotropy =   157.8639
   XX=   -31.5399   YX=    38.5015   ZX=   -17.9316
   XY=    34.3519   YY=    49.9437   ZY=    49.6392
   XZ=    -9.8383   YZ=    44.6006   ZZ=   135.8127
   Eigenvalues:   -50.5747    48.1432   156.6481
      4  H    Isotropic =    23.8290   Anisotropy =     7.1838
   XX=    25.3635   YX=     1.8486   ZX=    -0.3559
   XY=     1.9656   YY=    26.4581   ZY=    -2.4103
   XZ=    -1.2941   YZ=    -2.6614   ZZ=    19.6654
   Eigenvalues:    18.8176    24.0511    28.6182
      5  C    Isotropic =    46.0697   Anisotropy =   207.6751
   XX=   -19.2123   YX=    -4.8852   ZX=    -1.6475
   XY=     2.8938   YY=    -2.9860   ZY=    66.5656
   XZ=     2.5356   YZ=    67.9144   ZZ=   160.4073
   Eigenvalues:   -27.2455   -19.0652   184.5197
      6  C    Isotropic =    47.5218   Anisotropy =   196.9389
   XX=   -28.1552   YX=    -2.7889   ZX=    12.0660
   XY=   -14.3886   YY=    21.2063   ZY=    74.2521
   XZ=   -18.6356   YZ=    61.1113   ZZ=   149.5144
   Eigenvalues:   -30.2925    -5.9564   178.8144
      7  C    Isotropic =    49.3915   Anisotropy =   179.8333
   XX=   -12.5211   YX=    28.7048   ZX=   -24.6745
   XY=    31.5123   YY=    29.7000   ZY=    77.7459
   XZ=   -40.0095   YZ=    65.3072   ZZ=   130.9956
   Eigenvalues:   -52.1299    31.0240   169.2804
      8  H    Isotropic =    23.1586   Anisotropy =    13.5525
   XX=    28.5711   YX=     1.5482   ZX=    -3.6986
   XY=     3.2466   YY=    22.7592   ZY=    -2.1157
   XZ=    -8.3753   YZ=    -1.0821   ZZ=    18.1456
   Eigenvalues:    15.3521    21.9301    32.1936
      9  C    Isotropic =    55.1460   Anisotropy =   174.7426
   XX=    46.7071   YX=    -2.6162   ZX=    -2.8420
   XY=     0.6223   YY=    -1.6258   ZY=    92.8272
   XZ=     0.5159   YZ=    95.6598   ZZ=   120.3568
   Eigenvalues:   -52.8932    46.6901   171.6411
     10  H    Isotropic =    24.6278   Anisotropy =     7.1815
   XX=    29.1040   YX=     0.1399   ZX=    -0.3694
   XY=     0.3642   YY=    23.4778   ZY=    -1.0805
   XZ=    -2.4493   YZ=    -2.9465   ZZ=    21.3016
   Eigenvalues:    19.9703    24.4977    29.4155
     11  C    Isotropic =    51.5607   Anisotropy =   151.2142
   XX=     2.1639   YX=    40.9287   ZX=   -26.0048
   XY=    49.9131   YY=    12.2331   ZY=    42.1342
   XZ=   -15.6145   YZ=    38.6614   ZZ=   140.2851
   Eigenvalues:   -48.1951    50.5071   152.3701
     12  H    Isotropic =    23.8537   Anisotropy =     7.3815
   XX=    25.9672   YX=     2.3738   ZX=    -0.2390
   XY=     2.4320   YY=    26.3975   ZY=    -1.8291
   XZ=     0.3529   YZ=    -1.7731   ZZ=    19.1964
   Eigenvalues:    18.7149    24.0714    28.7747
     13  C    Isotropic =    52.8653   Anisotropy =   147.4265
   XX=    51.2944   YX=    19.9221   ZX=   -13.4678
   XY=    11.5478   YY=   -34.0176   ZY=    42.5079
   XZ=    -9.2241   YZ=    40.0716   ZZ=   141.3192
   Eigenvalues:   -46.5152    53.9616   151.1497
     14  H    Isotropic =    24.0156   Anisotropy =     7.3485
   XX=    28.6644   YX=     0.6281   ZX=     1.0808
   XY=     0.5926   YY=    24.4325   ZY=    -1.0823
   XZ=     1.6846   YZ=    -0.3842   ZZ=    18.9500
   Eigenvalues:    18.6430    24.4892    28.9146
     15  C    Isotropic =    46.2221   Anisotropy =   203.9048
   XX=   -27.2215   YX=    -0.0442   ZX=   -28.9124
   XY=     4.6427   YY=   -10.5571   ZY=    28.3830
   XZ=   -10.2704   YZ=    26.7376   ZZ=   176.4448
   Eigenvalues:   -30.5512   -12.9411   182.1586
     16  C    Isotropic =    51.9375   Anisotropy =   188.2004
   XX=   -19.4441   YX=     5.5046   ZX=    15.7858
   XY=    -8.3874   YY=     2.4863   ZY=    22.9264
   XZ=   -50.6243   YZ=    23.3340   ZZ=   172.7704
   Eigenvalues:   -21.0294    -0.5625   177.4045
     17  C    Isotropic =    51.9482   Anisotropy =   149.1264
   XX=    50.7296   YX=   -23.9353   ZX=   -18.4207
   XY=   -16.7271   YY=   -41.8764   ZY=    17.8662
   XZ=   -14.3278   YZ=    11.4871   ZZ=   146.9915
   Eigenvalues:   -46.7796    51.2584   151.3658
     18  H    Isotropic =    24.0122   Anisotropy =     7.5163
   XX=    28.5811   YX=    -0.0866   ZX=     1.5071
   XY=    -0.2466   YY=    24.3342   ZY=    -0.7657
   XZ=     2.5088   YZ=    -1.5208   ZZ=    19.1214
   Eigenvalues:    18.5094    24.5041    29.0231
     19  C    Isotropic =    51.7356   Anisotropy =   148.5924
   XX=     2.4559   YX=   -45.6913   ZX=   -31.2531
   XY=   -53.4448   YY=     7.4698   ZY=    -1.8888
   XZ=   -23.5601   YZ=    -1.2765   ZZ=   145.2810
   Eigenvalues:   -46.9894    51.3989   150.7972
     20  H    Isotropic =    23.9071   Anisotropy =     7.6651
   XX=    25.5796   YX=    -2.0226   ZX=     1.4905
   XY=    -1.9998   YY=    27.3706   ZY=    -0.5164
   XZ=     2.7276   YZ=    -1.1179   ZZ=    18.7711
   Eigenvalues:    18.1643    24.5398    29.0172
     21  C    Isotropic =    45.9767   Anisotropy =   203.9316
   XX=   -16.2108   YX=    13.1802   ZX=   -44.5913
   XY=     6.5714   YY=   -20.6329   ZY=     0.0949
   XZ=   -28.8984   YZ=   -13.0883   ZZ=   174.7736
   Eigenvalues:   -30.5796   -13.4215   181.9311
     22  C    Isotropic =    52.0450   Anisotropy =   188.1157
   XX=    -0.0787   YX=     2.5023   ZX=   -16.3451
   XY=    18.9327   YY=   -14.4798   ZY=   -34.4335
   XZ=   -50.6032   YZ=    19.9104   ZZ=   170.6934
   Eigenvalues:   -20.7705    -0.5500   177.4554
     23  C    Isotropic =    53.2392   Anisotropy =   146.7412
   XX=   -22.0674   YX=   -32.0012   ZX=   -49.4857
   XY=   -23.2043   YY=    44.3661   ZY=   -15.6400
   XZ=   -43.8090   YZ=   -20.2525   ZZ=   137.4189
   Eigenvalues:   -45.6776    54.3286   151.0667
     24  H    Isotropic =    23.8249   Anisotropy =     7.5289
   XX=    25.1073   YX=    -1.7330   ZX=     1.5380
   XY=    -1.5944   YY=    28.0047   ZY=     0.0879
   XZ=     1.2557   YZ=    -0.8283   ZZ=    18.3628
   Eigenvalues:    18.0848    24.5458    28.8442
     25  C    Isotropic =    51.4969   Anisotropy =   150.1066
   XX=   -28.4915   YX=    33.9684   ZX=   -52.3137
   XY=    22.0311   YY=    46.6072   ZY=    -3.8075
   XZ=   -44.5594   YZ=   -10.6355   ZZ=   136.3748
   Eigenvalues:   -48.3857    51.3083   151.5679
     26  H    Isotropic =    23.7431   Anisotropy =     7.4052
   XX=    24.0663   YX=     1.1141   ZX=     1.9989
   XY=     0.9693   YY=    28.1000   ZY=     1.6568
   XZ=     2.0795   YZ=     0.8886   ZZ=    19.0630
   Eigenvalues:    18.2615    24.2880    28.6799
     27  C    Isotropic =    45.8108   Anisotropy =   207.2710
   XX=    -2.7702   YX=    13.7697   ZX=   -61.4651
   XY=     6.5593   YY=   -12.0335   ZY=   -41.6456
   XZ=   -62.6381   YZ=   -44.9232   ZZ=   152.2361
   Eigenvalues:   -28.0803   -18.4787   183.9915
     28  C    Isotropic =    47.8398   Anisotropy =   197.2870
   XX=    19.6900   YX=    14.4398   ZX=   -60.5682
   XY=    28.5650   YY=   -19.3566   ZY=   -56.7015
   XZ=   -63.1331   YZ=   -24.4782   ZZ=   143.1859
   Eigenvalues:   -30.5979    -5.2472   179.3644
     29  C    Isotropic =    49.3441   Anisotropy =   179.7793
   XX=    -3.4110   YX=    38.3775   ZX=   -80.8875
   XY=    36.1252   YY=    25.9805   ZY=   -23.7573
   XZ=   -78.1065   YZ=    -3.9802   ZZ=   125.4627
   Eigenvalues:   -51.6645    30.4997   169.1970
     30  H    Isotropic =    23.1387   Anisotropy =    13.3222
   XX=    22.4354   YX=    -0.7013   ZX=    -0.2375
   XY=    -2.1539   YY=    28.3546   ZY=     4.5555
   XZ=    -3.4181   YZ=     8.3231   ZZ=    18.6259
   Eigenvalues:    15.2751    22.1208    32.0201
     31  C    Isotropic =    55.4410   Anisotropy =   174.9390
   XX=    17.1871   YX=   -14.0890   ZX=   -84.0024
   XY=   -17.9030   YY=    37.4745   ZY=   -50.3662
   XZ=   -84.6557   YZ=   -54.8325   ZZ=   111.6615
   Eigenvalues:   -51.9248    46.1808   172.0670
     32  H    Isotropic =    24.5337   Anisotropy =     7.2554
   XX=    24.6185   YX=    -2.5264   ZX=     0.7632
   XY=    -2.7385   YY=    27.4630   ZY=     1.0335
   XZ=     1.1913   YZ=     3.7573   ZZ=    21.5194
   Eigenvalues:    19.8987    24.3316    29.3706
     33  C    Isotropic =    53.1814   Anisotropy =   179.0596
   XX=    60.9231   YX=    35.2256   ZX=   -42.9515
   XY=    32.0226   YY=   -38.1801   ZY=   -45.5652
   XZ=   -44.2248   YZ=   -50.7831   ZZ=   136.8014
   Eigenvalues:   -55.1197    42.1095   172.5545
     34  H    Isotropic =    24.2825   Anisotropy =     5.1861
   XX=    26.7643   YX=    -0.0934   ZX=     2.5955
   XY=    -0.2993   YY=    24.8157   ZY=     0.8589
   XZ=     2.3715   YZ=     1.4580   ZZ=    21.2676
   Eigenvalues:    20.0339    25.0737    27.7399
     35  C    Isotropic =    51.5295   Anisotropy =   155.1748
   XX=    -0.5131   YX=    52.5760   ZX=   -52.1551
   XY=    55.6135   YY=    25.1843   ZY=   -14.2643
   XZ=   -45.7255   YZ=   -17.1625   ZZ=   129.9171
   Eigenvalues:   -48.3147    47.9237   154.9793
     36  H    Isotropic =    23.8384   Anisotropy =     7.3073
   XX=    24.2302   YX=     1.4459   ZX=     2.1759
   XY=     1.2147   YY=    27.1572   ZY=     2.0665
   XZ=     1.6853   YZ=     2.7775   ZZ=    20.1277
   Eigenvalues:    18.9464    23.8588    28.7099
     37  Bq   Isotropic =    19.1371   Anisotropy =    16.4170
   XX=    28.0598   YX=     2.9103   ZX=     1.9832
   XY=     8.2596   YY=     9.9161   ZY=   -12.4614
   XZ=    -2.0640   YZ=    -1.5210   ZZ=    19.4353
   Eigenvalues:     5.1444    22.1850    30.0818
     38  Bq   Isotropic =    11.7737   Anisotropy =    16.7777
   XX=    20.3018   YX=    -2.1788   ZX=    -0.6603
   XY=     4.0099   YY=     9.9506   ZY=    -6.7529
   XZ=   -12.4478   YZ=     1.9158   ZZ=     5.0688
   Eigenvalues:     2.1417    10.2206    22.9588
     39  Bq   Isotropic =    20.6289   Anisotropy =    18.5176
   XX=    29.8984   YX=     5.6870   ZX=     1.7890
   XY=     9.9145   YY=     6.9590   ZY=   -13.7623
   XZ=    -0.6060   YZ=    -3.2072   ZZ=    25.0295
   Eigenvalues:     1.6124    27.3005    32.9740
     40  Bq   Isotropic =     9.2422   Anisotropy =    18.3247
   XX=    17.5680   YX=    -2.7270   ZX=    -1.8094
   XY=     3.2897   YY=     8.0477   ZY=    -5.5751
   XZ=   -15.3456   YZ=     1.9730   ZZ=     2.1110
   Eigenvalues:    -1.9419     8.2098    21.4587
     41  Bq   Isotropic =    21.4978   Anisotropy =    22.1488
   XX=    31.4108   YX=     8.4492   ZX=     0.9158
   XY=    11.0004   YY=     3.2361   ZY=   -13.5682
   XZ=    -1.2754   YZ=    -4.3440   ZZ=    29.8464
   Eigenvalues:    -2.0722    30.3019    36.2636
     42  Bq   Isotropic =     7.0186   Anisotropy =    19.7465
   XX=    15.1026   YX=    -2.9100   ZX=    -2.7968
   XY=     2.8534   YY=     5.9271   ZY=    -4.8336
   XZ=   -17.3574   YZ=     1.6227   ZZ=     0.0261
   Eigenvalues:    -5.2089     6.0818    20.1830
     43  Bq   Isotropic =    22.0207   Anisotropy =    26.1037
   XX=    32.7377   YX=    10.5899   ZX=    -0.3188
   XY=    11.0170   YY=     0.2070   ZY=   -11.4741
   XZ=    -3.6580   YZ=    -4.4006   ZZ=    33.1174
   Eigenvalues:    -4.3851    31.0240    39.4231
     44  Bq   Isotropic =     5.1760   Anisotropy =    20.7668
   XX=    13.0088   YX=    -2.8565   ZX=    -3.5636
   XY=     2.6202   YY=     3.8698   ZY=    -4.4193
   XZ=   -18.4900   YZ=     1.0151   ZZ=    -1.3507
   Eigenvalues:    -7.5408     4.0482    19.0205
     45  Bq   Isotropic =    22.5169   Anisotropy =    28.0140
   XX=    33.7257   YX=    11.6202   ZX=    -1.4226
   XY=     9.7744   YY=    -0.6576   ZY=    -7.8722
   XZ=    -6.3738   YZ=    -3.2315   ZZ=    34.4825
   Eigenvalues:    -4.1933    30.5510    41.1929
     46  Bq   Isotropic =    17.0039   Anisotropy =    15.4746
   XX=    25.7768   YX=     0.5750   ZX=     1.4873
   XY=     6.5435   YY=    11.3416   ZY=   -10.4483
   XZ=    -5.1287   YZ=     0.1207   ZZ=    13.8933
   Eigenvalues:     7.1364    16.5550    27.3203
     47  Bq   Isotropic =    14.1519   Anisotropy =    16.3860
   XX=    23.8974   YX=    -2.4378   ZX=     0.0569
   XY=     2.7149   YY=     9.8162   ZY=    -6.0400
   XZ=    -8.6253   YZ=     0.2391   ZZ=     8.7422
   Eigenvalues:     5.7227    11.6571    25.0759
     48  Bq   Isotropic =    19.8509   Anisotropy =    16.2208
   XX=    30.3751   YX=     0.0236   ZX=     1.1640
   XY=     4.0130   YY=     9.1838   ZY=    -8.8127
   XZ=    -2.0848   YZ=    -1.9514   ZZ=    19.9939
   Eigenvalues:     6.8394    22.0486    30.6648
     49  Bq   Isotropic =    11.2840   Anisotropy =    17.4479
   XX=    20.6300   YX=    -2.9600   ZX=    -0.8596
   XY=     2.3749   YY=     8.7596   ZY=    -5.0655
   XZ=   -12.0825   YZ=     0.6416   ZZ=     4.4625
   Eigenvalues:     1.5308     9.4054    22.9160
     50  Bq   Isotropic =    22.1840   Anisotropy =    17.2350
   XX=    33.1610   YX=     1.9445   ZX=     1.0893
   XY=     4.8515   YY=     7.4803   ZY=   -10.1070
   XZ=    -0.6615   YZ=    -3.3683   ZZ=    25.9109
   Eigenvalues:     4.8950    27.9831    33.6741
     51  Bq   Isotropic =     8.6837   Anisotropy =    18.6766
   XX=    17.6210   YX=    -3.1336   ZX=    -1.7914
   XY=     2.2121   YY=     7.1609   ZY=    -4.4391
   XZ=   -14.8975   YZ=     0.6015   ZZ=     1.2691
   Eigenvalues:    -2.6250     7.5413    21.1348
     52  Bq   Isotropic =    23.9462   Anisotropy =    19.1863
   XX=    35.4446   YX=     4.0661   ZX=     0.6468
   XY=     5.5777   YY=     5.5142   ZY=   -10.7896
   XZ=    -1.2501   YZ=    -4.4610   ZZ=    30.8797
   Eigenvalues:     2.7590    32.3425    36.7370
     53  Bq   Isotropic =     6.4639   Anisotropy =    19.7485
   XX=    15.0036   YX=    -3.0705   ZX=    -2.6196
   XY=     2.1773   YY=     5.3312   ZY=    -4.0992
   XZ=   -16.8586   YZ=     0.2327   ZZ=    -0.9430
   Eigenvalues:    -5.8914     5.6535    19.6296
     54  Bq   Isotropic =    25.1300   Anisotropy =    22.4516
   XX=    37.0722   YX=     6.0176   ZX=     0.0910
   XY=     5.9377   YY=     4.2085   ZY=   -10.5236
   XZ=    -3.4907   YZ=    -4.7778   ZZ=    34.1092
   Eigenvalues:     1.5338    33.7584    40.0977
     55  Bq   Isotropic =     4.6634   Anisotropy =    20.5018
   XX=    12.8363   YX=    -2.8627   ZX=    -3.2807
   XY=     2.2268   YY=     3.5090   ZY=    -3.9588
   XZ=   -17.9605   YZ=    -0.3401   ZZ=    -2.3550
   Eigenvalues:    -8.1791     3.8381    18.3313
     56  Bq   Isotropic =    25.7984   Anisotropy =    24.6297
   XX=    37.7412   YX=     7.4239   ZX=    -0.2918
   XY=     5.7378   YY=     4.3633   ZY=    -9.2846
   XZ=    -6.1362   YZ=    -4.0887   ZZ=    35.2906
   Eigenvalues:     2.0245    33.1524    42.2182
     57  Bq   Isotropic =    17.0921   Anisotropy =    15.8997
   XX=    27.2222   YX=    -1.4605   ZX=     0.7895
   XY=     3.2662   YY=    10.0155   ZY=    -7.3440
   XZ=    -5.0290   YZ=    -0.6550   ZZ=    14.0387
   Eigenvalues:     7.5441    16.0403    27.6920
     58  Bq   Isotropic =    13.6761   Anisotropy =    17.3774
   XX=    24.0056   YX=    -4.1139   ZX=     0.0283
   XY=     0.2521   YY=     8.6740   ZY=    -3.4346
   XZ=    -8.7900   YZ=    -0.6295   ZZ=     8.3488
   Eigenvalues:     5.3458    10.4215    25.2611
     59  Bq   Isotropic =    19.4579   Anisotropy =    17.2595
   XX=    30.8015   YX=    -3.2500   ZX=     0.7857
   XY=    -0.1128   YY=     7.4893   ZY=    -5.2582
   XZ=    -2.6368   YZ=    -2.1524   ZZ=    20.0829
   Eigenvalues:     6.3377    21.0717    30.9642
     60  Bq   Isotropic =    10.8162   Anisotropy =    18.0549
   XX=    20.6208   YX=    -4.0084   ZX=    -0.7312
   XY=     0.6391   YY=     7.9521   ZY=    -3.1448
   XZ=   -12.0560   YZ=    -0.4978   ZZ=     3.8756
   Eigenvalues:     0.9734     8.6223    22.8528
     61  Bq   Isotropic =    21.8899   Anisotropy =    17.7974
   XX=    33.7166   YX=    -2.0418   ZX=     0.6238
   XY=     0.1219   YY=     5.7953   ZY=    -6.8695
   XZ=    -1.3506   YZ=    -3.3753   ZZ=    26.1577
   Eigenvalues:     4.5438    27.3710    33.7548
     62  Bq   Isotropic =     8.2441   Anisotropy =    18.8616
   XX=    17.5347   YX=    -3.7188   ZX=    -1.5466
   XY=     1.0496   YY=     6.6390   ZY=    -3.1159
   XZ=   -14.7094   YZ=    -0.7113   ZZ=     0.5587
   Eigenvalues:    -3.2296     7.1434    20.8185
     63  Bq   Isotropic =    23.7818   Anisotropy =    18.7293
   XX=    36.0402   YX=    -0.3106   ZX=     0.2439
   XY=     0.7065   YY=     4.1697   ZY=    -8.7351
   XZ=    -2.0094   YZ=    -4.5194   ZZ=    31.1356
   Eigenvalues:     2.6290    32.4485    36.2680
     64  Bq   Isotropic =     6.0639   Anisotropy =    19.6021
   XX=    14.8729   YX=    -3.3385   ZX=    -2.2979
   XY=     1.4407   YY=     5.0280   ZY=    -3.2365
   XZ=   -16.5447   YZ=    -1.1610   ZZ=    -1.7093
   Eigenvalues:    -6.4670     5.5266    19.1319
     65  Bq   Isotropic =    25.1126   Anisotropy =    21.5059
   XX=    37.5904   YX=     1.7263   ZX=    -0.0647
   XY=     1.5340   YY=     3.5290   ZY=   -10.4370
   XZ=    -4.2565   YZ=    -5.1494   ZZ=    34.2185
   Eigenvalues:     1.6307    34.2574    39.4499
     66  Bq   Isotropic =     4.3072   Anisotropy =    20.1477
   XX=    12.6831   YX=    -2.9266   ZX=    -2.9139
   XY=     1.7948   YY=     3.3608   ZY=    -3.4221
   XZ=   -17.5549   YZ=    -1.7411   ZZ=    -3.1223
   Eigenvalues:    -8.6970     3.8797    17.7390
     67  Bq   Isotropic =    25.9299   Anisotropy =    23.8539
   XX=    38.0878   YX=     3.6891   ZX=    -0.0552
   XY=     2.3435   YY=     4.5243   ZY=   -11.4706
   XZ=    -6.8679   YZ=    -4.9084   ZZ=    35.1775
   Eigenvalues:     2.3503    33.6069    41.8325
     68  Bq   Isotropic =    16.6388   Anisotropy =    17.0662
   XX=    27.4838   YX=    -3.9079   ZX=     0.5785
   XY=    -0.0342   YY=     8.5444   ZY=    -4.1083
   XZ=    -5.3960   YZ=    -1.1842   ZZ=    13.8882
   Eigenvalues:     7.0829    14.8173    28.0163
     69  Bq   Isotropic =    13.0093   Anisotropy =    18.4852
   XX=    23.3919   YX=    -6.0145   ZX=     0.5242
   XY=    -2.1869   YY=     7.8726   ZY=    -0.7515
   XZ=    -9.2845   YZ=    -1.3150   ZZ=     7.7634
   Eigenvalues:     4.8425     8.8526    25.3328
     70  Bq   Isotropic =    17.9309   Anisotropy =    18.9660
   XX=    29.2858   YX=    -6.9087   ZX=     0.9502
   XY=    -4.2365   YY=     4.8479   ZY=    -1.7128
   XZ=    -3.6533   YZ=    -2.0880   ZZ=    19.6590
   Eigenvalues:     3.3546    19.8632    30.5748
     71  Bq   Isotropic =    10.3659   Anisotropy =    18.5402
   XX=    20.2341   YX=    -5.1995   ZX=    -0.1988
   XY=    -1.0674   YY=     7.6096   ZY=    -1.1688
   XZ=   -12.3018   YZ=    -1.5256   ZZ=     3.2539
   Eigenvalues:     0.4576     7.9140    22.7260
     72  Bq   Isotropic =    19.7140   Anisotropy =    19.2448
   XX=    31.5208   YX=    -6.4210   ZX=     0.4716
   XY=    -4.6036   YY=     1.8665   ZY=    -3.8269
   XZ=    -2.6365   YZ=    -3.1429   ZZ=    25.7547
   Eigenvalues:     0.3584    26.2397    32.5439
     73  Bq   Isotropic =     7.9242   Anisotropy =    18.8195
   XX=    17.2819   YX=    -4.3852   ZX=    -1.0201
   XY=    -0.0837   YY=     6.5484   ZY=    -1.7655
   XZ=   -14.7311   YZ=    -1.9775   ZZ=    -0.0578
   Eigenvalues:    -3.7386     7.0406    20.4705
     74  Bq   Isotropic =    20.9694   Anisotropy =    19.9052
   XX=    33.1549   YX=    -4.9878   ZX=    -0.2393
   XY=    -4.1312   YY=    -0.8675   ZY=    -7.1692
   XZ=    -3.5548   YZ=    -4.3986   ZZ=    30.6210
   Eigenvalues:    -2.5479    31.2167    34.2396
     75  Bq   Isotropic =     5.8217   Anisotropy =    19.2438
   XX=    14.6951   YX=    -3.6469   ZX=    -1.7962
   XY=     0.7288   YY=     5.0635   ZY=    -2.3695
   XZ=   -16.3822   YZ=    -2.5571   ZZ=    -2.2934
   Eigenvalues:    -6.9136     5.7279    18.6510
     76  Bq   Isotropic =    21.9324   Anisotropy =    23.5374
   XX=    34.2306   YX=    -2.6792   ZX=    -0.7364
   XY=    -2.7758   YY=    -1.8941   ZY=   -11.1539
   XZ=    -5.9889   YZ=    -5.3916   ZZ=    33.4608
   Eigenvalues:    -4.0363    32.2095    37.6241
     77  Bq   Isotropic =     4.1116   Anisotropy =    19.6588
   XX=    12.5425   YX=    -3.0068   ZX=    -2.4431
   XY=     1.3810   YY=     3.4523   ZY=    -2.8958
   XZ=   -17.2546   YZ=    -3.1757   ZZ=    -3.6600
   Eigenvalues:    -9.0753     4.1927    17.2174
     78  Bq   Isotropic =    22.8764   Anisotropy =    26.1479
   XX=    34.6686   YX=     0.0476   ZX=    -0.6347
   XY=    -0.8931   YY=    -0.1998   ZY=   -14.6319
   XZ=    -8.6132   YZ=    -5.5956   ZZ=    34.1603
   Eigenvalues:    -3.0265    31.3473    40.3083
     79  Bq   Isotropic =    15.6245   Anisotropy =    18.6517
   XX=    26.5048   YX=    -6.6702   ZX=     0.9616
   XY=    -3.3218   YY=     6.9884   ZY=    -0.8034
   XZ=    -6.1492   YZ=    -1.4711   ZZ=    13.3802
   Eigenvalues:     5.4048    13.4097    28.0589
     80  Bq   Isotropic =    12.2215   Anisotropy =    19.4188
   XX=    22.0172   YX=    -7.9510   ZX=     1.6209
   XY=    -4.4390   YY=     7.6205   ZY=     1.7973
   XZ=   -10.0035   YZ=    -1.8633   ZZ=     7.0269
   Eigenvalues:     4.2306     7.2665    25.1674
     81  Bq   Isotropic =    15.2046   Anisotropy =    20.8342
   XX=    25.4574   YX=   -10.8973   ZX=     1.8221
   XY=    -8.3614   YY=     1.5761   ZY=     1.8558
   XZ=    -5.1157   YZ=    -1.6905   ZZ=    18.5803
   Eigenvalues:    -1.8338    18.3534    29.0941
     82  Bq   Isotropic =     9.9950   Anisotropy =    18.7288
   XX=    19.4737   YX=    -6.3646   ZX=     0.7747
   XY=    -2.5860   YY=     7.8538   ZY=     0.6410
   XZ=   -12.7208   YZ=    -2.4928   ZZ=     2.6575
   Eigenvalues:     0.0406     7.4635    22.4809
     83  Bq   Isotropic =    15.3696   Anisotropy =    21.1563
   XX=    25.8512   YX=   -11.3155   ZX=     0.7884
   XY=    -9.5189   YY=    -4.1085   ZY=    -0.7653
   XZ=    -4.6052   YZ=    -2.4965   ZZ=    24.3662
   Eigenvalues:    -7.5167    24.1518    29.4738
     84  Bq   Isotropic =     7.7666   Anisotropy =    18.4405
   XX=    16.8759   YX=    -5.0032   ZX=    -0.2001
   XY=    -1.0586   YY=     6.9468   ZY=    -0.5772
   XZ=   -14.8850   YZ=    -3.2350   ZZ=    -0.5228
   Eigenvalues:    -4.0847     7.3243    20.0603
     85  Bq   Isotropic =    14.9057   Anisotropy =    24.1604
   XX=    25.6325   YX=   -10.2730   ZX=    -0.7313
   XY=    -9.3252   YY=    -9.6744   ZY=    -5.8001
   XZ=    -6.0959   YZ=    -3.8031   ZZ=    28.7590
   Eigenvalues:   -12.9401    26.6445    31.0126
     86  Bq   Isotropic =     5.7629   Anisotropy =    18.6133
   XX=    14.4812   YX=    -3.9067   ZX=    -1.1163
   XY=     0.1357   YY=     5.4555   ZY=    -1.6404
   XZ=   -16.3178   YZ=    -3.9749   ZZ=    -2.6479
   Eigenvalues:    -7.1766     6.2937    18.1718
     87  Bq   Isotropic =    14.7122   Anisotropy =    30.0782
   XX=    25.4898   YX=    -7.6012   ZX=    -1.9781
   XY=    -7.4811   YY=   -12.4177   ZY=   -12.4834
   XZ=    -8.9904   YZ=    -5.0955   ZZ=    31.0647
   Eigenvalues:   -15.8669    25.2393    34.7644
     88  Bq   Isotropic =     4.0898   Anisotropy =    19.0177
   XX=    12.4213   YX=    -3.0478   ZX=    -1.8759
   XY=     1.0476   YY=     3.7794   ZY=    -2.4769
   XZ=   -17.0266   YZ=    -4.6469   ZZ=    -3.9311
   Eigenvalues:    -9.2763     4.7775    16.7683
     89  Bq   Isotropic =    15.7163   Anisotropy =    32.8401
   XX=    25.9299   YX=    -3.8691   ZX=    -2.1649
   XY=    -4.4136   YY=   -10.2307   ZY=   -18.7584
   XZ=   -11.6792   YZ=    -5.6866   ZZ=    31.4498
   Eigenvalues:   -14.4011    23.9403    37.6097
     90  Bq   Isotropic =    14.0902   Anisotropy =    20.2266
   XX=    24.1348   YX=    -9.5870   ZX=     2.0643
   XY=    -6.4794   YY=     5.6409   ZY=     2.4409
   XZ=    -7.2058   YZ=    -1.5244   ZZ=    12.4949
   Eigenvalues:     2.6158    12.0802    27.5746
     91  Bq   Isotropic =    11.4917   Anisotropy =    19.7169
   XX=    19.9300   YX=    -9.6091   ZX=     3.3373
   XY=    -6.1852   YY=     8.2074   ZY=     3.8140
   XZ=   -10.7898   YZ=    -2.3523   ZZ=     6.3378
   Eigenvalues:     3.7043     6.1345    24.6363
     92  Bq   Isotropic =    11.3652   Anisotropy =    22.2422
   XX=    18.8926   YX=   -14.8602   ZX=     3.6218
   XY=   -12.0537   YY=    -1.5661   ZY=     5.1214
   XZ=    -6.9712   YZ=    -0.9581   ZZ=    16.7692
   Eigenvalues:    -8.2908    16.1931    26.1933
     93  Bq   Isotropic =     9.8325   Anisotropy =    18.3258
   XX=    18.4154   YX=    -7.2702   ZX=     2.1596
   XY=    -3.6848   YY=     8.7991   ZY=     1.9663
   XZ=   -13.1762   YZ=    -3.4650   ZZ=     2.2830
   Eigenvalues:    -0.1263     7.5740    22.0497
     94  Bq   Isotropic =     8.5937   Anisotropy =    24.3211
   XX=    15.6171   YX=   -16.4806   ZX=     1.8498
   XY=   -14.2389   YY=   -11.3577   ZY=     2.2108
   XZ=    -7.3827   YZ=    -1.3086   ZZ=    21.5217
   Eigenvalues:   -18.3247    19.2980    24.8078
     95  Bq   Isotropic =     7.8508   Anisotropy =    17.5613
   XX=    16.3786   YX=    -5.4143   ZX=     0.8666
   XY=    -1.7166   YY=     7.8487   ZY=     0.2201
   XZ=   -15.0681   YZ=    -4.5257   ZZ=    -0.6749
   Eigenvalues:    -4.1409     8.1349    19.5583
     96  Bq   Isotropic =     4.6940   Anisotropy =    32.9225
   XX=    11.4059   YX=   -16.0711   ZX=    -1.0528
   XY=   -14.6077   YY=   -21.8244   ZY=    -4.4598
   XZ=    -9.9923   YZ=    -2.3575   ZZ=    24.5005
   Eigenvalues:   -28.3347    15.7744    26.6423
     97  Bq   Isotropic =     5.9300   Anisotropy =    17.6601
   XX=    14.2702   YX=    -4.0175   ZX=    -0.3047
   XY=    -0.2359   YY=     6.1733   ZY=    -1.2016
   XZ=   -16.2817   YZ=    -5.4334   ZZ=    -2.6535
   Eigenvalues:    -7.1673     7.2539    17.7034
     98  Bq   Isotropic =     1.9244   Anisotropy =    41.2457
   XX=     8.4109   YX=   -13.0520   ZX=    -3.8346
   XY=   -12.4596   YY=   -28.1438   ZY=   -13.9985
   XZ=   -13.7666   YZ=    -3.4463   ZZ=    25.5060
   Eigenvalues:   -34.1917    10.5433    29.4215
     99  Bq   Isotropic =     4.2618   Anisotropy =    18.2482
   XX=    12.3402   YX=    -2.9898   ZX=    -1.2512
   XY=     0.8576   YY=     4.2976   ZY=    -2.2604
   XZ=   -16.8268   YZ=    -6.1565   ZZ=    -3.8524
   Eigenvalues:    -9.2441     5.6022    16.4273
    100  Bq   Isotropic =     2.7927   Anisotropy =    44.1799
   XX=     8.7512   YX=    -8.1330   ZX=    -4.8973
   XY=    -8.2376   YY=   -25.9824   ZY=   -23.2019
   XZ=   -16.5187   YZ=    -3.9833   ZZ=    25.6093
   Eigenvalues:   -32.1293     8.2615    32.2460
    101  Bq   Isotropic =    12.2280   Anisotropy =    21.1682
   XX=    20.2903   YX=   -12.2877   ZX=     3.9953
   XY=    -9.1072   YY=     5.0364   ZY=     5.2045
   XZ=    -8.4268   YZ=    -1.4052   ZZ=    11.3574
   Eigenvalues:    -0.5139    10.8579    26.3401
    102  Bq   Isotropic =     6.8992   Anisotropy =    12.1755
   XX=     7.7018   YX=     5.5941   ZX=     0.0190
   XY=     1.1311   YY=    12.0524   ZY=    -0.4209
   XZ=    -1.2108   YZ=    -7.9497   ZZ=     0.9434
   Eigenvalues:    -0.4910     6.1725    15.0162
    103  Bq   Isotropic =    11.6259   Anisotropy =    10.6728
   XX=    13.9591   YX=     5.7349   ZX=     1.1012
   XY=     0.9918   YY=    15.8567   ZY=     0.3370
   XZ=    -0.3432   YZ=    -6.1926   ZZ=     5.0619
   Eigenvalues:     4.1603    11.9763    18.7411
    104  Bq   Isotropic =     5.1542   Anisotropy =    12.6173
   XX=     5.3383   YX=     5.3930   ZX=    -0.2424
   XY=     1.1441   YY=    10.5803   ZY=    -0.7426
   XZ=    -1.3357   YZ=    -8.3310   ZZ=    -0.4561
   Eigenvalues:    -2.1011     3.9979    13.5657
    105  Bq   Isotropic =    14.3957   Anisotropy =     9.7628
   XX=    17.4718   YX=     5.5010   ZX=     1.9998
   XY=     0.8024   YY=    17.9718   ZY=     0.7806
   XZ=     0.5194   YZ=    -4.4920   ZZ=     7.7435
   Eigenvalues:     7.0863    15.1965    20.9042
    106  Bq   Isotropic =     3.8077   Anisotropy =    12.8600
   XX=     3.5055   YX=     5.1646   ZX=    -0.3855
   XY=     1.1439   YY=     9.3799   ZY=    -1.0352
   XZ=    -1.3430   YZ=    -8.5228   ZZ=    -1.4624
   Eigenvalues:    -3.2836     2.3256    12.3810
    107  Bq   Isotropic =    17.0132   Anisotropy =     9.0569
   XX=    20.5547   YX=     4.8321   ZX=     3.1073
   XY=     0.4725   YY=    19.7658   ZY=     1.2257
   XZ=     1.6851   YZ=    -1.9862   ZZ=    10.7192
   Eigenvalues:    10.0642    17.9244    23.0512
    108  Bq   Isotropic =     2.7932   Anisotropy =    12.9349
   XX=     2.1295   YX=     4.9329   ZX=    -0.4581
   XY=     1.1393   YY=     8.3925   ZY=    -1.3010
   XZ=    -1.2906   YZ=    -8.5917   ZZ=    -2.1424
   Eigenvalues:    -4.1174     1.0806    11.4164
    109  Bq   Isotropic =    18.7995   Anisotropy =     8.7438
   XX=    22.2172   YX=     3.5392   ZX=     4.1650
   XY=    -0.0039   YY=    20.5170   ZY=     1.5484
   XZ=     2.9392   YZ=     1.2795   ZZ=    13.6642
   Eigenvalues:    12.3131    19.4567    24.6287
    110  Bq   Isotropic =     2.0395   Anisotropy =    12.8715
   XX=     1.1203   YX=     4.7087   ZX=    -0.4949
   XY=     1.1331   YY=     7.5625   ZY=    -1.5379
   XZ=    -1.2180   YZ=    -8.5774   ZZ=    -2.5642
   Eigenvalues:    -4.6780     0.1760    10.6206
    111  Bq   Isotropic =    19.0252   Anisotropy =     8.5021
   XX=    21.5759   YX=     1.6602   ZX=     4.6516
   XY=    -0.5221   YY=    19.5711   ZY=     1.5982
   XZ=     3.7807   YZ=     4.7032   ZZ=    15.9287
   Eigenvalues:    12.7088    19.6736    24.6933
    112  Bq   Isotropic =     9.0724   Anisotropy =    11.5174
   XX=    10.6092   YX=     5.7283   ZX=     0.4514
   XY=     1.0886   YY=    13.8260   ZY=    -0.0636
   XZ=    -0.9013   YZ=    -7.2819   ZZ=     2.7819
   Eigenvalues:     1.5994     8.8670    16.7507
    113  Bq   Isotropic =     8.3841   Anisotropy =    11.1448
   XX=     9.9061   YX=     5.6077   ZX=    -0.3725
   XY=     0.6049   YY=    12.1906   ZY=    -0.0540
   XZ=    -1.9188   YZ=    -8.7309   ZZ=     3.0556
   Eigenvalues:     1.2850     8.0533    15.8139
    114  Bq   Isotropic =    13.9281   Anisotropy =     9.2524
   XX=    17.5505   YX=     5.4778   ZX=     0.6439
   XY=     0.1952   YY=    15.8132   ZY=     0.4719
   XZ=    -1.1902   YZ=    -7.0955   ZZ=     8.4206
   Eigenvalues:     7.0947    14.5932    20.0964
    115  Bq   Isotropic =     6.3315   Anisotropy =    11.9902
   XX=     7.0085   YX=     5.5103   ZX=    -0.5941
   XY=     0.7502   YY=    10.8084   ZY=    -0.4069
   XZ=    -1.9483   YZ=    -9.1157   ZZ=     1.1776
   Eigenvalues:    -0.7789     5.4484    14.3249
    116  Bq   Isotropic =    17.1706   Anisotropy =     8.8417
   XX=    21.8245   YX=     5.0899   ZX=     1.5313
   XY=    -0.1014   YY=    17.8982   ZY=     0.5646
   XZ=    -0.3267   YZ=    -5.5698   ZZ=    11.7890
   Eigenvalues:    10.7072    17.7395    23.0650
    117  Bq   Isotropic =     4.7416   Anisotropy =    12.6129
   XX=     4.7553   YX=     5.3623   ZX=    -0.7010
   XY=     0.8679   YY=     9.6720   ZY=    -0.7764
   XZ=    -1.8653   YZ=    -9.3263   ZZ=    -0.2025
   Eigenvalues:    -2.3288     3.4035    13.1502
    118  Bq   Isotropic =    20.2243   Anisotropy =     9.1041
   XX=    25.5627   YX=     4.2867   ZX=     2.6532
   XY=    -0.4761   YY=    19.7551   ZY=     0.4582
   XZ=     0.9200   YZ=    -3.3426   ZZ=    15.3550
   Eigenvalues:    14.4531    19.9260    26.2937
    119  Bq   Isotropic =     3.5380   Anisotropy =    13.0016
   XX=     3.0590   YX=     5.1881   ZX=    -0.7442
   XY=     0.9620   YY=     8.7177   ZY=    -1.1357
   XZ=    -1.7357   YZ=    -9.4141   ZZ=    -1.1628
   Eigenvalues:    -3.4509     1.8591    12.2057
    120  Bq   Isotropic =    22.3052   Anisotropy =     9.5172
   XX=    27.5995   YX=     2.9362   ZX=     3.7612
   XY=    -0.8783   YY=    20.6940   ZY=     0.0722
   XZ=     2.3505   YZ=    -0.4333   ZZ=    18.6222
   Eigenvalues:    17.6055    20.6601    28.6500
    121  Bq   Isotropic =     2.6385   Anisotropy =    13.1745
   XX=     1.8109   YX=     5.0008   ZX=    -0.7585
   XY=     1.0340   YY=     7.8925   ZY=    -1.4640
   XZ=    -1.6013   YZ=    -9.4102   ZZ=    -1.7880
   Eigenvalues:    -4.2319     0.7258    11.4215
    122  Bq   Isotropic =    22.5709   Anisotropy =     9.3815
   XX=    26.9000   YX=     1.1410   ZX=     4.3542
   XY=    -1.1741   YY=    20.0271   ZY=    -0.5498
   XZ=     3.4536   YZ=     2.7046   ZZ=    20.7857
   Eigenvalues:    18.3200    20.5675    28.8253
    123  Bq   Isotropic =    10.9343   Anisotropy =    10.1566
   XX=    13.4619   YX=     5.6160   ZX=     0.0222
   XY=     0.4242   YY=    13.8648   ZY=     0.2508
   XZ=    -1.6943   YZ=    -8.0946   ZZ=     5.4762
   Eigenvalues:     3.9157    11.1819    17.7053
    124  Bq   Isotropic =     9.7891   Anisotropy =     9.9512
   XX=    12.0089   YX=     5.3764   ZX=    -0.7118
   XY=    -0.1758   YY=    12.1576   ZY=     0.5515
   XZ=    -2.6353   YZ=    -9.3403   ZZ=     5.2008
   Eigenvalues:     3.0575     9.8866    16.4232
[...]
   143  Bq   0.000000
   144  Bq   0.000000
   145  Bq   0.000000
   146  Bq   0.000000
   147  Bq   0.000000
   148  Bq   0.000000
   149  Bq   0.000000
   150  Bq   0.000000
   151  Bq   0.000000
   152  Bq   0.000000
   153  Bq   0.000000
   154  Bq   0.000000
   155  Bq   0.000000
   156  Bq   0.000000
   157  Bq   0.000000
   158  Bq   0.000000
   159  Bq   0.000000
   160  Bq   0.000000
   161  Bq   0.000000
   162  Bq   0.000000
   163  Bq   0.000000
   164  Bq   0.000000
   165  Bq   0.000000
   166  Bq   0.000000
   167  Bq   0.000000
   168  Bq   0.000000
   169  Bq   0.000000
   170  Bq   0.000000
   171  Bq   0.000000
   172  Bq   0.000000
   173  Bq   0.000000
   174  Bq   0.000000
   175  Bq   0.000000
   176  Bq   0.000000
   177  Bq   0.000000
   178  Bq   0.000000
   179  Bq   0.000000
   180  Bq   0.000000
   181  Bq   0.000000
   182  Bq   0.000000
   183  Bq   0.000000
   184  Bq   0.000000
   185  Bq   0.000000
   186  Bq   0.000000
   187  Bq   0.000000
   188  Bq   0.000000
   189  Bq   0.000000
   190  Bq   0.000000
   191  Bq   0.000000
   192  Bq   0.000000
   193  Bq   0.000000
   194  Bq   0.000000
   195  Bq   0.000000
   196  Bq   0.000000
   197  Bq   0.000000
   198  Bq   0.000000
   199  Bq   0.000000
   200  Bq   0.000000
   201  Bq   0.000000
   202  Bq   0.000000
   203  Bq   0.000000
   204  Bq   0.000000
   205  Bq   0.000000
   206  Bq   0.000000
   207  Bq   0.000000
   208  Bq   0.000000
   209  Bq   0.000000
   210  Bq   0.000000
   211  Bq   0.000000
   212  Bq   0.000000
   213  Bq   0.000000
   214  Bq   0.000000
   215  Bq   0.000000
   216  Bq   0.000000
   217  Bq   0.000000
   218  Bq   0.000000
   219  Bq   0.000000
   220  Bq   0.000000
   221  Bq   0.000000
   222  Bq   0.000000
   223  Bq   0.000000
   224  Bq   0.000000
   225  Bq   0.000000
   226  Bq   0.000000
   227  Bq   0.000000
   228  Bq   0.000000
   229  Bq   0.000000
   230  Bq   0.000000
   231  Bq   0.000000
   232  Bq   0.000000
   233  Bq   0.000000
   234  Bq   0.000000
   235  Bq   0.000000
   236  Bq   0.000000
 Sum of Mulliken charges =   0.00000
 Mulliken charges with hydrogens summed into heavy atoms:
               1
     1  C   -0.255498
     3  C    0.169409
     5  C    0.448258
     6  C    0.064351
     7  C   -0.333926
     9  C   -0.139521
    11  C   -0.205988
    13  C   -0.119315
    15  C    0.653397
    16  C    0.034822
    17  C   -0.317410
    19  C   -0.316854
    21  C    0.651066
    22  C    0.037784
    23  C   -0.117289
    25  C   -0.205316
    27  C    0.448331
    28  C    0.061983
    29  C   -0.333381
    31  C   -0.139505
    33  C   -0.379734
    35  C    0.170579
    37  Bq   0.000000
    38  Bq   0.000000
    39  Bq   0.000000
    40  Bq   0.000000
    41  Bq   0.000000
    42  Bq   0.000000
    43  Bq   0.000000
    44  Bq   0.000000
    45  Bq   0.000000
    46  Bq   0.000000
    47  Bq   0.000000
    48  Bq   0.000000
    49  Bq   0.000000
    50  Bq   0.000000
    51  Bq   0.000000
    52  Bq   0.000000
    53  Bq   0.000000
    54  Bq   0.000000
    55  Bq   0.000000
    56  Bq   0.000000
    57  Bq   0.000000
    58  Bq   0.000000
    59  Bq   0.000000
    60  Bq   0.000000
    61  Bq   0.000000
    62  Bq   0.000000
    63  Bq   0.000000
    64  Bq   0.000000
    65  Bq   0.000000
    66  Bq   0.000000
    67  Bq   0.000000
    68  Bq   0.000000
    69  Bq   0.000000
    70  Bq   0.000000
    71  Bq   0.000000
    72  Bq   0.000000
    73  Bq   0.000000
    74  Bq   0.000000
    75  Bq   0.000000
    76  Bq   0.000000
    77  Bq   0.000000
    78  Bq   0.000000
    79  Bq   0.000000
    80  Bq   0.000000
    81  Bq   0.000000
    82  Bq   0.000000
    83  Bq   0.000000
    84  Bq   0.000000
    85  Bq   0.000000
    86  Bq   0.000000
    87  Bq   0.000000
    88  Bq   0.000000
    89  Bq   0.000000
    90  Bq   0.000000
    91  Bq   0.000000
    92  Bq   0.000000
    93  Bq   0.000000
    94  Bq   0.000000
    95  Bq   0.000000
    96  Bq   0.000000
    97  Bq   0.000000
    98  Bq   0.000000
    99  Bq   0.000000
   100  Bq   0.000000
   101  Bq   0.000000
   102  Bq   0.000000
   103  Bq   0.000000
   104  Bq   0.000000
   105  Bq   0.000000
   106  Bq   0.000000
   107  Bq   0.000000
   108  Bq   0.000000
   109  Bq   0.000000
   110  Bq   0.000000
   111  Bq   0.123756
   112  Bq   0.000000
   113  Bq   0.000000
   114  Bq   0.000000
   115  Bq   0.000000
   116  Bq   0.000000
   117  Bq   0.000000
   118  Bq   0.000000
   119  Bq   0.000000
   120  Bq   0.000000
   121  Bq   0.000000
   122  Bq   0.000000
   123  Bq   0.000000
   124  Bq   0.000000
   125  Bq   0.000000
   126  Bq   0.000000
   127  Bq   0.000000
   128  Bq   0.000000
   129  Bq   0.000000
   130  Bq   0.000000
   131  Bq   0.000000
   132  Bq   0.000000
   133  Bq   0.000000
   134  Bq   0.000000
   135  Bq   0.000000
   136  Bq   0.000000
   137  Bq   0.000000
   138  Bq   0.000000
   139  Bq   0.000000
   140  Bq   0.000000
   141  Bq   0.000000
   142  Bq   0.000000
   143  Bq   0.000000
   144  Bq   0.000000
   145  Bq   0.000000
   146  Bq   0.000000
   147  Bq   0.000000
   148  Bq   0.000000
   149  Bq   0.000000
   150  Bq   0.000000
   151  Bq   0.000000
   152  Bq   0.000000
   153  Bq   0.000000
   154  Bq   0.000000
   155  Bq   0.000000
   156  Bq   0.000000
   157  Bq   0.000000
   158  Bq   0.000000
   159  Bq   0.000000
   160  Bq   0.000000
   161  Bq   0.000000
   162  Bq   0.000000
   163  Bq   0.000000
   164  Bq   0.000000
   165  Bq   0.000000
   166  Bq   0.000000
   167  Bq   0.000000
   168  Bq   0.000000
   169  Bq   0.000000
   170  Bq   0.000000
   171  Bq   0.000000
   172  Bq   0.000000
   173  Bq   0.000000
   174  Bq   0.000000
   175  Bq   0.000000
   176  Bq   0.000000
   177  Bq   0.000000
   178  Bq   0.000000
   179  Bq   0.000000
   180  Bq   0.000000
   181  Bq   0.000000
   182  Bq   0.000000
   183  Bq   0.000000
   184  Bq   0.000000
   185  Bq   0.000000
   186  Bq   0.000000
   187  Bq   0.000000
   188  Bq   0.000000
   189  Bq   0.000000
   190  Bq   0.000000
   191  Bq   0.000000
   192  Bq   0.000000
   193  Bq   0.000000
   194  Bq   0.000000
   195  Bq   0.000000
   196  Bq   0.000000
   197  Bq   0.000000
   198  Bq   0.000000
   199  Bq   0.000000
   200  Bq   0.000000
   201  Bq   0.000000
   202  Bq   0.000000
   203  Bq   0.000000
   204  Bq   0.000000
   205  Bq   0.000000
   206  Bq   0.000000
   207  Bq   0.000000
   208  Bq   0.000000
   209  Bq   0.000000
   210  Bq   0.000000
   211  Bq   0.000000
   212  Bq   0.000000
   213  Bq   0.000000
   214  Bq   0.000000
   215  Bq   0.000000
   216  Bq   0.000000
   217  Bq   0.000000
   218  Bq   0.000000
   219  Bq   0.000000
   220  Bq   0.000000
   221  Bq   0.000000
   222  Bq   0.000000
   223  Bq   0.000000
   224  Bq   0.000000
   225  Bq   0.000000
   226  Bq   0.000000
   227  Bq   0.000000
   228  Bq   0.000000
   229  Bq   0.000000
   230  Bq   0.000000
   231  Bq   0.000000
   232  Bq   0.000000
   233  Bq   0.000000
   234  Bq   0.000000
   235  Bq   0.000000
   236  Bq   0.000000
 Electronic spatial extent (au):  <R**2>=           5736.9264
 Charge=              0.0000 electrons
 Dipole moment (field-independent basis, Debye):
    X=              0.0475    Y=              0.0856    Z=              0.0029  Tot=              0.0979
 Quadrupole moment (field-independent basis, Debye-Ang):
   XX=           -113.7056   YY=           -113.9456   ZZ=           -133.2669
   XY=             -0.3834   XZ=              3.2102   YZ=             -1.1839
 Traceless Quadrupole moment (field-independent basis, Debye-Ang):
   XX=              6.6005   YY=              6.3604   ZZ=            -12.9609
   XY=             -0.3834   XZ=              3.2102   YZ=             -1.1839
 Octapole moment (field-independent basis, Debye-Ang**2):
  XXX=            -16.4668  YYY=            -16.1860  ZZZ=             -1.7007  XYY=              2.5576
  XXY=             -6.5650  XXZ=             13.6547  XZZ=             -8.9478  YZZ=            -17.7168
  YYZ=            -13.2941  XYZ=              8.8036
 Hexadecapole moment (field-independent basis, Debye-Ang**3):
 XXXX=          -3951.1638 YYYY=          -3112.2161 ZZZZ=           -504.8311 XXXY=            340.6935
 XXXZ=            156.4968 YYYX=            335.5625 YYYZ=            -87.0893 ZZZX=            120.2262
 ZZZY=           -108.7373 XXYY=          -1176.4844 XXZZ=           -856.7291 YYZZ=           -665.7275
 XXYZ=            -68.9016 YYXZ=             48.1602 ZZXY=            153.0375
 N-N= 1.610917615562D+03 E-N=-5.186891130729D+03  KE= 8.436329774449D+02
 1\1\GINC-THARO\SP\RB3LYP\6-311+G(d,p)\C22H14\YANNICK\21-Aug-2020\0\\# 
 rb3lyp/6-311+g** NMR geom=connectivity\\Title\\0,1\C,0,-4.0500558,-0.5
 771862,0.8136712\H,0,-5.0263804,-1.0082727,1.002476\C,0,-3.9381552,0.6
 617804,0.2400876\H,0,-4.8252424,1.233889,-0.0111295\C,0,-2.676841,1.24
 33246,0.0057578\C,0,-1.4974121,0.5051527,0.2848253\C,0,-1.6508332,-0.7
 338728,0.9404026\H,0,-0.7713646,-1.2730967,1.2633753\C,0,-2.8898548,-1
 .2624035,1.1994307\H,0,-2.9683706,-2.2124563,1.7152676\C,0,-2.5773185,
 2.5963696,-0.419293\H,0,-3.4870728,3.1412239,-0.6474055\C,0,-1.3741895
 ,3.2147896,-0.436403\H,0,-1.2997315,4.2742019,-0.6578144\C,0,-0.171948
 8,2.499409,-0.1734588\C,0,-0.2043917,1.1018437,0.0192689\C,0,1.0513491
 ,3.204256,-0.0676222\H,0,1.0427344,4.2819499,-0.1896997\C,0,2.1942091,
 2.5487446,0.2579577\H,0,3.1168527,3.0912848,0.4334727\C,0,2.2216473,1.
 1336562,0.293499\C,0,1.0486931,0.3945528,0.0302412\C,0,3.4483363,0.461
 4633,0.5573939\H,0,4.3095794,1.0606054,0.8334846\C,0,3.5427346,-0.8855
 926,0.4749463\H,0,4.4731467,-1.3939704,0.7038822\C,0,2.4490052,-1.6474
 447,-0.0196319\C,0,1.2150704,-1.0057258,-0.3013573\C,0,0.2531113,-1.74
 3444,-1.0216591\H,0,-0.6541356,-1.2535051,-1.3462847\C,0,0.4494193,-3.
 0628597,-1.3413779\H,0,-0.3083162,-3.5944309,-1.905406\C,0,1.6251726,-
 3.7207967,-0.9552541\H,0,1.7670048,-4.7687404,-1.1927019\C,0,2.6109872
 ,-3.0144177,-0.318305\H,0,3.5525612,-3.4902813,-0.0646367\Bq,0,0.87212
 00641,-0.5443843835,0.0934195828\Bq,0,0.7525347728,-0.6242313368,0.356
 7137569\Bq,0,0.9119818279,-0.5177687324,0.005654858\Bq,0,0.712673009,-
 0.6508469879,0.4444784816\Bq,0,0.9518435917,-0.4911530813,-0.082109866
 7\Bq,0,0.6728112452,-0.6774626391,0.5322432063\Bq,0,0.9917053555,-0.46
 45374302,-0.1698745914\Bq,0,0.6329494814,-0.7040782902,0.620007931\Bq,
 0,1.0315671193,-0.4379217791,-0.2576393161\Bq,0,0.8322583003,-0.571000
 0346,0.1811843075\Bq,0,0.7813900632,-0.501222703,0.2931822826\Bq,0,0.8
 611135907,-0.4479914008,0.1176528332\Bq,0,0.7415282994,-0.5278383541,0
 .3809470074\Bq,0,0.9009753545,-0.4213757497,0.0298881085\Bq,0,0.701666
 5356,-0.5544540052,0.4687117321\Bq,0,0.9408371183,-0.3947600986,-0.057
 8766162\Bq,0,0.6618047718,-0.5810696563,0.5564764568\Bq,0,0.9806988821
 ,-0.3681444475,-0.1456413409\Bq,0,0.621943008,-0.6076853074,0.64424118
 15\Bq,0,1.0205606459,-0.3415287964,-0.2334060656\Bq,0,0.821251827,-0.4
 746070519,0.2054175579\Bq,0,0.7703835898,-0.4048297203,0.3174155331\Bq
 ,0,0.8501071174,-0.3515984181,0.1418860837\Bq,0,0.730521826,-0.4314453
 714,0.4051802578\Bq,0,0.8899688812,-0.324982767,0.054121359\Bq,0,0.690
 6600622,-0.4580610225,0.4929449825\Bq,0,0.9298306449,-0.2983671159,-0.
 0336433658\Bq,0,0.6507982984,-0.4846766736,0.5807097072\Bq,0,0.9696924
 087,-0.2717514648,-0.1214080905\Bq,0,0.6109365346,-0.5112923247,0.6684
 744319\Bq,0,1.0095541725,-0.2451358137,-0.2091728152\Bq,0,0.8102453536
 ,-0.3782140692,0.2296508084\Bq,0,0.7593771164,-0.3084367376,0.34164878
 36\Bq,0,0.839100644,-0.2552054354,0.1661193341\Bq,0,0.7195153526,-0.33
 50523887,0.4294135083\Bq,0,0.8789624078,-0.2285897843,0.0783546094\Bq,
 0,0.6796535888,-0.3616680398,0.517178233\Bq,0,0.9188241716,-0.20197413
 32,-0.0094101153\Bq,0,0.6397918251,-0.3882836909,0.6049429577\Bq,0,0.9
 586859354,-0.1753584821,-0.09717484\Bq,0,0.5999300613,-0.414899342,0.6
 927076824\Bq,0,0.9985476991,-0.148742831,-0.1849395647\Bq,0,0.79923888
 02,-0.2818210865,0.2538840588\Bq,0,0.7483706431,-0.2120437549,0.365882
 034\Bq,0,0.8280941706,-0.1588124527,0.1903525846\Bq,0,0.7085088793,-0.
 238659406,0.4536467587\Bq,0,0.8679559344,-0.1321968016,0.1025878599\Bq
 ,0,0.6686471155,-0.2652750571,0.5414114834\Bq,0,0.9078176982,-0.105581
 1505,0.0148231352\Bq,0,0.6287853517,-0.2918907082,0.6291762081\Bq,0,0.
 947679462,-0.0789654993,-0.0729415896\Bq,0,0.5889235879,-0.3185063593,
 0.7169409329\Bq,0,0.9875412258,-0.0523498482,-0.1607063143\Bq,0,0.7882
 324068,-0.1854281038,0.2781173093\Bq,0,0.7373641697,-0.1156507722,0.39
 01152845\Bq,0,0.8170876973,-0.06241947,0.214585835\Bq,0,0.6975024059,-
 0.1422664233,0.4778800092\Bq,0,0.856949461,-0.0358038189,0.1268211103\
 Bq,0,0.6576406421,-0.1688820744,0.5656447339\Bq,0,0.8968112248,-0.0091
 881677,0.0390563856\Bq,0,0.6177788783,-0.1954977255,0.6534094586\Bq,0,
 0.9366729886,0.0174274834,-0.0487083391\Bq,0,0.5779171145,-0.222113376
 6,0.7411741833\Bq,0,0.9765347524,0.0440431345,-0.1364730638\Bq,0,0.777
 2259335,-0.0890351211,0.3023505598\Bq,0,1.3787367116,-4.9352999078,-0.
 7801938508\Bq,0,1.4584602392,-4.8820686056,-0.9557233002\Bq,0,1.338874
 9478,-4.9619155589,-0.6924291261\Bq,0,1.498322003,-4.8554529545,-1.043
 4880249\Bq,0,1.299013184,-4.98853121,-0.6046644014\Bq,0,1.5381837667,-
 4.8288373034,-1.1312527497\Bq,0,1.2591514202,-5.0151468611,-0.51689967
 67\Bq,0,1.5780455305,-4.8022216522,-1.2190174744\Bq,0,1.2192896564,-5.
 0417625122,-0.429134952\Bq,0,1.6179072943,-4.7756060011,-1.3067821991\
 Bq,0,1.4185984754,-4.9086842567,-0.8679585755\Bq,0,1.3677302382,-4.838
 9069251,-0.7559606003\Bq,0,1.4474537658,-4.7856756229,-0.9314900498\Bq
 ,0,1.3278684744,-4.8655225762,-0.6681958756\Bq,0,1.4873155296,-4.75905
 99717,-1.0192547745\Bq,0,1.2880067107,-4.8921382273,-0.5804311509\Bq,0
 ,1.5271772934,-4.7324443206,-1.1070194992\Bq,0,1.2481449469,-4.9187538
 784,-0.4926664262\Bq,0,1.5670390572,-4.7058286695,-1.1947842239\Bq,0,1
 .2082831831,-4.9453695295,-0.4049017015\Bq,0,1.606900821,-4.6792130184
 ,-1.2825489486\Bq,0,1.407592002,-4.812291274,-0.8437253251\Bq,0,1.3567
 237649,-4.7425139424,-0.7317273499\Bq,0,1.4364472924,-4.6892826401,-0.
 9072567993\Bq,0,1.3168620011,-4.7691295935,-0.6439626252\Bq,0,1.476309
 0562,-4.662666989,-0.995021524\Bq,0,1.2770002373,-4.7957452446,-0.5561
 979005\Bq,0,1.51617082,-4.6360513379,-1.0827862487\Bq,0,1.2371384735,-
 4.8223608957,-0.4684331757\Bq,0,1.5560325838,-4.6094356868,-1.17055097
 34\Bq,0,1.1972767097,-4.8489765468,-0.380668451\Bq,0,1.5958943476,-4.5
 828200357,-1.2583156982\Bq,0,1.3965855286,-4.7158982912,-0.8194920746\
 Bq,0,1.3457172915,-4.6461209596,-0.7074940994\Bq,0,1.4254408191,-4.592
 8896574,-0.8830235489\Bq,0,1.3058555277,-4.6727366108,-0.6197293747\Bq
 ,0,1.4653025828,-4.5662740063,-0.9707882736\Bq,0,1.2659937639,-4.69935
 22619,-0.53196465\Bq,0,1.5051643466,-4.5396583552,-1.0585529983\Bq,0,1
 .2261320001,-4.725967913,-0.4441999253\Bq,0,1.5450261104,-4.5130427041
 ,-1.146317723\Bq,0,1.1862702363,-4.7525835641,-0.3564352006\Bq,0,1.584
 8878742,-4.486427053,-1.2340824477\Bq,0,1.3855790553,-4.6195053085,-0.
 7952588241\Bq,0,1.3347108181,-4.5497279769,-0.683260849\Bq,0,1.4144343
 457,-4.4964966747,-0.8587902984\Bq,0,1.2948490543,-4.576343628,-0.5954
 961243\Bq,0,1.4542961095,-4.4698810236,-0.9465550231\Bq,0,1.2549872905
 ,-4.6029592791,-0.5077313995\Bq,0,1.4941578733,-4.4432653725,-1.034319
 7478\Bq,0,1.2151255267,-4.6295749303,-0.4199666748\Bq,0,1.534019637,-4
 .4166497214,-1.1220844725\Bq,0,1.175263763,-4.6561905814,-0.3322019501
 \Bq,0,1.5738814008,-4.3900340703,-1.2098491972\Bq,0,1.3745725819,-4.52
 31123258,-0.7710255737\Bq,0,1.3237043447,-4.4533349942,-0.6590275985\B
 q,0,1.4034278723,-4.400103692,-0.8345570479\Bq,0,1.2838425809,-4.47995
 06453,-0.5712628738\Bq,0,1.4432896361,-4.3734880409,-0.9223217727\Bq,0
 ,1.2439808172,-4.5065662964,-0.4834981491\Bq,0,1.4831513999,-4.3468723
 898,-1.0100864974\Bq,0,1.2041190534,-4.5331819475,-0.3957334244\Bq,0,1
 .5230131637,-4.3202567387,-1.0978512221\Bq,0,1.1642572896,-4.559797598
 6,-0.3079686997\Bq,0,1.5628749275,-4.2936410876,-1.1856159468\Bq,0,1.3
 635661085,-4.4267193431,-0.7467923232\Bq,0,1.3126978714,-4.3569420115,
 -0.6347943481\Bq,0,1.3924213989,-4.3037107093,-0.8103237975\Bq,0,1.272
 8361076,-4.3835576626,-0.5470296233\Bq,0,1.4322831627,-4.2770950582,-0
 .8980885222\Bq,0,1.2329743438,-4.4101733137,-0.4592648986\Bq,0,1.47214
 49265,-4.2504794071,-0.9858532469\Bq,0,1.19311258,-4.4367889648,-0.371
 5001739\Bq,0,1.5120066903,-4.223863756,-1.0736179716\Bq,0,1.1532508162
 ,-4.4634046159,-0.2837354492\Bq,0,1.5518684541,-4.1972481049,-1.161382
 6963\Bq,0,1.3525596352,-4.3303263604,-0.7225590728\Bq,0,1.301691398,-4
 .2605490288,-0.6105610976\Bq,0,1.3814149256,-4.2073177266,-0.786090547
 \Bq,0,1.2618296342,-4.2871646799,-0.5227963729\Bq,0,1.4212766894,-4.18
 07020755,-0.8738552717\Bq,0,1.2219678704,-4.313780331,-0.4350316482\Bq
 ,0,1.4611384531,-4.1540864244,-0.9616199964\Bq,0,1.1821061066,-4.34039
 59821,-0.3472669235\Bq,0,1.5010002169,-4.1274707733,-1.0493847212\Bq,0
 ,1.1422443428,-4.3670116332,-0.2595021987\Bq,0,1.5408619807,-4.1008551
 222,-1.1371494459\Bq,0,1.3415531618,-4.2339333777,-0.6983258223\Bq,0,1
 .2906849246,-4.1641560461,-0.5863278471\Bq,0,1.3704084522,-4.110924743
 9,-0.7618572966\Bq,0,1.2508231608,-4.1907716972,-0.4985631224\Bq,0,1.4
 10270216,-4.0843090928,-0.8496220213\Bq,0,1.210961397,-4.2173873483,-0
 .4107983977\Bq,0,1.4501319798,-4.0576934417,-0.937386746\Bq,0,1.171099
 6333,-4.2440029994,-0.323033673\Bq,0,1.4899937436,-4.0310777905,-1.025
 1514707\Bq,0,1.1312378695,-4.2706186505,-0.2352689483\Bq,0,1.529855507
 3,-4.0044621394,-1.1129161954\Bq,0,1.3305466884,-4.137540395,-0.674092
 5719\Bq,0,1.2796784512,-4.0677630634,-0.5620945967\Bq,0,1.3594019788,-
 4.0145317612,-0.7376240461\Bq,0,1.2398166875,-4.0943787145,-0.47432987
 2\Bq,0,1.3992637426,-3.98791611,-0.8253887708\Bq,0,1.1999549237,-4.120
 9943656,-0.3865651473\Bq,0,1.4391255064,-3.9613004589,-0.9131534955\Bq
 ,0,1.1600931599,-4.1476100167,-0.2988004225\Bq,0,1.4789872702,-3.93468
 48078,-1.0009182202\Bq,0,1.1202313961,-4.1742256678,-0.2110356978\Bq,0
 ,1.518849034,-3.9080691567,-1.088682945\Bq,0,1.319540215,-4.0411474123
 ,-0.6498593214\Bq,0,1.2686719779,-3.9713700807,-0.5378613462\Bq,0,1.34
 83955055,-3.9181387784,-0.7133907956\Bq,0,1.2288102141,-3.9979857318,-
 0.4500966215\Bq,0,1.3882572692,-3.8915231273,-0.8011555204\Bq,0,1.1889
 484503,-4.0246013829,-0.3623318968\Bq,0,1.428119033,-3.8649074762,-0.8
 889202451\Bq,0,1.1490866865,-4.051217034,-0.2745671721\Bq,0,1.46798079
 68,-3.8382918251,-0.9766849698\Bq,0,1.1092249227,-4.0778326851,-0.1868
 024474\Bq,0,1.5078425606,-3.811676174,-1.0644496945\Bq,0,1.3085337417,
 -3.9447544296,-0.6256260709\Bq,0,1.2576655045,-3.8749770979,-0.5136280
 958\Bq,0,1.3373890321,-3.8217457957,-0.6891575452\Bq,0,1.2178037407,-3
 .9015927491,-0.4258633711\Bq,0,1.3772507959,-3.7951301446,-0.776922269
 9\Bq,0,1.1779419769,-3.9282084002,-0.3380986463\Bq,0,1.4171125597,-3.7
 685144935,-0.8646869946\Bq,0,1.1380802131,-3.9548240513,-0.2503339216\
 Bq,0,1.4569743234,-3.7418988424,-0.9524517193\Bq,0,1.0982184494,-3.981
 4397024,-0.1625691969\Bq,0,1.4968360872,-3.7152831913,-1.040216444\Bq,
 0,1.2975272683,-3.8483614468,-0.6013928205\Bq,0,1.2466590311,-3.778584
 1152,-0.4893948453\Bq,0,1.3263825587,-3.725352813,-0.6649242947\Bq,0,1
 .2067972673,-3.8051997663,-0.4016301206\\Version=ES64L-G09RevD.01\HF=-
 847.0032898\RMSD=7.526e-09\Dipole=0.0186808,0.0336671,0.0011595\Quadru
 pole=4.9072795,4.7288219,-9.6361014,-0.2850201,2.3867064,-0.880172\PG=
 C01 [X(C22H14)]\\@


 Boundary, n.  In political geography, an imaginary
 line between two nations, separating the imaginary
 rights of one from the imaginary rights of another.
                               -- Ambrose Bierce
 Job cpu time:       0 days  2 hours 43 minutes 17.1 seconds.
 File lengths (MBytes):  RWF=    184 Int=      0 D2E=      0 Chk=     19 Scr=      1
 Normal termination of Gaussian 09 at Fri Aug 21 14:56:18 2020.
