 Entering Gaussian System, Link 0=g09
 Input=input_cycle_04_batch_17400.com
 Output=input_cycle_04_batch_17400.log
 Initial command:
 /share/programs/GAUSSIAN/64/g09/l1.exe "/scratch/yannick.30535/Gau-2978778.inp" -scrdir="/scratch/yannick.30535/"
 Entering Link 1 = /share/programs/GAUSSIAN/64/g09/l1.exe PID=   2978779.
  
 Copyright (c) 1988,1990,1992,1993,1995,1998,2003,2009,2013,
            Gaussian, Inc.  All Rights Reserved.
  
 This is part of the Gaussian(R) 09 program.  It is based on
 the Gaussian(R) 03 system (copyright 2003, Gaussian, Inc.),
 the Gaussian(R) 98 system (copyright 1998, Gaussian, Inc.),
 the Gaussian(R) 94 system (copyright 1995, Gaussian, Inc.),
 the Gaussian 92(TM) system (copyright 1992, Gaussian, Inc.),
 the Gaussian 90(TM) system (copyright 1990, Gaussian, Inc.),
 the Gaussian 88(TM) system (copyright 1988, Gaussian, Inc.),
 the Gaussian 86(TM) system (copyright 1986, Carnegie Mellon
 University), and the Gaussian 82(TM) system (copyright 1983,
 Carnegie Mellon University). Gaussian is a federally registered
 trademark of Gaussian, Inc.
  
 This software contains proprietary and confidential information,
 including trade secrets, belonging to Gaussian, Inc.
  
 This software is provided under written license and may be
 used, copied, transmitted, or stored only in accord with that
 written license.
  
 The following legend is applicable only to US Government
 contracts under FAR:
  
                    RESTRICTED RIGHTS LEGEND
  
 Use, reproduction and disclosure by the US Government is
 subject to restrictions as set forth in subparagraphs (a)
 and (c) of the Commercial Computer Software - Restricted
 Rights clause in FAR 52.227-19.
  
 Gaussian, Inc.
 340 Quinnipiac St., Bldg. 40, Wallingford CT 06492
  
  
 ---------------------------------------------------------------
 Warning -- This program may not be used in any manner that
 competes with the business of Gaussian, Inc. or will provide
 assistance to any competitor of Gaussian, Inc.  The licensee
 of this program is prohibited from giving any competitor of
 Gaussian, Inc. access to this program.  By using this program,
 the user acknowledges that Gaussian, Inc. is engaged in the
 business of creating and licensing software in the field of
 computational chemistry and represents and warrants to the
 licensee that it is not a competitor of Gaussian, Inc. and that
 it will not use this program in any manner prohibited above.
 ---------------------------------------------------------------
  

 Cite this work as:
 Gaussian 09, Revision D.01,
 M. J. Frisch, G. W. Trucks, H. B. Schlegel, G. E. Scuseria, 
 M. A. Robb, J. R. Cheeseman, G. Scalmani, V. Barone, B. Mennucci, 
 G. A. Petersson, H. Nakatsuji, M. Caricato, X. Li, H. P. Hratchian, 
 A. F. Izmaylov, J. Bloino, G. Zheng, J. L. Sonnenberg, M. Hada, 
 M. Ehara, K. Toyota, R. Fukuda, J. Hasegawa, M. Ishida, T. Nakajima, 
 Y. Honda, O. Kitao, H. Nakai, T. Vreven, J. A. Montgomery, Jr., 
 J. E. Peralta, F. Ogliaro, M. Bearpark, J. J. Heyd, E. Brothers, 
 K. N. Kudin, V. N. Staroverov, T. Keith, R. Kobayashi, J. Normand, 
 K. Raghavachari, A. Rendell, J. C. Burant, S. S. Iyengar, J. Tomasi, 
 M. Cossi, N. Rega, J. M. Millam, M. Klene, J. E. Knox, J. B. Cross, 
 V. Bakken, C. Adamo, J. Jaramillo, R. Gomperts, R. E. Stratmann, 
 O. Yazyev, A. J. Austin, R. Cammi, C. Pomelli, J. W. Ochterski, 
 R. L. Martin, K. Morokuma, V. G. Zakrzewski, G. A. Voth, 
 P. Salvador, J. J. Dannenberg, S. Dapprich, A. D. Daniels, 
 O. Farkas, J. B. Foresman, J. V. Ortiz, J. Cioslowski, 
 and D. J. Fox, Gaussian, Inc., Wallingford CT, 2013.
 
 ******************************************
 Gaussian 09:  ES64L-G09RevD.01 24-Apr-2013
                22-Aug-2020 
 ******************************************
 %nproc=8
 Will use up to    8 processors via shared memory.
 %mem=1000MB
 ----------------------------------------
 # rb3lyp/6-311+g** NMR geom=connectivity
 ----------------------------------------
 1/38=1,57=2/1;
 2/12=2,17=6,18=5,40=1/2;
 3/5=4,6=6,7=111,11=2,16=1,25=1,30=1,74=-5,116=1/1,2,8,3;
 4//1;
 5/5=2,38=5/2;
 8/6=1,10=90,11=11/1;
 10/13=100,45=16/2;
 6/7=2,8=2,9=2,10=2,28=1/1;
 99/9=1/99;
 -----
 Title
 -----
 Symbolic Z-matrix:
 Charge =  0 Multiplicity = 1
 C                    -4.05006  -0.57719   0.81367 
 H                    -5.02638  -1.00827   1.00248 
 C                    -3.93816   0.66178   0.24009 
 H                    -4.82524   1.23389  -0.01113 
 C                    -2.67684   1.24332   0.00576 
 C                    -1.49741   0.50515   0.28483 
 C                    -1.65083  -0.73387   0.9404 
 H                    -0.77136  -1.2731    1.26338 
 C                    -2.88985  -1.2624    1.19943 
 H                    -2.96837  -2.21246   1.71527 
 C                    -2.57732   2.59637  -0.41929 
 H                    -3.48707   3.14122  -0.64741 
 C                    -1.37419   3.21479  -0.4364 
 H                    -1.29973   4.2742   -0.65781 
 C                    -0.17195   2.49941  -0.17346 
 C                    -0.20439   1.10184   0.01927 
 C                     1.05135   3.20426  -0.06762 
 H                     1.04273   4.28195  -0.1897 
 C                     2.19421   2.54874   0.25796 
 H                     3.11685   3.09128   0.43347 
 C                     2.22165   1.13366   0.2935 
 C                     1.04869   0.39455   0.03024 
 C                     3.44834   0.46146   0.55739 
 H                     4.30958   1.06061   0.83348 
 C                     3.54273  -0.88559   0.47495 
 H                     4.47315  -1.39397   0.70388 
 C                     2.44901  -1.64744  -0.01963 
 C                     1.21507  -1.00573  -0.30136 
 C                     0.25311  -1.74344  -1.02166 
 H                    -0.65414  -1.25351  -1.34628 
 C                     0.44942  -3.06286  -1.34138 
 H                    -0.30832  -3.59443  -1.90541 
 C                     1.62517  -3.7208   -0.95525 
 H                     1.767    -4.76874  -1.1927 
 C                     2.61099  -3.01442  -0.31831 
 H                     3.55256  -3.49028  -0.06464 
 Bq                    2.73586  -2.87503   0.9406 
 Bq                    2.99265  -2.73275  -0.01534 
 Bq                    2.86425  -2.80389   0.46263 
 Bq                    2.83488  -2.71913   0.57196 
 Bq                    2.88624  -2.69068   0.38077 
 Bq                    2.80921  -2.73336   0.66756 
 Bq                    2.91192  -2.67645   0.28518 
 Bq                    2.78353  -2.74759   0.76315 
 Bq                    2.9376   -2.66222   0.18959 
 Bq                    2.75785  -2.76182   0.85874 
 Bq                    2.96328  -2.64799   0.09399 
 Bq                    2.73217  -2.77604   0.95434 
 Bq                    2.98896  -2.63377  -0.0016 
 Bq                    2.86056  -2.7049    0.47637 
 Bq                    2.83119  -2.62015   0.5857 
 Bq                    2.88255  -2.59169   0.39451 
 Bq                    2.80551  -2.63438   0.6813 
 Bq                    2.90823  -2.57747   0.29892 
 Bq                    2.77984  -2.64861   0.77689 
 Bq                    2.93391  -2.56324   0.20333 
 Bq                    2.75416  -2.66283   0.87248 
 Bq                    2.95959  -2.54901   0.10773 
 Bq                    2.72848  -2.67706   0.96808 
 Bq                    2.98527  -2.53478   0.01214 
 Bq                    2.85687  -2.60592   0.49011 
 Bq                    2.8275   -2.52117   0.59944 
 Bq                    2.87886  -2.49271   0.40826 
 Bq                    2.80182  -2.53539   0.69504 
 Bq                    2.90454  -2.47848   0.31266 
 Bq                    2.77614  -2.54962   0.79063 
 Bq                    2.93022  -2.46426   0.21707 
 Bq                    2.75047  -2.56385   0.88622 
 Bq                    2.9559   -2.45003   0.12147 
 Bq                    2.72479  -2.57808   0.98182 
 Bq                    2.98158  -2.4358    0.02588 
 Bq                    2.85318  -2.50694   0.50385 
 Bq                    2.82381  -2.42218   0.61318 
 Bq                    2.87517  -2.39373   0.422 
 Bq                    2.79813  -2.43641   0.70878 
 Bq                    2.90085  -2.3795    0.3264 
 Bq                    2.77245  -2.45064   0.80437 
 Bq                    2.92653  -2.36527   0.23081 
 Bq                    2.74677  -2.46487   0.89996 
 Bq                    2.95221  -2.35105   0.13521 
 Bq                    2.7211   -2.47909   0.99556 
 Bq                    2.97788  -2.33682   0.03962 
 Bq                    2.84949  -2.40796   0.51759 
 Bq                    2.82012  -2.3232    0.62692 
 Bq                    2.87148  -2.29475   0.43574 
 Bq                    2.79444  -2.33743   0.72252 
 Bq                    2.89716  -2.28052   0.34014 
 Bq                    2.76876  -2.35166   0.81811 
 Bq                    2.92284  -2.26629   0.24455 
 Bq                    2.74308  -2.36588   0.91371 
 Bq                    2.94851  -2.25206   0.14895 
 Bq                    2.7174   -2.38011   1.0093 
 Bq                    2.97419  -2.23784   0.05336 
 Bq                    2.8458   -2.30897   0.53133 
 Bq                    2.81643  -2.22422   0.64066 
 Bq                    2.86779  -2.19576   0.44948 
 Bq                    2.79075  -2.23845   0.73626 
 Bq                    2.89347  -2.18154   0.35388 
 Bq                    2.76507  -2.25267   0.83185 
 Bq                    2.91914  -2.16731   0.25829 
 Bq                    2.73939  -2.2669    0.92745 
 Bq                    2.94482  -2.15308   0.1627 
 Bq                    2.71371  -2.28113   1.02304 
 Bq                    2.9705   -2.13885   0.0671 
 Bq                    2.84211  -2.20999   0.54507 
 Bq                    2.81274  -2.12524   0.6544 
 Bq                    2.8641   -2.09678   0.46322 
 Bq                    2.78706  -2.13946   0.75 
 Bq                    2.88977  -2.08255   0.36762 
 Bq                    2.76138  -2.15369   0.84559 
 Bq                    2.91545  -2.06833   0.27203 
 Bq                    2.7357   -2.16792   0.94119 
 Bq                    2.94113  -2.0541    0.17644 
 Bq                    2.71002  -2.18215   1.03678 
 Bq                    2.96681  -2.03987   0.08084 
 Bq                    2.83842  -2.11101   0.55881 
 Bq                    2.80905  -2.02625   0.66815 
 Bq                    2.8604   -1.9978    0.47696 
 Bq                    2.78337  -2.04048   0.76374 
 Bq                    2.88608  -1.98357   0.38136 
 Bq                    2.75769  -2.05471   0.85933 
 Bq                    2.91176  -1.96934   0.28577 
 Bq                    2.73201  -2.06894   0.95493 
 Bq                    2.93744  -1.95512   0.19018 
 Bq                    2.70633  -2.08316   1.05052 
 Bq                    2.96312  -1.94089   0.09458 
 Bq                    2.83473  -2.01203   0.57255 
 Bq                    2.80536  -1.92727   0.68189 
 Bq                    2.85671  -1.89882   0.4907 
 Bq                    2.77968  -1.9415    0.77748 
 Bq                    2.88239  -1.88459   0.3951 
 Bq                    2.754    -1.95573   0.87307 
 Bq                    2.90807  -1.87036   0.29951 
 Bq                    2.72832  -1.96995   0.96867 
 Bq                    2.93375  -1.85613   0.20392 
 Bq                    2.70264  -1.98418   1.06426 
 Bq                    2.95943  -1.8419    0.10832 
 Bq                    2.83103  -1.91304   0.58629 
 Bq                    2.80166  -1.82829   0.69563 
 Bq                    2.85302  -1.79983   0.50444 
 Bq                    2.77599  -1.84252   0.79122 
 Bq                    2.8787   -1.78561   0.40885 
 Bq                    2.75031  -1.85674   0.88681 
 Bq                    2.90438  -1.77138   0.31325 
 Bq                    2.72463  -1.87097   0.98241 
 Bq                    2.93006  -1.75715   0.21766 
 Bq                    2.69895  -1.8852    1.078 
 Bq                    2.95574  -1.74292   0.12206 
 Bq                    2.82734  -1.81406   0.60003 
 Bq                    2.79797  -1.72931   0.70937 
 Bq                    2.84933  -1.70085   0.51818 
 Bq                    2.77229  -1.74353   0.80496 
 Bq                    2.87501  -1.68662   0.42259 
 Bq                    2.74662  -1.75776   0.90055 
 Bq                    2.90069  -1.67239   0.32699 
 Bq                    2.72094  -1.77199   0.99615 
 Bq                    2.92637  -1.65817   0.2314 
 Bq                    2.69526  -1.78622   1.09174 
 Bq                    2.95205  -1.64394   0.1358 
 Bq                    2.82365  -1.71508   0.61377 
 Bq                    2.79428  -1.63032   0.72311 
 Bq                    2.84564  -1.60187   0.53192 
 Bq                    2.7686   -1.64455   0.8187 
 Bq                    2.87132  -1.58764   0.43633 
 Bq                    2.74292  -1.65878   0.9143 
 Bq                    2.897    -1.57341   0.34073 
 Bq                    2.71725  -1.67301   1.00989 
 Bq                    2.92268  -1.55918   0.24514 
 Bq                    2.69157  -1.68723   1.10548 
 Bq                    2.94836  -1.54496   0.14954 
 Bq                    2.81996  -1.6161    0.62751 
 Bq                    2.79059  -1.53134   0.73685 
 Bq                    2.84195  -1.50288   0.54566 
 Bq                    2.76491  -1.54557   0.83244 
 Bq                    2.86763  -1.48866   0.45007 
 Bq                    2.73923  -1.5598    0.92804 
 Bq                    2.89331  -1.47443   0.35447 
 Bq                    2.71355  -1.57402   1.02363 
 Bq                    2.91899  -1.4602    0.25888 
 Bq                    2.68788  -1.58825   1.11922 
 Bq                    2.94466  -1.44597   0.16329 
 Bq                    2.81627  -1.51711   0.64125 
 Bq                    2.7869   -1.43236   0.75059 
 Bq                    2.83826  -1.4039    0.5594 
 Bq                    2.76122  -1.44659   0.84618 
 Bq                    2.86394  -1.38967   0.46381 
 Bq                    2.73554  -1.46081   0.94178 
 Bq                    2.88962  -1.37545   0.36821 
 Bq                    2.70986  -1.47504   1.03737 
 Bq                    2.91529  -1.36122   0.27262 
 Bq                    2.68418  -1.48927   1.13296 
 Bq                    2.94097  -1.34699   0.17703 
 Bq                    2.81258  -1.41813   0.65499 
 Bq                    2.78321  -1.33337   0.76433 
 Bq                    2.83457  -1.30492   0.57314 
 Bq                    2.75753  -1.3476    0.85992 
 Bq                    2.86025  -1.29069   0.47755 
 Bq                    2.73185  -1.36183   0.95552 
 Bq                    2.88592  -1.27646   0.38195 
 Bq                    2.70617  -1.37606   1.05111 
 Bq                    2.9116   -1.26224   0.28636 
 Bq                    2.68049  -1.39029   1.1467 
 Bq                    2.93728  -1.24801   0.19077 
 Bq                    2.80889  -1.31915   0.66874 
 Bq                    2.77952  -1.23439   0.77807 
 Bq                    2.83088  -1.20594   0.58688 
 Bq                    2.75384  -1.24862   0.87366 
 Bq                    2.85655  -1.19171   0.49129 
 Bq                    2.72816  -1.26285   0.96926 
 Bq                    2.88223  -1.17748   0.39569 
 Bq                    2.70248  -1.27707   1.06485 
 Bq                    2.90791  -1.16325   0.3001 
 Bq                    2.6768   -1.2913    1.16044 
 Bq                    2.93359  -1.14903   0.20451 
 Bq                    2.8052   -1.22016   0.68248 
 Bq                    2.77583  -1.13541   0.79181 
 Bq                    2.82718  -1.10695   0.60062 
 Bq                    2.75015  -1.14964   0.8874 
 Bq                    2.85286  -1.09273   0.50503 
 Bq                    2.72447  -1.16386   0.983 
 Bq                    2.87854  -1.0785    0.40944 
 Bq                    2.69879  -1.17809   1.07859 
 Bq                    2.90422  -1.06427   0.31384 
 Bq                    2.67311  -1.19232   1.17419 
 Bq                    2.9299   -1.05004   0.21825 
 Bq                    2.80151  -1.12118   0.69622 
 Bq                    2.77214  -1.03643   0.80555 
 Bq                    2.82349  -1.00797   0.61436 
 Bq                    2.74646  -1.05065   0.90114 
 Bq                    2.84917  -0.99374   0.51877 
 Bq                    2.72078  -1.06488   0.99674 
 Bq                    2.87485  -0.97952   0.42318 
 Bq                    2.6951   -1.07911   1.09233 
 Bq                    2.90053  -0.96529   0.32758 
 Bq                    2.66942  -1.09334   1.18793 
 Bq                    2.92621  -0.95106   0.23199 
 
 Symmetry turned off:
 Cannot cope with ghost atoms or with translation vectors.
 Stoichiometry    C22H14
 Framework group  C1[X(C22H14)]
 NUMDOF-- NAT=    36 NAtoms=   236
 Deg. of freedom     0
 Full point group                 C1      NOp   1
                          Input orientation:                          
 ---------------------------------------------------------------------
 Center     Atomic      Atomic             Coordinates (Angstroms)
 Number     Number       Type             X           Y           Z
 ---------------------------------------------------------------------
      1          6           0       -4.050056   -0.577186    0.813671
      2          1           0       -5.026380   -1.008273    1.002476
      3          6           0       -3.938155    0.661780    0.240088
      4          1           0       -4.825242    1.233889   -0.011130
      5          6           0       -2.676841    1.243325    0.005758
      6          6           0       -1.497412    0.505153    0.284825
      7          6           0       -1.650833   -0.733873    0.940403
      8          1           0       -0.771365   -1.273097    1.263375
      9          6           0       -2.889855   -1.262404    1.199431
     10          1           0       -2.968371   -2.212456    1.715268
     11          6           0       -2.577319    2.596370   -0.419293
     12          1           0       -3.487073    3.141224   -0.647406
     13          6           0       -1.374190    3.214790   -0.436403
     14          1           0       -1.299732    4.274202   -0.657814
     15          6           0       -0.171949    2.499409   -0.173459
     16          6           0       -0.204392    1.101844    0.019269
     17          6           0        1.051349    3.204256   -0.067622
     18          1           0        1.042734    4.281950   -0.189700
     19          6           0        2.194209    2.548745    0.257958
     20          1           0        3.116853    3.091285    0.433473
     21          6           0        2.221647    1.133656    0.293499
     22          6           0        1.048693    0.394553    0.030241
     23          6           0        3.448336    0.461463    0.557394
     24          1           0        4.309579    1.060605    0.833485
     25          6           0        3.542735   -0.885593    0.474946
     26          1           0        4.473147   -1.393970    0.703882
     27          6           0        2.449005   -1.647445   -0.019632
     28          6           0        1.215070   -1.005726   -0.301357
     29          6           0        0.253111   -1.743444   -1.021659
     30          1           0       -0.654136   -1.253505   -1.346285
     31          6           0        0.449419   -3.062860   -1.341378
     32          1           0       -0.308316   -3.594431   -1.905406
     33          6           0        1.625173   -3.720797   -0.955254
     34          1           0        1.767005   -4.768740   -1.192702
     35          6           0        2.610987   -3.014418   -0.318305
     36          1           0        3.552561   -3.490281   -0.064637
     37          0           0        2.735860   -2.875026    0.940596
     38          0           0        2.992648   -2.732749   -0.015342
     39          0           0        2.864254   -2.803887    0.462627
     40          0           0        2.834884   -2.719132    0.571962
     41          0           0        2.886242   -2.690677    0.380774
     42          0           0        2.809205   -2.733360    0.667555
     43          0           0        2.911921   -2.676449    0.285180
     44          0           0        2.783526   -2.747588    0.763149
     45          0           0        2.937599   -2.662222    0.189586
     46          0           0        2.757847   -2.761815    0.858743
     47          0           0        2.963278   -2.647994    0.093993
     48          0           0        2.732169   -2.776043    0.954337
     49          0           0        2.988957   -2.633766   -0.001601
     50          0           0        2.860563   -2.704905    0.476368
     51          0           0        2.831193   -2.620150    0.585702
     52          0           0        2.882551   -2.591694    0.394515
     53          0           0        2.805514   -2.634377    0.681296
     54          0           0        2.908230   -2.577467    0.298921
     55          0           0        2.779835   -2.648605    0.776890
     56          0           0        2.933908   -2.563239    0.203327
     57          0           0        2.754156   -2.662833    0.872483
     58          0           0        2.959587   -2.549011    0.107733
     59          0           0        2.728478   -2.677060    0.968077
     60          0           0        2.985266   -2.534784    0.012139
     61          0           0        2.856872   -2.605922    0.490108
     62          0           0        2.827502   -2.521167    0.599443
     63          0           0        2.878860   -2.492712    0.408255
     64          0           0        2.801823   -2.535395    0.695036
     65          0           0        2.904539   -2.478484    0.312661
     66          0           0        2.776144   -2.549622    0.790630
     67          0           0        2.930217   -2.464256    0.217068
     68          0           0        2.750465   -2.563850    0.886224
     69          0           0        2.955896   -2.450029    0.121474
     70          0           0        2.724786   -2.578078    0.981818
     71          0           0        2.981575   -2.435801    0.025880
     72          0           0        2.853181   -2.506939    0.503849
     73          0           0        2.823811   -2.422184    0.613183
     74          0           0        2.875169   -2.393729    0.421996
     75          0           0        2.798132   -2.436412    0.708777
     76          0           0        2.900847   -2.379501    0.326402
     77          0           0        2.772453   -2.450640    0.804371
     78          0           0        2.926526   -2.365274    0.230808
     79          0           0        2.746774   -2.464867    0.899965
     80          0           0        2.952205   -2.351046    0.135214
     81          0           0        2.721095   -2.479095    0.995558
     82          0           0        2.977884   -2.336818    0.039621
     83          0           0        2.849490   -2.407957    0.517589
     84          0           0        2.820120   -2.323202    0.626924
     85          0           0        2.871478   -2.294746    0.435736
     86          0           0        2.794441   -2.337429    0.722518
     87          0           0        2.897156   -2.280519    0.340142
     88          0           0        2.768762   -2.351657    0.818111
     89          0           0        2.922835   -2.266291    0.244549
     90          0           0        2.743083   -2.365885    0.913705
     91          0           0        2.948514   -2.252063    0.148955
     92          0           0        2.717404   -2.380112    1.009299
     93          0           0        2.974193   -2.237836    0.053361
     94          0           0        2.845799   -2.308974    0.531330
     95          0           0        2.816429   -2.224219    0.640664
     96          0           0        2.867786   -2.195764    0.449477
     97          0           0        2.790750   -2.238447    0.736258
     98          0           0        2.893465   -2.181536    0.353883
     99          0           0        2.765071   -2.252674    0.831852
    100          0           0        2.919144   -2.167308    0.258289
    101          0           0        2.739392   -2.266902    0.927446
    102          0           0        2.944823   -2.153081    0.162695
    103          0           0        2.713713   -2.281130    1.023039
    104          0           0        2.970502   -2.138853    0.067102
    105          0           0        2.842108   -2.209991    0.545071
    106          0           0        2.812738   -2.125236    0.654405
    107          0           0        2.864095   -2.096781    0.463217
    108          0           0        2.787059   -2.139464    0.749999
    109          0           0        2.889774   -2.082553    0.367624
    110          0           0        2.761380   -2.153692    0.845592
    111          0           0        2.915453   -2.068326    0.272030
    112          0           0        2.735701   -2.167919    0.941186
    113          0           0        2.941132   -2.054098    0.176436
    114          0           0        2.710022   -2.182147    1.036780
    115          0           0        2.966811   -2.039870    0.080842
    116          0           0        2.838417   -2.111009    0.558811
    117          0           0        2.809047   -2.026254    0.668145
    118          0           0        2.860404   -1.997798    0.476958
    119          0           0        2.783368   -2.040481    0.763739
    120          0           0        2.886083   -1.983571    0.381364
    121          0           0        2.757689   -2.054709    0.859333
    122          0           0        2.911762   -1.969343    0.285770
    123          0           0        2.732010   -2.068937    0.954927
    124          0           0        2.937441   -1.955115    0.190176
    125          0           0        2.706331   -2.083164    1.050520
    126          0           0        2.963120   -1.940888    0.094583
    127          0           0        2.834726   -2.012026    0.572552
    128          0           0        2.805356   -1.927271    0.681886
    129          0           0        2.856713   -1.898816    0.490698
    130          0           0        2.779677   -1.941499    0.777480
    131          0           0        2.882392   -1.884588    0.395105
    132          0           0        2.753998   -1.955726    0.873073
    133          0           0        2.908071   -1.870360    0.299511
    134          0           0        2.728319   -1.969954    0.968667
    135          0           0        2.933750   -1.856133    0.203917
    136          0           0        2.702640   -1.984181    1.064261
    137          0           0        2.959429   -1.841905    0.108323
    138          0           0        2.831034   -1.913043    0.586292
    139          0           0        2.801665   -1.828288    0.695626
    140          0           0        2.853022   -1.799833    0.504439
    141          0           0        2.775986   -1.842516    0.791220
    142          0           0        2.878701   -1.785605    0.408845
    143          0           0        2.750307   -1.856743    0.886814
    144          0           0        2.904380   -1.771378    0.313251
    145          0           0        2.724628   -1.870971    0.982408
    146          0           0        2.930059   -1.757150    0.217658
    147          0           0        2.698949   -1.885199    1.078002
    148          0           0        2.955738   -1.742922    0.122064
    149          0           0        2.827343   -1.814061    0.600033
    150          0           0        2.797974   -1.729305    0.709367
    151          0           0        2.849331   -1.700850    0.518179
    152          0           0        2.772295   -1.743533    0.804961
    153          0           0        2.875010   -1.686622    0.422586
    154          0           0        2.746616   -1.757761    0.900555
    155          0           0        2.900689   -1.672395    0.326992
    156          0           0        2.720937   -1.771988    0.996148
    157          0           0        2.926368   -1.658167    0.231398
    158          0           0        2.695258   -1.786216    1.091742
    159          0           0        2.952047   -1.643940    0.135804
    160          0           0        2.823652   -1.715078    0.613773
    161          0           0        2.794282   -1.630323    0.723108
    162          0           0        2.845640   -1.601867    0.531920
    163          0           0        2.768604   -1.644550    0.818701
    164          0           0        2.871319   -1.587640    0.436326
    165          0           0        2.742925   -1.658778    0.914295
    166          0           0        2.896998   -1.573412    0.340732
    167          0           0        2.717246   -1.673006    1.009889
    168          0           0        2.922677   -1.559184    0.245139
    169          0           0        2.691567   -1.687233    1.105483
    170          0           0        2.948356   -1.544957    0.149545
    171          0           0        2.819961   -1.616095    0.627514
    172          0           0        2.790591   -1.531340    0.736848
    173          0           0        2.841949   -1.502885    0.545661
    174          0           0        2.764913   -1.545568    0.832442
    175          0           0        2.867628   -1.488657    0.450067
    176          0           0        2.739234   -1.559795    0.928036
    177          0           0        2.893307   -1.474429    0.354473
    178          0           0        2.713555   -1.574023    1.023629
    179          0           0        2.918986   -1.460202    0.258879
    180          0           0        2.687876   -1.588251    1.119223
    181          0           0        2.944665   -1.445974    0.163285
    182          0           0        2.816270   -1.517112    0.641254
    183          0           0        2.786900   -1.432357    0.750589
    184          0           0        2.838258   -1.403902    0.559401
    185          0           0        2.761221   -1.446585    0.846182
    186          0           0        2.863937   -1.389674    0.463807
    187          0           0        2.735543   -1.460813    0.941776
    188          0           0        2.889616   -1.375447    0.368214
    189          0           0        2.709864   -1.475040    1.037370
    190          0           0        2.915295   -1.361219    0.272620
    191          0           0        2.684185   -1.489268    1.132964
    192          0           0        2.940974   -1.346991    0.177026
    193          0           0        2.812579   -1.418130    0.654995
    194          0           0        2.783209   -1.333375    0.764329
    195          0           0        2.834567   -1.304919    0.573142
    196          0           0        2.757530   -1.347602    0.859923
    197          0           0        2.860246   -1.290692    0.477548
    198          0           0        2.731852   -1.361830    0.955517
    199          0           0        2.885925   -1.276464    0.381954
    200          0           0        2.706173   -1.376058    1.051110
    201          0           0        2.911604   -1.262236    0.286360
    202          0           0        2.680494   -1.390285    1.146704
    203          0           0        2.937282   -1.248009    0.190766
    204          0           0        2.808888   -1.319147    0.668735
    205          0           0        2.779518   -1.234392    0.778070
    206          0           0        2.830876   -1.205937    0.586882
    207          0           0        2.753839   -1.248620    0.873663
    208          0           0        2.856555   -1.191709    0.491288
    209          0           0        2.728161   -1.262847    0.969257
    210          0           0        2.882234   -1.177481    0.395695
    211          0           0        2.702482   -1.277075    1.064851
    212          0           0        2.907913   -1.163254    0.300101
    213          0           0        2.676803   -1.291303    1.160445
    214          0           0        2.933591   -1.149026    0.204507
    215          0           0        2.805197   -1.220164    0.682476
    216          0           0        2.775827   -1.135409    0.791810
    217          0           0        2.827185   -1.106954    0.600623
    218          0           0        2.750148   -1.149637    0.887404
    219          0           0        2.852864   -1.092726    0.505029
    220          0           0        2.724469   -1.163865    0.982998
    221          0           0        2.878543   -1.078499    0.409435
    222          0           0        2.698791   -1.178092    1.078592
    223          0           0        2.904222   -1.064271    0.313841
    224          0           0        2.673112   -1.192320    1.174185
    225          0           0        2.929900   -1.050043    0.218248
    226          0           0        2.801506   -1.121182    0.696216
    227          0           0        2.772136   -1.036427    0.805551
    228          0           0        2.823494   -1.007971    0.614363
    229          0           0        2.746457   -1.050654    0.901145
    230          0           0        2.849173   -0.993744    0.518769
    231          0           0        2.720778   -1.064882    0.996738
    232          0           0        2.874852   -0.979516    0.423176
    233          0           0        2.695100   -1.079110    1.092332
    234          0           0        2.900530   -0.965288    0.327582
    235          0           0        2.669421   -1.093337    1.187926
    236          0           0        2.926209   -0.951061    0.231988
 ---------------------------------------------------------------------
 Rotational constants (GHZ):      0.4529074      0.2836956      0.1879557
 Standard basis: 6-311+G(d,p) (5D, 7F)
 Warning:  center  37 has no basis functions!
 Warning:  center  38 has no basis functions!
 Warning:  center  39 has no basis functions!
 Warning:  center  40 has no basis functions!
 Warning:  center  41 has no basis functions!
 Warning:  center  42 has no basis functions!
 Warning:  center  43 has no basis functions!
 Warning:  center  44 has no basis functions!
 Warning:  center  45 has no basis functions!
 Warning:  center  46 has no basis functions!
 Warning:  center  47 has no basis functions!
 Warning:  center  48 has no basis functions!
 Warning:  center  49 has no basis functions!
 Warning:  center  50 has no basis functions!
 Warning:  center  51 has no basis functions!
 Warning:  center  52 has no basis functions!
 Warning:  center  53 has no basis functions!
 Warning:  center  54 has no basis functions!
 Warning:  center  55 has no basis functions!
 Warning:  center  56 has no basis functions!
 Warning:  center  57 has no basis functions!
 Warning:  center  58 has no basis functions!
 Warning:  center  59 has no basis functions!
 Warning:  center  60 has no basis functions!
 Warning:  center  61 has no basis functions!
 Warning:  center  62 has no basis functions!
 Warning:  center  63 has no basis functions!
 Warning:  center  64 has no basis functions!
 Warning:  center  65 has no basis functions!
 Warning:  center  66 has no basis functions!
 Warning:  center  67 has no basis functions!
 Warning:  center  68 has no basis functions!
 Warning:  center  69 has no basis functions!
 Warning:  center  70 has no basis functions!
 Warning:  center  71 has no basis functions!
 Warning:  center  72 has no basis functions!
 Warning:  center  73 has no basis functions!
 Warning:  center  74 has no basis functions!
 Warning:  center  75 has no basis functions!
 Warning:  center  76 has no basis functions!
 Warning:  center  77 has no basis functions!
 Warning:  center  78 has no basis functions!
 Warning:  center  79 has no basis functions!
 Warning:  center  80 has no basis functions!
 Warning:  center  81 has no basis functions!
 Warning:  center  82 has no basis functions!
 Warning:  center  83 has no basis functions!
 Warning:  center  84 has no basis functions!
 Warning:  center  85 has no basis functions!
 Warning:  center  86 has no basis functions!
 Warning:  center  87 has no basis functions!
 Warning:  center  88 has no basis functions!
 Warning:  center  89 has no basis functions!
 Warning:  center  90 has no basis functions!
 Warning:  center  91 has no basis functions!
 Warning:  center  92 has no basis functions!
 Warning:  center  93 has no basis functions!
 Warning:  center  94 has no basis functions!
 Warning:  center  95 has no basis functions!
 Warning:  center  96 has no basis functions!
 Warning:  center  97 has no basis functions!
 Warning:  center  98 has no basis functions!
 Warning:  center  99 has no basis functions!
 Warning:  center 100 has no basis functions!
 Warning:  center 101 has no basis functions!
 Warning:  center 102 has no basis functions!
 Warning:  center 103 has no basis functions!
 Warning:  center 104 has no basis functions!
 Warning:  center 105 has no basis functions!
 Warning:  center 106 has no basis functions!
 Warning:  center 107 has no basis functions!
 Warning:  center 108 has no basis functions!
 Warning:  center 109 has no basis functions!
 Warning:  center 110 has no basis functions!
 Warning:  center 111 has no basis functions!
 Warning:  center 112 has no basis functions!
 Warning:  center 113 has no basis functions!
 Warning:  center 114 has no basis functions!
 Warning:  center 115 has no basis functions!
 Warning:  center 116 has no basis functions!
 Warning:  center 117 has no basis functions!
 Warning:  center 118 has no basis functions!
 Warning:  center 119 has no basis functions!
 Warning:  center 120 has no basis functions!
 Warning:  center 121 has no basis functions!
 Warning:  center 122 has no basis functions!
 Warning:  center 123 has no basis functions!
 Warning:  center 124 has no basis functions!
 Warning:  center 125 has no basis functions!
 Warning:  center 126 has no basis functions!
 Warning:  center 127 has no basis functions!
 Warning:  center 128 has no basis functions!
 Warning:  center 129 has no basis functions!
 Warning:  center 130 has no basis functions!
 Warning:  center 131 has no basis functions!
 Warning:  center 132 has no basis functions!
 Warning:  center 133 has no basis functions!
 Warning:  center 134 has no basis functions!
 Warning:  center 135 has no basis functions!
 Warning:  center 136 has no basis functions!
 Warning:  center 137 has no basis functions!
 Warning:  center 138 has no basis functions!
 Warning:  center 139 has no basis functions!
 Warning:  center 140 has no basis functions!
 Warning:  center 141 has no basis functions!
 Warning:  center 142 has no basis functions!
 Warning:  center 143 has no basis functions!
 Warning:  center 144 has no basis functions!
 Warning:  center 145 has no basis functions!
 Warning:  center 146 has no basis functions!
 Warning:  center 147 has no basis functions!
 Warning:  center 148 has no basis functions!
 Warning:  center 149 has no basis functions!
 Warning:  center 150 has no basis functions!
 Warning:  center 151 has no basis functions!
 Warning:  center 152 has no basis functions!
 Warning:  center 153 has no basis functions!
 Warning:  center 154 has no basis functions!
 Warning:  center 155 has no basis functions!
 Warning:  center 156 has no basis functions!
 Warning:  center 157 has no basis functions!
 Warning:  center 158 has no basis functions!
 Warning:  center 159 has no basis functions!
 Warning:  center 160 has no basis functions!
 Warning:  center 161 has no basis functions!
 Warning:  center 162 has no basis functions!
 Warning:  center 163 has no basis functions!
 Warning:  center 164 has no basis functions!
 Warning:  center 165 has no basis functions!
 Warning:  center 166 has no basis functions!
 Warning:  center 167 has no basis functions!
 Warning:  center 168 has no basis functions!
 Warning:  center 169 has no basis functions!
 Warning:  center 170 has no basis functions!
 Warning:  center 171 has no basis functions!
 Warning:  center 172 has no basis functions!
 Warning:  center 173 has no basis functions!
 Warning:  center 174 has no basis functions!
 Warning:  center 175 has no basis functions!
 Warning:  center 176 has no basis functions!
 Warning:  center 177 has no basis functions!
 Warning:  center 178 has no basis functions!
 Warning:  center 179 has no basis functions!
 Warning:  center 180 has no basis functions!
 Warning:  center 181 has no basis functions!
 Warning:  center 182 has no basis functions!
 Warning:  center 183 has no basis functions!
 Warning:  center 184 has no basis functions!
 Warning:  center 185 has no basis functions!
 Warning:  center 186 has no basis functions!
 Warning:  center 187 has no basis functions!
 Warning:  center 188 has no basis functions!
 Warning:  center 189 has no basis functions!
 Warning:  center 190 has no basis functions!
 Warning:  center 191 has no basis functions!
 Warning:  center 192 has no basis functions!
 Warning:  center 193 has no basis functions!
 Warning:  center 194 has no basis functions!
 Warning:  center 195 has no basis functions!
 Warning:  center 196 has no basis functions!
 Warning:  center 197 has no basis functions!
 Warning:  center 198 has no basis functions!
 Warning:  center 199 has no basis functions!
 Warning:  center 200 has no basis functions!
 Warning:  center 201 has no basis functions!
 Warning:  center 202 has no basis functions!
 Warning:  center 203 has no basis functions!
 Warning:  center 204 has no basis functions!
 Warning:  center 205 has no basis functions!
 Warning:  center 206 has no basis functions!
 Warning:  center 207 has no basis functions!
 Warning:  center 208 has no basis functions!
 Warning:  center 209 has no basis functions!
 Warning:  center 210 has no basis functions!
 Warning:  center 211 has no basis functions!
 Warning:  center 212 has no basis functions!
 Warning:  center 213 has no basis functions!
 Warning:  center 214 has no basis functions!
 Warning:  center 215 has no basis functions!
 Warning:  center 216 has no basis functions!
 Warning:  center 217 has no basis functions!
 Warning:  center 218 has no basis functions!
 Warning:  center 219 has no basis functions!
 Warning:  center 220 has no basis functions!
 Warning:  center 221 has no basis functions!
 Warning:  center 222 has no basis functions!
 Warning:  center 223 has no basis functions!
 Warning:  center 224 has no basis functions!
 Warning:  center 225 has no basis functions!
 Warning:  center 226 has no basis functions!
 Warning:  center 227 has no basis functions!
 Warning:  center 228 has no basis functions!
 Warning:  center 229 has no basis functions!
 Warning:  center 230 has no basis functions!
 Warning:  center 231 has no basis functions!
 Warning:  center 232 has no basis functions!
 Warning:  center 233 has no basis functions!
 Warning:  center 234 has no basis functions!
 Warning:  center 235 has no basis functions!
 Warning:  center 236 has no basis functions!
   568 basis functions,   904 primitive gaussians,   590 cartesian basis functions
    73 alpha electrons       73 beta electrons
       nuclear repulsion energy      1610.9176155625 Hartrees.
 NAtoms=  236 NActive=  236 NUniq=  236 SFac= 1.00D+00 NAtFMM=   60 NAOKFM=T Big=T
 Integral buffers will be    131072 words long.
 Raffenetti 2 integral format.
 Two-electron integral symmetry is turned off.
 One-electron integrals computed using PRISM.
 NBasis=   568 RedAO= T EigKep=  1.78D-06  NBF=   568
 NBsUse=   556 1.00D-06 EigRej=  9.09D-07 NBFU=   556
 ExpMin= 4.38D-02 ExpMax= 4.56D+03 ExpMxC= 6.82D+02 IAcc=2 IRadAn=         4 AccDes= 0.00D+00
 Harris functional with IExCor=  402 and IRadAn=       4 diagonalized for initial guess.
 HarFok:  IExCor=  402 AccDes= 0.00D+00 IRadAn=         4 IDoV= 1 UseB2=F ITyADJ=14
 ICtDFT=  3500011 ScaDFX=  1.000000  1.000000  1.000000  1.000000
 FoFCou: FMM=F IPFlag=           0 FMFlag=      100000 FMFlg1=        2001
         NFxFlg=           0 DoJE=T BraDBF=F KetDBF=T FulRan=T
         wScrn=  0.000000 ICntrl=     500 IOpCl=  0 I1Cent=   200000004 NGrid=           0
         NMat0=    1 NMatS0=      1 NMatT0=    0 NMatD0=    1 NMtDS0=    0 NMtDT0=    0
 Symmetry not used in FoFCou.
 Requested convergence on RMS density matrix=1.00D-08 within 128 cycles.
 Requested convergence on MAX density matrix=1.00D-06.
 Requested convergence on             energy=1.00D-06.
 No special actions if energy rises.
 SCF Done:  E(RB3LYP) =  -847.003289847     A.U. after   15 cycles
            NFock= 15  Conv=0.76D-08     -V/T= 2.0040
 DoSCS=F DFT=T ScalE2(SS,OS)=  1.000000  1.000000
 Range of M.O.s used for correlation:     1   556
 NBasis=   568 NAE=    73 NBE=    73 NFC=     0 NFV=     0
 NROrb=    556 NOA=    73 NOB=    73 NVA=   483 NVB=   483

 **** Warning!!: The largest alpha MO coefficient is  0.10971036D+03

          Differentiating once with respect to magnetic field using GIAOs.
          Electric field/nuclear overlap derivatives assumed to be zero.
 FoFCou: FMM=F IPFlag=           0 FMFlag=      100000 FMFlg1=        2001
         NFxFlg=           0 DoJE=F BraDBF=F KetDBF=T FulRan=T
         wScrn=  0.000000 ICntrl=    6100 IOpCl=  0 I1Cent=           7 NGrid=         236
         NMat0=    1 NMatS0=      1 NMatT0=    0 NMatD0=    1 NMtDS0=    0 NMtDT0=    0
 Symmetry not used in FoFCou.
 FoFJK:  IHMeth= 1 ICntrl=    6127 DoSepK=F KAlg= 0 I1Cent=   0 FoldK=F
 IRaf=         1 NMat=   1 IRICut=       1 DoRegI=T DoRafI=F ISym2E= 0.
          There are     3 degrees of freedom in the 1st order CPHF.  IDoFFX=0 NUNeed=     3.
      3 vectors produced by pass  0 Test12= 1.18D-12 3.33D-08 XBig12= 2.07D+03 9.18D+00.
 AX will form     3 AO Fock derivatives at one time.
      3 vectors produced by pass  1 Test12= 1.18D-12 3.33D-08 XBig12= 3.56D+00 8.03D-01.
      3 vectors produced by pass  2 Test12= 1.18D-12 3.33D-08 XBig12= 2.10D-02 6.92D-02.
      3 vectors produced by pass  3 Test12= 1.18D-12 3.33D-08 XBig12= 5.45D-05 1.89D-03.
      3 vectors produced by pass  4 Test12= 1.18D-12 3.33D-08 XBig12= 1.20D-07 7.79D-05.
      3 vectors produced by pass  5 Test12= 1.18D-12 3.33D-08 XBig12= 4.02D-10 4.73D-06.
      3 vectors produced by pass  6 Test12= 1.18D-12 3.33D-08 XBig12= 1.32D-12 2.61D-07.
 InvSVY:  IOpt=1 It=  1 EMax= 3.55D-15
 Solved reduced A of dimension    21 with     3 vectors.
 Calculating GIAO nuclear magnetic shielding tensors.
 SCF GIAO Magnetic shielding tensor (ppm):
      1  C    Isotropic =    53.8139   Anisotropy =   178.0260
   XX=   -41.4327   YX=   -32.3458   ZX=    10.0287
   XY=   -28.3572   YY=    59.0527   ZY=    55.1899
   XZ=    13.1759   YZ=    58.7550   ZZ=   143.8218
   Eigenvalues:   -53.8775    42.8214   172.4979
      2  H    Isotropic =    24.3095   Anisotropy =     4.8536
   XX=    25.5771   YX=    -1.0289   ZX=     0.5661
   XY=    -0.7431   YY=    26.1829   ZY=    -2.3306
   XZ=    -0.1707   YZ=    -2.4411   ZZ=    21.1687
   Eigenvalues:    20.2108    25.1725    27.5453
      3  C    Isotropic =    51.4055   Anisotropy =   157.8639
   XX=   -31.5399   YX=    38.5015   ZX=   -17.9316
   XY=    34.3519   YY=    49.9437   ZY=    49.6392
   XZ=    -9.8383   YZ=    44.6006   ZZ=   135.8127
   Eigenvalues:   -50.5747    48.1432   156.6481
      4  H    Isotropic =    23.8290   Anisotropy =     7.1838
   XX=    25.3635   YX=     1.8486   ZX=    -0.3559
   XY=     1.9656   YY=    26.4581   ZY=    -2.4103
   XZ=    -1.2941   YZ=    -2.6614   ZZ=    19.6654
   Eigenvalues:    18.8176    24.0511    28.6182
      5  C    Isotropic =    46.0697   Anisotropy =   207.6751
   XX=   -19.2123   YX=    -4.8852   ZX=    -1.6475
   XY=     2.8938   YY=    -2.9860   ZY=    66.5656
   XZ=     2.5356   YZ=    67.9144   ZZ=   160.4073
   Eigenvalues:   -27.2455   -19.0652   184.5197
      6  C    Isotropic =    47.5218   Anisotropy =   196.9389
   XX=   -28.1552   YX=    -2.7889   ZX=    12.0660
   XY=   -14.3886   YY=    21.2063   ZY=    74.2521
   XZ=   -18.6356   YZ=    61.1113   ZZ=   149.5144
   Eigenvalues:   -30.2925    -5.9564   178.8144
      7  C    Isotropic =    49.3915   Anisotropy =   179.8333
   XX=   -12.5211   YX=    28.7048   ZX=   -24.6745
   XY=    31.5123   YY=    29.7000   ZY=    77.7459
   XZ=   -40.0095   YZ=    65.3072   ZZ=   130.9956
   Eigenvalues:   -52.1299    31.0240   169.2804
      8  H    Isotropic =    23.1586   Anisotropy =    13.5525
   XX=    28.5711   YX=     1.5482   ZX=    -3.6986
   XY=     3.2466   YY=    22.7592   ZY=    -2.1157
   XZ=    -8.3753   YZ=    -1.0821   ZZ=    18.1456
   Eigenvalues:    15.3521    21.9301    32.1936
      9  C    Isotropic =    55.1460   Anisotropy =   174.7426
   XX=    46.7071   YX=    -2.6162   ZX=    -2.8420
   XY=     0.6223   YY=    -1.6258   ZY=    92.8272
   XZ=     0.5159   YZ=    95.6598   ZZ=   120.3568
   Eigenvalues:   -52.8932    46.6901   171.6411
     10  H    Isotropic =    24.6278   Anisotropy =     7.1815
   XX=    29.1040   YX=     0.1399   ZX=    -0.3694
   XY=     0.3642   YY=    23.4778   ZY=    -1.0805
   XZ=    -2.4493   YZ=    -2.9465   ZZ=    21.3016
   Eigenvalues:    19.9703    24.4977    29.4155
     11  C    Isotropic =    51.5607   Anisotropy =   151.2142
   XX=     2.1639   YX=    40.9287   ZX=   -26.0048
   XY=    49.9131   YY=    12.2331   ZY=    42.1342
   XZ=   -15.6145   YZ=    38.6614   ZZ=   140.2851
   Eigenvalues:   -48.1951    50.5071   152.3701
     12  H    Isotropic =    23.8537   Anisotropy =     7.3815
   XX=    25.9672   YX=     2.3738   ZX=    -0.2390
   XY=     2.4320   YY=    26.3975   ZY=    -1.8291
   XZ=     0.3529   YZ=    -1.7731   ZZ=    19.1964
   Eigenvalues:    18.7149    24.0714    28.7747
     13  C    Isotropic =    52.8653   Anisotropy =   147.4265
   XX=    51.2944   YX=    19.9221   ZX=   -13.4678
   XY=    11.5478   YY=   -34.0176   ZY=    42.5079
   XZ=    -9.2241   YZ=    40.0716   ZZ=   141.3192
   Eigenvalues:   -46.5152    53.9616   151.1497
     14  H    Isotropic =    24.0156   Anisotropy =     7.3485
   XX=    28.6644   YX=     0.6281   ZX=     1.0808
   XY=     0.5926   YY=    24.4325   ZY=    -1.0823
   XZ=     1.6846   YZ=    -0.3842   ZZ=    18.9500
   Eigenvalues:    18.6430    24.4892    28.9146
     15  C    Isotropic =    46.2221   Anisotropy =   203.9048
   XX=   -27.2215   YX=    -0.0442   ZX=   -28.9124
   XY=     4.6427   YY=   -10.5571   ZY=    28.3830
   XZ=   -10.2704   YZ=    26.7376   ZZ=   176.4448
   Eigenvalues:   -30.5512   -12.9411   182.1586
     16  C    Isotropic =    51.9375   Anisotropy =   188.2004
   XX=   -19.4441   YX=     5.5046   ZX=    15.7858
   XY=    -8.3874   YY=     2.4863   ZY=    22.9264
   XZ=   -50.6243   YZ=    23.3340   ZZ=   172.7704
   Eigenvalues:   -21.0294    -0.5625   177.4045
     17  C    Isotropic =    51.9482   Anisotropy =   149.1264
   XX=    50.7296   YX=   -23.9353   ZX=   -18.4207
   XY=   -16.7271   YY=   -41.8764   ZY=    17.8662
   XZ=   -14.3278   YZ=    11.4871   ZZ=   146.9915
   Eigenvalues:   -46.7796    51.2584   151.3658
     18  H    Isotropic =    24.0122   Anisotropy =     7.5163
   XX=    28.5811   YX=    -0.0866   ZX=     1.5071
   XY=    -0.2466   YY=    24.3342   ZY=    -0.7657
   XZ=     2.5088   YZ=    -1.5208   ZZ=    19.1214
   Eigenvalues:    18.5094    24.5041    29.0231
     19  C    Isotropic =    51.7356   Anisotropy =   148.5924
   XX=     2.4559   YX=   -45.6913   ZX=   -31.2531
   XY=   -53.4448   YY=     7.4698   ZY=    -1.8888
   XZ=   -23.5601   YZ=    -1.2765   ZZ=   145.2810
   Eigenvalues:   -46.9894    51.3989   150.7972
     20  H    Isotropic =    23.9071   Anisotropy =     7.6651
   XX=    25.5796   YX=    -2.0226   ZX=     1.4905
   XY=    -1.9998   YY=    27.3706   ZY=    -0.5164
   XZ=     2.7276   YZ=    -1.1179   ZZ=    18.7711
   Eigenvalues:    18.1643    24.5398    29.0172
     21  C    Isotropic =    45.9767   Anisotropy =   203.9316
   XX=   -16.2108   YX=    13.1802   ZX=   -44.5913
   XY=     6.5714   YY=   -20.6329   ZY=     0.0949
   XZ=   -28.8984   YZ=   -13.0883   ZZ=   174.7736
   Eigenvalues:   -30.5796   -13.4215   181.9311
     22  C    Isotropic =    52.0450   Anisotropy =   188.1157
   XX=    -0.0787   YX=     2.5023   ZX=   -16.3451
   XY=    18.9327   YY=   -14.4798   ZY=   -34.4335
   XZ=   -50.6032   YZ=    19.9104   ZZ=   170.6934
   Eigenvalues:   -20.7705    -0.5500   177.4554
     23  C    Isotropic =    53.2392   Anisotropy =   146.7412
   XX=   -22.0674   YX=   -32.0012   ZX=   -49.4857
   XY=   -23.2043   YY=    44.3661   ZY=   -15.6400
   XZ=   -43.8090   YZ=   -20.2525   ZZ=   137.4189
   Eigenvalues:   -45.6776    54.3286   151.0667
     24  H    Isotropic =    23.8249   Anisotropy =     7.5289
   XX=    25.1073   YX=    -1.7330   ZX=     1.5380
   XY=    -1.5944   YY=    28.0047   ZY=     0.0879
   XZ=     1.2557   YZ=    -0.8283   ZZ=    18.3628
   Eigenvalues:    18.0848    24.5458    28.8442
     25  C    Isotropic =    51.4969   Anisotropy =   150.1066
   XX=   -28.4915   YX=    33.9684   ZX=   -52.3137
   XY=    22.0311   YY=    46.6072   ZY=    -3.8075
   XZ=   -44.5594   YZ=   -10.6355   ZZ=   136.3748
   Eigenvalues:   -48.3857    51.3083   151.5679
     26  H    Isotropic =    23.7431   Anisotropy =     7.4052
   XX=    24.0663   YX=     1.1141   ZX=     1.9989
   XY=     0.9693   YY=    28.1000   ZY=     1.6568
   XZ=     2.0795   YZ=     0.8886   ZZ=    19.0630
   Eigenvalues:    18.2615    24.2880    28.6799
     27  C    Isotropic =    45.8108   Anisotropy =   207.2710
   XX=    -2.7702   YX=    13.7697   ZX=   -61.4651
   XY=     6.5593   YY=   -12.0335   ZY=   -41.6456
   XZ=   -62.6381   YZ=   -44.9232   ZZ=   152.2361
   Eigenvalues:   -28.0803   -18.4787   183.9915
     28  C    Isotropic =    47.8398   Anisotropy =   197.2870
   XX=    19.6900   YX=    14.4398   ZX=   -60.5682
   XY=    28.5650   YY=   -19.3566   ZY=   -56.7015
   XZ=   -63.1331   YZ=   -24.4782   ZZ=   143.1859
   Eigenvalues:   -30.5979    -5.2472   179.3644
     29  C    Isotropic =    49.3441   Anisotropy =   179.7793
   XX=    -3.4110   YX=    38.3775   ZX=   -80.8875
   XY=    36.1252   YY=    25.9805   ZY=   -23.7573
   XZ=   -78.1065   YZ=    -3.9802   ZZ=   125.4627
   Eigenvalues:   -51.6645    30.4997   169.1970
     30  H    Isotropic =    23.1387   Anisotropy =    13.3222
   XX=    22.4354   YX=    -0.7013   ZX=    -0.2375
   XY=    -2.1539   YY=    28.3546   ZY=     4.5555
   XZ=    -3.4181   YZ=     8.3231   ZZ=    18.6259
   Eigenvalues:    15.2751    22.1208    32.0201
     31  C    Isotropic =    55.4410   Anisotropy =   174.9390
   XX=    17.1871   YX=   -14.0890   ZX=   -84.0024
   XY=   -17.9030   YY=    37.4745   ZY=   -50.3662
   XZ=   -84.6557   YZ=   -54.8325   ZZ=   111.6615
   Eigenvalues:   -51.9248    46.1808   172.0670
     32  H    Isotropic =    24.5337   Anisotropy =     7.2554
   XX=    24.6185   YX=    -2.5264   ZX=     0.7632
   XY=    -2.7385   YY=    27.4630   ZY=     1.0335
   XZ=     1.1913   YZ=     3.7573   ZZ=    21.5194
   Eigenvalues:    19.8987    24.3316    29.3706
     33  C    Isotropic =    53.1814   Anisotropy =   179.0596
   XX=    60.9231   YX=    35.2256   ZX=   -42.9515
   XY=    32.0226   YY=   -38.1801   ZY=   -45.5652
   XZ=   -44.2248   YZ=   -50.7831   ZZ=   136.8014
   Eigenvalues:   -55.1197    42.1095   172.5545
     34  H    Isotropic =    24.2825   Anisotropy =     5.1861
   XX=    26.7643   YX=    -0.0934   ZX=     2.5955
   XY=    -0.2993   YY=    24.8157   ZY=     0.8589
   XZ=     2.3715   YZ=     1.4580   ZZ=    21.2676
   Eigenvalues:    20.0339    25.0737    27.7399
     35  C    Isotropic =    51.5295   Anisotropy =   155.1748
   XX=    -0.5131   YX=    52.5760   ZX=   -52.1551
   XY=    55.6135   YY=    25.1843   ZY=   -14.2643
   XZ=   -45.7255   YZ=   -17.1625   ZZ=   129.9171
   Eigenvalues:   -48.3147    47.9237   154.9793
     36  H    Isotropic =    23.8384   Anisotropy =     7.3073
   XX=    24.2302   YX=     1.4459   ZX=     2.1759
   XY=     1.2147   YY=    27.1572   ZY=     2.0665
   XZ=     1.6853   YZ=     2.7775   ZZ=    20.1277
   Eigenvalues:    18.9464    23.8588    28.7099
     37  Bq   Isotropic =     3.9573   Anisotropy =    13.5941
   XX=    -2.1113   YX=     0.3645   ZX=    -0.2895
   XY=    -3.4261   YY=     5.4628   ZY=    -1.9596
   XZ=    12.2102   YZ=    -4.8165   ZZ=     8.5204
   Eigenvalues:    -4.7819     3.6338    13.0200
     38  Bq   Isotropic =     9.6163   Anisotropy =    27.7174
   XX=     4.1223   YX=   -13.6700   ZX=    -9.5522
   XY=    -9.3535   YY=    22.4723   ZY=    -2.3894
   XZ=    -6.5085   YZ=    -2.3691   ZZ=     2.2543
   Eigenvalues:    -8.0735     8.8277    28.0946
     39  Bq   Isotropic =     9.9190   Anisotropy =    11.9020
   XX=     8.3151   YX=    -3.9994   ZX=    -2.3870
   XY=    -5.0073   YY=    15.2833   ZY=    -0.5290
   XZ=    11.1698   YZ=     0.5294   ZZ=     6.1586
   Eigenvalues:     2.0671     9.8362    17.8537
     40  Bq   Isotropic =     8.1846   Anisotropy =    10.9189
   XX=     5.9366   YX=    -2.1402   ZX=     0.6003
   XY=    -4.1355   YY=    12.3739   ZY=    -0.3486
   XZ=    13.5589   YZ=    -0.6954   ZZ=     6.2432
   Eigenvalues:    -1.2589    10.3488    15.4638
     41  Bq   Isotropic =    10.6546   Anisotropy =    13.5954
   XX=    11.4230   YX=    -4.8160   ZX=    -0.8953
   XY=    -4.7089   YY=    16.5265   ZY=    -0.5499
   XZ=    10.1378   YZ=     0.9551   ZZ=     4.0141
   Eigenvalues:     1.4271    10.8184    19.7182
     42  Bq   Isotropic =     6.8761   Anisotropy =    11.3382
   XX=     3.2377   YX=    -1.1897   ZX=     0.7895
   XY=    -3.9351   YY=    10.3485   ZY=    -0.5999
   XZ=    14.1002   YZ=    -1.8407   ZZ=     7.0420
   Eigenvalues:    -2.6732     8.8665    14.4348
     43  Bq   Isotropic =    11.4787   Anisotropy =    16.1985
   XX=    13.3182   YX=    -6.5406   ZX=    -2.1447
   XY=    -5.2459   YY=    18.2524   ZY=    -1.0554
   XZ=     7.2233   YZ=     1.0593   ZZ=     2.8655
   Eigenvalues:     2.1496    10.0088    22.2777
     44  Bq   Isotropic =     5.6800   Anisotropy =    12.2276
   XX=     0.9302   YX=    -0.4542   ZX=     0.7130
   XY=    -3.7267   YY=     8.5178   ZY=    -0.9774
   XZ=    14.0387   YZ=    -2.9773   ZZ=     7.5920
   Eigenvalues:    -3.8712     7.0795    13.8317
     45  Bq   Isotropic =    11.8450   Anisotropy =    18.9483
   XX=    14.0332   YX=    -8.4179   ZX=    -3.3888
   XY=    -6.0497   YY=    19.4439   ZY=    -1.6779
   XZ=     3.7807   YZ=     0.5117   ZZ=     2.0581
   Eigenvalues:     2.0383     9.0196    24.4772
     46  Bq   Isotropic =     4.6529   Anisotropy =    13.0726
   XX=    -0.8912   YX=     0.1043   ZX=     0.4712
   XY=    -3.4950   YY=     6.9279   ZY=    -1.4031
   XZ=    13.5374   YZ=    -4.0055   ZZ=     7.9219
   Eigenvalues:    -4.7626     5.3533    13.3680
     47  Bq   Isotropic =    11.7900   Anisotropy =    21.2924
   XX=    13.4674   YX=   -10.2358   ZX=    -4.1096
   XY=    -7.0822   YY=    19.9949   ZY=    -2.1181
   XZ=     0.2741   YZ=    -0.5810   ZZ=     1.9076
   Eigenvalues:     1.0518     8.3332    25.9849
     48  Bq   Isotropic =     3.8100   Anisotropy =    13.6998
   XX=    -2.2285   YX=     0.5189   ZX=     0.1481
   XY=    -3.2421   YY=     5.5847   ZY=    -1.8200
   XZ=    12.7482   YZ=    -4.8724   ZZ=     8.0739
   Eigenvalues:    -5.3353     3.8221    12.9432
     49  Bq   Isotropic =    11.5739   Anisotropy =    22.7146
   XX=    12.1229   YX=   -11.6626   ZX=    -3.7665
   XY=    -8.1076   YY=    20.0182   ZY=    -2.0287
   XZ=    -2.7676   YZ=    -1.8455   ZZ=     2.5806
   Eigenvalues:    -0.0473     8.0521    26.7170
     50  Bq   Isotropic =     9.4970   Anisotropy =    11.6704
   XX=     8.7950   YX=    -3.3421   ZX=     0.0514
   XY=    -4.3694   YY=    14.4907   ZY=    -0.3104
   XZ=    12.2665   YZ=     0.3036   ZZ=     5.2052
   Eigenvalues:     0.1916    11.0221    17.2772
     51  Bq   Isotropic =     7.8801   Anisotropy =    10.9273
   XX=     6.0888   YX=    -1.0947   ZX=     2.0883
   XY=    -3.4202   YY=    12.0558   ZY=     0.2610
   XZ=    14.4052   YZ=    -0.8680   ZZ=     5.4958
   Eigenvalues:    -2.5858    11.0612    15.1650
     52  Bq   Isotropic =    10.4632   Anisotropy =    11.7149
   XX=    12.2381   YX=    -2.9384   ZX=     1.7743
   XY=    -3.4213   YY=    15.5409   ZY=     0.4193
   XZ=    11.3670   YZ=     0.8711   ZZ=     3.6107
   Eigenvalues:    -0.2167    13.3333    18.2731
     53  Bq   Isotropic =     6.6068   Anisotropy =    11.5801
   XX=     3.2617   YX=    -0.4245   ZX=     1.8722
   XY=    -3.4060   YY=    10.2558   ZY=    -0.1362
   XZ=    14.8466   YZ=    -2.0255   ZZ=     6.3028
   Eigenvalues:    -3.7583     9.2518    14.3268
     54  Bq   Isotropic =    11.5273   Anisotropy =    13.1449
   XX=    14.8461   YX=    -4.1144   ZX=     1.2705
   XY=    -3.5599   YY=    16.9123   ZY=     0.1125
   XZ=     8.8240   YZ=     1.1302   ZZ=     2.8236
   Eigenvalues:     0.7526    13.5388    20.2906
     55  Bq   Isotropic =     5.4654   Anisotropy =    12.4234
   XX=     0.8907   YX=     0.1050   ZX=     1.4896
   XY=    -3.3318   YY=     8.5702   ZY=    -0.6361
   XZ=    14.7009   YZ=    -3.1745   ZZ=     6.9353
   Eigenvalues:    -4.7325     7.3810    13.7477
     56  Bq   Isotropic =    12.3031   Anisotropy =    14.7472
   XX=    16.6462   YX=    -5.3919   ZX=     0.7416
   XY=    -3.8976   YY=    17.8407   ZY=    -0.3372
   XZ=     5.8875   YZ=     0.8766   ZZ=     2.4223
   Eigenvalues:     1.5805    13.1941    22.1345
     57  Bq   Isotropic =     4.4965   Anisotropy =    13.2007
   XX=    -0.9565   YX=     0.5149   ZX=     1.0183
   XY=    -3.1944   YY=     7.0590   ZY=    -1.1616
   XZ=    14.1182   YZ=    -4.2160   ZZ=     7.3869
   Eigenvalues:    -5.4304     5.6229    13.2970
     58  Bq   Isotropic =    12.7895   Anisotropy =    16.1024
   XX=    17.5027   YX=    -6.6286   ZX=     0.4881
   XY=    -4.4334   YY=    18.2844   ZY=    -0.6939
   XZ=     2.9400   YZ=     0.2288   ZZ=     2.5813
   Eigenvalues:     2.3758    12.4682    23.5244
     59  Bq   Isotropic =     3.7068   Anisotropy =    13.7992
   XX=    -2.2984   YX=     0.8233   ZX=     0.5237
   XY=    -3.0073   YY=     5.7458   ZY=    -1.6570
   XZ=    13.2482   YZ=    -5.0941   ZZ=     7.6729
   Eigenvalues:    -5.8431     4.0572    12.9063
     60  Bq   Isotropic =    13.1041   Anisotropy =    16.8751
   XX=    17.6556   YX=    -7.6028   ZX=     0.8011
   XY=    -5.0186   YY=    18.3480   ZY=    -0.6815
   XZ=     0.3417   YZ=    -0.5051   ZZ=     3.3088
   Eigenvalues:     3.2765    11.6816    24.3542
     61  Bq   Isotropic =     9.2045   Anisotropy =    10.8903
   XX=     9.1856   YX=    -1.9279   ZX=     2.0661
   XY=    -3.4041   YY=    13.8662   ZY=     0.4686
   XZ=    13.2585   YZ=     0.1545   ZZ=     4.5617
   Eigenvalues:    -1.3557    12.5045    16.4647
     62  Bq   Isotropic =     7.6811   Anisotropy =    10.8016
   XX=     6.1347   YX=     0.3599   ZX=     3.1033
   XY=    -2.5821   YY=    12.0019   ZY=     1.1652
   XZ=    15.1632   YZ=    -1.0390   ZZ=     4.9067
   Eigenvalues:    -3.6746    11.8357    14.8821
     63  Bq   Isotropic =    10.2902   Anisotropy =    10.3536
   XX=    12.5486   YX=    -0.3776   ZX=     3.5773
   XY=    -1.8465   YY=    14.9794   ZY=     1.9354
   XZ=    12.4087   YZ=     1.0421   ZZ=     3.3424
   Eigenvalues:    -1.4851    15.1630    17.1926
     64  Bq   Isotropic =     6.4467   Anisotropy =    11.5396
   XX=     3.2676   YX=     0.6467   ZX=     2.6166
   XY=    -2.7943   YY=    10.3633   ZY=     0.5126
   XZ=    15.5189   YZ=    -2.2908   ZZ=     5.7092
   Eigenvalues:    -4.6645     9.8649    14.1398
     65  Bq   Isotropic =    11.4758   Anisotropy =    10.6000
   XX=    15.4830   YX=    -0.8576   ZX=     3.5757
   XY=    -1.4553   YY=    16.0836   ZY=     1.9183
   XZ=    10.1245   YZ=     1.5921   ZZ=     2.8607
   Eigenvalues:    -0.4028    16.2877    18.5424
     66  Bq   Isotropic =     5.3523   Anisotropy =    12.4091
   XX=     0.8805   YX=     0.8909   ZX=     2.0280
   XY=    -2.8772   YY=     8.7698   ZY=    -0.1932
   XZ=    15.2955   YZ=    -3.5012   ZZ=     6.4067
   Eigenvalues:    -5.4541     7.8861    13.6251
     67  Bq   Isotropic =    12.4724   Anisotropy =    11.0076
   XX=    17.8127   YX=    -1.4160   ZX=     3.5417
   XY=    -1.1762   YY=    16.8279   ZY=     1.6640
   XZ=     7.5366   YZ=     1.7296   ZZ=     2.7765
   Eigenvalues:     0.7036    16.9027    19.8108
     68  Bq   Isotropic =     4.4284   Anisotropy =    13.2241
   XX=    -0.9710   YX=     1.0934   ZX=     1.3998
   XY=    -2.8473   YY=     7.2943   ZY=    -0.8759
   XZ=    14.6358   YZ=    -4.5780   ZZ=     6.9620
   Eigenvalues:    -5.9873     6.0280    13.2445
     69  Bq   Isotropic =    13.2552   Anisotropy =    11.3886
   XX=    19.3941   YX=    -2.0128   ZX=     3.6444
   XY=    -1.0701   YY=    17.2268   ZY=     1.3266
   XZ=     4.9716   YZ=     1.5503   ZZ=     3.1446
   Eigenvalues:     1.8686    17.0493    20.8476
     70  Bq   Isotropic =     3.6770   Anisotropy =    13.8729
   XX=    -2.3118   YX=     1.2521   ZX=     0.7854
   XY=    -2.7338   YY=     5.9768   ZY=    -1.4856
   XZ=    13.6899   YZ=    -5.4702   ZZ=     7.3660
   Eigenvalues:    -6.2631     4.3685    12.9256
     71  Bq   Isotropic =    13.8587   Anisotropy =    11.5977
   XX=    20.3388   YX=    -2.5530   ZX=     4.0234
   XY=    -1.0995   YY=    17.3781   ZY=     1.1207
   XZ=     2.6760   YZ=     1.2862   ZZ=     3.8592
   Eigenvalues:     3.0392    16.9464    21.5905
     72  Bq   Isotropic =     8.9923   Anisotropy =    10.3894
   XX=     9.3190   YX=     0.0232   ZX=     3.4318
   XY=    -2.2503   YY=    13.5813   ZY=     1.6695
   XZ=    14.1293   YZ=     0.1224   ZZ=     4.0767
   Eigenvalues:    -2.5841    13.6425    15.9186
     73  Bq   Isotropic =     7.5928   Anisotropy =    11.1211
   XX=     6.0216   YX=     2.0462   ZX=     3.5272
   XY=    -1.7080   YY=    12.3201   ZY=     2.2221
   XZ=    15.8027   YZ=    -1.2188   ZZ=     4.4368
   Eigenvalues:    -4.4721    12.2437    15.0069
     74  Bq   Isotropic =    10.0706   Anisotropy =    13.3512
   XX=    12.2123   YX=     2.5385   ZX=     4.3754
   XY=    -0.1723   YY=    14.9488   ZY=     3.7549
   XZ=    13.2363   YZ=     1.4020   ZZ=     3.0506
   Eigenvalues:    -2.4424    13.6827    18.9714
     75  Bq   Isotropic =     6.4185   Anisotropy =    11.2607
   XX=     3.2342   YX=     1.8988   ZX=     2.9283
   XY=    -2.1562   YY=    10.7569   ZY=     1.2433
   XZ=    16.0856   YZ=    -2.6362   ZZ=     5.2643
   Eigenvalues:    -5.3202    10.6500    13.9256
     76  Bq   Isotropic =    11.2172   Anisotropy =    14.3951
   XX=    15.0577   YX=     2.8055   ZX=     4.6607
   XY=     0.8033   YY=    15.8299   ZY=     4.0610
   XZ=    11.1013   YZ=     2.3254   ZZ=     2.7640
   Eigenvalues:    -1.3420    14.1797    20.8139
     77  Bq   Isotropic =     5.3705   Anisotropy =    12.1651
   XX=     0.8976   YX=     1.8174   ZX=     2.2560
   XY=    -2.3985   YY=     9.1777   ZY=     0.2789
   XZ=    15.7911   YZ=    -3.9519   ZZ=     6.0363
   Eigenvalues:    -5.9663     8.5973    13.4806
     78  Bq   Isotropic =    12.2189   Anisotropy =    15.0361
   XX=    17.3810   YX=     2.9828   ZX=     4.9637
   XY=     1.7549   YY=    16.3956   ZY=     3.9774
   XZ=     8.7120   YZ=     2.8857   ZZ=     2.8801
   Eigenvalues:    -0.1711    14.5849    22.2430
     79  Bq   Isotropic =     4.4789   Anisotropy =    13.1355
   XX=    -0.9271   YX=     1.7811   ZX=     1.5622
   XY=    -2.4755   YY=     7.6726   ZY=    -0.5947
   XZ=    15.0611   YZ=    -5.0835   ZZ=     6.6912
   Eigenvalues:    -6.3735     6.5743    13.2359
     80  Bq   Isotropic =    13.0572   Anisotropy =    15.2331
   XX=    19.0839   YX=     2.9888   ZX=     5.3935
   XY=     2.5399   YY=    16.7221   ZY=     3.5763
   XZ=     6.3687   YZ=     3.1380   ZZ=     3.3656
   Eigenvalues:     1.0520    14.9071    23.2126
     81  Bq   Isotropic =     3.7478   Anisotropy =    13.9242
   XX=    -2.2578   YX=     1.7663   ZX=     0.8938
   XY=    -2.4350   YY=     6.2998   ZY=    -1.3369
   XZ=    14.0474   YZ=    -5.9911   ZZ=     7.2014
   Eigenvalues:    -6.5480     4.7608    13.0306
     82  Bq   Isotropic =    13.7450   Anisotropy =    15.0874
   XX=    20.2725   YX=     2.7910   ZX=     5.9957
   XY=     3.0730   YY=    16.9269   ZY=     3.0403
   XZ=     4.2524   YZ=     3.2510   ZZ=     4.0356
   Eigenvalues:     2.2064    15.2254    23.8033
     83  Bq   Isotropic =     8.8361   Anisotropy =    12.0917
   XX=     9.0994   YX=     2.2665   ZX=     4.0123
   XY=    -1.0376   YY=    13.7545   ZY=     3.1034
   XZ=    14.8507   YZ=     0.1766   ZZ=     3.6543
   Eigenvalues:    -3.4915    13.1024    16.8972
     84  Bq   Isotropic =     7.6531   Anisotropy =    12.1934
   XX=     5.7596   YX=     3.7660   ZX=     3.2955
   XY=    -0.8807   YY=    13.0882   ZY=     3.2498
   XZ=    16.2581   YZ=    -1.4584   ZZ=     4.1115
   Eigenvalues:    -4.8815    12.0588    15.7821
     85  Bq   Isotropic =     9.8209   Anisotropy =    17.0547
   XX=    11.2049   YX=     5.4865   ZX=     4.0897
   XY=     1.4441   YY=    15.5397   ZY=     5.6251
   XZ=    13.7694   YZ=     1.8380   ZZ=     2.7180
   Eigenvalues:    -3.0230    11.2949    21.1907
     86  Bq   Isotropic =     6.5609   Anisotropy =    10.8105
   XX=     3.1786   YX=     3.1861   ZX=     2.7562
   XY=    -1.5469   YY=    11.4925   ZY=     1.9169
   XZ=    16.4900   YZ=    -3.0898   ZZ=     5.0115
   Eigenvalues:    -5.6301    11.5448    13.7679
     87  Bq   Isotropic =    10.7531   Anisotropy =    19.1723
   XX=    13.5336   YX=     6.4923   ZX=     4.4634
   XY=     3.0193   YY=    16.2172   ZY=     6.2752
   XZ=    11.6754   YZ=     3.1835   ZZ=     2.5083
   Eigenvalues:    -1.9903    10.7150    23.5346
     88  Bq   Isotropic =     5.5555   Anisotropy =    11.6998
   XX=     0.9609   YX=     2.7811   ZX=     2.1345
   XY=    -1.9309   YY=     9.8285   ZY=     0.6808
   XZ=    16.1397   YZ=    -4.5371   ZZ=     5.8772
   Eigenvalues:    -6.1861     9.4973    13.3554
     89  Bq   Isotropic =    11.5395   Anisotropy =    20.7562
   XX=    15.3316   YX=     7.3756   ZX=     4.9886
   XY=     4.6640   YY=    16.5654   ZY=     6.3468
   XZ=     9.3489   YZ=     4.1692   ZZ=     2.7213
   Eigenvalues:    -0.8900    10.1315    25.3769
     90  Bq   Isotropic =     4.6782   Anisotropy =    12.9735
   XX=    -0.8078   YX=     2.5068   ZX=     1.4753
   XY=    -2.1009   YY=     8.2117   ZY=    -0.3849
   XZ=    15.3539   YZ=    -5.7308   ZZ=     6.6307
   Eigenvalues:    -6.5231     7.2305    13.3272
     91  Bq   Isotropic =    12.2090   Anisotropy =    21.6798
   XX=    16.6212   YX=     7.9188   ZX=     5.7755
   XY=     6.1362   YY=    16.7415   ZY=     5.8302
   XZ=     7.0939   YZ=     4.8011   ZZ=     3.2643
   Eigenvalues:     0.2511     9.7137    26.6622
     92  Bq   Isotropic =     3.9439   Anisotropy =    13.9881
   XX=    -2.1221   YX=     2.3172   ZX=     0.8257
   XY=    -2.1243   YY=     6.7208   ZY=    -1.2530
   XZ=    14.2876   YZ=    -6.6475   ZZ=     7.2329
   Eigenvalues:    -6.6481     5.2105    13.2693
     93  Bq   Isotropic =    12.8150   Anisotropy =    21.9418
   XX=    17.6255   YX=     7.9587   ZX=     6.8058
   XY=     7.2138   YY=    16.9253   ZY=     4.9011
   XZ=     5.0660   YZ=     5.2041   ZZ=     3.8943
   Eigenvalues:     1.3009     9.7013    27.4429
     94  Bq   Isotropic =     8.7659   Anisotropy =    14.6199
   XX=     8.5221   YX=     4.5425   ZX=     3.7309
   XY=     0.1166   YY=    14.4783   ZY=     4.5480
   XZ=    15.3482   YZ=     0.2371   ZZ=     3.2974
   Eigenvalues:    -3.9944    11.7796    18.5125
     95  Bq   Isotropic =     7.9419   Anisotropy =    13.4434
   XX=     5.4357   YX=     5.3001   ZX=     2.3972
   XY=    -0.1838   YY=    14.3468   ZY=     4.0303
   XZ=    16.4172   YZ=    -1.8330   ZZ=     4.0432
   Eigenvalues:    -4.7403    11.6618    16.9041
     96  Bq   Isotropic =     9.6572   Anisotropy =    20.3080
   XX=     9.6394   YX=     8.1058   ZX=     2.6777
   XY=     2.8357   YY=    16.8505   ZY=     7.2440
   XZ=    13.8441   YZ=     2.1981   ZZ=     2.4818
   Eigenvalues:    -2.9946     8.7704    23.1959
     97  Bq   Isotropic =     6.9342   Anisotropy =    10.4039
   XX=     3.1653   YX=     4.3489   ZX=     2.0959
   XY=    -1.0208   YY=    12.5856   ZY=     2.3700
   XZ=    16.6446   YZ=    -3.6929   ZZ=     5.0516
   Eigenvalues:    -5.4653    12.3977    13.8701
     98  Bq   Isotropic =    10.2100   Anisotropy =    23.4043
   XX=    11.0172   YX=     9.7779   ZX=     2.9250
   XY=     4.9815   YY=    17.3622   ZY=     8.2559
   XZ=    11.6666   YZ=     3.9834   ZZ=     2.2507
   Eigenvalues:    -2.0780     6.8951    25.8129
     99  Bq   Isotropic =     5.9508   Anisotropy =    11.1051
   XX=     1.1139   YX=     3.6689   ZX=     1.6605
   XY=    -1.5084   YY=    10.7205   ZY=     0.8987
   XZ=    16.2739   YZ=    -5.2717   ZZ=     6.0180
   Eigenvalues:    -6.0169    10.5151    13.3542
    100  Bq   Isotropic =    10.5682   Anisotropy =    25.8817
   XX=    11.7610   YX=    11.2923   ZX=     3.5539
   XY=     7.3058   YY=    17.4586   ZY=     8.4989
   XZ=     9.2671   YZ=     5.3804   ZZ=     2.4850
   Eigenvalues:    -1.1507     5.0326    27.8226
    101  Bq   Isotropic =     5.0572   Anisotropy =    12.8446
   XX=    -0.5847   YX=     3.1920   ZX=     1.1353
   XY=    -1.7442   YY=     8.9004   ZY=    -0.3202
   XZ=    15.4626   YZ=    -6.5164   ZZ=     6.8558
   Eigenvalues:    -6.3661     7.9174    13.6202
    102  Bq   Isotropic =    10.8578   Anisotropy =    27.5020
   XX=    12.1127   YX=    12.2860   ZX=     4.7430
   XY=     9.4550   YY=    17.4011   ZY=     7.8752
   XZ=     6.9868   YZ=     6.3414   ZZ=     3.0596
   Eigenvalues:    -0.1996     3.5805    29.1925
    103  Bq   Isotropic =     4.2871   Anisotropy =    14.1314
   XX=    -1.8867   YX=     2.8513   ZX=     0.5759
   XY=    -1.8144   YY=     7.2247   ZY=    -1.2782
   XZ=    14.3710   YZ=    -7.4244   ZZ=     7.5232
   Eigenvalues:    -6.5142     5.6674    13.7080
    104  Bq   Isotropic =    11.2407   Anisotropy =    28.1486
   XX=    12.5550   YX=    12.4613   ZX=     6.4303
   XY=    11.0508   YY=    17.4815   ZY=     6.5631
   XZ=     4.9918   YZ=     6.9664   ZZ=     3.6855
   Eigenvalues:     0.6978     3.0179    30.0064
    105  Bq   Isotropic =     8.8818   Anisotropy =    16.8892
   XX=     7.6927   YX=     6.5629   ZX=     2.5637
   XY=     1.0899   YY=    15.8230   ZY=     5.7345
   XZ=    15.4830   YZ=     0.1903   ZZ=     3.1297
   Eigenvalues:    -3.8961    10.4003    20.1413
    106  Bq   Isotropic =     8.5747   Anisotropy =    14.3841
   XX=     5.2166   YX=     6.4134   ZX=     0.8916
   XY=     0.2943   YY=    16.0713   ZY=     4.3211
   XZ=    16.1300   YZ=    -2.4198   ZZ=     4.4361
   Eigenvalues:    -3.8305    11.3905    18.1640
    107  Bq   Isotropic =     9.7993   Anisotropy =    22.6828
   XX=     7.8104   YX=     9.9653   ZX=     0.1757
   XY=     3.7851   YY=    18.9440   ZY=     8.2197
   XZ=    13.2257   YZ=     2.2927   ZZ=     2.6436
   Eigenvalues:    -1.9670     6.4438    24.9212
    108  Bq   Isotropic =     7.6135   Anisotropy =    10.5963
   XX=     3.3029   YX=     5.2222   ZX=     0.9977
   XY=    -0.6307   YY=    13.9927   ZY=     2.4345
   XZ=    16.4367   YZ=    -4.4787   ZZ=     5.5449
   Eigenvalues:    -4.6739    12.8367    14.6777
    109  Bq   Isotropic =     9.8573   Anisotropy =    26.5869
   XX=     7.8453   YX=    12.1211   ZX=     0.0430
   XY=     6.3824   YY=    19.3873   ZY=     9.5755
   XZ=    10.8074   YZ=     4.4827   ZZ=     2.3395
   Eigenvalues:    -1.1282     3.1183    27.5819
    110  Bq   Isotropic =     6.6028   Anisotropy =    10.7820
   XX=     1.4224   YX=     4.3671   ZX=     0.8710
   XY=    -1.1621   YY=    11.8046   ZY=     0.8241
   XZ=    16.1112   YZ=    -6.1579   ZZ=     6.5814
   Eigenvalues:    -5.3564    11.3740    13.7908
    111  Bq   Isotropic =     9.6127   Anisotropy =    29.8245
   XX=     7.0225   YX=    14.0963   ZX=     0.6094
   XY=     9.2810   YY=    19.2528   ZY=    10.0236
   XZ=     8.1838   YZ=     6.2405   ZZ=     2.5627
   Eigenvalues:    -0.8355     0.1779    29.4957
    112  Bq   Isotropic =     5.6435   Anisotropy =    12.9238
   XX=    -0.2207   YX=     3.7591   ZX=     0.5663
   XY=    -1.4242   YY=     9.6926   ZY=    -0.4653
   XZ=    15.3271   YZ=    -7.4226   ZZ=     7.4586
   Eigenvalues:    -5.8360     8.5072    14.2594
    113  Bq   Isotropic =     9.3384   Anisotropy =    32.0432
   XX=     5.9148   YX=    15.3930   ZX=     2.2058
   XY=    12.0215   YY=    18.9175   ZY=     9.3733
   XZ=     5.7741   YZ=     7.4684   ZZ=     3.1828
   Eigenvalues:    -3.1176     0.4322    30.7005
    114  Bq   Isotropic =     4.7939   Anisotropy =    14.4362
   XX=    -1.5313   YX=     3.3155   ZX=     0.1579
   XY=    -1.5169   YY=     7.7728   ZY=    -1.4475
   XZ=    14.2540   YZ=    -8.2936   ZZ=     8.1403
   Eigenvalues:    -6.1033     6.0670    14.4180
    115  Bq   Isotropic =     9.3790   Anisotropy =    33.0135
   XX=     5.4355   YX=    15.5888   ZX=     4.7562
   XY=    14.0659   YY=    18.8273   ZY=     7.7975
   XZ=     3.7911   YZ=     8.2608   ZZ=     3.8741
   Eigenvalues:    -4.2422     0.9911    31.3879
    116  Bq   Isotropic =     9.3493   Anisotropy =    18.5009
   XX=     6.8442   YX=     8.0025   ZX=     0.5674
   XY=     1.7399   YY=    17.8001   ZY=     6.3404
   XZ=    15.0621   YZ=    -0.0951   ZZ=     3.4037
   Eigenvalues:    -2.8984     9.2631    21.6833
    117  Bq   Isotropic =     9.6753   Anisotropy =    14.7791
   XX=     5.3293   YX=     6.8834   ZX=    -1.0677
   XY=     0.4706   YY=    18.1310   ZY=     3.9008
   XZ=    15.2411   YZ=    -3.2645   ZZ=     5.5656
   Eigenvalues:    -1.9349    11.4328    19.5280
    118  Bq   Isotropic =    10.5445   Anisotropy =    23.7350
   XX=     6.2303   YX=    10.5982   ZX=    -3.2083
   XY=     4.0333   YY=    21.7433   ZY=     8.1005
   XZ=    11.6788   YZ=     1.9234   ZZ=     3.6599
   Eigenvalues:     0.5102     4.7554    26.3678
    119  Bq   Isotropic =     8.6697   Anisotropy =    11.2144
   XX=     3.7265   YX=     5.6568   ZX=    -0.4246
   XY=    -0.4212   YY=    15.5911   ZY=     1.9761
   XZ=    15.7502   YZ=    -5.4461   ZZ=     6.6915
   Eigenvalues:    -3.1175    12.9807    16.1459
    120  Bq   Isotropic =    10.1019   Anisotropy =    28.1252
   XX=     4.7002   YX=    12.8911   ZX=    -3.9916
   XY=     6.8122   YY=    22.2851   ZY=     9.6877
   XZ=     8.8357   YZ=     4.3919   ZZ=     3.3204
   Eigenvalues:    -0.0502     1.5039    28.8520
    121  Bq   Isotropic =     7.5484   Anisotropy =    11.2732
   XX=     1.9603   YX=     4.7758   ZX=    -0.1557
   XY=    -0.9165   YY=    12.9772   ZY=     0.3834
   XZ=    15.5676   YZ=    -7.1656   ZZ=     7.7078
   Eigenvalues:    -4.1217    11.7031    15.0639
    122  Bq   Isotropic =     9.1843   Anisotropy =    31.8517
   XX=     1.9521   YX=    14.9949   ZX=    -3.7134
   XY=    10.0024   YY=    22.0245   ZY=    10.3442
   XZ=     5.8285   YZ=     6.3799   ZZ=     3.5762
   Eigenvalues:    -5.0928     2.2269    30.4187
    123  Bq   Isotropic =     6.4545   Anisotropy =    13.3616
   XX=     0.3215   YX=     4.1404   ZX=    -0.1812
   XY=    -1.1549   YY=    10.5070   ZY=    -0.8555
   XZ=    14.8881   YZ=    -8.4051   ZZ=     8.5351
   Eigenvalues:    -4.8850     8.8863    15.3623
    124  Bq   Isotropic =     8.2429   Anisotropy =    34.4744
   XX=    -1.0229   YX=    16.3293   ZX=    -1.7961
   XY=    13.0829   YY=    21.4378   ZY=     9.8082
   XZ=     3.1988   YZ=     7.7609   ZZ=     4.3138
   Eigenvalues:    -9.2040     2.7068    31.2258
    125  Bq   Isotropic =     5.4714   Anisotropy =    14.9632
[...]
   129  Bq   0.000000
   130  Bq   0.000000
   131  Bq   0.000000
   132  Bq   0.000000
   133  Bq   0.000000
   134  Bq   0.000000
   135  Bq   0.000000
   136  Bq   0.000000
   137  Bq   0.000000
   138  Bq   0.000000
   139  Bq   0.000000
   140  Bq   0.000000
   141  Bq   0.000000
   142  Bq   0.000000
   143  Bq   0.000000
   144  Bq   0.000000
   145  Bq   0.000000
   146  Bq   0.000000
   147  Bq   0.000000
   148  Bq   0.000000
   149  Bq   0.000000
   150  Bq   0.000000
   151  Bq   0.000000
   152  Bq   0.000000
   153  Bq   0.000000
   154  Bq   0.000000
   155  Bq   0.000000
   156  Bq   0.000000
   157  Bq   0.000000
   158  Bq   0.000000
   159  Bq   0.000000
   160  Bq   0.000000
   161  Bq   0.000000
   162  Bq   0.000000
   163  Bq   0.000000
   164  Bq   0.000000
   165  Bq   0.000000
   166  Bq   0.000000
   167  Bq   0.000000
   168  Bq   0.000000
   169  Bq   0.000000
   170  Bq   0.000000
   171  Bq   0.000000
   172  Bq   0.000000
   173  Bq   0.000000
   174  Bq   0.000000
   175  Bq   0.000000
   176  Bq   0.000000
   177  Bq   0.000000
   178  Bq   0.000000
   179  Bq   0.000000
   180  Bq   0.000000
   181  Bq   0.000000
   182  Bq   0.000000
   183  Bq   0.000000
   184  Bq   0.000000
   185  Bq   0.000000
   186  Bq   0.000000
   187  Bq   0.000000
   188  Bq   0.000000
   189  Bq   0.000000
   190  Bq   0.000000
   191  Bq   0.000000
   192  Bq   0.000000
   193  Bq   0.000000
   194  Bq   0.000000
   195  Bq   0.000000
   196  Bq   0.000000
   197  Bq   0.000000
   198  Bq   0.000000
   199  Bq   0.000000
   200  Bq   0.000000
   201  Bq   0.000000
   202  Bq   0.000000
   203  Bq   0.000000
   204  Bq   0.000000
   205  Bq   0.000000
   206  Bq   0.000000
   207  Bq   0.000000
   208  Bq   0.000000
   209  Bq   0.000000
   210  Bq   0.000000
   211  Bq   0.000000
   212  Bq   0.000000
   213  Bq   0.000000
   214  Bq   0.000000
   215  Bq   0.000000
   216  Bq   0.000000
   217  Bq   0.000000
   218  Bq   0.000000
   219  Bq   0.000000
   220  Bq   0.000000
   221  Bq   0.000000
   222  Bq   0.000000
   223  Bq   0.000000
   224  Bq   0.000000
   225  Bq   0.000000
   226  Bq   0.000000
   227  Bq   0.000000
   228  Bq   0.000000
   229  Bq   0.000000
   230  Bq   0.000000
   231  Bq   0.000000
   232  Bq   0.000000
   233  Bq   0.000000
   234  Bq   0.000000
   235  Bq   0.000000
   236  Bq   0.000000
 Sum of Mulliken charges =   0.00000
 Mulliken charges with hydrogens summed into heavy atoms:
               1
     1  C   -0.255498
     3  C    0.169409
     5  C    0.448258
     6  C    0.064351
     7  C   -0.333926
     9  C   -0.139521
    11  C   -0.205988
    13  C   -0.119315
    15  C    0.653397
    16  C    0.034822
    17  C   -0.317410
    19  C   -0.316854
    21  C    0.651066
    22  C    0.037784
    23  C   -0.117289
    25  C   -0.205316
    27  C    0.448331
    28  C    0.061983
    29  C   -0.333381
    31  C   -0.139505
    33  C   -0.255977
    35  C    0.055019
    37  Bq   0.000000
    38  Bq   0.115561
    39  Bq   0.000000
    40  Bq   0.000000
    41  Bq   0.000000
    42  Bq   0.000000
    43  Bq   0.000000
    44  Bq   0.000000
    45  Bq   0.000000
    46  Bq   0.000000
    47  Bq   0.000000
    48  Bq   0.000000
    49  Bq   0.000000
    50  Bq   0.000000
    51  Bq   0.000000
    52  Bq   0.000000
    53  Bq   0.000000
    54  Bq   0.000000
    55  Bq   0.000000
    56  Bq   0.000000
    57  Bq   0.000000
    58  Bq   0.000000
    59  Bq   0.000000
    60  Bq   0.000000
    61  Bq   0.000000
    62  Bq   0.000000
    63  Bq   0.000000
    64  Bq   0.000000
    65  Bq   0.000000
    66  Bq   0.000000
    67  Bq   0.000000
    68  Bq   0.000000
    69  Bq   0.000000
    70  Bq   0.000000
    71  Bq   0.000000
    72  Bq   0.000000
    73  Bq   0.000000
    74  Bq   0.000000
    75  Bq   0.000000
    76  Bq   0.000000
    77  Bq   0.000000
    78  Bq   0.000000
    79  Bq   0.000000
    80  Bq   0.000000
    81  Bq   0.000000
    82  Bq   0.000000
    83  Bq   0.000000
    84  Bq   0.000000
    85  Bq   0.000000
    86  Bq   0.000000
    87  Bq   0.000000
    88  Bq   0.000000
    89  Bq   0.000000
    90  Bq   0.000000
    91  Bq   0.000000
    92  Bq   0.000000
    93  Bq   0.000000
    94  Bq   0.000000
    95  Bq   0.000000
    96  Bq   0.000000
    97  Bq   0.000000
    98  Bq   0.000000
    99  Bq   0.000000
   100  Bq   0.000000
   101  Bq   0.000000
   102  Bq   0.000000
   103  Bq   0.000000
   104  Bq   0.000000
   105  Bq   0.000000
   106  Bq   0.000000
   107  Bq   0.000000
   108  Bq   0.000000
   109  Bq   0.000000
   110  Bq   0.000000
   111  Bq   0.000000
   112  Bq   0.000000
   113  Bq   0.000000
   114  Bq   0.000000
   115  Bq   0.000000
   116  Bq   0.000000
   117  Bq   0.000000
   118  Bq   0.000000
   119  Bq   0.000000
   120  Bq   0.000000
   121  Bq   0.000000
   122  Bq   0.000000
   123  Bq   0.000000
   124  Bq   0.000000
   125  Bq   0.000000
   126  Bq   0.000000
   127  Bq   0.000000
   128  Bq   0.000000
   129  Bq   0.000000
   130  Bq   0.000000
   131  Bq   0.000000
   132  Bq   0.000000
   133  Bq   0.000000
   134  Bq   0.000000
   135  Bq   0.000000
   136  Bq   0.000000
   137  Bq   0.000000
   138  Bq   0.000000
   139  Bq   0.000000
   140  Bq   0.000000
   141  Bq   0.000000
   142  Bq   0.000000
   143  Bq   0.000000
   144  Bq   0.000000
   145  Bq   0.000000
   146  Bq   0.000000
   147  Bq   0.000000
   148  Bq   0.000000
   149  Bq   0.000000
   150  Bq   0.000000
   151  Bq   0.000000
   152  Bq   0.000000
   153  Bq   0.000000
   154  Bq   0.000000
   155  Bq   0.000000
   156  Bq   0.000000
   157  Bq   0.000000
   158  Bq   0.000000
   159  Bq   0.000000
   160  Bq   0.000000
   161  Bq   0.000000
   162  Bq   0.000000
   163  Bq   0.000000
   164  Bq   0.000000
   165  Bq   0.000000
   166  Bq   0.000000
   167  Bq   0.000000
   168  Bq   0.000000
   169  Bq   0.000000
   170  Bq   0.000000
   171  Bq   0.000000
   172  Bq   0.000000
   173  Bq   0.000000
   174  Bq   0.000000
   175  Bq   0.000000
   176  Bq   0.000000
   177  Bq   0.000000
   178  Bq   0.000000
   179  Bq   0.000000
   180  Bq   0.000000
   181  Bq   0.000000
   182  Bq   0.000000
   183  Bq   0.000000
   184  Bq   0.000000
   185  Bq   0.000000
   186  Bq   0.000000
   187  Bq   0.000000
   188  Bq   0.000000
   189  Bq   0.000000
   190  Bq   0.000000
   191  Bq   0.000000
   192  Bq   0.000000
   193  Bq   0.000000
   194  Bq   0.000000
   195  Bq   0.000000
   196  Bq   0.000000
   197  Bq   0.000000
   198  Bq   0.000000
   199  Bq   0.000000
   200  Bq   0.000000
   201  Bq   0.000000
   202  Bq   0.000000
   203  Bq   0.000000
   204  Bq   0.000000
   205  Bq   0.000000
   206  Bq   0.000000
   207  Bq   0.000000
   208  Bq   0.000000
   209  Bq   0.000000
   210  Bq   0.000000
   211  Bq   0.000000
   212  Bq   0.000000
   213  Bq   0.000000
   214  Bq   0.000000
   215  Bq   0.000000
   216  Bq   0.000000
   217  Bq   0.000000
   218  Bq   0.000000
   219  Bq   0.000000
   220  Bq   0.000000
   221  Bq   0.000000
   222  Bq   0.000000
   223  Bq   0.000000
   224  Bq   0.000000
   225  Bq   0.000000
   226  Bq   0.000000
   227  Bq   0.000000
   228  Bq   0.000000
   229  Bq   0.000000
   230  Bq   0.000000
   231  Bq   0.000000
   232  Bq   0.000000
   233  Bq   0.000000
   234  Bq   0.000000
   235  Bq   0.000000
   236  Bq   0.000000
 Electronic spatial extent (au):  <R**2>=           5736.9264
 Charge=              0.0000 electrons
 Dipole moment (field-independent basis, Debye):
    X=              0.0475    Y=              0.0856    Z=              0.0029  Tot=              0.0979
 Quadrupole moment (field-independent basis, Debye-Ang):
   XX=           -113.7056   YY=           -113.9456   ZZ=           -133.2669
   XY=             -0.3834   XZ=              3.2102   YZ=             -1.1839
 Traceless Quadrupole moment (field-independent basis, Debye-Ang):
   XX=              6.6005   YY=              6.3604   ZZ=            -12.9609
   XY=             -0.3834   XZ=              3.2102   YZ=             -1.1839
 Octapole moment (field-independent basis, Debye-Ang**2):
  XXX=            -16.4668  YYY=            -16.1860  ZZZ=             -1.7007  XYY=              2.5576
  XXY=             -6.5650  XXZ=             13.6547  XZZ=             -8.9478  YZZ=            -17.7168
  YYZ=            -13.2941  XYZ=              8.8036
 Hexadecapole moment (field-independent basis, Debye-Ang**3):
 XXXX=          -3951.1638 YYYY=          -3112.2161 ZZZZ=           -504.8311 XXXY=            340.6935
 XXXZ=            156.4968 YYYX=            335.5625 YYYZ=            -87.0893 ZZZX=            120.2262
 ZZZY=           -108.7373 XXYY=          -1176.4844 XXZZ=           -856.7291 YYZZ=           -665.7275
 XXYZ=            -68.9016 YYXZ=             48.1602 ZZXY=            153.0375
 N-N= 1.610917615562D+03 E-N=-5.186891130729D+03  KE= 8.436329774449D+02
 1\1\GINC-MUHKA\SP\RB3LYP\6-311+G(d,p)\C22H14\YANNICK\22-Aug-2020\0\\# 
 rb3lyp/6-311+g** NMR geom=connectivity\\Title\\0,1\C,0,-4.0500558,-0.5
 771862,0.8136712\H,0,-5.0263804,-1.0082727,1.002476\C,0,-3.9381552,0.6
 617804,0.2400876\H,0,-4.8252424,1.233889,-0.0111295\C,0,-2.676841,1.24
 33246,0.0057578\C,0,-1.4974121,0.5051527,0.2848253\C,0,-1.6508332,-0.7
 338728,0.9404026\H,0,-0.7713646,-1.2730967,1.2633753\C,0,-2.8898548,-1
 .2624035,1.1994307\H,0,-2.9683706,-2.2124563,1.7152676\C,0,-2.5773185,
 2.5963696,-0.419293\H,0,-3.4870728,3.1412239,-0.6474055\C,0,-1.3741895
 ,3.2147896,-0.436403\H,0,-1.2997315,4.2742019,-0.6578144\C,0,-0.171948
 8,2.499409,-0.1734588\C,0,-0.2043917,1.1018437,0.0192689\C,0,1.0513491
 ,3.204256,-0.0676222\H,0,1.0427344,4.2819499,-0.1896997\C,0,2.1942091,
 2.5487446,0.2579577\H,0,3.1168527,3.0912848,0.4334727\C,0,2.2216473,1.
 1336562,0.293499\C,0,1.0486931,0.3945528,0.0302412\C,0,3.4483363,0.461
 4633,0.5573939\H,0,4.3095794,1.0606054,0.8334846\C,0,3.5427346,-0.8855
 926,0.4749463\H,0,4.4731467,-1.3939704,0.7038822\C,0,2.4490052,-1.6474
 447,-0.0196319\C,0,1.2150704,-1.0057258,-0.3013573\C,0,0.2531113,-1.74
 3444,-1.0216591\H,0,-0.6541356,-1.2535051,-1.3462847\C,0,0.4494193,-3.
 0628597,-1.3413779\H,0,-0.3083162,-3.5944309,-1.905406\C,0,1.6251726,-
 3.7207967,-0.9552541\H,0,1.7670048,-4.7687404,-1.1927019\C,0,2.6109872
 ,-3.0144177,-0.318305\H,0,3.5525612,-3.4902813,-0.0646367\Bq,0,2.73585
 96038,-2.8750257412,0.9405961427\Bq,0,2.992648247,-2.7327491509,-0.015
 3415982\Bq,0,2.8642539254,-2.803887446,0.4626272722\Bq,0,2.8348840105,
 -2.719132411,0.5719615859\Bq,0,2.8862417392,-2.690677093,0.3807740377\
 Bq,0,2.8092051462,-2.7333600701,0.66755536\Bq,0,2.9119206035,-2.676449
 4339,0.2851802636\Bq,0,2.7835262819,-2.7475877291,0.7631491341\Bq,0,2.
 9375994678,-2.6622217749,0.1895864895\Bq,0,2.7578474176,-2.7618153881,
 0.8587429082\Bq,0,2.9632783321,-2.6479941159,0.0939927154\Bq,0,2.73216
 85532,-2.7760430471,0.9543366823\Bq,0,2.9889571965,-2.6337664569,-0.00
 16010587\Bq,0,2.8605628748,-2.704904752,0.4763678118\Bq,0,2.83119296,-
 2.620149717,0.5857021254\Bq,0,2.8825506886,-2.5916943989,0.3945145773\
 Bq,0,2.8055140957,-2.634377376,0.6812958995\Bq,0,2.908229553,-2.577466
 7399,0.2989208032\Bq,0,2.7798352313,-2.648605035,0.7768896736\Bq,0,2.9
 339084173,-2.5632390809,0.2033270291\Bq,0,2.754156367,-2.6628326941,0.
 8724834477\Bq,0,2.9595872816,-2.5490114219,0.107733255\Bq,0,2.72847750
 27,-2.6770603531,0.9680772218\Bq,0,2.9852661459,-2.5347837628,0.012139
 4809\Bq,0,2.8568718243,-2.605922058,0.4901083514\Bq,0,2.8275019095,-2.
 521167023,0.599442665\Bq,0,2.8788596381,-2.4927117049,0.4082551168\Bq,
 0,2.8018230451,-2.535394682,0.6950364391\Bq,0,2.9045385024,-2.47848404
 59,0.3126613427\Bq,0,2.7761441808,-2.549622341,0.7906302132\Bq,0,2.930
 2173667,-2.4642563868,0.2170675686\Bq,0,2.7504653165,-2.56385,0.886223
 9873\Bq,0,2.9558962311,-2.4500287278,0.1214737945\Bq,0,2.7247864522,-2
 .5780776591,0.9818177614\Bq,0,2.9815750954,-2.4358010688,0.0258800204\
 Bq,0,2.8531807738,-2.5069393639,0.5038488909\Bq,0,2.8238108589,-2.4221
 843289,0.6131832046\Bq,0,2.8751685876,-2.3937290109,0.4219956564\Bq,0,
 2.7981319946,-2.4364119879,0.7087769787\Bq,0,2.9008474519,-2.379501351
 8,0.3264018823\Bq,0,2.7724531303,-2.450639647,0.8043707528\Bq,0,2.9265
 263162,-2.3652736928,0.2308081082\Bq,0,2.746774266,-2.464867306,0.8999
 645269\Bq,0,2.9522051805,-2.3510460338,0.1352143341\Bq,0,2.7210954016,
 -2.479094965,0.9955583009\Bq,0,2.9778840449,-2.3368183748,0.03962056\B
 q,0,2.8494897232,-2.4079566699,0.5175894305\Bq,0,2.8201198084,-2.32320
 16349,0.6269237441\Bq,0,2.871477537,-2.2947463168,0.4357361959\Bq,0,2.
 7944409441,-2.3374292939,0.7225175182\Bq,0,2.8971564014,-2.2805186578,
 0.3401424218\Bq,0,2.7687620797,-2.3516569529,0.8181112923\Bq,0,2.92283
 52657,-2.2662909988,0.2445486477\Bq,0,2.7430832154,-2.365884612,0.9137
 050664\Bq,0,2.94851413,-2.2520633397,0.1489548737\Bq,0,2.7174043511,-2
 .380112271,1.0092988405\Bq,0,2.9741929943,-2.2378356807,0.0533610996\B
 q,0,2.8457986727,-2.3089739759,0.53132997\Bq,0,2.8164287578,-2.2242189
 408,0.6406642837\Bq,0,2.8677864865,-2.1957636228,0.4494767355\Bq,0,2.7
 907498935,-2.2384465999,0.7362580578\Bq,0,2.8934653508,-2.1815359638,0
 .3538829614\Bq,0,2.7650710292,-2.2526742589,0.8318518319\Bq,0,2.919144
 2151,-2.1673083047,0.2582891873\Bq,0,2.7393921649,-2.2669019179,0.9274
 45606\Bq,0,2.9448230795,-2.1530806457,0.1626954132\Bq,0,2.7137133006,-
 2.281129577,1.0230393801\Bq,0,2.9705019438,-2.1388529867,0.0671016391\
 Bq,0,2.8421076222,-2.2099912818,0.5450705096\Bq,0,2.8127377073,-2.1252
 362468,0.6544048232\Bq,0,2.864095436,-2.0967809288,0.4632172751\Bq,0,2
 .787058843,-2.1394639058,0.7499985973\Bq,0,2.8897743003,-2.0825532697,
 0.367623501\Bq,0,2.7613799787,-2.1536915649,0.8455923714\Bq,0,2.915453
 1646,-2.0683256107,0.2720297269\Bq,0,2.7357011143,-2.1679192239,0.9411
 861455\Bq,0,2.9411320289,-2.0540979517,0.1764359528\Bq,0,2.71002225,-2
 .1821468829,1.0367799196\Bq,0,2.9668108932,-2.0398702926,0.0808421787\
 Bq,0,2.8384165716,-2.1110085878,0.5588110491\Bq,0,2.8090466568,-2.0262
 535528,0.6681453628\Bq,0,2.8604043854,-1.9977982347,0.4769578146\Bq,0,
 2.7833677925,-2.0404812118,0.7637391369\Bq,0,2.8860832497,-1.983570575
 7,0.3813640405\Bq,0,2.7576889281,-2.0547088708,0.859332911\Bq,0,2.9117
 621141,-1.9693429167,0.2857702664\Bq,0,2.7320100638,-2.0689365299,0.95
 49266851\Bq,0,2.9374409784,-1.9551152576,0.1901764923\Bq,0,2.706331199
 5,-2.0831641889,1.0505204592\Bq,0,2.9631198427,-1.9408875986,0.0945827
 182\Bq,0,2.8347255211,-2.0120258937,0.5725515887\Bq,0,2.8053556062,-1.
 9272708587,0.6818859024\Bq,0,2.8567133349,-1.8988155407,0.4906983542\B
 q,0,2.7796767419,-1.9414985178,0.7774796765\Bq,0,2.8823921992,-1.88458
 78817,0.3951045801\Bq,0,2.7539978776,-1.9557261768,0.8730734505\Bq,0,2
 .9080710635,-1.8703602226,0.299510806\Bq,0,2.7283190133,-1.9699538358,
 0.9686672246\Bq,0,2.9337499279,-1.8561325636,0.2039170319\Bq,0,2.70264
 0149,-1.9841814949,1.0642609987\Bq,0,2.9594287922,-1.8419049046,0.1083
 232578\Bq,0,2.8310344706,-1.9130431997,0.5862921283\Bq,0,2.8016645557,
 -1.8282881647,0.6956264419\Bq,0,2.8530222844,-1.7998328466,0.504438893
 7\Bq,0,2.7759856914,-1.8425158237,0.791220216\Bq,0,2.8787011487,-1.785
 6051876,0.4088451196\Bq,0,2.7503068271,-1.8567434828,0.8868139901\Bq,0
 ,2.904380013,-1.7713775286,0.3132513455\Bq,0,2.7246279627,-1.870971141
 8,0.9824077642\Bq,0,2.9300588773,-1.7571498696,0.2176575714\Bq,0,2.698
 9490984,-1.8851988008,1.0780015383\Bq,0,2.9557377416,-1.7429222105,0.1
 220637974\Bq,0,2.82734342,-1.8140605057,0.6000326678\Bq,0,2.7979735052
 ,-1.7293054707,0.7093669815\Bq,0,2.8493312338,-1.7008501526,0.51817943
 33\Bq,0,2.7722946408,-1.7435331297,0.8049607556\Bq,0,2.8750100981,-1.6
 866224936,0.4225856592\Bq,0,2.7466157765,-1.7577607887,0.9005545297\Bq
 ,0,2.9006889625,-1.6723948346,0.3269918851\Bq,0,2.7209369122,-1.771988
 4478,0.9961483038\Bq,0,2.9263678268,-1.6581671755,0.231398111\Bq,0,2.6
 952580479,-1.7862161068,1.0917420779\Bq,0,2.9520466911,-1.6439395165,0
 .1358043369\Bq,0,2.8236523695,-1.7150778116,0.6137732074\Bq,0,2.794282
 4546,-1.6303227766,0.723107521\Bq,0,2.8456401833,-1.6018674586,0.53191
 99728\Bq,0,2.7686035903,-1.6445504357,0.8187012951\Bq,0,2.8713190476,-
 1.5876397995,0.4363261988\Bq,0,2.742924726,-1.6587780947,0.9142950692\
 Bq,0,2.8969979119,-1.5734121405,0.3407324247\Bq,0,2.7172458617,-1.6730
 057537,1.0098888433\Bq,0,2.9226767762,-1.5591844815,0.2451386506\Bq,0,
 2.6915669973,-1.6872334127,1.1054826174\Bq,0,2.9483556406,-1.544956822
 5,0.1495448765\Bq,0,2.819961319,-1.6160951176,0.6275137469\Bq,0,2.7905
 914041,-1.5313400826,0.7368480606\Bq,0,2.8419491327,-1.5028847645,0.54
 56605124\Bq,0,2.7649125398,-1.5455677416,0.8324418347\Bq,0,2.867627997
 1,-1.4886571055,0.4500667383\Bq,0,2.7392336755,-1.5597954007,0.9280356
 088\Bq,0,2.8933068614,-1.4744294465,0.3544729642\Bq,0,2.7135548111,-1.
 5740230597,1.0236293829\Bq,0,2.9189857257,-1.4602017875,0.2588791901\B
 q,0,2.6878759468,-1.5882507187,1.119223157\Bq,0,2.94466459,-1.44597412
 84,0.163285416\Bq,0,2.8162702684,-1.5171124236,0.6412542865\Bq,0,2.786
 9003536,-1.4323573886,0.7505886002\Bq,0,2.8382580822,-1.4039020705,0.5
 59401052\Bq,0,2.7612214892,-1.4465850476,0.8461823742\Bq,0,2.863936946
 5,-1.3896744115,0.4638072779\Bq,0,2.7355426249,-1.4608127066,0.9417761
 483\Bq,0,2.8896158109,-1.3754467524,0.3682135038\Bq,0,2.7098637606,-1.
 4750403656,1.0373699224\Bq,0,2.9152946752,-1.3612190934,0.2726197297\B
 q,0,2.6841848963,-1.4892680247,1.1329636965\Bq,0,2.9409735395,-1.34699
 14344,0.1770259556\Bq,0,2.8125792179,-1.4181297295,0.6549948261\Bq,0,2
 .783209303,-1.3333746945,0.7643291397\Bq,0,2.8345670317,-1.3049193765,
 0.5731415915\Bq,0,2.7575304387,-1.3476023536,0.8599229138\Bq,0,2.86024
 5896,-1.2906917174,0.4775478174\Bq,0,2.7318515744,-1.3618300126,0.9555
 166879\Bq,0,2.8859247603,-1.2764640584,0.3819540433\Bq,0,2.7061727101,
 -1.3760576716,1.051110462\Bq,0,2.9116036246,-1.2622363994,0.2863602692
 \Bq,0,2.6804938457,-1.3902853306,1.1467042361\Bq,0,2.937282489,-1.2480
 087404,0.1907664951\Bq,0,2.8088881674,-1.3191470355,0.6687353656\Bq,0,
 2.7795182525,-1.2343920005,0.7780696793\Bq,0,2.8308759811,-1.205936682
 4,0.5868821311\Bq,0,2.7538393882,-1.2486196595,0.8736634534\Bq,0,2.856
 5548455,-1.1917090234,0.491288357\Bq,0,2.7281605239,-1.2628473185,0.96
 92572275\Bq,0,2.8822337098,-1.1774813644,0.3956945829\Bq,0,2.702481659
 5,-1.2770749776,1.0648510016\Bq,0,2.9079125741,-1.1632537054,0.3001008
 088\Bq,0,2.6768027952,-1.2913026366,1.1604447757\Bq,0,2.9335914384,-1.
 1490260463,0.2045070347\Bq,0,2.8051971168,-1.2201643415,0.6824759052\B
 q,0,2.775827202,-1.1354093065,0.7918102188\Bq,0,2.8271849306,-1.106953
 9884,0.6006226706\Bq,0,2.7501483376,-1.1496369655,0.8874039929\Bq,0,2.
 8528637949,-1.0927263294,0.5050288965\Bq,0,2.7244694733,-1.1638646245,
 0.982997767\Bq,0,2.8785426593,-1.0784986703,0.4094351225\Bq,0,2.698790
 609,-1.1780922835,1.0785915411\Bq,0,2.9042215236,-1.0642710113,0.31384
 13484\Bq,0,2.6731117447,-1.1923199426,1.1741853152\Bq,0,2.9299003879,-
 1.0500433523,0.2182475743\Bq,0,2.8015060663,-1.1211816474,0.6962164447
 \Bq,0,2.7721361514,-1.0364266124,0.8055507584\Bq,0,2.8234938801,-1.007
 9712944,0.6143632102\Bq,0,2.7464572871,-1.0506542714,0.9011445325\Bq,0
 ,2.8491727444,-0.9937436353,0.5187694361\Bq,0,2.7207784228,-1.06488193
 05,0.9967383066\Bq,0,2.8748516087,-0.9795159763,0.423175662\Bq,0,2.695
 0995585,-1.0791095895,1.0923320807\Bq,0,2.900530473,-0.9652883173,0.32
 75818879\Bq,0,2.6694206941,-1.0933372485,1.1879258548\Bq,0,2.926209337
 4,-0.9510606583,0.2319881138\\Version=ES64L-G09RevD.01\HF=-847.0032898
 \RMSD=7.619e-09\Dipole=0.0186808,0.0336671,0.0011595\Quadrupole=4.9072
 795,4.7288219,-9.6361014,-0.2850201,2.3867064,-0.880172\PG=C01 [X(C22H
 14)]\\@


 SACRED COWS MAKE GREAT HAMBURGERS -- ROBERT REISNER
 Job cpu time:       0 days  2 hours 52 minutes 29.6 seconds.
 File lengths (MBytes):  RWF=    184 Int=      0 D2E=      0 Chk=     19 Scr=      1
 Normal termination of Gaussian 09 at Sat Aug 22 19:06:01 2020.
