 Entering Gaussian System, Link 0=g09
 Input=input_cycle_01_batch_15400.com
 Output=input_cycle_01_batch_15400.log
 Initial command:
 /share/programs/GAUSSIAN/64/g09/l1.exe "/scratch/yannick.29948/Gau-2149791.inp" -scrdir="/scratch/yannick.29948/"
 Entering Link 1 = /share/programs/GAUSSIAN/64/g09/l1.exe PID=   2149792.
  
 Copyright (c) 1988,1990,1992,1993,1995,1998,2003,2009,2013,
            Gaussian, Inc.  All Rights Reserved.
  
 This is part of the Gaussian(R) 09 program.  It is based on
 the Gaussian(R) 03 system (copyright 2003, Gaussian, Inc.),
 the Gaussian(R) 98 system (copyright 1998, Gaussian, Inc.),
 the Gaussian(R) 94 system (copyright 1995, Gaussian, Inc.),
 the Gaussian 92(TM) system (copyright 1992, Gaussian, Inc.),
 the Gaussian 90(TM) system (copyright 1990, Gaussian, Inc.),
 the Gaussian 88(TM) system (copyright 1988, Gaussian, Inc.),
 the Gaussian 86(TM) system (copyright 1986, Carnegie Mellon
 University), and the Gaussian 82(TM) system (copyright 1983,
 Carnegie Mellon University). Gaussian is a federally registered
 trademark of Gaussian, Inc.
  
 This software contains proprietary and confidential information,
 including trade secrets, belonging to Gaussian, Inc.
  
 This software is provided under written license and may be
 used, copied, transmitted, or stored only in accord with that
 written license.
  
 The following legend is applicable only to US Government
 contracts under FAR:
  
                    RESTRICTED RIGHTS LEGEND
  
 Use, reproduction and disclosure by the US Government is
 subject to restrictions as set forth in subparagraphs (a)
 and (c) of the Commercial Computer Software - Restricted
 Rights clause in FAR 52.227-19.
  
 Gaussian, Inc.
 340 Quinnipiac St., Bldg. 40, Wallingford CT 06492
  
  
 ---------------------------------------------------------------
 Warning -- This program may not be used in any manner that
 competes with the business of Gaussian, Inc. or will provide
 assistance to any competitor of Gaussian, Inc.  The licensee
 of this program is prohibited from giving any competitor of
 Gaussian, Inc. access to this program.  By using this program,
 the user acknowledges that Gaussian, Inc. is engaged in the
 business of creating and licensing software in the field of
 computational chemistry and represents and warrants to the
 licensee that it is not a competitor of Gaussian, Inc. and that
 it will not use this program in any manner prohibited above.
 ---------------------------------------------------------------
  

 Cite this work as:
 Gaussian 09, Revision D.01,
 M. J. Frisch, G. W. Trucks, H. B. Schlegel, G. E. Scuseria, 
 M. A. Robb, J. R. Cheeseman, G. Scalmani, V. Barone, B. Mennucci, 
 G. A. Petersson, H. Nakatsuji, M. Caricato, X. Li, H. P. Hratchian, 
 A. F. Izmaylov, J. Bloino, G. Zheng, J. L. Sonnenberg, M. Hada, 
 M. Ehara, K. Toyota, R. Fukuda, J. Hasegawa, M. Ishida, T. Nakajima, 
 Y. Honda, O. Kitao, H. Nakai, T. Vreven, J. A. Montgomery, Jr., 
 J. E. Peralta, F. Ogliaro, M. Bearpark, J. J. Heyd, E. Brothers, 
 K. N. Kudin, V. N. Staroverov, T. Keith, R. Kobayashi, J. Normand, 
 K. Raghavachari, A. Rendell, J. C. Burant, S. S. Iyengar, J. Tomasi, 
 M. Cossi, N. Rega, J. M. Millam, M. Klene, J. E. Knox, J. B. Cross, 
 V. Bakken, C. Adamo, J. Jaramillo, R. Gomperts, R. E. Stratmann, 
 O. Yazyev, A. J. Austin, R. Cammi, C. Pomelli, J. W. Ochterski, 
 R. L. Martin, K. Morokuma, V. G. Zakrzewski, G. A. Voth, 
 P. Salvador, J. J. Dannenberg, S. Dapprich, A. D. Daniels, 
 O. Farkas, J. B. Foresman, J. V. Ortiz, J. Cioslowski, 
 and D. J. Fox, Gaussian, Inc., Wallingford CT, 2013.
 
 ******************************************
 Gaussian 09:  ES64L-G09RevD.01 24-Apr-2013
                21-Aug-2020 
 ******************************************
 %nproc=8
 Will use up to    8 processors via shared memory.
 %mem=1000MB
 ----------------------------------------
 # rb3lyp/6-311+g** NMR geom=connectivity
 ----------------------------------------
 1/38=1,57=2/1;
 2/12=2,17=6,18=5,40=1/2;
 3/5=4,6=6,7=111,11=2,16=1,25=1,30=1,74=-5,116=1/1,2,8,3;
 4//1;
 5/5=2,38=5/2;
 8/6=1,10=90,11=11/1;
 10/13=100,45=16/2;
 6/7=2,8=2,9=2,10=2,28=1/1;
 99/9=1/99;
 -----
 Title
 -----
 Symbolic Z-matrix:
 Charge =  0 Multiplicity = 1
 C                    -4.05006  -0.57719   0.81367 
 H                    -5.02638  -1.00827   1.00248 
 C                    -3.93816   0.66178   0.24009 
 H                    -4.82524   1.23389  -0.01113 
 C                    -2.67684   1.24332   0.00576 
 C                    -1.49741   0.50515   0.28483 
 C                    -1.65083  -0.73387   0.9404 
 H                    -0.77136  -1.2731    1.26338 
 C                    -2.88985  -1.2624    1.19943 
 H                    -2.96837  -2.21246   1.71527 
 C                    -2.57732   2.59637  -0.41929 
 H                    -3.48707   3.14122  -0.64741 
 C                    -1.37419   3.21479  -0.4364 
 H                    -1.29973   4.2742   -0.65781 
 C                    -0.17195   2.49941  -0.17346 
 C                    -0.20439   1.10184   0.01927 
 C                     1.05135   3.20426  -0.06762 
 H                     1.04273   4.28195  -0.1897 
 C                     2.19421   2.54874   0.25796 
 H                     3.11685   3.09128   0.43347 
 C                     2.22165   1.13366   0.2935 
 C                     1.04869   0.39455   0.03024 
 C                     3.44834   0.46146   0.55739 
 H                     4.30958   1.06061   0.83348 
 C                     3.54273  -0.88559   0.47495 
 H                     4.47315  -1.39397   0.70388 
 C                     2.44901  -1.64744  -0.01963 
 C                     1.21507  -1.00573  -0.30136 
 C                     0.25311  -1.74344  -1.02166 
 H                    -0.65414  -1.25351  -1.34628 
 C                     0.44942  -3.06286  -1.34138 
 H                    -0.30832  -3.59443  -1.90541 
 C                     1.62517  -3.7208   -0.95525 
 H                     1.767    -4.76874  -1.1927 
 C                     2.61099  -3.01442  -0.31831 
 H                     3.55256  -3.49028  -0.06464 
 Bq                    1.4496   -2.78804  -0.21077 
 Bq                    1.39873  -2.71826  -0.09877 
 Bq                    1.47846  -2.66503  -0.2743 
 Bq                    1.35887  -2.74488  -0.011 
 Bq                    1.51832  -2.63841  -0.36206 
 Bq                    1.31901  -2.77149   0.07676 
 Bq                    1.55818  -2.6118   -0.44983 
 Bq                    1.27915  -2.79811   0.16453 
 Bq                    1.59804  -2.58518  -0.53759 
 Bq                    1.23929  -2.82472   0.25229 
 Bq                    1.63791  -2.55857  -0.62536 
 Bq                    1.4386   -2.69165  -0.18653 
 Bq                    1.38773  -2.62187  -0.07454 
 Bq                    1.46745  -2.56864  -0.25007 
 Bq                    1.34787  -2.64848   0.01323 
 Bq                    1.50731  -2.54202  -0.33783 
 Bq                    1.308    -2.6751    0.10099 
 Bq                    1.54718  -2.51541  -0.42559 
 Bq                    1.26814  -2.70172   0.18876 
 Bq                    1.58704  -2.48879  -0.51336 
 Bq                    1.22828  -2.72833   0.27652 
 Bq                    1.6269   -2.46217  -0.60112 
 Bq                    1.42759  -2.59525  -0.1623 
 Bq                    1.37672  -2.52548  -0.0503 
 Bq                    1.45645  -2.47224  -0.22583 
 Bq                    1.33686  -2.55209   0.03746 
 Bq                    1.49631  -2.44563  -0.3136 
 Bq                    1.297    -2.57871   0.12523 
 Bq                    1.53617  -2.41901  -0.40136 
 Bq                    1.25714  -2.60532   0.21299 
 Bq                    1.57603  -2.3924   -0.48913 
 Bq                    1.21727  -2.63194   0.30076 
 Bq                    1.61589  -2.36578  -0.57689 
 Bq                    1.41658  -2.49886  -0.13807 
 Bq                    1.36572  -2.42908  -0.02607 
 Bq                    1.44544  -2.37585  -0.2016 
 Bq                    1.32585  -2.4557    0.0617 
 Bq                    1.4853   -2.34924  -0.28936 
 Bq                    1.28599  -2.48231   0.14946 
 Bq                    1.52516  -2.32262  -0.37713 
 Bq                    1.24613  -2.50893   0.23722 
 Bq                    1.56502  -2.296    -0.46489 
 Bq                    1.20627  -2.53554   0.32499 
 Bq                    1.60489  -2.26939  -0.55266 
 Bq                    1.40558  -2.40247  -0.11383 
 Bq                    1.35471  -2.33269  -0.00184 
 Bq                    1.43443  -2.27946  -0.17737 
 Bq                    1.31485  -2.35931   0.08593 
 Bq                    1.47429  -2.25284  -0.26513 
 Bq                    1.27499  -2.38592   0.17369 
 Bq                    1.51416  -2.22623  -0.35289 
 Bq                    1.23512  -2.41254   0.26146 
 Bq                    1.55402  -2.19961  -0.44066 
 Bq                    1.19526  -2.43915   0.34922 
 Bq                    1.59388  -2.173    -0.52842 
 Bq                    1.39457  -2.30607  -0.0896 
 Bq                    1.3437   -2.2363    0.0224 
 Bq                    1.42343  -2.18307  -0.15313 
 Bq                    1.30384  -2.26291   0.11016 
 Bq                    1.46329  -2.15645  -0.2409 
 Bq                    1.26398  -2.28953   0.19793 
 Bq                    1.50315  -2.12983  -0.32866 
 Bq                    1.22412  -2.31614   0.28569 
 Bq                    1.54301  -2.10322  -0.41643 
 Bq                    1.18426  -2.34276   0.37346 
 Bq                    1.58287  -2.0766   -0.50419 
 Bq                    1.38356  -2.20968  -0.06537 
 Bq                    1.3327   -2.1399    0.04663 
 Bq                    1.41242  -2.08667  -0.1289 
 Bq                    1.29283  -2.16652   0.1344 
 Bq                    1.45228  -2.06006  -0.21666 
 Bq                    1.25297  -2.19313   0.22216 
 Bq                    1.49214  -2.03344  -0.30443 
 Bq                    1.21311  -2.21975   0.30992 
 Bq                    1.532    -2.00683  -0.39219 
 Bq                    1.17325  -2.24637   0.39769 
 Bq                    1.57187  -1.98021  -0.47996 
 Bq                    1.37256  -2.11329  -0.04113 
 Bq                    1.32169  -2.04351   0.07086 
 Bq                    1.40141  -1.99028  -0.10467 
 Bq                    1.28183  -2.07013   0.15863 
 Bq                    1.44127  -1.96366  -0.19243 
 Bq                    1.24197  -2.09674   0.24639 
 Bq                    1.48114  -1.93705  -0.2802 
 Bq                    1.2021   -2.12336   0.33416 
 Bq                    1.521    -1.91043  -0.36796 
 Bq                    1.16224  -2.14997   0.42192 
 Bq                    1.56086  -1.88382  -0.45572 
 Bq                    1.36155  -2.01689  -0.0169 
 Bq                    1.31068  -1.94712   0.0951 
 Bq                    1.39041  -1.89389  -0.08043 
 Bq                    1.27082  -1.97373   0.18286 
 Bq                    1.43027  -1.86727  -0.1682 
 Bq                    1.23096  -2.00035   0.27063 
 Bq                    1.47013  -1.84065  -0.25596 
 Bq                    1.1911   -2.02696   0.35839 
 Bq                    1.50999  -1.81404  -0.34373 
 Bq                    1.15124  -2.05358   0.44616 
 Bq                    1.54985  -1.78742  -0.43149 
 Bq                    1.35054  -1.9205    0.00733 
 Bq                    1.29968  -1.85072   0.11933 
 Bq                    1.3794   -1.79749  -0.0562 
 Bq                    1.25981  -1.87734   0.2071 
 Bq                    1.41926  -1.77088  -0.14396 
 Bq                    1.21995  -1.90396   0.29486 
 Bq                    1.45912  -1.74426  -0.23173 
 Bq                    1.18009  -1.93057   0.38262 
 Bq                    1.49899  -1.71765  -0.31949 
 Bq                    1.14023  -1.95719   0.47039 
 Bq                    1.53885  -1.69103  -0.40726 
 Bq                    1.33954  -1.82411   0.03157 
 Bq                    1.28867  -1.75433   0.14356 
 Bq                    1.36839  -1.7011   -0.03197 
 Bq                    1.24881  -1.78095   0.23133 
 Bq                    1.40826  -1.67448  -0.11973 
 Bq                    1.20895  -1.80756   0.31909 
 Bq                    1.44812  -1.64787  -0.2075 
 Bq                    1.16908  -1.83418   0.40686 
 Bq                    1.48798  -1.62125  -0.29526 
 Bq                    1.12922  -1.86079   0.49462 
 Bq                    1.52784  -1.59464  -0.38302 
 Bq                    1.32853  -1.72772   0.0558 
 Bq                    1.27766  -1.65794   0.1678 
 Bq                    1.35739  -1.60471  -0.00773 
 Bq                    1.2378   -1.68455   0.25556 
 Bq                    1.39725  -1.57809  -0.0955 
 Bq                    1.19794  -1.71117   0.34333 
 Bq                    1.43711  -1.55148  -0.18326 
 Bq                    1.15808  -1.73779   0.43109 
 Bq                    1.47697  -1.52486  -0.27103 
 Bq                    1.11822  -1.7644    0.51886 
 Bq                    1.51683  -1.49824  -0.35879 
 Bq                    1.31753  -1.63132   0.08003 
 Bq                    1.26666  -1.56155   0.19203 
 Bq                    1.34638  -1.50831   0.0165 
 Bq                    1.22679  -1.58816   0.27979 
 Bq                    1.38624  -1.4817   -0.07126 
 Bq                    1.18693  -1.61478   0.36756 
 Bq                    1.4261   -1.45508  -0.15903 
 Bq                    1.14707  -1.64139   0.45532 
 Bq                    1.46597  -1.42847  -0.24679 
 Bq                    1.10721  -1.66801   0.54309 
 Bq                    1.50583  -1.40185  -0.33456 
 Bq                    1.30652  -1.53493   0.10427 
 Bq                    1.25565  -1.46515   0.21626 
 Bq                    1.33537  -1.41192   0.04073 
 Bq                    1.21579  -1.49177   0.30403 
 Bq                    1.37524  -1.38531  -0.04703 
 Bq                    1.17593  -1.51838   0.39179 
 Bq                    1.4151   -1.35869  -0.1348 
 Bq                    1.13606  -1.545     0.47956 
 Bq                    1.45496  -1.33207  -0.22256 
 Bq                    1.0962   -1.57162   0.56732 
 Bq                    1.49482  -1.30546  -0.31033 
 Bq                    1.29551  -1.43854   0.1285 
 Bq                    1.24464  -1.36876   0.2405 
 Bq                    1.32437  -1.31553   0.06497 
 Bq                    1.20478  -1.39538   0.32826 
 Bq                    1.36423  -1.28891  -0.0228 
 Bq                    1.16492  -1.42199   0.41603 
 Bq                    1.40409  -1.2623   -0.11056 
 Bq                    1.12506  -1.44861   0.50379 
 Bq                    1.44395  -1.23568  -0.19833 
 Bq                    1.0852   -1.47522   0.59156 
 Bq                    1.48381  -1.20907  -0.28609 
 Bq                    1.28451  -1.34214   0.15273 
 Bq                    1.23364  -1.27237   0.26473 
 Bq                    1.31336  -1.21914   0.0892 
 Bq                    1.19378  -1.29898   0.35249 
 Bq                    1.35322  -1.19252   0.00144 
 Bq                    1.15391  -1.3256    0.44026 
 Bq                    1.39308  -1.1659   -0.08633 
 Bq                    1.11405  -1.35221   0.52802 
 Bq                    1.43295  -1.13929  -0.17409 
 Bq                    1.07419  -1.37883   0.61579 
 Bq                    1.47281  -1.11267  -0.26186 
 Bq                    1.2735   -1.24575   0.17697 
 Bq                    1.22263  -1.17597   0.28896 
 Bq                    1.30235  -1.12274   0.11343 
 Bq                    1.18277  -1.20259   0.37673 
 Bq                    1.34222  -1.09613   0.02567 
 Bq                    1.14291  -1.2292    0.46449 
 Bq                    1.38208  -1.06951  -0.0621 
 Bq                    1.10305  -1.25582   0.55226 
 Bq                    1.42194  -1.0429   -0.14986 
 Bq                    1.06318  -1.28244   0.64002 
 Bq                    1.4618   -1.01628  -0.23763 
 Bq                    1.26249  -1.14936   0.2012 
 Bq                    1.21162  -1.07958   0.3132 
 Bq                    1.29135  -1.02635   0.13767 
 Bq                    1.17176  -1.1062    0.40096 
 Bq                    1.33121  -0.99973   0.0499 
 Bq                    1.1319   -1.13281   0.48873 
 Bq                    1.37107  -0.97312  -0.03786 
 Bq                    1.09204  -1.15943   0.57649 
 Bq                    1.41093  -0.9465   -0.12563 
 Bq                    1.05218  -1.18604   0.66426 
 Bq                    1.45079  -0.91989  -0.21339 
 Bq                    1.25149  -1.05296   0.22543 
 Bq                    1.20062  -0.98319   0.33743 
 
 Symmetry turned off:
 Cannot cope with ghost atoms or with translation vectors.
 Stoichiometry    C22H14
 Framework group  C1[X(C22H14)]
 NUMDOF-- NAT=    36 NAtoms=   236
 Deg. of freedom     0
 Full point group                 C1      NOp   1
                          Input orientation:                          
 ---------------------------------------------------------------------
 Center     Atomic      Atomic             Coordinates (Angstroms)
 Number     Number       Type             X           Y           Z
 ---------------------------------------------------------------------
      1          6           0       -4.050056   -0.577186    0.813671
      2          1           0       -5.026380   -1.008273    1.002476
      3          6           0       -3.938155    0.661780    0.240088
      4          1           0       -4.825242    1.233889   -0.011130
      5          6           0       -2.676841    1.243325    0.005758
      6          6           0       -1.497412    0.505153    0.284825
      7          6           0       -1.650833   -0.733873    0.940403
      8          1           0       -0.771365   -1.273097    1.263375
      9          6           0       -2.889855   -1.262404    1.199431
     10          1           0       -2.968371   -2.212456    1.715268
     11          6           0       -2.577319    2.596370   -0.419293
     12          1           0       -3.487073    3.141224   -0.647406
     13          6           0       -1.374190    3.214790   -0.436403
     14          1           0       -1.299732    4.274202   -0.657814
     15          6           0       -0.171949    2.499409   -0.173459
     16          6           0       -0.204392    1.101844    0.019269
     17          6           0        1.051349    3.204256   -0.067622
     18          1           0        1.042734    4.281950   -0.189700
     19          6           0        2.194209    2.548745    0.257958
     20          1           0        3.116853    3.091285    0.433473
     21          6           0        2.221647    1.133656    0.293499
     22          6           0        1.048693    0.394553    0.030241
     23          6           0        3.448336    0.461463    0.557394
     24          1           0        4.309579    1.060605    0.833485
     25          6           0        3.542735   -0.885593    0.474946
     26          1           0        4.473147   -1.393970    0.703882
     27          6           0        2.449005   -1.647445   -0.019632
     28          6           0        1.215070   -1.005726   -0.301357
     29          6           0        0.253111   -1.743444   -1.021659
     30          1           0       -0.654136   -1.253505   -1.346285
     31          6           0        0.449419   -3.062860   -1.341378
     32          1           0       -0.308316   -3.594431   -1.905406
     33          6           0        1.625173   -3.720797   -0.955254
     34          1           0        1.767005   -4.768740   -1.192702
     35          6           0        2.610987   -3.014418   -0.318305
     36          1           0        3.552561   -3.490281   -0.064637
     37          0           0        1.449603   -2.788039   -0.210767
     38          0           0        1.398734   -2.718261   -0.098769
     39          0           0        1.478458   -2.665030   -0.274298
     40          0           0        1.358873   -2.744877   -0.011004
     41          0           0        1.518320   -2.638414   -0.362063
     42          0           0        1.319011   -2.771493    0.076761
     43          0           0        1.558181   -2.611799   -0.449828
     44          0           0        1.279149   -2.798108    0.164525
     45          0           0        1.598043   -2.585183   -0.537593
     46          0           0        1.239287   -2.824724    0.252290
     47          0           0        1.637905   -2.558567   -0.625357
     48          0           0        1.438596   -2.691646   -0.186534
     49          0           0        1.387728   -2.621868   -0.074536
     50          0           0        1.467451   -2.568637   -0.250065
     51          0           0        1.347866   -2.648484    0.013229
     52          0           0        1.507313   -2.542021   -0.337830
     53          0           0        1.308004   -2.675100    0.100994
     54          0           0        1.547175   -2.515406   -0.425595
     55          0           0        1.268143   -2.701715    0.188758
     56          0           0        1.587037   -2.488790   -0.513359
     57          0           0        1.228281   -2.728331    0.276523
     58          0           0        1.626899   -2.462174   -0.601124
     59          0           0        1.427590   -2.595253   -0.162300
     60          0           0        1.376721   -2.525475   -0.050302
     61          0           0        1.456445   -2.472244   -0.225832
     62          0           0        1.336860   -2.552091    0.037462
     63          0           0        1.496307   -2.445628   -0.313597
     64          0           0        1.296998   -2.578707    0.125227
     65          0           0        1.536169   -2.419013   -0.401361
     66          0           0        1.257136   -2.605322    0.212992
     67          0           0        1.576030   -2.392397   -0.489126
     68          0           0        1.217274   -2.631938    0.300756
     69          0           0        1.615892   -2.365781   -0.576891
     70          0           0        1.416583   -2.498860   -0.138067
     71          0           0        1.365715   -2.429082   -0.026069
     72          0           0        1.445439   -2.375851   -0.201599
     73          0           0        1.325853   -2.455698    0.061696
     74          0           0        1.485300   -2.349235   -0.289363
     75          0           0        1.285991   -2.482314    0.149460
     76          0           0        1.525162   -2.322620   -0.377128
     77          0           0        1.246130   -2.508929    0.237225
     78          0           0        1.565024   -2.296004   -0.464893
     79          0           0        1.206268   -2.535545    0.324990
     80          0           0        1.604886   -2.269388   -0.552658
     81          0           0        1.405577   -2.402467   -0.113834
     82          0           0        1.354709   -2.332689   -0.001836
     83          0           0        1.434432   -2.279458   -0.177365
     84          0           0        1.314847   -2.359305    0.085929
     85          0           0        1.474294   -2.252842   -0.265130
     86          0           0        1.274985   -2.385921    0.173694
     87          0           0        1.514156   -2.226227   -0.352895
     88          0           0        1.235123   -2.412536    0.261458
     89          0           0        1.554017   -2.199611   -0.440660
     90          0           0        1.195261   -2.439152    0.349223
     91          0           0        1.593879   -2.172995   -0.528424
     92          0           0        1.394570   -2.306074   -0.089601
     93          0           0        1.343702   -2.236296    0.022397
     94          0           0        1.423426   -2.183065   -0.153132
     95          0           0        1.303840   -2.262912    0.110162
     96          0           0        1.463287   -2.156449   -0.240897
     97          0           0        1.263979   -2.289528    0.197927
     98          0           0        1.503149   -2.129834   -0.328662
     99          0           0        1.224117   -2.316143    0.285691
    100          0           0        1.543011   -2.103218   -0.416426
    101          0           0        1.184255   -2.342759    0.373456
    102          0           0        1.582873   -2.076602   -0.504191
    103          0           0        1.383564   -2.209681   -0.065367
    104          0           0        1.332696   -2.139903    0.046631
    105          0           0        1.412419   -2.086672   -0.128899
    106          0           0        1.292834   -2.166519    0.134395
    107          0           0        1.452281   -2.060056   -0.216664
    108          0           0        1.252972   -2.193135    0.222160
    109          0           0        1.492143   -2.033441   -0.304428
    110          0           0        1.213110   -2.219750    0.309925
    111          0           0        1.532004   -2.006825   -0.392193
    112          0           0        1.173249   -2.246366    0.397689
    113          0           0        1.571866   -1.980210   -0.479958
    114          0           0        1.372557   -2.113288   -0.041134
    115          0           0        1.321689   -2.043510    0.070864
    116          0           0        1.401413   -1.990279   -0.104666
    117          0           0        1.281827   -2.070126    0.158629
    118          0           0        1.441274   -1.963663   -0.192430
    119          0           0        1.241966   -2.096742    0.246393
    120          0           0        1.481136   -1.937048   -0.280195
    121          0           0        1.202104   -2.123357    0.334158
    122          0           0        1.520998   -1.910432   -0.367960
    123          0           0        1.162242   -2.149973    0.421923
    124          0           0        1.560860   -1.883817   -0.455725
    125          0           0        1.361551   -2.016895   -0.016901
    126          0           0        1.310683   -1.947117    0.095097
    127          0           0        1.390406   -1.893886   -0.080432
    128          0           0        1.270821   -1.973733    0.182862
    129          0           0        1.430268   -1.867270   -0.168197
    130          0           0        1.230959   -2.000349    0.270627
    131          0           0        1.470130   -1.840655   -0.255962
    132          0           0        1.191097   -2.026964    0.358391
    133          0           0        1.509991   -1.814039   -0.343727
    134          0           0        1.151236   -2.053580    0.446156
    135          0           0        1.549853   -1.787424   -0.431491
    136          0           0        1.350544   -1.920502    0.007332
    137          0           0        1.299676   -1.850724    0.119330
    138          0           0        1.379400   -1.797493   -0.056199
    139          0           0        1.259814   -1.877340    0.207095
    140          0           0        1.419261   -1.770878   -0.143964
    141          0           0        1.219953   -1.903956    0.294860
    142          0           0        1.459123   -1.744262   -0.231729
    143          0           0        1.180091   -1.930571    0.382625
    144          0           0        1.498985   -1.717646   -0.319493
    145          0           0        1.140229   -1.957187    0.470389
    146          0           0        1.538847   -1.691031   -0.407258
    147          0           0        1.339538   -1.824109    0.031566
    148          0           0        1.288670   -1.754331    0.143564
    149          0           0        1.368393   -1.701100   -0.031966
    150          0           0        1.248808   -1.780947    0.231328
    151          0           0        1.408255   -1.674485   -0.119731
    152          0           0        1.208946   -1.807563    0.319093
    153          0           0        1.448117   -1.647869   -0.207495
    154          0           0        1.169084   -1.834178    0.406858
    155          0           0        1.487979   -1.621253   -0.295260
    156          0           0        1.129223   -1.860794    0.494622
    157          0           0        1.527840   -1.594638   -0.383025
    158          0           0        1.328531   -1.727716    0.055799
    159          0           0        1.277663   -1.657938    0.167797
    160          0           0        1.357387   -1.604707   -0.007733
    161          0           0        1.237801   -1.684554    0.255562
    162          0           0        1.397249   -1.578092   -0.095497
    163          0           0        1.197940   -1.711170    0.343326
    164          0           0        1.437110   -1.551476   -0.183262
    165          0           0        1.158078   -1.737785    0.431091
    166          0           0        1.476972   -1.524860   -0.271027
    167          0           0        1.118216   -1.764401    0.518856
    168          0           0        1.516834   -1.498245   -0.358792
    169          0           0        1.317525   -1.631323    0.080032
    170          0           0        1.266657   -1.561546    0.192030
    171          0           0        1.346380   -1.508314    0.016501
    172          0           0        1.226795   -1.588161    0.279795
    173          0           0        1.386242   -1.481699   -0.071264
    174          0           0        1.186933   -1.614777    0.367560
    175          0           0        1.426104   -1.455083   -0.159029
    176          0           0        1.147071   -1.641392    0.455324
    177          0           0        1.465966   -1.428467   -0.246794
    178          0           0        1.107210   -1.668008    0.543089
    179          0           0        1.505827   -1.401852   -0.334558
    180          0           0        1.306519   -1.534930    0.104265
    181          0           0        1.255650   -1.465153    0.216263
    182          0           0        1.335374   -1.411921    0.040734
    183          0           0        1.215789   -1.491768    0.304028
    184          0           0        1.375236   -1.385306   -0.047031
    185          0           0        1.175927   -1.518384    0.391793
    186          0           0        1.415097   -1.358690   -0.134796
    187          0           0        1.136065   -1.544999    0.479558
    188          0           0        1.454959   -1.332074   -0.222560
    189          0           0        1.096203   -1.571615    0.567322
    190          0           0        1.494821   -1.305459   -0.310325
    191          0           0        1.295512   -1.438537    0.128499
    192          0           0        1.244644   -1.368760    0.240497
    193          0           0        1.324367   -1.315528    0.064967
    194          0           0        1.204782   -1.395375    0.328261
    195          0           0        1.364229   -1.288913   -0.022798
    196          0           0        1.164920   -1.421991    0.416026
    197          0           0        1.404091   -1.262297   -0.110562
    198          0           0        1.125059   -1.448607    0.503791
    199          0           0        1.443953   -1.235681   -0.198327
    200          0           0        1.085197   -1.475222    0.591555
    201          0           0        1.483814   -1.209066   -0.286092
    202          0           0        1.284506   -1.342144    0.152732
    203          0           0        1.233637   -1.272367    0.264730
    204          0           0        1.313361   -1.219135    0.089200
    205          0           0        1.193776   -1.298982    0.352495
    206          0           0        1.353223   -1.192520    0.001436
    207          0           0        1.153914   -1.325598    0.440259
    208          0           0        1.393084   -1.165904   -0.086329
    209          0           0        1.114052   -1.352214    0.528024
    210          0           0        1.432946   -1.139288   -0.174094
    211          0           0        1.074190   -1.378829    0.615789
    212          0           0        1.472808   -1.112673   -0.261859
    213          0           0        1.273499   -1.245751    0.176965
    214          0           0        1.222631   -1.175974    0.288963
    215          0           0        1.302354   -1.122742    0.113434
    216          0           0        1.182769   -1.202589    0.376728
    217          0           0        1.342216   -1.096127    0.025669
    218          0           0        1.142907   -1.229205    0.464493
    219          0           0        1.382078   -1.069511   -0.062096
    220          0           0        1.103046   -1.255821    0.552257
    221          0           0        1.421940   -1.042895   -0.149861
    222          0           0        1.063184   -1.282436    0.640022
    223          0           0        1.461801   -1.016280   -0.237625
    224          0           0        1.262493   -1.149358    0.201198
    225          0           0        1.211624   -1.079581    0.313196
    226          0           0        1.291348   -1.026349    0.137667
    227          0           0        1.171763   -1.106196    0.400961
    228          0           0        1.331210   -0.999734    0.049902
    229          0           0        1.131901   -1.132812    0.488726
    230          0           0        1.371071   -0.973118   -0.037863
    231          0           0        1.092039   -1.159428    0.576491
    232          0           0        1.410933   -0.946502   -0.125627
    233          0           0        1.052177   -1.186043    0.664255
    234          0           0        1.450795   -0.919887   -0.213392
    235          0           0        1.251486   -1.052965    0.225432
    236          0           0        1.200618   -0.983188    0.337430
 ---------------------------------------------------------------------
 Rotational constants (GHZ):      0.4529074      0.2836956      0.1879557
 Standard basis: 6-311+G(d,p) (5D, 7F)
 Warning:  center  37 has no basis functions!
 Warning:  center  38 has no basis functions!
 Warning:  center  39 has no basis functions!
 Warning:  center  40 has no basis functions!
 Warning:  center  41 has no basis functions!
 Warning:  center  42 has no basis functions!
 Warning:  center  43 has no basis functions!
 Warning:  center  44 has no basis functions!
 Warning:  center  45 has no basis functions!
 Warning:  center  46 has no basis functions!
 Warning:  center  47 has no basis functions!
 Warning:  center  48 has no basis functions!
 Warning:  center  49 has no basis functions!
 Warning:  center  50 has no basis functions!
 Warning:  center  51 has no basis functions!
 Warning:  center  52 has no basis functions!
 Warning:  center  53 has no basis functions!
 Warning:  center  54 has no basis functions!
 Warning:  center  55 has no basis functions!
 Warning:  center  56 has no basis functions!
 Warning:  center  57 has no basis functions!
 Warning:  center  58 has no basis functions!
 Warning:  center  59 has no basis functions!
 Warning:  center  60 has no basis functions!
 Warning:  center  61 has no basis functions!
 Warning:  center  62 has no basis functions!
 Warning:  center  63 has no basis functions!
 Warning:  center  64 has no basis functions!
 Warning:  center  65 has no basis functions!
 Warning:  center  66 has no basis functions!
 Warning:  center  67 has no basis functions!
 Warning:  center  68 has no basis functions!
 Warning:  center  69 has no basis functions!
 Warning:  center  70 has no basis functions!
 Warning:  center  71 has no basis functions!
 Warning:  center  72 has no basis functions!
 Warning:  center  73 has no basis functions!
 Warning:  center  74 has no basis functions!
 Warning:  center  75 has no basis functions!
 Warning:  center  76 has no basis functions!
 Warning:  center  77 has no basis functions!
 Warning:  center  78 has no basis functions!
 Warning:  center  79 has no basis functions!
 Warning:  center  80 has no basis functions!
 Warning:  center  81 has no basis functions!
 Warning:  center  82 has no basis functions!
 Warning:  center  83 has no basis functions!
 Warning:  center  84 has no basis functions!
 Warning:  center  85 has no basis functions!
 Warning:  center  86 has no basis functions!
 Warning:  center  87 has no basis functions!
 Warning:  center  88 has no basis functions!
 Warning:  center  89 has no basis functions!
 Warning:  center  90 has no basis functions!
 Warning:  center  91 has no basis functions!
 Warning:  center  92 has no basis functions!
 Warning:  center  93 has no basis functions!
 Warning:  center  94 has no basis functions!
 Warning:  center  95 has no basis functions!
 Warning:  center  96 has no basis functions!
 Warning:  center  97 has no basis functions!
 Warning:  center  98 has no basis functions!
 Warning:  center  99 has no basis functions!
 Warning:  center 100 has no basis functions!
 Warning:  center 101 has no basis functions!
 Warning:  center 102 has no basis functions!
 Warning:  center 103 has no basis functions!
 Warning:  center 104 has no basis functions!
 Warning:  center 105 has no basis functions!
 Warning:  center 106 has no basis functions!
 Warning:  center 107 has no basis functions!
 Warning:  center 108 has no basis functions!
 Warning:  center 109 has no basis functions!
 Warning:  center 110 has no basis functions!
 Warning:  center 111 has no basis functions!
 Warning:  center 112 has no basis functions!
 Warning:  center 113 has no basis functions!
 Warning:  center 114 has no basis functions!
 Warning:  center 115 has no basis functions!
 Warning:  center 116 has no basis functions!
 Warning:  center 117 has no basis functions!
 Warning:  center 118 has no basis functions!
 Warning:  center 119 has no basis functions!
 Warning:  center 120 has no basis functions!
 Warning:  center 121 has no basis functions!
 Warning:  center 122 has no basis functions!
 Warning:  center 123 has no basis functions!
 Warning:  center 124 has no basis functions!
 Warning:  center 125 has no basis functions!
 Warning:  center 126 has no basis functions!
 Warning:  center 127 has no basis functions!
 Warning:  center 128 has no basis functions!
 Warning:  center 129 has no basis functions!
 Warning:  center 130 has no basis functions!
 Warning:  center 131 has no basis functions!
 Warning:  center 132 has no basis functions!
 Warning:  center 133 has no basis functions!
 Warning:  center 134 has no basis functions!
 Warning:  center 135 has no basis functions!
 Warning:  center 136 has no basis functions!
 Warning:  center 137 has no basis functions!
 Warning:  center 138 has no basis functions!
 Warning:  center 139 has no basis functions!
 Warning:  center 140 has no basis functions!
 Warning:  center 141 has no basis functions!
 Warning:  center 142 has no basis functions!
 Warning:  center 143 has no basis functions!
 Warning:  center 144 has no basis functions!
 Warning:  center 145 has no basis functions!
 Warning:  center 146 has no basis functions!
 Warning:  center 147 has no basis functions!
 Warning:  center 148 has no basis functions!
 Warning:  center 149 has no basis functions!
 Warning:  center 150 has no basis functions!
 Warning:  center 151 has no basis functions!
 Warning:  center 152 has no basis functions!
 Warning:  center 153 has no basis functions!
 Warning:  center 154 has no basis functions!
 Warning:  center 155 has no basis functions!
 Warning:  center 156 has no basis functions!
 Warning:  center 157 has no basis functions!
 Warning:  center 158 has no basis functions!
 Warning:  center 159 has no basis functions!
 Warning:  center 160 has no basis functions!
 Warning:  center 161 has no basis functions!
 Warning:  center 162 has no basis functions!
 Warning:  center 163 has no basis functions!
 Warning:  center 164 has no basis functions!
 Warning:  center 165 has no basis functions!
 Warning:  center 166 has no basis functions!
 Warning:  center 167 has no basis functions!
 Warning:  center 168 has no basis functions!
 Warning:  center 169 has no basis functions!
 Warning:  center 170 has no basis functions!
 Warning:  center 171 has no basis functions!
 Warning:  center 172 has no basis functions!
 Warning:  center 173 has no basis functions!
 Warning:  center 174 has no basis functions!
 Warning:  center 175 has no basis functions!
 Warning:  center 176 has no basis functions!
 Warning:  center 177 has no basis functions!
 Warning:  center 178 has no basis functions!
 Warning:  center 179 has no basis functions!
 Warning:  center 180 has no basis functions!
 Warning:  center 181 has no basis functions!
 Warning:  center 182 has no basis functions!
 Warning:  center 183 has no basis functions!
 Warning:  center 184 has no basis functions!
 Warning:  center 185 has no basis functions!
 Warning:  center 186 has no basis functions!
 Warning:  center 187 has no basis functions!
 Warning:  center 188 has no basis functions!
 Warning:  center 189 has no basis functions!
 Warning:  center 190 has no basis functions!
 Warning:  center 191 has no basis functions!
 Warning:  center 192 has no basis functions!
 Warning:  center 193 has no basis functions!
 Warning:  center 194 has no basis functions!
 Warning:  center 195 has no basis functions!
 Warning:  center 196 has no basis functions!
 Warning:  center 197 has no basis functions!
 Warning:  center 198 has no basis functions!
 Warning:  center 199 has no basis functions!
 Warning:  center 200 has no basis functions!
 Warning:  center 201 has no basis functions!
 Warning:  center 202 has no basis functions!
 Warning:  center 203 has no basis functions!
 Warning:  center 204 has no basis functions!
 Warning:  center 205 has no basis functions!
 Warning:  center 206 has no basis functions!
 Warning:  center 207 has no basis functions!
 Warning:  center 208 has no basis functions!
 Warning:  center 209 has no basis functions!
 Warning:  center 210 has no basis functions!
 Warning:  center 211 has no basis functions!
 Warning:  center 212 has no basis functions!
 Warning:  center 213 has no basis functions!
 Warning:  center 214 has no basis functions!
 Warning:  center 215 has no basis functions!
 Warning:  center 216 has no basis functions!
 Warning:  center 217 has no basis functions!
 Warning:  center 218 has no basis functions!
 Warning:  center 219 has no basis functions!
 Warning:  center 220 has no basis functions!
 Warning:  center 221 has no basis functions!
 Warning:  center 222 has no basis functions!
 Warning:  center 223 has no basis functions!
 Warning:  center 224 has no basis functions!
 Warning:  center 225 has no basis functions!
 Warning:  center 226 has no basis functions!
 Warning:  center 227 has no basis functions!
 Warning:  center 228 has no basis functions!
 Warning:  center 229 has no basis functions!
 Warning:  center 230 has no basis functions!
 Warning:  center 231 has no basis functions!
 Warning:  center 232 has no basis functions!
 Warning:  center 233 has no basis functions!
 Warning:  center 234 has no basis functions!
 Warning:  center 235 has no basis functions!
 Warning:  center 236 has no basis functions!
   568 basis functions,   904 primitive gaussians,   590 cartesian basis functions
    73 alpha electrons       73 beta electrons
       nuclear repulsion energy      1610.9176155625 Hartrees.
 NAtoms=  236 NActive=  236 NUniq=  236 SFac= 1.00D+00 NAtFMM=   60 NAOKFM=T Big=T
 Integral buffers will be    131072 words long.
 Raffenetti 2 integral format.
 Two-electron integral symmetry is turned off.
 One-electron integrals computed using PRISM.
 NBasis=   568 RedAO= T EigKep=  1.78D-06  NBF=   568
 NBsUse=   556 1.00D-06 EigRej=  9.09D-07 NBFU=   556
 ExpMin= 4.38D-02 ExpMax= 4.56D+03 ExpMxC= 6.82D+02 IAcc=2 IRadAn=         4 AccDes= 0.00D+00
 Harris functional with IExCor=  402 and IRadAn=       4 diagonalized for initial guess.
 HarFok:  IExCor=  402 AccDes= 0.00D+00 IRadAn=         4 IDoV= 1 UseB2=F ITyADJ=14
 ICtDFT=  3500011 ScaDFX=  1.000000  1.000000  1.000000  1.000000
 FoFCou: FMM=F IPFlag=           0 FMFlag=      100000 FMFlg1=        2001
         NFxFlg=           0 DoJE=T BraDBF=F KetDBF=T FulRan=T
         wScrn=  0.000000 ICntrl=     500 IOpCl=  0 I1Cent=   200000004 NGrid=           0
         NMat0=    1 NMatS0=      1 NMatT0=    0 NMatD0=    1 NMtDS0=    0 NMtDT0=    0
 Symmetry not used in FoFCou.
 Requested convergence on RMS density matrix=1.00D-08 within 128 cycles.
 Requested convergence on MAX density matrix=1.00D-06.
 Requested convergence on             energy=1.00D-06.
 No special actions if energy rises.
 SCF Done:  E(RB3LYP) =  -847.003289847     A.U. after   15 cycles
            NFock= 15  Conv=0.75D-08     -V/T= 2.0040
 DoSCS=F DFT=T ScalE2(SS,OS)=  1.000000  1.000000
 Range of M.O.s used for correlation:     1   556
 NBasis=   568 NAE=    73 NBE=    73 NFC=     0 NFV=     0
 NROrb=    556 NOA=    73 NOB=    73 NVA=   483 NVB=   483

 **** Warning!!: The largest alpha MO coefficient is  0.10971035D+03

          Differentiating once with respect to magnetic field using GIAOs.
          Electric field/nuclear overlap derivatives assumed to be zero.
 FoFCou: FMM=F IPFlag=           0 FMFlag=      100000 FMFlg1=        2001
         NFxFlg=           0 DoJE=F BraDBF=F KetDBF=T FulRan=T
         wScrn=  0.000000 ICntrl=    6100 IOpCl=  0 I1Cent=           7 NGrid=         236
         NMat0=    1 NMatS0=      1 NMatT0=    0 NMatD0=    1 NMtDS0=    0 NMtDT0=    0
 Symmetry not used in FoFCou.
 FoFJK:  IHMeth= 1 ICntrl=    6127 DoSepK=F KAlg= 0 I1Cent=   0 FoldK=F
 IRaf=         1 NMat=   1 IRICut=       1 DoRegI=T DoRafI=F ISym2E= 0.
          There are     3 degrees of freedom in the 1st order CPHF.  IDoFFX=0 NUNeed=     3.
      3 vectors produced by pass  0 Test12= 1.18D-12 3.33D-08 XBig12= 2.07D+03 9.18D+00.
 AX will form     3 AO Fock derivatives at one time.
      3 vectors produced by pass  1 Test12= 1.18D-12 3.33D-08 XBig12= 3.56D+00 8.03D-01.
      3 vectors produced by pass  2 Test12= 1.18D-12 3.33D-08 XBig12= 2.10D-02 6.92D-02.
      3 vectors produced by pass  3 Test12= 1.18D-12 3.33D-08 XBig12= 5.45D-05 1.89D-03.
      3 vectors produced by pass  4 Test12= 1.18D-12 3.33D-08 XBig12= 1.20D-07 7.79D-05.
      3 vectors produced by pass  5 Test12= 1.18D-12 3.33D-08 XBig12= 4.02D-10 4.73D-06.
      3 vectors produced by pass  6 Test12= 1.18D-12 3.33D-08 XBig12= 1.32D-12 2.61D-07.
 InvSVY:  IOpt=1 It=  1 EMax= 3.55D-15
 Solved reduced A of dimension    21 with     3 vectors.
 Calculating GIAO nuclear magnetic shielding tensors.
 SCF GIAO Magnetic shielding tensor (ppm):
      1  C    Isotropic =    53.8139   Anisotropy =   178.0260
   XX=   -41.4327   YX=   -32.3458   ZX=    10.0287
   XY=   -28.3572   YY=    59.0527   ZY=    55.1899
   XZ=    13.1759   YZ=    58.7550   ZZ=   143.8218
   Eigenvalues:   -53.8775    42.8214   172.4979
      2  H    Isotropic =    24.3095   Anisotropy =     4.8536
   XX=    25.5771   YX=    -1.0289   ZX=     0.5661
   XY=    -0.7431   YY=    26.1829   ZY=    -2.3306
   XZ=    -0.1707   YZ=    -2.4411   ZZ=    21.1687
   Eigenvalues:    20.2108    25.1725    27.5453
      3  C    Isotropic =    51.4055   Anisotropy =   157.8639
   XX=   -31.5399   YX=    38.5015   ZX=   -17.9316
   XY=    34.3519   YY=    49.9437   ZY=    49.6392
   XZ=    -9.8383   YZ=    44.6006   ZZ=   135.8127
   Eigenvalues:   -50.5747    48.1432   156.6481
      4  H    Isotropic =    23.8290   Anisotropy =     7.1838
   XX=    25.3635   YX=     1.8486   ZX=    -0.3559
   XY=     1.9656   YY=    26.4581   ZY=    -2.4103
   XZ=    -1.2941   YZ=    -2.6614   ZZ=    19.6654
   Eigenvalues:    18.8176    24.0511    28.6182
      5  C    Isotropic =    46.0697   Anisotropy =   207.6751
   XX=   -19.2123   YX=    -4.8852   ZX=    -1.6475
   XY=     2.8938   YY=    -2.9860   ZY=    66.5656
   XZ=     2.5356   YZ=    67.9144   ZZ=   160.4073
   Eigenvalues:   -27.2455   -19.0652   184.5197
      6  C    Isotropic =    47.5218   Anisotropy =   196.9389
   XX=   -28.1552   YX=    -2.7889   ZX=    12.0660
   XY=   -14.3886   YY=    21.2063   ZY=    74.2521
   XZ=   -18.6356   YZ=    61.1113   ZZ=   149.5144
   Eigenvalues:   -30.2925    -5.9564   178.8144
      7  C    Isotropic =    49.3915   Anisotropy =   179.8333
   XX=   -12.5211   YX=    28.7048   ZX=   -24.6745
   XY=    31.5123   YY=    29.7000   ZY=    77.7459
   XZ=   -40.0095   YZ=    65.3072   ZZ=   130.9956
   Eigenvalues:   -52.1299    31.0240   169.2804
      8  H    Isotropic =    23.1586   Anisotropy =    13.5525
   XX=    28.5711   YX=     1.5482   ZX=    -3.6986
   XY=     3.2466   YY=    22.7592   ZY=    -2.1157
   XZ=    -8.3753   YZ=    -1.0821   ZZ=    18.1456
   Eigenvalues:    15.3521    21.9301    32.1936
      9  C    Isotropic =    55.1460   Anisotropy =   174.7426
   XX=    46.7071   YX=    -2.6162   ZX=    -2.8420
   XY=     0.6223   YY=    -1.6258   ZY=    92.8272
   XZ=     0.5159   YZ=    95.6598   ZZ=   120.3568
   Eigenvalues:   -52.8932    46.6901   171.6411
     10  H    Isotropic =    24.6278   Anisotropy =     7.1815
   XX=    29.1040   YX=     0.1399   ZX=    -0.3694
   XY=     0.3642   YY=    23.4778   ZY=    -1.0805
   XZ=    -2.4493   YZ=    -2.9465   ZZ=    21.3016
   Eigenvalues:    19.9703    24.4977    29.4155
     11  C    Isotropic =    51.5607   Anisotropy =   151.2142
   XX=     2.1639   YX=    40.9287   ZX=   -26.0048
   XY=    49.9131   YY=    12.2331   ZY=    42.1342
   XZ=   -15.6145   YZ=    38.6614   ZZ=   140.2851
   Eigenvalues:   -48.1951    50.5071   152.3701
     12  H    Isotropic =    23.8537   Anisotropy =     7.3815
   XX=    25.9672   YX=     2.3738   ZX=    -0.2390
   XY=     2.4320   YY=    26.3975   ZY=    -1.8291
   XZ=     0.3529   YZ=    -1.7731   ZZ=    19.1964
   Eigenvalues:    18.7149    24.0714    28.7747
     13  C    Isotropic =    52.8653   Anisotropy =   147.4265
   XX=    51.2944   YX=    19.9221   ZX=   -13.4678
   XY=    11.5478   YY=   -34.0176   ZY=    42.5079
   XZ=    -9.2241   YZ=    40.0716   ZZ=   141.3192
   Eigenvalues:   -46.5152    53.9616   151.1497
     14  H    Isotropic =    24.0156   Anisotropy =     7.3485
   XX=    28.6644   YX=     0.6281   ZX=     1.0808
   XY=     0.5926   YY=    24.4325   ZY=    -1.0823
   XZ=     1.6846   YZ=    -0.3842   ZZ=    18.9500
   Eigenvalues:    18.6430    24.4892    28.9146
     15  C    Isotropic =    46.2221   Anisotropy =   203.9048
   XX=   -27.2215   YX=    -0.0442   ZX=   -28.9124
   XY=     4.6427   YY=   -10.5571   ZY=    28.3830
   XZ=   -10.2704   YZ=    26.7376   ZZ=   176.4448
   Eigenvalues:   -30.5512   -12.9411   182.1586
     16  C    Isotropic =    51.9375   Anisotropy =   188.2004
   XX=   -19.4441   YX=     5.5046   ZX=    15.7858
   XY=    -8.3874   YY=     2.4863   ZY=    22.9264
   XZ=   -50.6243   YZ=    23.3340   ZZ=   172.7704
   Eigenvalues:   -21.0294    -0.5625   177.4045
     17  C    Isotropic =    51.9482   Anisotropy =   149.1264
   XX=    50.7296   YX=   -23.9353   ZX=   -18.4207
   XY=   -16.7271   YY=   -41.8764   ZY=    17.8662
   XZ=   -14.3278   YZ=    11.4871   ZZ=   146.9915
   Eigenvalues:   -46.7796    51.2584   151.3658
     18  H    Isotropic =    24.0122   Anisotropy =     7.5163
   XX=    28.5811   YX=    -0.0866   ZX=     1.5071
   XY=    -0.2466   YY=    24.3342   ZY=    -0.7657
   XZ=     2.5088   YZ=    -1.5208   ZZ=    19.1214
   Eigenvalues:    18.5094    24.5041    29.0231
     19  C    Isotropic =    51.7356   Anisotropy =   148.5924
   XX=     2.4559   YX=   -45.6913   ZX=   -31.2531
   XY=   -53.4448   YY=     7.4698   ZY=    -1.8888
   XZ=   -23.5601   YZ=    -1.2765   ZZ=   145.2810
   Eigenvalues:   -46.9894    51.3989   150.7972
     20  H    Isotropic =    23.9071   Anisotropy =     7.6651
   XX=    25.5796   YX=    -2.0226   ZX=     1.4905
   XY=    -1.9998   YY=    27.3706   ZY=    -0.5164
   XZ=     2.7276   YZ=    -1.1179   ZZ=    18.7711
   Eigenvalues:    18.1643    24.5398    29.0172
     21  C    Isotropic =    45.9767   Anisotropy =   203.9316
   XX=   -16.2108   YX=    13.1802   ZX=   -44.5913
   XY=     6.5714   YY=   -20.6329   ZY=     0.0949
   XZ=   -28.8984   YZ=   -13.0883   ZZ=   174.7736
   Eigenvalues:   -30.5796   -13.4215   181.9311
     22  C    Isotropic =    52.0450   Anisotropy =   188.1157
   XX=    -0.0787   YX=     2.5023   ZX=   -16.3451
   XY=    18.9327   YY=   -14.4798   ZY=   -34.4335
   XZ=   -50.6032   YZ=    19.9104   ZZ=   170.6934
   Eigenvalues:   -20.7705    -0.5500   177.4554
     23  C    Isotropic =    53.2392   Anisotropy =   146.7412
   XX=   -22.0674   YX=   -32.0012   ZX=   -49.4857
   XY=   -23.2043   YY=    44.3661   ZY=   -15.6400
   XZ=   -43.8090   YZ=   -20.2525   ZZ=   137.4189
   Eigenvalues:   -45.6776    54.3286   151.0667
     24  H    Isotropic =    23.8249   Anisotropy =     7.5289
   XX=    25.1073   YX=    -1.7330   ZX=     1.5380
   XY=    -1.5944   YY=    28.0047   ZY=     0.0879
   XZ=     1.2557   YZ=    -0.8283   ZZ=    18.3628
   Eigenvalues:    18.0848    24.5458    28.8442
     25  C    Isotropic =    51.4969   Anisotropy =   150.1066
   XX=   -28.4915   YX=    33.9684   ZX=   -52.3137
   XY=    22.0311   YY=    46.6072   ZY=    -3.8075
   XZ=   -44.5594   YZ=   -10.6355   ZZ=   136.3748
   Eigenvalues:   -48.3857    51.3083   151.5679
     26  H    Isotropic =    23.7431   Anisotropy =     7.4052
   XX=    24.0663   YX=     1.1141   ZX=     1.9989
   XY=     0.9693   YY=    28.1000   ZY=     1.6568
   XZ=     2.0795   YZ=     0.8886   ZZ=    19.0630
   Eigenvalues:    18.2615    24.2880    28.6799
     27  C    Isotropic =    45.8108   Anisotropy =   207.2710
   XX=    -2.7702   YX=    13.7697   ZX=   -61.4651
   XY=     6.5593   YY=   -12.0335   ZY=   -41.6456
   XZ=   -62.6381   YZ=   -44.9232   ZZ=   152.2361
   Eigenvalues:   -28.0803   -18.4787   183.9915
     28  C    Isotropic =    47.8398   Anisotropy =   197.2870
   XX=    19.6900   YX=    14.4398   ZX=   -60.5682
   XY=    28.5650   YY=   -19.3566   ZY=   -56.7015
   XZ=   -63.1331   YZ=   -24.4782   ZZ=   143.1859
   Eigenvalues:   -30.5979    -5.2472   179.3644
     29  C    Isotropic =    49.3441   Anisotropy =   179.7793
   XX=    -3.4110   YX=    38.3775   ZX=   -80.8875
   XY=    36.1252   YY=    25.9805   ZY=   -23.7573
   XZ=   -78.1065   YZ=    -3.9802   ZZ=   125.4627
   Eigenvalues:   -51.6645    30.4997   169.1970
     30  H    Isotropic =    23.1387   Anisotropy =    13.3222
   XX=    22.4354   YX=    -0.7013   ZX=    -0.2375
   XY=    -2.1539   YY=    28.3546   ZY=     4.5555
   XZ=    -3.4181   YZ=     8.3231   ZZ=    18.6259
   Eigenvalues:    15.2751    22.1208    32.0201
     31  C    Isotropic =    55.4410   Anisotropy =   174.9390
   XX=    17.1871   YX=   -14.0890   ZX=   -84.0024
   XY=   -17.9030   YY=    37.4745   ZY=   -50.3662
   XZ=   -84.6557   YZ=   -54.8325   ZZ=   111.6615
   Eigenvalues:   -51.9248    46.1808   172.0670
     32  H    Isotropic =    24.5337   Anisotropy =     7.2554
   XX=    24.6185   YX=    -2.5264   ZX=     0.7632
   XY=    -2.7385   YY=    27.4630   ZY=     1.0335
   XZ=     1.1913   YZ=     3.7573   ZZ=    21.5194
   Eigenvalues:    19.8987    24.3316    29.3706
     33  C    Isotropic =    53.1814   Anisotropy =   179.0596
   XX=    60.9231   YX=    35.2256   ZX=   -42.9515
   XY=    32.0226   YY=   -38.1801   ZY=   -45.5652
   XZ=   -44.2248   YZ=   -50.7831   ZZ=   136.8014
   Eigenvalues:   -55.1197    42.1095   172.5545
     34  H    Isotropic =    24.2825   Anisotropy =     5.1861
   XX=    26.7643   YX=    -0.0934   ZX=     2.5955
   XY=    -0.2993   YY=    24.8157   ZY=     0.8589
   XZ=     2.3715   YZ=     1.4580   ZZ=    21.2676
   Eigenvalues:    20.0339    25.0737    27.7399
     35  C    Isotropic =    51.5295   Anisotropy =   155.1748
   XX=    -0.5131   YX=    52.5760   ZX=   -52.1551
   XY=    55.6135   YY=    25.1843   ZY=   -14.2643
   XZ=   -45.7255   YZ=   -17.1625   ZZ=   129.9171
   Eigenvalues:   -48.3147    47.9237   154.9793
     36  H    Isotropic =    23.8384   Anisotropy =     7.3073
   XX=    24.2302   YX=     1.4459   ZX=     2.1759
   XY=     1.2147   YY=    27.1572   ZY=     2.0665
   XZ=     1.6853   YZ=     2.7775   ZZ=    20.1277
   Eigenvalues:    18.9464    23.8588    28.7099
     37  Bq   Isotropic =    11.8894   Anisotropy =    16.5038
   XX=    11.3686   YX=    -0.4801   ZX=    -5.9545
   XY=     0.9142   YY=     7.4496   ZY=    -3.9223
   XZ=   -10.0720   YZ=    -1.1607   ZZ=    16.8501
   Eigenvalues:     4.8975     7.8788    22.8920
     38  Bq   Isotropic =    10.7701   Anisotropy =    18.4308
   XX=     9.8874   YX=     0.4389   ZX=    -7.0582
   XY=     0.8177   YY=     6.4018   ZY=    -3.9221
   XZ=   -10.8523   YZ=    -3.1587   ZZ=    16.0212
   Eigenvalues:     2.7263     6.5267    23.0573
     39  Bq   Isotropic =    10.3274   Anisotropy =    12.9727
   XX=    10.2998   YX=    -0.3795   ZX=    -4.7044
   XY=     0.7284   YY=     7.3100   ZY=    -2.7479
   XZ=    -8.9287   YZ=    -0.3790   ZZ=    13.3724
   Eigenvalues:     4.5779     7.4284    18.9759
     40  Bq   Isotropic =    10.7654   Anisotropy =    20.8011
   XX=     9.3897   YX=     0.9721   ZX=    -8.0808
   XY=     0.8343   YY=     5.8441   ZY=    -4.3966
   XZ=   -11.3444   YZ=    -4.6281   ZZ=    17.0624
   Eigenvalues:     1.7907     5.8726    24.6328
     41  Bq   Isotropic =    10.0014   Anisotropy =    10.3839
   XX=    10.2132   YX=    -0.5397   ZX=    -3.6552
   XY=     0.6229   YY=     7.6185   ZY=    -2.1122
   XZ=    -7.5625   YZ=     0.6409   ZZ=    12.1724
   Eigenvalues:     5.4096     7.6705    16.9240
     42  Bq   Isotropic =    10.5860   Anisotropy =    22.7012
   XX=     8.7474   YX=     1.4984   ZX=    -8.8759
   XY=     0.8481   YY=     5.2587   ZY=    -4.7798
   XZ=   -11.5579   YZ=    -5.9819   ZZ=    17.7519
   Eigenvalues:     0.9002     5.1377    25.7201
     43  Bq   Isotropic =     9.7348   Anisotropy =     8.2401
   XX=     9.9927   YX=    -0.4925   ZX=    -2.8921
   XY=     0.4634   YY=     7.8273   ZY=    -1.5222
   XZ=    -6.0776   YZ=     1.2527   ZZ=    11.3843
   Eigenvalues:     6.1442     7.8320    15.2282
     44  Bq   Isotropic =    10.2469   Anisotropy =    24.0571
   XX=     8.0137   YX=     1.9664   ZX=    -9.4087
   XY=     0.8629   YY=     4.6752   ZY=    -5.0708
   XZ=   -11.5471   YZ=    -7.1378   ZZ=    18.0519
   Eigenvalues:     0.0807     4.3751    26.2850
     45  Bq   Isotropic =     9.6308   Anisotropy =     6.7703
   XX=     9.7182   YX=    -0.2568   ZX=    -2.5221
   XY=     0.2612   YY=     7.9505   ZY=    -1.0611
   XZ=    -4.6629   YZ=     1.4060   ZZ=    11.2238
   Eigenvalues:     6.7900     7.9582    14.1444
     46  Bq   Isotropic =     9.7771   Anisotropy =    24.8644
   XX=     7.2394   YX=     2.3449   ZX=    -9.6837
   XY=     0.8778   YY=     4.1154   ZY=    -5.2736
   XZ=   -11.3696   YZ=    -8.0528   ZZ=    17.9766
   Eigenvalues:    -0.6532     3.6311    26.3534
     47  Bq   Isotropic =     9.7603   Anisotropy =     6.2324
   XX=     9.4675   YX=     0.1109   ZX=    -2.5814
   XY=     0.0517   YY=     8.0013   ZY=    -0.8152
   XZ=    -3.5331   YZ=     1.1293   ZZ=    11.8121
   Eigenvalues:     7.3292     8.0364    13.9152
     48  Bq   Isotropic =    10.6098   Anisotropy =    15.7451
   XX=    10.1971   YX=    -0.0349   ZX=    -5.8902
   XY=     0.7878   YY=     6.8997   ZY=    -3.3651
   XZ=   -10.0459   YZ=    -1.6940   ZZ=    14.7327
   Eigenvalues:     3.6700     7.0529    21.1065
     49  Bq   Isotropic =     9.9968   Anisotropy =    17.9152
   XX=     9.2962   YX=     0.7185   ZX=    -6.9752
   XY=     0.7299   YY=     6.1951   ZY=    -3.8015
   XZ=   -10.8406   YZ=    -3.7339   ZZ=    14.4991
   Eigenvalues:     1.8585     6.1917    21.9403
     50  Bq   Isotropic =     9.4856   Anisotropy =    12.5360
   XX=     9.7013   YX=    -0.1011   ZX=    -4.6936
   XY=     0.4899   YY=     6.9833   ZY=    -2.4808
   XZ=    -8.9784   YZ=    -0.9836   ZZ=    11.7722
   Eigenvalues:     3.5310     7.0828    17.8429
     51  Bq   Isotropic =    10.0679   Anisotropy =    20.3019
   XX=     8.8508   YX=     1.1789   ZX=    -7.9780
   XY=     0.8137   YY=     5.6947   ZY=    -4.3749
   XZ=   -11.3422   YZ=    -5.0668   ZZ=    15.6583
   Eigenvalues:     1.0341     5.5672    23.6025
     52  Bq   Isotropic =     9.1685   Anisotropy =    10.0626
   XX=     9.6557   YX=    -0.3635   ZX=    -3.6808
   XY=     0.3247   YY=     7.2333   ZY=    -1.8360
   XZ=    -7.6794   YZ=     0.1985   ZZ=    10.6167
   Eigenvalues:     4.3236     7.3051    15.8769
     53  Bq   Isotropic =     9.9809   Anisotropy =    22.2416
   XX=     8.2837   YX=     1.6103   ZX=    -8.7681
   XY=     0.8803   YY=     5.1579   ZY=    -4.8498
   XZ=   -11.5859   YZ=    -6.2488   ZZ=    16.5012
   Eigenvalues:     0.2544     4.8797    24.8087
     54  Bq   Isotropic =     8.9274   Anisotropy =     8.0790
   XX=     9.4885   YX=    -0.4833   ZX=    -2.9411
   XY=     0.1342   YY=     7.3796   ZY=    -1.2931
   XZ=    -6.2725   YZ=     1.0982   ZZ=     9.9140
   Eigenvalues:     5.0733     7.3955    14.3134
     55  Bq   Isotropic =     9.7402   Anisotropy =    23.6516
   XX=     7.6373   YX=     1.9795   ZX=    -9.3091
   XY=     0.9323   YY=     4.6101   ZY=    -5.2147
   XZ=   -11.6187   YZ=    -7.2266   ZZ=    16.9733
   Eigenvalues:    -0.4616     4.1743    25.5080
     56  Bq   Isotropic =     8.8494   Anisotropy =     6.7607
   XX=     9.2600   YX=    -0.4564   ZX=    -2.5755
   XY=    -0.0626   YY=     7.4290   ZY=    -0.9255
   XZ=    -4.9299   YZ=     1.6375   ZZ=     9.8594
   Eigenvalues:     5.7935     7.3983    13.3566
     57  Bq   Isotropic =     9.3659   Anisotropy =    24.5197
   XX=     6.9526   YX=     2.2677   ZX=    -9.6016
   XY=     0.9698   YY=     4.0717   ZY=    -5.4694
   XZ=   -11.4903   YZ=    -7.9783   ZZ=    17.0735
   Eigenvalues:    -1.1036     3.4890    25.7124
     58  Bq   Isotropic =     8.9922   Anisotropy =     6.2659
   XX=     9.0316   YX=    -0.3036   ZX=    -2.6205
   XY=    -0.2320   YY=     7.3909   ZY=    -0.7935
   XZ=    -3.8483   YZ=     1.7915   ZZ=    10.5541
   Eigenvalues:     6.4588     7.3484    13.1694
     59  Bq   Isotropic =     9.7868   Anisotropy =    15.2465
   XX=     9.5851   YX=     0.2748   ZX=    -5.8401
   XY=     0.6240   YY=     6.6324   ZY=    -3.1558
   XZ=   -10.0512   YZ=    -2.3355   ZZ=    13.1427
   Eigenvalues:     2.7010     6.7082    19.9511
     60  Bq   Isotropic =     9.5974   Anisotropy =    17.5969
   XX=     9.0789   YX=     0.9153   ZX=    -6.8906
   XY=     0.6307   YY=     6.2781   ZY=    -3.8580
   XZ=   -10.8643   YZ=    -4.3813   ZZ=    13.4353
   Eigenvalues:     1.2480     6.2156    21.3287
     61  Bq   Isotropic =     9.0723   Anisotropy =    12.2523
   XX=     9.5373   YX=     0.0278   ZX=    -4.6733
   XY=     0.2022   YY=     6.9856   ZY=    -2.4148
   XZ=    -9.0479   YZ=    -1.6106   ZZ=    10.6939
   Eigenvalues:     2.8219     7.1544    17.2405
     62  Bq   Isotropic =     9.6967   Anisotropy =    20.0096
   XX=     8.6378   YX=     1.3361   ZX=    -7.8785
   XY=     0.7957   YY=     5.7948   ZY=    -4.5116
   XZ=   -11.3798   YZ=    -5.6016   ZZ=    14.6574
   Eigenvalues:     0.4887     5.5648    23.0364
     63  Bq   Isotropic =     8.7689   Anisotropy =     9.8884
   XX=     9.5429   YX=    -0.3579   ZX=    -3.7019
   XY=    -0.0454   YY=     7.1736   ZY=    -1.7594
   XZ=    -7.8069   YZ=    -0.2542   ZZ=     9.5902
   Eigenvalues:     3.6064     7.3392    15.3611
     64  Bq   Isotropic =     9.6474   Anisotropy =    21.9861
   XX=     8.0924   YX=     1.7001   ZX=    -8.6663
   XY=     0.9256   YY=     5.2599   ZY=    -5.0588
   XZ=   -11.6557   YZ=    -6.6281   ZZ=    15.5901
   Eigenvalues:    -0.2263     4.8638    24.3048
     65  Bq   Isotropic =     8.5488   Anisotropy =     8.1025
   XX=     9.4306   YX=    -0.6515   ZX=    -3.0019
   XY=    -0.2911   YY=     7.2448   ZY=    -1.2495
   XZ=    -6.4705   YZ=     0.9297   ZZ=     8.9708
   Eigenvalues:     4.3908     7.3051    13.9505
     66  Bq   Isotropic =     9.4495   Anisotropy =    23.4364
   XX=     7.4797   YX=     1.9905   ZX=    -9.2153
   XY=     1.0217   YY=     4.7006   ZY=    -5.4787
   XZ=   -11.7313   YZ=    -7.4353   ZZ=    16.1681
   Eigenvalues:    -0.8824     4.1571    25.0737
     67  Bq   Isotropic =     8.4918   Anisotropy =     7.0197
   XX=     9.2479   YX=    -0.8245   ZX=    -2.6687
   XY=    -0.5056   YY=     7.2078   ZY=    -0.9501
   XZ=    -5.1966   YZ=     1.8358   ZZ=     9.0196
   Eigenvalues:     5.1885     7.1152    13.1716
     68  Bq   Isotropic =     9.1187   Anisotropy =    24.3441
   XX=     6.8349   YX=     2.2013   ZX=    -9.5229
   XY=     1.0858   YY=     4.1408   ZY=    -5.7677
   XZ=   -11.6491   YZ=    -8.0224   ZZ=    16.3804
   Eigenvalues:    -1.4709     3.4788    25.3481
     69  Bq   Isotropic =     8.6494   Anisotropy =     6.6717
   XX=     9.0462   YX=    -0.8653   ZX=    -2.7367
   XY=    -0.6541   YY=     7.0761   ZY=    -0.9000
   XZ=    -4.1668   YZ=     2.3921   ZZ=     9.8258
   Eigenvalues:     5.9573     6.8937    13.0972
     70  Bq   Isotropic =     9.3729   Anisotropy =    14.9245
   XX=     9.3844   YX=     0.4665   ZX=    -5.7828
   XY=     0.4313   YY=     6.6826   ZY=    -3.1390
   XZ=   -10.0848   YZ=    -3.0225   ZZ=    12.0516
   Eigenvalues:     2.0321     6.7640    19.3225
     71  Bq   Isotropic =     9.5521   Anisotropy =    17.4543
   XX=     9.1657   YX=     1.0775   ZX=    -6.7920
   XY=     0.5491   YY=     6.6491   ZY=    -3.9880
   XZ=   -10.9289   YZ=    -5.0730   ZZ=    12.8414
   Eigenvalues:     0.9337     6.5343    21.1883
     72  Bq   Isotropic =     9.0578   Anisotropy =    12.0496
   XX=     9.6921   YX=     0.0986   ZX=    -4.6260
   XY=    -0.0734   YY=     7.3436   ZY=    -2.4151
   XZ=    -9.1302   YZ=    -2.2299   ZZ=    10.1378
   Eigenvalues:     2.4802     7.6024    17.0909
     73  Bq   Isotropic =     9.6378   Anisotropy =    19.9175
   XX=     8.7024   YX=     1.4729   ZX=    -7.7741
   XY=     0.7976   YY=     6.1337   ZY=    -4.7214
   XZ=   -11.4694   YZ=    -6.2023   ZZ=    14.0773
   Eigenvalues:     0.1889     5.8084    22.9161
     74  Bq   Isotropic =     8.7705   Anisotropy =     9.7615
   XX=     9.7389   YX=    -0.4142   ZX=    -3.7010
   XY=    -0.4061   YY=     7.4836   ZY=    -1.7424
   XZ=    -7.9352   YZ=    -0.6779   ZZ=     9.0889
   Eigenvalues:     3.2654     7.7679    15.2782
     75  Bq   Isotropic =     9.5774   Anisotropy =    21.9367
   XX=     8.1432   YX=     1.7821   ZX=    -8.5661
   XY=     0.9925   YY=     5.5484   ZY=    -5.3381
   XZ=   -11.7844   YZ=    -7.0882   ZZ=    15.0406
   Eigenvalues:    -0.5142     5.0446    24.2019
     76  Bq   Isotropic =     8.5666   Anisotropy =     8.1957
   XX=     9.6682   YX=    -0.8768   ZX=    -3.0585
   XY=    -0.7098   YY=     7.4839   ZY=    -1.2583
   XZ=    -6.6622   YZ=     0.8024   ZZ=     8.5477
   Eigenvalues:     4.0718     7.5976    14.0304
     77  Bq   Isotropic =     9.3713   Anisotropy =    23.4190
   XX=     7.5242   YX=     2.0033   ZX=    -9.1266
   XY=     1.1333   YY=     4.9279   ZY=    -5.8082
   XZ=   -11.9053   YZ=    -7.7322   ZZ=    15.6616
   Eigenvalues:    -1.1600     4.2899    24.9839
     78  Bq   Isotropic =     8.5263   Anisotropy =     7.4228
   XX=     9.5234   YX=    -1.2371   ZX=    -2.7892
   XY=    -0.9450   YY=     7.3609   ZY=    -1.0204
   XZ=    -5.4573   YZ=     2.0762   ZZ=     8.6947
   Eigenvalues:     4.9143     7.1898    13.4749
     79  Bq   Isotropic =     9.0354   Anisotropy =    24.3478
   XX=     6.8793   YX=     2.1430   ZX=    -9.4495
   XY=     1.2235   YY=     4.3030   ZY=    -6.1249
   XZ=   -11.8674   YZ=    -8.1556   ZZ=    15.9240
   Eigenvalues:    -1.7382     3.5771    25.2673
     80  Bq   Isotropic =     8.7015   Anisotropy =     7.3212
   XX=     9.3523   YX=    -1.4530   ZX=    -2.9212
   XY=    -1.0750   YY=     7.1377   ZY=    -1.0475
   XZ=    -4.4874   YZ=     3.0249   ZZ=     9.6145
   Eigenvalues:     5.7303     6.7918    13.5823
     81  Bq   Isotropic =     9.3426   Anisotropy =    14.7354
   XX=     9.5018   YX=     0.6099   ZX=    -5.7028
   XY=     0.2536   YY=     7.0611   ZY=    -3.1933
   XZ=   -10.1456   YZ=    -3.7279   ZZ=    11.4649
   Eigenvalues:     1.7023     7.1593    19.1662
     82  Bq   Isotropic =     9.8660   Anisotropy =    17.5175
   XX=     9.5453   YX=     1.2803   ZX=    -6.6815
   XY=     0.5346   YY=     7.2839   ZY=    -4.1108
   XZ=   -11.0430   YZ=    -5.8001   ZZ=    12.7687
   Eigenvalues:     0.9887     7.0650    21.5443
     83  Bq   Isotropic =     9.4538   Anisotropy =    11.9558
   XX=    10.1478   YX=     0.2431   ZX=    -4.5486
   XY=    -0.2414   YY=     8.0348   ZY=    -2.3864
   XZ=    -9.2239   YZ=    -2.8431   ZZ=    10.1789
   Eigenvalues:     2.6189     8.3182    17.4243
     84  Bq   Isotropic =     9.8945   Anisotropy =    20.0480
   XX=     9.0362   YX=     1.6388   ZX=    -7.6682
   XY=     0.8514   YY=     6.6871   ZY=    -4.9354
   XZ=   -11.6245   YZ=    -6.8519   ZZ=    13.9601
   Eigenvalues:     0.1887     6.2349    23.2598
     85  Bq   Isotropic =     9.1889   Anisotropy =     9.6811
   XX=    10.2237   YX=    -0.3766   ZX=    -3.6710
   XY=    -0.6359   YY=     8.1419   ZY=    -1.6924
   XZ=    -8.0601   YZ=    -1.0709   ZZ=     9.2010
   Eigenvalues:     3.4295     8.4941    15.6429
     86  Bq   Isotropic =     9.7727   Anisotropy =    22.1096
   XX=     8.4306   YX=     1.8850   ZX=    -8.4721
   XY=     1.0992   YY=     5.9995   ZY=    -5.6299
   XZ=   -11.9890   YZ=    -7.6055   ZZ=    14.8880
   Eigenvalues:    -0.5708     5.3764    24.5124
     87  Bq   Isotropic =     9.0003   Anisotropy =     8.3047
   XX=    10.1794   YX=    -0.9883   ZX=    -3.0994
   XY=    -0.9749   YY=     8.0770   ZY=    -1.2383
   XZ=    -6.8438   YZ=     0.7285   ZZ=     8.7444
   Eigenvalues:     4.2548     8.2093    14.5368
     88  Bq   Isotropic =     9.5066   Anisotropy =    23.6100
   XX=     7.7680   YX=     2.0315   ZX=    -9.0477
   XY=     1.2753   YY=     5.2686   ZY=    -6.1547
   XZ=   -12.1593   YZ=    -8.0898   ZZ=    15.4832
   Eigenvalues:    -1.2677     4.5409    25.2466
     89  Bq   Isotropic =     8.9758   Anisotropy =     7.8550
   XX=    10.0632   YX=    -1.5179   ZX=    -2.9205
   XY=    -1.2114   YY=     7.8709   ZY=    -1.0751
   XZ=    -5.7106   YZ=     2.3868   ZZ=     8.9933
   Eigenvalues:     5.1121     7.6027    14.2125
     90  Bq   Isotropic =     9.1168   Anisotropy =    24.5379
   XX=     7.0849   YX=     2.0966   ZX=    -9.3864
   XY=     1.3843   YY=     4.5362   ZY=    -6.5004
   XZ=   -12.1642   YZ=    -8.3492   ZZ=    15.7294
   Eigenvalues:    -1.8873     3.7624    25.4754
     91  Bq   Isotropic =     9.1732   Anisotropy =     8.0668
   XX=     9.9253   YX=    -1.8948   ZX=    -3.1529
   XY=    -1.3096   YY=     7.5618   ZY=    -1.1996
   XZ=    -4.8130   YZ=     3.7350   ZZ=    10.0323
   Eigenvalues:     5.9392     7.0293    14.5510
     92  Bq   Isotropic =     9.7040   Anisotropy =    14.7138
   XX=     9.9226   YX=     0.8090   ZX=    -5.6000
   XY=     0.1617   YY=     7.7444   ZY=    -3.2284
   XZ=   -10.2366   YZ=    -4.4500   ZZ=    11.4449
   Eigenvalues:     1.8047     7.7941    19.5132
     93  Bq   Isotropic =    10.5656   Anisotropy =    17.8641
   XX=    10.2611   YX=     1.6049   ZX=    -6.5823
   XY=     0.6448   YY=     8.1284   ZY=    -4.1617
   XZ=   -11.2202   YZ=    -6.5568   ZZ=    13.3073
   Eigenvalues:     1.5096     7.7123    22.4750
     94  Bq   Isotropic =    10.3064   Anisotropy =    12.1155
   XX=    10.9788   YX=     0.6078   ZX=    -4.4615
   XY=    -0.1865   YY=     8.9783   ZY=    -2.2612
   XZ=    -9.3330   YZ=    -3.4677   ZZ=    10.9621
   Eigenvalues:     3.4015     9.1343    18.3834
     95  Bq   Isotropic =    10.4842   Anisotropy =    20.4490
   XX=     9.6693   YX=     1.8868   ZX=    -7.5813
   XY=     0.9933   YY=     7.4104   ZY=    -5.0950
   XZ=   -11.8619   YZ=    -7.5331   ZZ=    14.3729
   Eigenvalues:     0.5566     6.7790    24.1169
     96  Bq   Isotropic =    10.0789   Anisotropy =     9.7779
   XX=    11.0845   YX=    -0.0703   ZX=    -3.6251
   XY=    -0.5862   YY=     9.0531   ZY=    -1.5512
   XZ=    -8.1821   YZ=    -1.4567   ZZ=    10.0991
   Eigenvalues:     4.2927     9.3465    16.5975
     97  Bq   Isotropic =    10.2433   Anisotropy =    22.5306
   XX=     8.9734   YX=     2.0395   ZX=    -8.4009
   XY=     1.2658   YY=     6.5760   ZY=    -5.8827
   XZ=   -12.2879   YZ=    -8.1539   ZZ=    15.1806
   Eigenvalues:    -0.3497     5.8159    25.2638
     98  Bq   Isotropic =     9.9118   Anisotropy =     8.4668
   XX=    11.0608   YX=    -0.7910   ZX=    -3.1261
   XY=    -0.9052   YY=     8.9170   ZY=    -1.1498
   XZ=    -7.0139   YZ=     0.6851   ZZ=     9.7576
   Eigenvalues:     5.1532     9.0258    15.5563
     99  Bq   Isotropic =     9.8602   Anisotropy =    24.0214
   XX=     8.2216   YX=     2.0897   ZX=    -8.9916
   XY=     1.4564   YY=     5.6917   ZY=    -6.4738
   XZ=   -12.5115   YZ=    -8.4771   ZZ=    15.6674
   Eigenvalues:    -1.1755     4.8816    25.8745
    100  Bq   Isotropic =     9.9071   Anisotropy =     8.2446
   XX=    10.9673   YX=    -1.4636   ZX=    -3.0499
   XY=    -1.0964   YY=     8.6255   ZY=    -1.1005
   XZ=    -5.9562   YZ=     2.7506   ZZ=    10.1285
   Eigenvalues:     5.9986     8.3192    15.4035
    101  Bq   Isotropic =     9.3641   Anisotropy =    24.9174
   XX=     7.4568   YX=     2.0661   ZX=    -9.3432
   XY=     1.5692   YY=     4.8145   ZY=    -6.8556
   XZ=   -12.5561   YZ=    -8.5710   ZZ=    15.8210
   Eigenvalues:    -1.8993     4.0159    25.9757
    102  Bq   Isotropic =    10.1343   Anisotropy =     8.7898
   XX=    10.8628   YX=    -1.9912   ZX=    -3.4039
   XY=    -1.1323   YY=     8.2404   ZY=    -1.3710
   XZ=    -5.1455   YZ=     4.5136   ZZ=    11.2996
   Eigenvalues:     6.7981     7.6105    15.9942
    103  Bq   Isotropic =    10.4935   Anisotropy =    14.9742
   XX=    10.7060   YX=     1.1773   ZX=    -5.4979
   XY=     0.2398   YY=     8.6661   ZY=    -3.1755
   XZ=   -10.3671   YZ=    -5.1955   ZZ=    12.1084
   Eigenvalues:     2.4691     8.5351    20.4763
    104  Bq   Isotropic =    11.6835   Anisotropy =    18.5881
   XX=    11.3886   YX=     2.1160   ZX=    -6.5414
   XY=     0.9294   YY=     9.0970   ZY=    -4.0812
   XZ=   -11.4810   YZ=    -7.3231   ZZ=    14.5650
   Eigenvalues:     2.5888     8.3862    24.0756
    105  Bq   Isotropic =    11.6712   Anisotropy =    12.7619
   XX=    12.3143   YX=     1.3238   ZX=    -4.4173
   XY=     0.2055   YY=    10.0299   ZY=    -1.9846
   XZ=    -9.4705   YZ=    -4.1195   ZZ=    12.6695
   Eigenvalues:     4.9922     9.8423    20.1791
    106  Bq   Isotropic =    11.4276   Anisotropy =    21.1709
   XX=    10.6522   YX=     2.2550   ZX=    -7.5519
   XY=     1.2511   YY=     8.2388   ZY=    -5.1458
   XZ=   -12.2026   YZ=    -8.2131   ZZ=    15.3919
   Eigenvalues:     1.3561     7.3852    25.5416
    107  Bq   Isotropic =    11.5046   Anisotropy =    10.3466
   XX=    12.4729   YX=     0.6683   ZX=    -3.6075
   XY=    -0.1019   YY=    10.0394   ZY=    -1.2797
   XZ=    -8.3088   YZ=    -1.8687   ZZ=    12.0014
   Eigenvalues:     6.0458    10.0656    18.4023
    108  Bq   Isotropic =    11.0000   Anisotropy =    23.2216
   XX=     9.8023   YX=     2.2641   ZX=    -8.3817
   XY=     1.5047   YY=     7.2285   ZY=    -6.0479
   XZ=   -12.7005   YZ=    -8.6933   ZZ=    15.9692
   Eigenvalues:     0.1904     6.3285    26.4811
    109  Bq   Isotropic =    11.3708   Anisotropy =     8.9509
   XX=    12.4781   YX=    -0.0973   ZX=    -3.1659
   XY=    -0.3051   YY=     9.7986   ZY=    -0.9814
   XZ=    -7.1764   YZ=     0.6251   ZZ=    11.8355
   Eigenvalues:     6.9506     9.8237    17.3381
    110  Bq   Isotropic =    10.4352   Anisotropy =    24.6569
   XX=     8.9008   YX=     2.1835   ZX=    -8.9792
   XY=     1.6787   YY=     6.1591   ZY=    -6.7221
   XZ=   -12.9787   YZ=    -8.8515   ZZ=    16.2457
   Eigenvalues:    -0.8574     5.2899    26.8731
    111  Bq   Isotropic =    11.3939   Anisotropy =     8.7732
   XX=    12.4064   YX=    -0.8745   ZX=    -3.1800
   XY=    -0.3701   YY=     9.4064   ZY=    -1.1213
   XZ=    -6.1960   YZ=     3.1118   ZZ=    12.3689
   Eigenvalues:     7.6557     9.2834    17.2427
    112  Bq   Isotropic =     9.7755   Anisotropy =    25.4798
   XX=     8.0010   YX=     2.0496   ZX=    -9.3339
   XY=     1.7741   YY=     5.1086   ZY=    -7.1524
   XZ=   -13.0563   YZ=    -8.7795   ZZ=    16.2169
   Eigenvalues:    -1.7583     4.3227    26.7620
    113  Bq   Isotropic =    11.6611   Anisotropy =     9.6067
   XX=    12.3298   YX=    -1.5440   ZX=    -3.6493
   XY=    -0.2920   YY=     8.9624   ZY=    -1.6245
   XZ=    -5.4866   YZ=     5.2991   ZZ=    13.6912
   Eigenvalues:     7.9616     8.9562    18.0656
    114  Bq   Isotropic =    11.7558   Anisotropy =    15.6719
   XX=    11.9543   YX=     1.8114   ZX=    -5.4494
   XY=     0.5667   YY=     9.7139   ZY=    -2.9740
   XZ=   -10.5543   YZ=    -5.9615   ZZ=    13.5993
   Eigenvalues:     3.8229     9.2408    22.2037
    115  Bq   Isotropic =    13.2358   Anisotropy =    19.7661
   XX=    12.9966   YX=     2.8402   ZX=    -6.6304
   XY=     1.4119   YY=    10.0817   ZY=    -3.8088
   XZ=   -11.8534   YZ=    -8.0497   ZZ=    16.6292
   Eigenvalues:     4.2773     9.0170    26.4132
    116  Bq   Isotropic =    13.5768   Anisotropy =    14.1467
   XX=    14.2771   YX=     2.4791   ZX=    -4.5103
   XY=     1.0220   YY=    10.9863   ZY=    -1.4986
   XZ=    -9.6653   YZ=    -4.7929   ZZ=    15.4669
   Eigenvalues:     7.4924    10.2300    23.0079
    117  Bq   Isotropic =    12.7319   Anisotropy =    22.2442
   XX=    12.0282   YX=     2.7505   ZX=    -7.6343
   XY=     1.6307   YY=     9.0951   ZY=    -5.0330
   XZ=   -12.6707   YZ=    -8.8323   ZZ=    17.0726
   Eigenvalues:     2.6190     8.0154    27.5614
    118  Bq   Isotropic =    13.4944   Anisotropy =    11.7933
   XX=    14.5310   YX=     1.9613   ZX=    -3.7086
   XY=     0.9499   YY=    10.8401   ZY=    -0.8403
   XZ=    -8.4668   YZ=    -2.3314   ZZ=    15.1120
   Eigenvalues:     8.7259    10.4006    21.3566
    119  Bq   Isotropic =    12.0420   Anisotropy =    24.1843
   XX=    10.9399   YX=     2.5538   ZX=    -8.4528
   XY=     1.8113   YY=     7.9017   ZY=    -6.0773
   XZ=   -13.2454   YZ=    -9.1612   ZZ=    17.2844
   Eigenvalues:     1.0688     6.8923    28.1649
    120  Bq   Isotropic =    13.4027   Anisotropy =    10.3531
   XX=    14.5826   YX=     1.2436   ZX=    -3.2905
   XY=     1.0076   YY=    10.4123   ZY=    -0.7337
   XZ=    -7.3545   YZ=     0.4926   ZZ=    15.2130
   Eigenvalues:     9.1226    10.7806    20.3047
    121  Bq   Isotropic =    11.2253   Anisotropy =    25.5017
   XX=     9.8137   YX=     2.3019   ZX=    -9.0355
   XY=     1.9322   YY=     6.6312   ZY=    -6.8576
   XZ=   -13.5732   YZ=    -9.1533   ZZ=    17.2310
   Eigenvalues:    -0.3021     5.7516    28.2265
    122  Bq   Isotropic =    13.4590   Anisotropy =    10.1259
   XX=    14.5293   YX=     0.4166   ZX=    -3.3501
   XY=     1.1926   YY=     9.8808   ZY=    -1.1901
   XZ=    -6.4497   YZ=     3.3852   ZZ=    15.9670
   Eigenvalues:     8.7411    11.4264    20.2096
    123  Bq   Isotropic =    10.3416   Anisotropy =    26.2026
   XX=     8.7165   YX=     2.0340   ZX=    -9.3737
   XY=     1.9867   YY=     5.3899   ZY=    -7.3539
   XZ=   -13.6722   YZ=    -8.9218   ZZ=    16.9185
   Eigenvalues:    -1.4577     4.6725    27.8100
    124  Bq   Isotropic =    13.7777   Anisotropy =    11.1231
   XX=    14.4634   YX=    -0.3843   ZX=    -3.8864
   XY=     1.4627   YY=     9.4085   ZY=    -2.0655
   XZ=    -5.8512   YZ=     5.9816   ZZ=    17.4612
   Eigenvalues:     8.2943    11.8457    21.1931
    125  Bq   Isotropic =    13.5150   Anisotropy =    16.9541
[...]
   136  Bq   0.000000
   137  Bq   0.000000
   138  Bq   0.000000
   139  Bq   0.000000
   140  Bq   0.000000
   141  Bq   0.000000
   142  Bq   0.000000
   143  Bq   0.000000
   144  Bq   0.000000
   145  Bq   0.000000
   146  Bq   0.000000
   147  Bq   0.000000
   148  Bq   0.000000
   149  Bq   0.000000
   150  Bq   0.000000
   151  Bq   0.000000
   152  Bq   0.000000
   153  Bq   0.000000
   154  Bq   0.000000
   155  Bq   0.000000
   156  Bq   0.000000
   157  Bq   0.000000
   158  Bq   0.000000
   159  Bq   0.000000
   160  Bq   0.000000
   161  Bq   0.000000
   162  Bq   0.000000
   163  Bq   0.000000
   164  Bq   0.000000
   165  Bq   0.000000
   166  Bq   0.000000
   167  Bq   0.000000
   168  Bq   0.000000
   169  Bq   0.000000
   170  Bq   0.000000
   171  Bq   0.000000
   172  Bq   0.000000
   173  Bq   0.000000
   174  Bq   0.000000
   175  Bq   0.000000
   176  Bq   0.000000
   177  Bq   0.000000
   178  Bq   0.000000
   179  Bq   0.000000
   180  Bq   0.000000
   181  Bq   0.000000
   182  Bq   0.000000
   183  Bq   0.000000
   184  Bq   0.000000
   185  Bq   0.000000
   186  Bq   0.000000
   187  Bq   0.000000
   188  Bq   0.000000
   189  Bq   0.000000
   190  Bq   0.000000
   191  Bq   0.000000
   192  Bq   0.000000
   193  Bq   0.000000
   194  Bq   0.000000
   195  Bq   0.000000
   196  Bq   0.000000
   197  Bq   0.000000
   198  Bq   0.000000
   199  Bq   0.000000
   200  Bq   0.000000
   201  Bq   0.000000
   202  Bq   0.000000
   203  Bq   0.000000
   204  Bq   0.000000
   205  Bq   0.000000
   206  Bq   0.000000
   207  Bq   0.000000
   208  Bq   0.000000
   209  Bq   0.000000
   210  Bq   0.000000
   211  Bq   0.000000
   212  Bq   0.000000
   213  Bq   0.000000
   214  Bq   0.000000
   215  Bq   0.000000
   216  Bq   0.000000
   217  Bq   0.000000
   218  Bq   0.000000
   219  Bq   0.000000
   220  Bq   0.000000
   221  Bq   0.000000
   222  Bq   0.000000
   223  Bq   0.000000
   224  Bq   0.000000
   225  Bq   0.000000
   226  Bq   0.000000
   227  Bq   0.000000
   228  Bq   0.000000
   229  Bq   0.000000
   230  Bq   0.000000
   231  Bq   0.000000
   232  Bq   0.000000
   233  Bq   0.000000
   234  Bq   0.000000
   235  Bq   0.000000
   236  Bq   0.000000
 Sum of Mulliken charges =   0.00000
 Mulliken charges with hydrogens summed into heavy atoms:
               1
     1  C   -0.255498
     3  C    0.169409
     5  C    0.448258
     6  C    0.064351
     7  C   -0.333926
     9  C   -0.139521
    11  C   -0.205988
    13  C   -0.119315
    15  C    0.653397
    16  C    0.034822
    17  C   -0.317410
    19  C   -0.316854
    21  C    0.651066
    22  C    0.037784
    23  C   -0.117289
    25  C   -0.205316
    27  C    0.448331
    28  C    0.061983
    29  C   -0.333381
    31  C   -0.139505
    33  C   -0.255977
    35  C    0.170579
    37  Bq   0.000000
    38  Bq   0.000000
    39  Bq   0.000000
    40  Bq   0.000000
    41  Bq   0.000000
    42  Bq   0.000000
    43  Bq   0.000000
    44  Bq   0.000000
    45  Bq   0.000000
    46  Bq   0.000000
    47  Bq   0.000000
    48  Bq   0.000000
    49  Bq   0.000000
    50  Bq   0.000000
    51  Bq   0.000000
    52  Bq   0.000000
    53  Bq   0.000000
    54  Bq   0.000000
    55  Bq   0.000000
    56  Bq   0.000000
    57  Bq   0.000000
    58  Bq   0.000000
    59  Bq   0.000000
    60  Bq   0.000000
    61  Bq   0.000000
    62  Bq   0.000000
    63  Bq   0.000000
    64  Bq   0.000000
    65  Bq   0.000000
    66  Bq   0.000000
    67  Bq   0.000000
    68  Bq   0.000000
    69  Bq   0.000000
    70  Bq   0.000000
    71  Bq   0.000000
    72  Bq   0.000000
    73  Bq   0.000000
    74  Bq   0.000000
    75  Bq   0.000000
    76  Bq   0.000000
    77  Bq   0.000000
    78  Bq   0.000000
    79  Bq   0.000000
    80  Bq   0.000000
    81  Bq   0.000000
    82  Bq   0.000000
    83  Bq   0.000000
    84  Bq   0.000000
    85  Bq   0.000000
    86  Bq   0.000000
    87  Bq   0.000000
    88  Bq   0.000000
    89  Bq   0.000000
    90  Bq   0.000000
    91  Bq   0.000000
    92  Bq   0.000000
    93  Bq   0.000000
    94  Bq   0.000000
    95  Bq   0.000000
    96  Bq   0.000000
    97  Bq   0.000000
    98  Bq   0.000000
    99  Bq   0.000000
   100  Bq   0.000000
   101  Bq   0.000000
   102  Bq   0.000000
   103  Bq   0.000000
   104  Bq   0.000000
   105  Bq   0.000000
   106  Bq   0.000000
   107  Bq   0.000000
   108  Bq   0.000000
   109  Bq   0.000000
   110  Bq   0.000000
   111  Bq   0.000000
   112  Bq   0.000000
   113  Bq   0.000000
   114  Bq   0.000000
   115  Bq   0.000000
   116  Bq   0.000000
   117  Bq   0.000000
   118  Bq   0.000000
   119  Bq   0.000000
   120  Bq   0.000000
   121  Bq   0.000000
   122  Bq   0.000000
   123  Bq   0.000000
   124  Bq   0.000000
   125  Bq   0.000000
   126  Bq   0.000000
   127  Bq   0.000000
   128  Bq   0.000000
   129  Bq   0.000000
   130  Bq   0.000000
   131  Bq   0.000000
   132  Bq   0.000000
   133  Bq   0.000000
   134  Bq   0.000000
   135  Bq   0.000000
   136  Bq   0.000000
   137  Bq   0.000000
   138  Bq   0.000000
   139  Bq   0.000000
   140  Bq   0.000000
   141  Bq   0.000000
   142  Bq   0.000000
   143  Bq   0.000000
   144  Bq   0.000000
   145  Bq   0.000000
   146  Bq   0.000000
   147  Bq   0.000000
   148  Bq   0.000000
   149  Bq   0.000000
   150  Bq   0.000000
   151  Bq   0.000000
   152  Bq   0.000000
   153  Bq   0.000000
   154  Bq   0.000000
   155  Bq   0.000000
   156  Bq   0.000000
   157  Bq   0.000000
   158  Bq   0.000000
   159  Bq   0.000000
   160  Bq   0.000000
   161  Bq   0.000000
   162  Bq   0.000000
   163  Bq   0.000000
   164  Bq   0.000000
   165  Bq   0.000000
   166  Bq   0.000000
   167  Bq   0.000000
   168  Bq   0.000000
   169  Bq   0.000000
   170  Bq   0.000000
   171  Bq   0.000000
   172  Bq   0.000000
   173  Bq   0.000000
   174  Bq   0.000000
   175  Bq   0.000000
   176  Bq   0.000000
   177  Bq   0.000000
   178  Bq   0.000000
   179  Bq   0.000000
   180  Bq   0.000000
   181  Bq   0.000000
   182  Bq   0.000000
   183  Bq   0.000000
   184  Bq   0.000000
   185  Bq   0.000000
   186  Bq   0.000000
   187  Bq   0.000000
   188  Bq   0.000000
   189  Bq   0.000000
   190  Bq   0.000000
   191  Bq   0.000000
   192  Bq   0.000000
   193  Bq   0.000000
   194  Bq   0.000000
   195  Bq   0.000000
   196  Bq   0.000000
   197  Bq   0.000000
   198  Bq   0.000000
   199  Bq   0.000000
   200  Bq   0.000000
   201  Bq   0.000000
   202  Bq   0.000000
   203  Bq   0.000000
   204  Bq   0.000000
   205  Bq   0.000000
   206  Bq   0.000000
   207  Bq   0.000000
   208  Bq   0.000000
   209  Bq   0.000000
   210  Bq   0.000000
   211  Bq   0.000000
   212  Bq   0.000000
   213  Bq   0.000000
   214  Bq   0.000000
   215  Bq   0.000000
   216  Bq   0.000000
   217  Bq   0.000000
   218  Bq   0.000000
   219  Bq   0.000000
   220  Bq   0.000000
   221  Bq   0.000000
   222  Bq   0.000000
   223  Bq   0.000000
   224  Bq   0.000000
   225  Bq   0.000000
   226  Bq   0.000000
   227  Bq   0.000000
   228  Bq   0.000000
   229  Bq   0.000000
   230  Bq   0.000000
   231  Bq   0.000000
   232  Bq   0.000000
   233  Bq   0.000000
   234  Bq   0.000000
   235  Bq   0.000000
   236  Bq   0.000000
 Electronic spatial extent (au):  <R**2>=           5736.9264
 Charge=              0.0000 electrons
 Dipole moment (field-independent basis, Debye):
    X=              0.0475    Y=              0.0856    Z=              0.0029  Tot=              0.0979
 Quadrupole moment (field-independent basis, Debye-Ang):
   XX=           -113.7056   YY=           -113.9456   ZZ=           -133.2669
   XY=             -0.3834   XZ=              3.2102   YZ=             -1.1839
 Traceless Quadrupole moment (field-independent basis, Debye-Ang):
   XX=              6.6005   YY=              6.3604   ZZ=            -12.9609
   XY=             -0.3834   XZ=              3.2102   YZ=             -1.1839
 Octapole moment (field-independent basis, Debye-Ang**2):
  XXX=            -16.4668  YYY=            -16.1860  ZZZ=             -1.7007  XYY=              2.5576
  XXY=             -6.5650  XXZ=             13.6547  XZZ=             -8.9478  YZZ=            -17.7168
  YYZ=            -13.2941  XYZ=              8.8036
 Hexadecapole moment (field-independent basis, Debye-Ang**3):
 XXXX=          -3951.1638 YYYY=          -3112.2161 ZZZZ=           -504.8311 XXXY=            340.6935
 XXXZ=            156.4968 YYYX=            335.5625 YYYZ=            -87.0893 ZZZX=            120.2262
 ZZZY=           -108.7373 XXYY=          -1176.4844 XXZZ=           -856.7291 YYZZ=           -665.7275
 XXYZ=            -68.9016 YYXZ=             48.1602 ZZXY=            153.0375
 N-N= 1.610917615562D+03 E-N=-5.186891130729D+03  KE= 8.436329774449D+02
 1\1\GINC-PLANA\SP\RB3LYP\6-311+G(d,p)\C22H14\YANNICK\21-Aug-2020\0\\# 
 rb3lyp/6-311+g** NMR geom=connectivity\\Title\\0,1\C,0,-4.0500558,-0.5
 771862,0.8136712\H,0,-5.0263804,-1.0082727,1.002476\C,0,-3.9381552,0.6
 617804,0.2400876\H,0,-4.8252424,1.233889,-0.0111295\C,0,-2.676841,1.24
 33246,0.0057578\C,0,-1.4974121,0.5051527,0.2848253\C,0,-1.6508332,-0.7
 338728,0.9404026\H,0,-0.7713646,-1.2730967,1.2633753\C,0,-2.8898548,-1
 .2624035,1.1994307\H,0,-2.9683706,-2.2124563,1.7152676\C,0,-2.5773185,
 2.5963696,-0.419293\H,0,-3.4870728,3.1412239,-0.6474055\C,0,-1.3741895
 ,3.2147896,-0.436403\H,0,-1.2997315,4.2742019,-0.6578144\C,0,-0.171948
 8,2.499409,-0.1734588\C,0,-0.2043917,1.1018437,0.0192689\C,0,1.0513491
 ,3.204256,-0.0676222\H,0,1.0427344,4.2819499,-0.1896997\C,0,2.1942091,
 2.5487446,0.2579577\H,0,3.1168527,3.0912848,0.4334727\C,0,2.2216473,1.
 1336562,0.293499\C,0,1.0486931,0.3945528,0.0302412\C,0,3.4483363,0.461
 4633,0.5573939\H,0,4.3095794,1.0606054,0.8334846\C,0,3.5427346,-0.8855
 926,0.4749463\H,0,4.4731467,-1.3939704,0.7038822\C,0,2.4490052,-1.6474
 447,-0.0196319\C,0,1.2150704,-1.0057258,-0.3013573\C,0,0.2531113,-1.74
 3444,-1.0216591\H,0,-0.6541356,-1.2535051,-1.3462847\C,0,0.4494193,-3.
 0628597,-1.3413779\H,0,-0.3083162,-3.5944309,-1.905406\C,0,1.6251726,-
 3.7207967,-0.9552541\H,0,1.7670048,-4.7687404,-1.1927019\C,0,2.6109872
 ,-3.0144177,-0.318305\H,0,3.5525612,-3.4902813,-0.0646367\Bq,0,1.44960
 26811,-2.788038637,-0.2107669026\Bq,0,1.398734444,-2.7182613054,-0.098
 7689274\Bq,0,1.4784579716,-2.6650300032,-0.2742983768\Bq,0,1.358872680
 2,-2.7448769565,-0.0110042027\Bq,0,1.5183197353,-2.6384143521,-0.36206
 31015\Bq,0,1.3190109164,-2.7714926076,0.076760522\Bq,0,1.5581814991,-2
 .611798701,-0.4498278262\Bq,0,1.2791491526,-2.7981082587,0.1645252468\
 Bq,0,1.5980432629,-2.5851830499,-0.5375925509\Bq,0,1.2392873888,-2.824
 7239098,0.2522899715\Bq,0,1.6379050267,-2.5585673988,-0.6253572757\Bq,
 0,1.4385962078,-2.6916456543,-0.1865336521\Bq,0,1.3877279706,-2.621868
 3227,-0.0745356769\Bq,0,1.4674514982,-2.5686370205,-0.2500651264\Bq,0,
 1.3478662068,-2.6484839738,0.0132290478\Bq,0,1.507313262,-2.5420213694
 ,-0.3378298511\Bq,0,1.308004443,-2.6750996249,0.1009937725\Bq,0,1.5471
 750258,-2.5154057183,-0.4255945758\Bq,0,1.2681426792,-2.701715276,0.18
 87584972\Bq,0,1.5870367895,-2.4887900672,-0.5133593005\Bq,0,1.22828091
 55,-2.7283309271,0.2765232219\Bq,0,1.6268985533,-2.462174416,-0.601124
 0252\Bq,0,1.4275897344,-2.5952526716,-0.1623004016\Bq,0,1.3767214972,-
 2.52547534,-0.0503024265\Bq,0,1.4564450248,-2.4722440378,-0.2258318759
 \Bq,0,1.3368597334,-2.5520909911,0.0374622982\Bq,0,1.4963067886,-2.445
 6283867,-0.3135966006\Bq,0,1.2969979697,-2.5787066422,0.125227023\Bq,0
 ,1.5361685524,-2.4190127355,-0.4013613253\Bq,0,1.2571362059,-2.6053222
 933,0.2129917477\Bq,0,1.5760303162,-2.3923970844,-0.48912605\Bq,0,1.21
 72744421,-2.6319379444,0.3007564724\Bq,0,1.61589208,-2.3657814333,-0.5
 768907747\Bq,0,1.416583261,-2.4988596889,-0.1380671512\Bq,0,1.36571502
 39,-2.4290823573,-0.026069176\Bq,0,1.4454385514,-2.375851055,-0.201598
 6254\Bq,0,1.3258532601,-2.4556980084,0.0616955487\Bq,0,1.4853003152,-2
 .3492354039,-0.2893633501\Bq,0,1.2859914963,-2.4823136595,0.1494602734
 \Bq,0,1.525162079,-2.3226197528,-0.3771280749\Bq,0,1.2461297325,-2.508
 9293106,0.2372249981\Bq,0,1.5650238428,-2.2960041017,-0.4648927996\Bq,
 0,1.2062679687,-2.5355449617,0.3249897228\Bq,0,1.6048856066,-2.2693884
 506,-0.5526575243\Bq,0,1.4055767877,-2.4024667062,-0.1138339007\Bq,0,1
 .3547085505,-2.3326893746,-0.0018359256\Bq,0,1.4344320781,-2.279458072
 3,-0.177365375\Bq,0,1.3148467867,-2.3593050257,0.0859287992\Bq,0,1.474
 2938419,-2.2528424212,-0.2651300997\Bq,0,1.2749850229,-2.3859206768,0.
 1736935239\Bq,0,1.5141556056,-2.2262267701,-0.3528948244\Bq,0,1.235123
 2591,-2.4125363279,0.2614582486\Bq,0,1.5540173694,-2.199611119,-0.4406
 595491\Bq,0,1.1952614953,-2.439151979,0.3492229733\Bq,0,1.5938791332,-
 2.1729954679,-0.5284242738\Bq,0,1.3945703143,-2.3060737234,-0.08960065
 03\Bq,0,1.3437020771,-2.2362963918,0.0223973249\Bq,0,1.4234256047,-2.1
 830650896,-0.1531321245\Bq,0,1.3038403133,-2.2629120429,0.1101620496\B
 q,0,1.4632873685,-2.1564494385,-0.2408968492\Bq,0,1.2639785495,-2.2895
 276941,0.1979267743\Bq,0,1.5031491323,-2.1298337874,-0.3286615739\Bq,0
 ,1.2241167858,-2.3161433452,0.285691499\Bq,0,1.5430108961,-2.103218136
 3,-0.4164262987\Bq,0,1.184255022,-2.3427589963,0.3734562238\Bq,0,1.582
 8726598,-2.0766024852,-0.5041910234\Bq,0,1.3835638409,-2.2096807407,-0
 .0653673998\Bq,0,1.3326956037,-2.1399034091,0.0466305754\Bq,0,1.412419
 1313,-2.0866721069,-0.1288988741\Bq,0,1.29283384,-2.1665190602,0.13439
 53001\Bq,0,1.4522808951,-2.0600564558,-0.2166635988\Bq,0,1.2529720762,
 -2.1931347113,0.2221600248\Bq,0,1.4921426589,-2.0334408047,-0.30442832
 35\Bq,0,1.2131103124,-2.2197503624,0.3099247495\Bq,0,1.5320044227,-2.0
 068251536,-0.3921930482\Bq,0,1.1732485486,-2.2463660136,0.3976894742\B
 q,0,1.5718661865,-1.9802095025,-0.4799577729\Bq,0,1.3725573675,-2.1132
 87758,-0.0411341493\Bq,0,1.3216891304,-2.0435104264,0.0708638258\Bq,0,
 1.4014126579,-1.9902791242,-0.1046656236\Bq,0,1.2818273666,-2.07012607
 75,0.1586285505\Bq,0,1.4412744217,-1.9636634731,-0.1924303483\Bq,0,1.2
 419656028,-2.0967417286,0.2463932752\Bq,0,1.4811361855,-1.937047822,-0
 .280195073\Bq,0,1.202103839,-2.1233573797,0.334158\Bq,0,1.5209979493,-
 1.9104321709,-0.3679597977\Bq,0,1.1622420752,-2.1499730308,0.421922724
 7\Bq,0,1.5608597131,-1.8838165198,-0.4557245225\Bq,0,1.3615508942,-2.0
 168947753,-0.0169008989\Bq,0,1.310682657,-1.9471174437,0.0950970763\Bq
 ,0,1.3904061846,-1.8938861415,-0.0804323731\Bq,0,1.2708208932,-1.97373
 30948,0.182861801\Bq,0,1.4302679484,-1.8672704904,-0.1681970979\Bq,0,1
 .2309591294,-2.0003487459,0.2706265257\Bq,0,1.4701297122,-1.8406548393
 ,-0.2559618226\Bq,0,1.1910973656,-2.026964397,0.3583912504\Bq,0,1.5099
 914759,-1.8140391882,-0.3437265473\Bq,0,1.1512356019,-2.0535800481,0.4
 461559751\Bq,0,1.5498532397,-1.7874235371,-0.431491272\Bq,0,1.35054442
 08,-1.9205017926,0.0073323516\Bq,0,1.2996761836,-1.850724461,0.1193303
 267\Bq,0,1.3793997112,-1.7974931588,-0.0561991227\Bq,0,1.2598144198,-1
 .8773401121,0.2070950515\Bq,0,1.419261475,-1.7708775077,-0.1439638474\
 Bq,0,1.2199526561,-1.9039557632,0.2948597762\Bq,0,1.4591232388,-1.7442
 618566,-0.2317285721\Bq,0,1.1800908923,-1.9305714143,0.3826245009\Bq,0
 ,1.4989850026,-1.7176462055,-0.3194932968\Bq,0,1.1402291285,-1.9571870
 654,0.4703892256\Bq,0,1.5388467664,-1.6910305543,-0.4072580215\Bq,0,1.
 3395379474,-1.8241088099,0.031565602\Bq,0,1.2886697103,-1.7543314783,0
 .1435635772\Bq,0,1.3683932378,-1.7011001761,-0.0319658722\Bq,0,1.24880
 79465,-1.7809471294,0.2313283019\Bq,0,1.4082550016,-1.674484525,-0.119
 7305969\Bq,0,1.2089461827,-1.8075627805,0.3190930266\Bq,0,1.4481167654
 ,-1.6478688739,-0.2074953217\Bq,0,1.1690844189,-1.8341784316,0.4068577
 513\Bq,0,1.4879785292,-1.6212532227,-0.2952600464\Bq,0,1.1292226551,-1
 .8607940827,0.494622476\Bq,0,1.527840293,-1.5946375716,-0.3830247711\B
 q,0,1.328531474,-1.7277158272,0.0557988525\Bq,0,1.2776632369,-1.657938
 4956,0.1677968277\Bq,0,1.3573867645,-1.6047071934,-0.0077326218\Bq,0,1
 .2378014731,-1.6845541467,0.2555615524\Bq,0,1.3972485282,-1.5780915422
 ,-0.0954973465\Bq,0,1.1979397093,-1.7111697978,0.3433262771\Bq,0,1.437
 110292,-1.5514758911,-0.1832620712\Bq,0,1.1580779455,-1.7377854489,0.4
 310910018\Bq,0,1.4769720558,-1.52486024,-0.2710267959\Bq,0,1.118216181
 7,-1.7644011,0.5188557265\Bq,0,1.5168338196,-1.4982445889,-0.358791520
 6\Bq,0,1.3175250007,-1.6313228445,0.0800321029\Bq,0,1.2666567635,-1.56
 15455129,0.1920300781\Bq,0,1.3463802911,-1.5083142106,0.0165006287\Bq,
 0,1.2267949997,-1.588161164,0.2797948028\Bq,0,1.3862420549,-1.48169855
 95,-0.071264096\Bq,0,1.1869332359,-1.6147768151,0.3675595275\Bq,0,1.42
 61038187,-1.4550829084,-0.1590288207\Bq,0,1.1470714722,-1.6413924662,0
 .4553242523\Bq,0,1.4659655825,-1.4284672573,-0.2467935455\Bq,0,1.10720
 97084,-1.6680081173,0.543088977\Bq,0,1.5058273462,-1.4018516062,-0.334
 5582702\Bq,0,1.3065185273,-1.5349298617,0.1042653534\Bq,0,1.2556502901
 ,-1.4651525301,0.2162633286\Bq,0,1.3353738177,-1.4119212279,0.04073387
 91\Bq,0,1.2157885264,-1.4917681812,0.3040280533\Bq,0,1.3752355815,-1.3
 853055768,-0.0470308456\Bq,0,1.1759267626,-1.5183838324,0.391792778\Bq
 ,0,1.4150973453,-1.3586899257,-0.1347955703\Bq,0,1.1360649988,-1.54499
 94835,0.4795575027\Bq,0,1.4549591091,-1.3320742746,-0.222560295\Bq,0,1
 .096203235,-1.5716151346,0.5673222274\Bq,0,1.4948208729,-1.3054586235,
 -0.3103250197\Bq,0,1.2955120539,-1.438536879,0.1284986039\Bq,0,1.24464
 38168,-1.3687595474,0.240496579\Bq,0,1.3243673443,-1.3155282452,0.0649
 671296\Bq,0,1.204782053,-1.3953751985,0.3282613037\Bq,0,1.3642291081,-
 1.2889125941,-0.0227975951\Bq,0,1.1649202892,-1.4219908496,0.416026028
 5\Bq,0,1.4040908719,-1.262296943,-0.1105623198\Bq,0,1.1250585254,-1.44
 86065008,0.5037907532\Bq,0,1.4439526357,-1.2356812919,-0.1983270445\Bq
 ,0,1.0851967616,-1.4752221519,0.5915554779\Bq,0,1.4838143995,-1.209065
 6408,-0.2860917692\Bq,0,1.2845055806,-1.3421438963,0.1527318543\Bq,0,1
 .2336373434,-1.2723665647,0.2647298295\Bq,0,1.313360871,-1.2191352625,
 0.0892003801\Bq,0,1.1937755796,-1.2989822158,0.3524945542\Bq,0,1.35322
 26348,-1.1925196114,0.0014356553\Bq,0,1.1539138158,-1.3255978669,0.440
 2592789\Bq,0,1.3930843985,-1.1659039603,-0.0863290694\Bq,0,1.114052052
 ,-1.352213518,0.5280240036\Bq,0,1.4329461623,-1.1392883092,-0.17409379
 41\Bq,0,1.0741902882,-1.3788291691,0.6157887283\Bq,0,1.4728079261,-1.1
 126726581,-0.2618585188\Bq,0,1.2734991072,-1.2457509136,0.1769651048\B
 q,0,1.22263087,-1.175973582,0.2889630799\Bq,0,1.3023543976,-1.12274227
 98,0.1134336305\Bq,0,1.1827691062,-1.2025892331,0.3767278047\Bq,0,1.34
 22161614,-1.0961266287,0.0256689058\Bq,0,1.1429073425,-1.2292048842,0.
 4644925294\Bq,0,1.3820779252,-1.0695109776,-0.0620958189\Bq,0,1.103045
 5787,-1.2558205353,0.5522572541\Bq,0,1.421939689,-1.0428953265,-0.1498
 605436\Bq,0,1.0631838149,-1.2824361864,0.6400219788\Bq,0,1.4618014528,
 -1.0162796754,-0.2376252683\Bq,0,1.2624926338,-1.1493579309,0.20119835
 52\Bq,0,1.2116243967,-1.0795805993,0.3131963304\Bq,0,1.2913479242,-1.0
 263492971,0.137666881\Bq,0,1.1717626329,-1.1061962504,0.4009610551\Bq,
 0,1.331209688,-0.999733646,0.0499021563\Bq,0,1.1319008691,-1.132811901
 5,0.4887257798\Bq,0,1.3710714518,-0.9731179949,-0.0378625684\Bq,0,1.09
 20391053,-1.1594275526,0.5764905045\Bq,0,1.4109332156,-0.9465023438,-0
 .1256272932\Bq,0,1.0521773415,-1.1860432037,0.6642552293\Bq,0,1.450794
 9794,-0.9198866927,-0.2133920179\Bq,0,1.2514861604,-1.0529649482,0.225
 4316057\Bq,0,1.2006179233,-0.9831876166,0.3374295809\\Version=ES64L-G0
 9RevD.01\HF=-847.0032898\RMSD=7.524e-09\Dipole=0.0186808,0.0336671,0.0
 011595\Quadrupole=4.9072795,4.7288219,-9.6361014,-0.2850201,2.3867064,
 -0.880172\PG=C01 [X(C22H14)]\\@


 THERE ARE PEOPLE SO ADDICTED TO EXAGERATING THEY
 CAN'T TELL THE TRUTH WITHOUT LYING. -- FORTUNE COOKIE
 Job cpu time:       0 days  3 hours 49 minutes 13.1 seconds.
 File lengths (MBytes):  RWF=    184 Int=      0 D2E=      0 Chk=     19 Scr=      1
 Normal termination of Gaussian 09 at Fri Aug 21 15:43:02 2020.
