 Entering Gaussian System, Link 0=g09
 Input=input_cycle_02_batch_10600.com
 Output=input_cycle_02_batch_10600.log
 Initial command:
 /share/programs/GAUSSIAN/64/g09/l1.exe "/scratch/yannick.30100/Gau-2301578.inp" -scrdir="/scratch/yannick.30100/"
 Entering Link 1 = /share/programs/GAUSSIAN/64/g09/l1.exe PID=   2301579.
  
 Copyright (c) 1988,1990,1992,1993,1995,1998,2003,2009,2013,
            Gaussian, Inc.  All Rights Reserved.
  
 This is part of the Gaussian(R) 09 program.  It is based on
 the Gaussian(R) 03 system (copyright 2003, Gaussian, Inc.),
 the Gaussian(R) 98 system (copyright 1998, Gaussian, Inc.),
 the Gaussian(R) 94 system (copyright 1995, Gaussian, Inc.),
 the Gaussian 92(TM) system (copyright 1992, Gaussian, Inc.),
 the Gaussian 90(TM) system (copyright 1990, Gaussian, Inc.),
 the Gaussian 88(TM) system (copyright 1988, Gaussian, Inc.),
 the Gaussian 86(TM) system (copyright 1986, Carnegie Mellon
 University), and the Gaussian 82(TM) system (copyright 1983,
 Carnegie Mellon University). Gaussian is a federally registered
 trademark of Gaussian, Inc.
  
 This software contains proprietary and confidential information,
 including trade secrets, belonging to Gaussian, Inc.
  
 This software is provided under written license and may be
 used, copied, transmitted, or stored only in accord with that
 written license.
  
 The following legend is applicable only to US Government
 contracts under FAR:
  
                    RESTRICTED RIGHTS LEGEND
  
 Use, reproduction and disclosure by the US Government is
 subject to restrictions as set forth in subparagraphs (a)
 and (c) of the Commercial Computer Software - Restricted
 Rights clause in FAR 52.227-19.
  
 Gaussian, Inc.
 340 Quinnipiac St., Bldg. 40, Wallingford CT 06492
  
  
 ---------------------------------------------------------------
 Warning -- This program may not be used in any manner that
 competes with the business of Gaussian, Inc. or will provide
 assistance to any competitor of Gaussian, Inc.  The licensee
 of this program is prohibited from giving any competitor of
 Gaussian, Inc. access to this program.  By using this program,
 the user acknowledges that Gaussian, Inc. is engaged in the
 business of creating and licensing software in the field of
 computational chemistry and represents and warrants to the
 licensee that it is not a competitor of Gaussian, Inc. and that
 it will not use this program in any manner prohibited above.
 ---------------------------------------------------------------
  

 Cite this work as:
 Gaussian 09, Revision D.01,
 M. J. Frisch, G. W. Trucks, H. B. Schlegel, G. E. Scuseria, 
 M. A. Robb, J. R. Cheeseman, G. Scalmani, V. Barone, B. Mennucci, 
 G. A. Petersson, H. Nakatsuji, M. Caricato, X. Li, H. P. Hratchian, 
 A. F. Izmaylov, J. Bloino, G. Zheng, J. L. Sonnenberg, M. Hada, 
 M. Ehara, K. Toyota, R. Fukuda, J. Hasegawa, M. Ishida, T. Nakajima, 
 Y. Honda, O. Kitao, H. Nakai, T. Vreven, J. A. Montgomery, Jr., 
 J. E. Peralta, F. Ogliaro, M. Bearpark, J. J. Heyd, E. Brothers, 
 K. N. Kudin, V. N. Staroverov, T. Keith, R. Kobayashi, J. Normand, 
 K. Raghavachari, A. Rendell, J. C. Burant, S. S. Iyengar, J. Tomasi, 
 M. Cossi, N. Rega, J. M. Millam, M. Klene, J. E. Knox, J. B. Cross, 
 V. Bakken, C. Adamo, J. Jaramillo, R. Gomperts, R. E. Stratmann, 
 O. Yazyev, A. J. Austin, R. Cammi, C. Pomelli, J. W. Ochterski, 
 R. L. Martin, K. Morokuma, V. G. Zakrzewski, G. A. Voth, 
 P. Salvador, J. J. Dannenberg, S. Dapprich, A. D. Daniels, 
 O. Farkas, J. B. Foresman, J. V. Ortiz, J. Cioslowski, 
 and D. J. Fox, Gaussian, Inc., Wallingford CT, 2013.
 
 ******************************************
 Gaussian 09:  ES64L-G09RevD.01 24-Apr-2013
                21-Aug-2020 
 ******************************************
 %nproc=8
 Will use up to    8 processors via shared memory.
 %mem=1000MB
 ----------------------------------------
 # rb3lyp/6-311+g** NMR geom=connectivity
 ----------------------------------------
 1/38=1,57=2/1;
 2/12=2,17=6,18=5,40=1/2;
 3/5=4,6=6,7=111,11=2,16=1,25=1,30=1,74=-5,116=1/1,2,8,3;
 4//1;
 5/5=2,38=5/2;
 8/6=1,10=90,11=11/1;
 10/13=100,45=16/2;
 6/7=2,8=2,9=2,10=2,28=1/1;
 99/9=1/99;
 -----
 Title
 -----
 Symbolic Z-matrix:
 Charge =  0 Multiplicity = 1
 C                    -4.05006  -0.57719   0.81367 
 H                    -5.02638  -1.00827   1.00248 
 C                    -3.93816   0.66178   0.24009 
 H                    -4.82524   1.23389  -0.01113 
 C                    -2.67684   1.24332   0.00576 
 C                    -1.49741   0.50515   0.28483 
 C                    -1.65083  -0.73387   0.9404 
 H                    -0.77136  -1.2731    1.26338 
 C                    -2.88985  -1.2624    1.19943 
 H                    -2.96837  -2.21246   1.71527 
 C                    -2.57732   2.59637  -0.41929 
 H                    -3.48707   3.14122  -0.64741 
 C                    -1.37419   3.21479  -0.4364 
 H                    -1.29973   4.2742   -0.65781 
 C                    -0.17195   2.49941  -0.17346 
 C                    -0.20439   1.10184   0.01927 
 C                     1.05135   3.20426  -0.06762 
 H                     1.04273   4.28195  -0.1897 
 C                     2.19421   2.54874   0.25796 
 H                     3.11685   3.09128   0.43347 
 C                     2.22165   1.13366   0.2935 
 C                     1.04869   0.39455   0.03024 
 C                     3.44834   0.46146   0.55739 
 H                     4.30958   1.06061   0.83348 
 C                     3.54273  -0.88559   0.47495 
 H                     4.47315  -1.39397   0.70388 
 C                     2.44901  -1.64744  -0.01963 
 C                     1.21507  -1.00573  -0.30136 
 C                     0.25311  -1.74344  -1.02166 
 H                    -0.65414  -1.25351  -1.34628 
 C                     0.44942  -3.06286  -1.34138 
 H                    -0.30832  -3.59443  -1.90541 
 C                     1.62517  -3.7208   -0.95525 
 H                     1.767    -4.76874  -1.1927 
 C                     2.61099  -3.01442  -0.31831 
 H                     3.55256  -3.49028  -0.06464 
 Bq                   -2.13159   4.01989   0.23355 
 Bq                   -2.10085   3.82349  -0.54136 
 Bq                   -2.13543   4.04444   0.33041 
 Bq                   -2.09701   3.79894  -0.63823 
 Bq                   -2.11622   3.92169  -0.15391 
 Bq                   -2.11909   4.04318  -0.08158 
 Bq                   -2.1114    3.99408  -0.2753 
 Bq                   -2.12293   4.06773   0.01529 
 Bq                   -2.10756   3.96953  -0.37217 
 Bq                   -2.12677   4.09228   0.11215 
 Bq                   -2.10372   3.94498  -0.46903 
 Bq                   -2.13061   4.11683   0.20902 
 Bq                   -2.09988   3.92043  -0.56589 
 Bq                   -2.13445   4.14138   0.30588 
 Bq                   -2.09603   3.89588  -0.66276 
 Bq                   -2.11524   4.01863  -0.17844 
 Bq                   -2.11811   4.14012  -0.10611 
 Bq                   -2.11043   4.09102  -0.29983 
 Bq                   -2.12196   4.16467  -0.00924 
 Bq                   -2.10659   4.06647  -0.3967 
 Bq                   -2.1258    4.18922   0.08762 
 Bq                   -2.10275   4.04192  -0.49356 
 Bq                   -2.12964   4.21377   0.18449 
 Bq                   -2.0989    4.01737  -0.59042 
 Bq                   -2.13348   4.23832   0.28135 
 Bq                   -2.09506   3.99282  -0.68729 
 Bq                   -2.11427   4.11557  -0.20297 
 Bq                   -2.11714   4.23706  -0.13064 
 Bq                   -2.10946   4.18796  -0.32436 
 Bq                   -2.12098   4.26161  -0.03377 
 Bq                   -2.10561   4.16341  -0.42123 
 Bq                   -2.12482   4.28616   0.06309 
 Bq                   -2.10177   4.13886  -0.51809 
 Bq                   -2.12867   4.31071   0.15996 
 Bq                   -2.09793   4.11431  -0.61495 
 Bq                   -2.13251   4.33526   0.25682 
 Bq                   -2.09409   4.08976  -0.71182 
 Bq                   -2.1133    4.21251  -0.2275 
 Bq                   -2.11617   4.334    -0.15517 
 Bq                   -2.10848   4.2849   -0.34889 
 Bq                   -2.12001   4.35855  -0.0583 
 Bq                   -2.10464   4.26035  -0.44576 
 Bq                   -2.12385   4.3831    0.03856 
 Bq                   -2.1008    4.2358   -0.54262 
 Bq                   -2.12769   4.40765   0.13543 
 Bq                   -2.09696   4.21125  -0.63948 
 Bq                   -2.13154   4.4322    0.23229 
 Bq                   -2.09312   4.1867   -0.73635 
 Bq                   -2.11233   4.30945  -0.25203 
 Bq                   -2.11519   4.43094  -0.1797 
 Bq                   -2.10751   4.38184  -0.37342 
 Bq                   -2.11904   4.45549  -0.08283 
 Bq                   -2.10367   4.35729  -0.47029 
 Bq                   -2.12288   4.48004   0.01403 
 Bq                   -2.09983   4.33274  -0.56715 
 Bq                   -2.12672   4.50459   0.1109 
 Bq                   -2.09599   4.30819  -0.66401 
 Bq                   -2.13056   4.52914   0.20776 
 Bq                   -2.09214   4.28364  -0.76088 
 Bq                   -2.11135   4.40639  -0.27656 
 Bq                   -2.06392  -0.41605   1.05077 
 Bq                   -2.05624  -0.46515   0.85704 
 Bq                   -2.06776  -0.3915    1.14763 
 Bq                   -2.0524   -0.4897    0.76018 
 Bq                   -2.07161  -0.36695   1.2445 
 Bq                   -2.04855  -0.51425   0.66331 
 Bq                   -2.07545  -0.3424    1.34136 
 Bq                   -2.04471  -0.5388    0.56645 
 Bq                   -2.07929  -0.31785   1.43822 
 Bq                   -2.04087  -0.56335   0.46959 
 Bq                   -2.06008  -0.4406    0.95391 
 Bq                   -2.06295  -0.31911   1.02624 
 Bq                   -2.05526  -0.36821   0.83251 
 Bq                   -2.06679  -0.29456   1.1231 
 Bq                   -2.05142  -0.39276   0.73565 
 Bq                   -2.07063  -0.27001   1.21997 
 Bq                   -2.04758  -0.41731   0.63878 
 Bq                   -2.07447  -0.24546   1.31683 
 Bq                   -2.04374  -0.44186   0.54192 
 Bq                   -2.07832  -0.22091   1.41369 
 Bq                   -2.0399   -0.46641   0.44506 
 Bq                   -2.05911  -0.34366   0.92938 
 Bq                   -2.06198  -0.22217   1.00171 
 Bq                   -2.05429  -0.27127   0.80798 
 Bq                   -2.06582  -0.19762   1.09857 
 Bq                   -2.05045  -0.29582   0.71112 
 Bq                   -2.06966  -0.17307   1.19544 
 Bq                   -2.04661  -0.32037   0.61425 
 Bq                   -2.0735   -0.14852   1.2923 
 Bq                   -2.04277  -0.34492   0.51739 
 Bq                   -2.07734  -0.12397   1.38916 
 Bq                   -2.03892  -0.36947   0.42053 
 Bq                   -2.05813  -0.24672   0.90485 
 Bq                   -2.061    -0.12523   0.97718 
 Bq                   -2.05332  -0.17433   0.78345 
 Bq                   -2.06484  -0.10068   1.07404 
 Bq                   -2.04948  -0.19888   0.68659 
 Bq                   -2.06869  -0.07613   1.17091 
 Bq                   -2.04563  -0.22343   0.58972 
 Bq                   -2.07253  -0.05158   1.26777 
 Bq                   -2.04179  -0.24798   0.49286 
 Bq                   -2.07637  -0.02703   1.36463 
 Bq                   -2.03795  -0.27253   0.396 
 Bq                   -2.05716  -0.14978   0.88032 
 Bq                   -2.06003  -0.02829   0.95265 
 Bq                   -2.05235  -0.07739   0.75892 
 Bq                   -2.06387  -0.00374   1.04951 
 Bq                   -2.0485   -0.10194   0.66206 
 Bq                   -2.06771   0.02081   1.14638 
 Bq                   -2.04466  -0.12649   0.56519 
 Bq                   -2.07156   0.04536   1.24324 
 Bq                   -2.04082  -0.15104   0.46833 
 Bq                   -2.0754    0.0699    1.3401 
 Bq                   -2.03698  -0.17559   0.37147 
 Bq                   -2.05619  -0.05284   0.85579 
 Bq                   -2.05906   0.06865   0.92812 
 Bq                   -2.05137   0.01955   0.73439 
 Bq                   -2.0629    0.0932    1.02498 
 Bq                   -2.04753  -0.005     0.63753 
 Bq                   -2.06674   0.11775   1.12185 
 Bq                   -2.04369  -0.02955   0.54066 
 Bq                   -2.07058   0.1423    1.21871 
 Bq                   -2.03985  -0.0541    0.4438 
 Bq                   -2.07442   0.16684   1.31557 
 Bq                   -2.036    -0.07865   0.34694 
 Bq                   -2.05521   0.0441    0.83126 
 Bq                   -2.05808   0.16559   0.90359 
 Bq                   -2.0504    0.11649   0.70986 
 Bq                   -2.06193   0.19014   1.00045 
 Bq                   -2.04656   0.09194   0.613 
 Bq                   -2.06577   0.21469   1.09732 
 Bq                   -2.04272   0.06739   0.51613 
 Bq                   -2.06961   0.23924   1.19418 
 Bq                   -2.03887   0.04284   0.41927 
 Bq                   -2.07345   0.26378   1.29104 
 Bq                   -2.03503   0.01829   0.32241 
 Bq                   -2.05424   0.14104   0.80673 
 Bq                   -2.05711   0.26253   0.87906 
 Bq                   -2.04943   0.21343   0.68533 
 Bq                   -2.06095   0.28708   0.97592 
 Bq                   -2.04558   0.18888   0.58847 
 Bq                   -2.06479   0.31163   1.07279 
 Bq                   -2.04174   0.16433   0.4916 
 Bq                   -2.06864   0.33618   1.16965 
 Bq                   -2.0379    0.13978   0.39474 
 Bq                   -2.07248   0.36072   1.26651 
 Bq                   -2.03406   0.11523   0.29788 
 Bq                   -2.05327   0.23798   0.7822 
 Bq                   -2.05614   0.35947   0.85453 
 Bq                   -2.04845   0.31037   0.6608 
 Bq                   -2.05998   0.38402   0.95139 
 Bq                   -2.04461   0.28582   0.56394 
 Bq                   -2.06382   0.40857   1.04826 
 Bq                   -2.04077   0.26127   0.46707 
 Bq                   -2.06766   0.43311   1.14512 
 Bq                   -2.03693   0.23672   0.37021 
 Bq                   -2.07151   0.45766   1.24198 
 Bq                   -2.03309   0.21217   0.27335 
 Bq                   -2.0523    0.33492   0.75767 
 Bq                   -2.05516   0.45641   0.83 
 Bq                   -2.04748   0.40731   0.63627 
 Bq                   -2.05901   0.48096   0.92686 
 Bq                   -2.04364   0.38276   0.53941 
 Bq                   -2.06285   0.50551   1.02373 
 Bq                   -2.0398    0.35821   0.44254 
 Bq                   -2.06669   0.53005   1.12059 
 Bq                   -2.03595   0.33366   0.34568 
 Bq                   -2.07053   0.5546    1.21745 
 Bq                   -2.03211   0.30911   0.24882 
 Bq                   -2.05132   0.43186   0.73314 
 Bq                   -2.05419   0.55335   0.80547 
 Bq                   -2.04651   0.50425   0.61174 
 Bq                   -2.05803   0.5779    0.90233 
 Bq                   -2.04267   0.4797    0.51488 
 Bq                   -2.06188   0.60245   0.9992 
 Bq                   -2.03882   0.45515   0.41801 
 Bq                   -2.06572   0.62699   1.09606 
 Bq                   -2.03498   0.4306    0.32115 
 Bq                   -2.06956   0.65154   1.19292 
 Bq                   -2.03114   0.40605   0.22429 
 Bq                   -2.05035   0.5288    0.70861 
 Bq                   -2.05322   0.65029   0.78094 
 Bq                   -2.04553   0.60119   0.58721 
 Bq                   -2.05706   0.67484   0.8778 
 Bq                   -2.04169   0.57664   0.49035 
 Bq                   -2.0609    0.69939   0.97467 
 Bq                   -2.03785   0.55209   0.39348 
 Bq                   -2.06474   0.72393   1.07153 
 Bq                   -2.03401   0.52754   0.29662 
 Bq                   -2.06859   0.74848   1.16839 
 Bq                   -2.03017   0.50299   0.19976 
 Bq                   -2.04938   0.62574   0.68408 
 Bq                   -2.05225   0.74723   0.75641 
 Bq                   -2.04456   0.69813   0.56268 
 Bq                   -2.05609   0.77178   0.85327 
 Bq                   -2.04072   0.67358   0.46582 
 Bq                   -2.05993   0.79632   0.95014 
 Bq                   -2.03688   0.64903   0.36895 
 Bq                   -2.06377   0.82087   1.047 
 Bq                   -2.03304   0.62448   0.27209 
 
 Symmetry turned off:
 Cannot cope with ghost atoms or with translation vectors.
 Stoichiometry    C22H14
 Framework group  C1[X(C22H14)]
 NUMDOF-- NAT=    36 NAtoms=   236
 Deg. of freedom     0
 Full point group                 C1      NOp   1
                          Input orientation:                          
 ---------------------------------------------------------------------
 Center     Atomic      Atomic             Coordinates (Angstroms)
 Number     Number       Type             X           Y           Z
 ---------------------------------------------------------------------
      1          6           0       -4.050056   -0.577186    0.813671
      2          1           0       -5.026380   -1.008273    1.002476
      3          6           0       -3.938155    0.661780    0.240088
      4          1           0       -4.825242    1.233889   -0.011130
      5          6           0       -2.676841    1.243325    0.005758
      6          6           0       -1.497412    0.505153    0.284825
      7          6           0       -1.650833   -0.733873    0.940403
      8          1           0       -0.771365   -1.273097    1.263375
      9          6           0       -2.889855   -1.262404    1.199431
     10          1           0       -2.968371   -2.212456    1.715268
     11          6           0       -2.577319    2.596370   -0.419293
     12          1           0       -3.487073    3.141224   -0.647406
     13          6           0       -1.374190    3.214790   -0.436403
     14          1           0       -1.299732    4.274202   -0.657814
     15          6           0       -0.171949    2.499409   -0.173459
     16          6           0       -0.204392    1.101844    0.019269
     17          6           0        1.051349    3.204256   -0.067622
     18          1           0        1.042734    4.281950   -0.189700
     19          6           0        2.194209    2.548745    0.257958
     20          1           0        3.116853    3.091285    0.433473
     21          6           0        2.221647    1.133656    0.293499
     22          6           0        1.048693    0.394553    0.030241
     23          6           0        3.448336    0.461463    0.557394
     24          1           0        4.309579    1.060605    0.833485
     25          6           0        3.542735   -0.885593    0.474946
     26          1           0        4.473147   -1.393970    0.703882
     27          6           0        2.449005   -1.647445   -0.019632
     28          6           0        1.215070   -1.005726   -0.301357
     29          6           0        0.253111   -1.743444   -1.021659
     30          1           0       -0.654136   -1.253505   -1.346285
     31          6           0        0.449419   -3.062860   -1.341378
     32          1           0       -0.308316   -3.594431   -1.905406
     33          6           0        1.625173   -3.720797   -0.955254
     34          1           0        1.767005   -4.768740   -1.192702
     35          6           0        2.610987   -3.014418   -0.318305
     36          1           0        3.552561   -3.490281   -0.064637
     37          0           0       -2.131586    4.019889    0.233546
     38          0           0       -2.100850    3.823494   -0.541364
     39          0           0       -2.135428    4.044438    0.330409
     40          0           0       -2.097008    3.798945   -0.638227
     41          0           0       -2.116218    3.921691   -0.153909
     42          0           0       -2.119087    4.043181   -0.081575
     43          0           0       -2.111403    3.994082   -0.275303
     44          0           0       -2.122929    4.067730    0.015288
     45          0           0       -2.107561    3.969533   -0.372166
     46          0           0       -2.126771    4.092279    0.112152
     47          0           0       -2.103719    3.944983   -0.469030
     48          0           0       -2.130613    4.116829    0.209016
     49          0           0       -2.099877    3.920434   -0.565894
     50          0           0       -2.134455    4.141378    0.305879
     51          0           0       -2.096035    3.895885   -0.662757
     52          0           0       -2.115245    4.018631   -0.178439
     53          0           0       -2.118114    4.140120   -0.106105
     54          0           0       -2.110430    4.091022   -0.299833
     55          0           0       -2.121956    4.164670   -0.009242
     56          0           0       -2.106588    4.066472   -0.396696
     57          0           0       -2.125798    4.189219    0.087622
     58          0           0       -2.102746    4.041923   -0.493560
     59          0           0       -2.129640    4.213768    0.184486
     60          0           0       -2.098904    4.017374   -0.590424
     61          0           0       -2.133482    4.238318    0.281349
     62          0           0       -2.095062    3.992825   -0.687287
     63          0           0       -2.114272    4.115571   -0.202969
     64          0           0       -2.117141    4.237060   -0.130635
     65          0           0       -2.109457    4.187962   -0.324363
     66          0           0       -2.120983    4.261610   -0.033772
     67          0           0       -2.105615    4.163412   -0.421226
     68          0           0       -2.124825    4.286159    0.063092
     69          0           0       -2.101773    4.138863   -0.518090
     70          0           0       -2.128667    4.310708    0.159956
     71          0           0       -2.097931    4.114314   -0.614954
     72          0           0       -2.132509    4.335258    0.256819
     73          0           0       -2.094089    4.089764   -0.711817
     74          0           0       -2.113299    4.212511   -0.227499
     75          0           0       -2.116168    4.334000   -0.155165
     76          0           0       -2.108484    4.284901   -0.348893
     77          0           0       -2.120010    4.358549   -0.058302
     78          0           0       -2.104642    4.260352   -0.445756
     79          0           0       -2.123852    4.383099    0.038562
     80          0           0       -2.100800    4.235803   -0.542620
     81          0           0       -2.127694    4.407648    0.135426
     82          0           0       -2.096958    4.211253   -0.639484
     83          0           0       -2.131536    4.432197    0.232289
     84          0           0       -2.093116    4.186704   -0.736347
     85          0           0       -2.112326    4.309451   -0.252029
     86          0           0       -2.115195    4.430940   -0.179695
     87          0           0       -2.107511    4.381841   -0.373423
     88          0           0       -2.119037    4.455489   -0.082832
     89          0           0       -2.103669    4.357292   -0.470286
     90          0           0       -2.122879    4.480039    0.014032
     91          0           0       -2.099827    4.332743   -0.567150
     92          0           0       -2.126721    4.504588    0.110896
     93          0           0       -2.095985    4.308193   -0.664014
     94          0           0       -2.130563    4.529137    0.207759
     95          0           0       -2.092143    4.283644   -0.760877
     96          0           0       -2.111353    4.406391   -0.276559
     97          0           0       -2.063921   -0.416052    1.050769
     98          0           0       -2.056237   -0.465150    0.857042
     99          0           0       -2.067763   -0.391502    1.147633
    100          0           0       -2.052395   -0.489700    0.760178
    101          0           0       -2.071605   -0.366953    1.244497
    102          0           0       -2.048553   -0.514249    0.663315
    103          0           0       -2.075447   -0.342404    1.341360
    104          0           0       -2.044711   -0.538798    0.566451
    105          0           0       -2.079289   -0.317854    1.438224
    106          0           0       -2.040869   -0.563348    0.469587
    107          0           0       -2.060079   -0.440601    0.953906
    108          0           0       -2.062948   -0.319112    1.026239
    109          0           0       -2.055264   -0.368210    0.832512
    110          0           0       -2.066790   -0.294563    1.123103
    111          0           0       -2.051422   -0.392760    0.735648
    112          0           0       -2.070632   -0.270013    1.219967
    113          0           0       -2.047580   -0.417309    0.638785
    114          0           0       -2.074474   -0.245464    1.316830
    115          0           0       -2.043738   -0.441858    0.541921
    116          0           0       -2.078316   -0.220915    1.413694
    117          0           0       -2.039896   -0.466408    0.445057
    118          0           0       -2.059106   -0.343661    0.929376
    119          0           0       -2.061975   -0.222172    1.001709
    120          0           0       -2.054291   -0.271271    0.807982
    121          0           0       -2.065817   -0.197623    1.098573
    122          0           0       -2.050449   -0.295820    0.711118
    123          0           0       -2.069659   -0.173073    1.195437
    124          0           0       -2.046607   -0.320369    0.614255
    125          0           0       -2.073501   -0.148524    1.292300
    126          0           0       -2.042765   -0.344919    0.517391
    127          0           0       -2.077343   -0.123975    1.389164
    128          0           0       -2.038923   -0.369468    0.420527
    129          0           0       -2.058133   -0.246721    0.904846
    130          0           0       -2.061002   -0.125232    0.977179
    131          0           0       -2.053318   -0.174331    0.783452
    132          0           0       -2.064844   -0.100683    1.074043
    133          0           0       -2.049476   -0.198880    0.686588
    134          0           0       -2.068686   -0.076134    1.170907
    135          0           0       -2.045634   -0.223429    0.589725
    136          0           0       -2.072528   -0.051584    1.267770
    137          0           0       -2.041792   -0.247979    0.492861
    138          0           0       -2.076370   -0.027035    1.364634
    139          0           0       -2.037951   -0.272528    0.395997
    140          0           0       -2.057160   -0.149782    0.880316
    141          0           0       -2.060029   -0.028292    0.952649
    142          0           0       -2.052345   -0.077391    0.758922
    143          0           0       -2.063871   -0.003743    1.049513
    144          0           0       -2.048504   -0.101940    0.662058
    145          0           0       -2.067713    0.020806    1.146377
    146          0           0       -2.044662   -0.126490    0.565195
    147          0           0       -2.071555    0.045356    1.243240
    148          0           0       -2.040820   -0.151039    0.468331
    149          0           0       -2.075397    0.069905    1.340104
    150          0           0       -2.036978   -0.175588    0.371467
    151          0           0       -2.056187   -0.052842    0.855786
    152          0           0       -2.059056    0.068647    0.928119
    153          0           0       -2.051373    0.019549    0.734392
    154          0           0       -2.062898    0.093197    1.024983
    155          0           0       -2.047531   -0.005000    0.637528
    156          0           0       -2.066740    0.117746    1.121847
    157          0           0       -2.043689   -0.029550    0.540665
    158          0           0       -2.070582    0.142295    1.218710
    159          0           0       -2.039847   -0.054099    0.443801
    160          0           0       -2.074424    0.166845    1.315574
    161          0           0       -2.036005   -0.078648    0.346937
    162          0           0       -2.055215    0.044098    0.831256
    163          0           0       -2.058084    0.165587    0.903589
    164          0           0       -2.050400    0.116489    0.709862
    165          0           0       -2.061926    0.190137    1.000453
    166          0           0       -2.046558    0.091939    0.612998
    167          0           0       -2.065768    0.214686    1.097317
    168          0           0       -2.042716    0.067390    0.516135
    169          0           0       -2.069609    0.239235    1.194180
    170          0           0       -2.038874    0.042841    0.419271
    171          0           0       -2.073451    0.263785    1.291044
    172          0           0       -2.035032    0.018291    0.322407
    173          0           0       -2.054242    0.141038    0.806726
    174          0           0       -2.057111    0.262527    0.879059
    175          0           0       -2.049427    0.213428    0.685332
    176          0           0       -2.060953    0.287076    0.975923
    177          0           0       -2.045585    0.188879    0.588468
    178          0           0       -2.064795    0.311626    1.072786
    179          0           0       -2.041743    0.164330    0.491604
    180          0           0       -2.068637    0.336175    1.169650
    181          0           0       -2.037901    0.139781    0.394741
    182          0           0       -2.072479    0.360724    1.266514
    183          0           0       -2.034059    0.115231    0.297877
    184          0           0       -2.053269    0.237978    0.782195
    185          0           0       -2.056138    0.359467    0.854529
    186          0           0       -2.048454    0.310368    0.660802
    187          0           0       -2.059980    0.384016    0.951393
    188          0           0       -2.044612    0.285819    0.563938
    189          0           0       -2.063822    0.408566    1.048256
    190          0           0       -2.040770    0.261270    0.467074
    191          0           0       -2.067664    0.433115    1.145120
    192          0           0       -2.036928    0.236720    0.370211
    193          0           0       -2.071506    0.457664    1.241984
    194          0           0       -2.033086    0.212171    0.273347
    195          0           0       -2.052296    0.334918    0.757665
    196          0           0       -2.055165    0.456407    0.829999
    197          0           0       -2.047481    0.407308    0.636272
    198          0           0       -2.059007    0.480956    0.926863
    199          0           0       -2.043639    0.382759    0.539408
    200          0           0       -2.062849    0.505505    1.023726
    201          0           0       -2.039797    0.358210    0.442544
    202          0           0       -2.066691    0.530055    1.120590
    203          0           0       -2.035955    0.333660    0.345681
    204          0           0       -2.070533    0.554604    1.217454
    205          0           0       -2.032113    0.309111    0.248817
    206          0           0       -2.051323    0.431857    0.733135
    207          0           0       -2.054192    0.553347    0.805469
    208          0           0       -2.046508    0.504248    0.611742
    209          0           0       -2.058034    0.577896    0.902333
    210          0           0       -2.042666    0.479699    0.514878
    211          0           0       -2.061876    0.602445    0.999196
    212          0           0       -2.038824    0.455149    0.418014
    213          0           0       -2.065718    0.626995    1.096060
    214          0           0       -2.034982    0.430600    0.321151
    215          0           0       -2.069560    0.651544    1.192924
    216          0           0       -2.031140    0.406051    0.224287
    217          0           0       -2.050350    0.528797    0.708605
    218          0           0       -2.053219    0.650286    0.780939
    219          0           0       -2.045535    0.601188    0.587212
    220          0           0       -2.057061    0.674836    0.877803
    221          0           0       -2.041693    0.576639    0.490348
    222          0           0       -2.060903    0.699385    0.974666
    223          0           0       -2.037851    0.552089    0.393484
    224          0           0       -2.064745    0.723934    1.071530
    225          0           0       -2.034009    0.527540    0.296621
    226          0           0       -2.068587    0.748484    1.168394
    227          0           0       -2.030167    0.502991    0.199757
    228          0           0       -2.049377    0.625737    0.684075
    229          0           0       -2.052246    0.747226    0.756409
    230          0           0       -2.044562    0.698128    0.562682
    231          0           0       -2.056088    0.771776    0.853273
    232          0           0       -2.040720    0.673578    0.465818
    233          0           0       -2.059930    0.796325    0.950136
    234          0           0       -2.036878    0.649029    0.368954
    235          0           0       -2.063772    0.820874    1.047000
    236          0           0       -2.033036    0.624480    0.272091
 ---------------------------------------------------------------------
 Rotational constants (GHZ):      0.4529074      0.2836956      0.1879557
 Standard basis: 6-311+G(d,p) (5D, 7F)
 Warning:  center  37 has no basis functions!
 Warning:  center  38 has no basis functions!
 Warning:  center  39 has no basis functions!
 Warning:  center  40 has no basis functions!
 Warning:  center  41 has no basis functions!
 Warning:  center  42 has no basis functions!
 Warning:  center  43 has no basis functions!
 Warning:  center  44 has no basis functions!
 Warning:  center  45 has no basis functions!
 Warning:  center  46 has no basis functions!
 Warning:  center  47 has no basis functions!
 Warning:  center  48 has no basis functions!
 Warning:  center  49 has no basis functions!
 Warning:  center  50 has no basis functions!
 Warning:  center  51 has no basis functions!
 Warning:  center  52 has no basis functions!
 Warning:  center  53 has no basis functions!
 Warning:  center  54 has no basis functions!
 Warning:  center  55 has no basis functions!
 Warning:  center  56 has no basis functions!
 Warning:  center  57 has no basis functions!
 Warning:  center  58 has no basis functions!
 Warning:  center  59 has no basis functions!
 Warning:  center  60 has no basis functions!
 Warning:  center  61 has no basis functions!
 Warning:  center  62 has no basis functions!
 Warning:  center  63 has no basis functions!
 Warning:  center  64 has no basis functions!
 Warning:  center  65 has no basis functions!
 Warning:  center  66 has no basis functions!
 Warning:  center  67 has no basis functions!
 Warning:  center  68 has no basis functions!
 Warning:  center  69 has no basis functions!
 Warning:  center  70 has no basis functions!
 Warning:  center  71 has no basis functions!
 Warning:  center  72 has no basis functions!
 Warning:  center  73 has no basis functions!
 Warning:  center  74 has no basis functions!
 Warning:  center  75 has no basis functions!
 Warning:  center  76 has no basis functions!
 Warning:  center  77 has no basis functions!
 Warning:  center  78 has no basis functions!
 Warning:  center  79 has no basis functions!
 Warning:  center  80 has no basis functions!
 Warning:  center  81 has no basis functions!
 Warning:  center  82 has no basis functions!
 Warning:  center  83 has no basis functions!
 Warning:  center  84 has no basis functions!
 Warning:  center  85 has no basis functions!
 Warning:  center  86 has no basis functions!
 Warning:  center  87 has no basis functions!
 Warning:  center  88 has no basis functions!
 Warning:  center  89 has no basis functions!
 Warning:  center  90 has no basis functions!
 Warning:  center  91 has no basis functions!
 Warning:  center  92 has no basis functions!
 Warning:  center  93 has no basis functions!
 Warning:  center  94 has no basis functions!
 Warning:  center  95 has no basis functions!
 Warning:  center  96 has no basis functions!
 Warning:  center  97 has no basis functions!
 Warning:  center  98 has no basis functions!
 Warning:  center  99 has no basis functions!
 Warning:  center 100 has no basis functions!
 Warning:  center 101 has no basis functions!
 Warning:  center 102 has no basis functions!
 Warning:  center 103 has no basis functions!
 Warning:  center 104 has no basis functions!
 Warning:  center 105 has no basis functions!
 Warning:  center 106 has no basis functions!
 Warning:  center 107 has no basis functions!
 Warning:  center 108 has no basis functions!
 Warning:  center 109 has no basis functions!
 Warning:  center 110 has no basis functions!
 Warning:  center 111 has no basis functions!
 Warning:  center 112 has no basis functions!
 Warning:  center 113 has no basis functions!
 Warning:  center 114 has no basis functions!
 Warning:  center 115 has no basis functions!
 Warning:  center 116 has no basis functions!
 Warning:  center 117 has no basis functions!
 Warning:  center 118 has no basis functions!
 Warning:  center 119 has no basis functions!
 Warning:  center 120 has no basis functions!
 Warning:  center 121 has no basis functions!
 Warning:  center 122 has no basis functions!
 Warning:  center 123 has no basis functions!
 Warning:  center 124 has no basis functions!
 Warning:  center 125 has no basis functions!
 Warning:  center 126 has no basis functions!
 Warning:  center 127 has no basis functions!
 Warning:  center 128 has no basis functions!
 Warning:  center 129 has no basis functions!
 Warning:  center 130 has no basis functions!
 Warning:  center 131 has no basis functions!
 Warning:  center 132 has no basis functions!
 Warning:  center 133 has no basis functions!
 Warning:  center 134 has no basis functions!
 Warning:  center 135 has no basis functions!
 Warning:  center 136 has no basis functions!
 Warning:  center 137 has no basis functions!
 Warning:  center 138 has no basis functions!
 Warning:  center 139 has no basis functions!
 Warning:  center 140 has no basis functions!
 Warning:  center 141 has no basis functions!
 Warning:  center 142 has no basis functions!
 Warning:  center 143 has no basis functions!
 Warning:  center 144 has no basis functions!
 Warning:  center 145 has no basis functions!
 Warning:  center 146 has no basis functions!
 Warning:  center 147 has no basis functions!
 Warning:  center 148 has no basis functions!
 Warning:  center 149 has no basis functions!
 Warning:  center 150 has no basis functions!
 Warning:  center 151 has no basis functions!
 Warning:  center 152 has no basis functions!
 Warning:  center 153 has no basis functions!
 Warning:  center 154 has no basis functions!
 Warning:  center 155 has no basis functions!
 Warning:  center 156 has no basis functions!
 Warning:  center 157 has no basis functions!
 Warning:  center 158 has no basis functions!
 Warning:  center 159 has no basis functions!
 Warning:  center 160 has no basis functions!
 Warning:  center 161 has no basis functions!
 Warning:  center 162 has no basis functions!
 Warning:  center 163 has no basis functions!
 Warning:  center 164 has no basis functions!
 Warning:  center 165 has no basis functions!
 Warning:  center 166 has no basis functions!
 Warning:  center 167 has no basis functions!
 Warning:  center 168 has no basis functions!
 Warning:  center 169 has no basis functions!
 Warning:  center 170 has no basis functions!
 Warning:  center 171 has no basis functions!
 Warning:  center 172 has no basis functions!
 Warning:  center 173 has no basis functions!
 Warning:  center 174 has no basis functions!
 Warning:  center 175 has no basis functions!
 Warning:  center 176 has no basis functions!
 Warning:  center 177 has no basis functions!
 Warning:  center 178 has no basis functions!
 Warning:  center 179 has no basis functions!
 Warning:  center 180 has no basis functions!
 Warning:  center 181 has no basis functions!
 Warning:  center 182 has no basis functions!
 Warning:  center 183 has no basis functions!
 Warning:  center 184 has no basis functions!
 Warning:  center 185 has no basis functions!
 Warning:  center 186 has no basis functions!
 Warning:  center 187 has no basis functions!
 Warning:  center 188 has no basis functions!
 Warning:  center 189 has no basis functions!
 Warning:  center 190 has no basis functions!
 Warning:  center 191 has no basis functions!
 Warning:  center 192 has no basis functions!
 Warning:  center 193 has no basis functions!
 Warning:  center 194 has no basis functions!
 Warning:  center 195 has no basis functions!
 Warning:  center 196 has no basis functions!
 Warning:  center 197 has no basis functions!
 Warning:  center 198 has no basis functions!
 Warning:  center 199 has no basis functions!
 Warning:  center 200 has no basis functions!
 Warning:  center 201 has no basis functions!
 Warning:  center 202 has no basis functions!
 Warning:  center 203 has no basis functions!
 Warning:  center 204 has no basis functions!
 Warning:  center 205 has no basis functions!
 Warning:  center 206 has no basis functions!
 Warning:  center 207 has no basis functions!
 Warning:  center 208 has no basis functions!
 Warning:  center 209 has no basis functions!
 Warning:  center 210 has no basis functions!
 Warning:  center 211 has no basis functions!
 Warning:  center 212 has no basis functions!
 Warning:  center 213 has no basis functions!
 Warning:  center 214 has no basis functions!
 Warning:  center 215 has no basis functions!
 Warning:  center 216 has no basis functions!
 Warning:  center 217 has no basis functions!
 Warning:  center 218 has no basis functions!
 Warning:  center 219 has no basis functions!
 Warning:  center 220 has no basis functions!
 Warning:  center 221 has no basis functions!
 Warning:  center 222 has no basis functions!
 Warning:  center 223 has no basis functions!
 Warning:  center 224 has no basis functions!
 Warning:  center 225 has no basis functions!
 Warning:  center 226 has no basis functions!
 Warning:  center 227 has no basis functions!
 Warning:  center 228 has no basis functions!
 Warning:  center 229 has no basis functions!
 Warning:  center 230 has no basis functions!
 Warning:  center 231 has no basis functions!
 Warning:  center 232 has no basis functions!
 Warning:  center 233 has no basis functions!
 Warning:  center 234 has no basis functions!
 Warning:  center 235 has no basis functions!
 Warning:  center 236 has no basis functions!
   568 basis functions,   904 primitive gaussians,   590 cartesian basis functions
    73 alpha electrons       73 beta electrons
       nuclear repulsion energy      1610.9176155625 Hartrees.
 NAtoms=  236 NActive=  236 NUniq=  236 SFac= 1.00D+00 NAtFMM=   60 NAOKFM=T Big=T
 Integral buffers will be    131072 words long.
 Raffenetti 2 integral format.
 Two-electron integral symmetry is turned off.
 One-electron integrals computed using PRISM.
 NBasis=   568 RedAO= T EigKep=  1.78D-06  NBF=   568
 NBsUse=   556 1.00D-06 EigRej=  9.09D-07 NBFU=   556
 ExpMin= 4.38D-02 ExpMax= 4.56D+03 ExpMxC= 6.82D+02 IAcc=2 IRadAn=         4 AccDes= 0.00D+00
 Harris functional with IExCor=  402 and IRadAn=       4 diagonalized for initial guess.
 HarFok:  IExCor=  402 AccDes= 0.00D+00 IRadAn=         4 IDoV= 1 UseB2=F ITyADJ=14
 ICtDFT=  3500011 ScaDFX=  1.000000  1.000000  1.000000  1.000000
 FoFCou: FMM=F IPFlag=           0 FMFlag=      100000 FMFlg1=        2001
         NFxFlg=           0 DoJE=T BraDBF=F KetDBF=T FulRan=T
         wScrn=  0.000000 ICntrl=     500 IOpCl=  0 I1Cent=   200000004 NGrid=           0
         NMat0=    1 NMatS0=      1 NMatT0=    0 NMatD0=    1 NMtDS0=    0 NMtDT0=    0
 Symmetry not used in FoFCou.
 Requested convergence on RMS density matrix=1.00D-08 within 128 cycles.
 Requested convergence on MAX density matrix=1.00D-06.
 Requested convergence on             energy=1.00D-06.
 No special actions if energy rises.
 SCF Done:  E(RB3LYP) =  -847.003289847     A.U. after   15 cycles
            NFock= 15  Conv=0.76D-08     -V/T= 2.0040
 DoSCS=F DFT=T ScalE2(SS,OS)=  1.000000  1.000000
 Range of M.O.s used for correlation:     1   556
 NBasis=   568 NAE=    73 NBE=    73 NFC=     0 NFV=     0
 NROrb=    556 NOA=    73 NOB=    73 NVA=   483 NVB=   483

 **** Warning!!: The largest alpha MO coefficient is  0.10971037D+03

          Differentiating once with respect to magnetic field using GIAOs.
          Electric field/nuclear overlap derivatives assumed to be zero.
 FoFCou: FMM=F IPFlag=           0 FMFlag=      100000 FMFlg1=        2001
         NFxFlg=           0 DoJE=F BraDBF=F KetDBF=T FulRan=T
         wScrn=  0.000000 ICntrl=    6100 IOpCl=  0 I1Cent=           7 NGrid=         236
         NMat0=    1 NMatS0=      1 NMatT0=    0 NMatD0=    1 NMtDS0=    0 NMtDT0=    0
 Symmetry not used in FoFCou.
 FoFJK:  IHMeth= 1 ICntrl=    6127 DoSepK=F KAlg= 0 I1Cent=   0 FoldK=F
 IRaf=         1 NMat=   1 IRICut=       1 DoRegI=T DoRafI=F ISym2E= 0.
          There are     3 degrees of freedom in the 1st order CPHF.  IDoFFX=0 NUNeed=     3.
      3 vectors produced by pass  0 Test12= 1.18D-12 3.33D-08 XBig12= 2.07D+03 9.18D+00.
 AX will form     3 AO Fock derivatives at one time.
      3 vectors produced by pass  1 Test12= 1.18D-12 3.33D-08 XBig12= 3.56D+00 8.03D-01.
      3 vectors produced by pass  2 Test12= 1.18D-12 3.33D-08 XBig12= 2.10D-02 6.92D-02.
      3 vectors produced by pass  3 Test12= 1.18D-12 3.33D-08 XBig12= 5.45D-05 1.89D-03.
      3 vectors produced by pass  4 Test12= 1.18D-12 3.33D-08 XBig12= 1.20D-07 7.79D-05.
      3 vectors produced by pass  5 Test12= 1.18D-12 3.33D-08 XBig12= 4.02D-10 4.73D-06.
      3 vectors produced by pass  6 Test12= 1.18D-12 3.33D-08 XBig12= 1.32D-12 2.61D-07.
 InvSVY:  IOpt=1 It=  1 EMax= 2.13D-14
 Solved reduced A of dimension    21 with     3 vectors.
 Calculating GIAO nuclear magnetic shielding tensors.
 SCF GIAO Magnetic shielding tensor (ppm):
      1  C    Isotropic =    53.8139   Anisotropy =   178.0260
   XX=   -41.4327   YX=   -32.3458   ZX=    10.0287
   XY=   -28.3572   YY=    59.0527   ZY=    55.1899
   XZ=    13.1759   YZ=    58.7550   ZZ=   143.8218
   Eigenvalues:   -53.8775    42.8214   172.4979
      2  H    Isotropic =    24.3095   Anisotropy =     4.8536
   XX=    25.5771   YX=    -1.0289   ZX=     0.5661
   XY=    -0.7431   YY=    26.1829   ZY=    -2.3306
   XZ=    -0.1707   YZ=    -2.4411   ZZ=    21.1687
   Eigenvalues:    20.2108    25.1725    27.5453
      3  C    Isotropic =    51.4055   Anisotropy =   157.8639
   XX=   -31.5399   YX=    38.5015   ZX=   -17.9316
   XY=    34.3519   YY=    49.9437   ZY=    49.6392
   XZ=    -9.8383   YZ=    44.6006   ZZ=   135.8127
   Eigenvalues:   -50.5747    48.1432   156.6481
      4  H    Isotropic =    23.8290   Anisotropy =     7.1838
   XX=    25.3635   YX=     1.8486   ZX=    -0.3559
   XY=     1.9656   YY=    26.4581   ZY=    -2.4103
   XZ=    -1.2941   YZ=    -2.6614   ZZ=    19.6654
   Eigenvalues:    18.8176    24.0511    28.6182
      5  C    Isotropic =    46.0697   Anisotropy =   207.6751
   XX=   -19.2123   YX=    -4.8852   ZX=    -1.6475
   XY=     2.8938   YY=    -2.9860   ZY=    66.5656
   XZ=     2.5356   YZ=    67.9144   ZZ=   160.4073
   Eigenvalues:   -27.2455   -19.0652   184.5197
      6  C    Isotropic =    47.5218   Anisotropy =   196.9389
   XX=   -28.1552   YX=    -2.7889   ZX=    12.0660
   XY=   -14.3886   YY=    21.2063   ZY=    74.2521
   XZ=   -18.6356   YZ=    61.1113   ZZ=   149.5144
   Eigenvalues:   -30.2925    -5.9564   178.8144
      7  C    Isotropic =    49.3915   Anisotropy =   179.8333
   XX=   -12.5211   YX=    28.7048   ZX=   -24.6745
   XY=    31.5123   YY=    29.7000   ZY=    77.7459
   XZ=   -40.0095   YZ=    65.3072   ZZ=   130.9956
   Eigenvalues:   -52.1299    31.0240   169.2804
      8  H    Isotropic =    23.1586   Anisotropy =    13.5525
   XX=    28.5711   YX=     1.5482   ZX=    -3.6986
   XY=     3.2466   YY=    22.7592   ZY=    -2.1157
   XZ=    -8.3753   YZ=    -1.0821   ZZ=    18.1456
   Eigenvalues:    15.3521    21.9301    32.1936
      9  C    Isotropic =    55.1460   Anisotropy =   174.7426
   XX=    46.7071   YX=    -2.6162   ZX=    -2.8420
   XY=     0.6223   YY=    -1.6258   ZY=    92.8272
   XZ=     0.5159   YZ=    95.6598   ZZ=   120.3568
   Eigenvalues:   -52.8932    46.6901   171.6411
     10  H    Isotropic =    24.6278   Anisotropy =     7.1815
   XX=    29.1040   YX=     0.1399   ZX=    -0.3694
   XY=     0.3642   YY=    23.4778   ZY=    -1.0805
   XZ=    -2.4493   YZ=    -2.9465   ZZ=    21.3016
   Eigenvalues:    19.9703    24.4977    29.4155
     11  C    Isotropic =    51.5607   Anisotropy =   151.2142
   XX=     2.1639   YX=    40.9287   ZX=   -26.0048
   XY=    49.9131   YY=    12.2331   ZY=    42.1342
   XZ=   -15.6145   YZ=    38.6614   ZZ=   140.2851
   Eigenvalues:   -48.1951    50.5071   152.3701
     12  H    Isotropic =    23.8537   Anisotropy =     7.3815
   XX=    25.9672   YX=     2.3738   ZX=    -0.2390
   XY=     2.4320   YY=    26.3975   ZY=    -1.8291
   XZ=     0.3529   YZ=    -1.7731   ZZ=    19.1964
   Eigenvalues:    18.7149    24.0714    28.7747
     13  C    Isotropic =    52.8653   Anisotropy =   147.4265
   XX=    51.2944   YX=    19.9221   ZX=   -13.4678
   XY=    11.5478   YY=   -34.0176   ZY=    42.5079
   XZ=    -9.2241   YZ=    40.0716   ZZ=   141.3192
   Eigenvalues:   -46.5152    53.9616   151.1497
     14  H    Isotropic =    24.0156   Anisotropy =     7.3485
   XX=    28.6644   YX=     0.6281   ZX=     1.0808
   XY=     0.5926   YY=    24.4325   ZY=    -1.0823
   XZ=     1.6846   YZ=    -0.3842   ZZ=    18.9500
   Eigenvalues:    18.6430    24.4892    28.9146
     15  C    Isotropic =    46.2221   Anisotropy =   203.9048
   XX=   -27.2215   YX=    -0.0442   ZX=   -28.9124
   XY=     4.6427   YY=   -10.5571   ZY=    28.3830
   XZ=   -10.2704   YZ=    26.7376   ZZ=   176.4448
   Eigenvalues:   -30.5512   -12.9411   182.1586
     16  C    Isotropic =    51.9375   Anisotropy =   188.2004
   XX=   -19.4441   YX=     5.5046   ZX=    15.7858
   XY=    -8.3874   YY=     2.4863   ZY=    22.9264
   XZ=   -50.6243   YZ=    23.3340   ZZ=   172.7704
   Eigenvalues:   -21.0294    -0.5625   177.4045
     17  C    Isotropic =    51.9482   Anisotropy =   149.1264
   XX=    50.7296   YX=   -23.9353   ZX=   -18.4207
   XY=   -16.7271   YY=   -41.8764   ZY=    17.8662
   XZ=   -14.3278   YZ=    11.4871   ZZ=   146.9915
   Eigenvalues:   -46.7796    51.2584   151.3658
     18  H    Isotropic =    24.0122   Anisotropy =     7.5163
   XX=    28.5811   YX=    -0.0866   ZX=     1.5071
   XY=    -0.2466   YY=    24.3342   ZY=    -0.7657
   XZ=     2.5088   YZ=    -1.5208   ZZ=    19.1214
   Eigenvalues:    18.5094    24.5041    29.0231
     19  C    Isotropic =    51.7356   Anisotropy =   148.5924
   XX=     2.4559   YX=   -45.6913   ZX=   -31.2531
   XY=   -53.4448   YY=     7.4698   ZY=    -1.8888
   XZ=   -23.5601   YZ=    -1.2765   ZZ=   145.2810
   Eigenvalues:   -46.9894    51.3989   150.7972
     20  H    Isotropic =    23.9071   Anisotropy =     7.6651
   XX=    25.5796   YX=    -2.0226   ZX=     1.4905
   XY=    -1.9998   YY=    27.3706   ZY=    -0.5164
   XZ=     2.7276   YZ=    -1.1179   ZZ=    18.7711
   Eigenvalues:    18.1643    24.5398    29.0172
     21  C    Isotropic =    45.9767   Anisotropy =   203.9316
   XX=   -16.2108   YX=    13.1802   ZX=   -44.5913
   XY=     6.5714   YY=   -20.6329   ZY=     0.0949
   XZ=   -28.8984   YZ=   -13.0883   ZZ=   174.7736
   Eigenvalues:   -30.5796   -13.4215   181.9311
     22  C    Isotropic =    52.0450   Anisotropy =   188.1157
   XX=    -0.0787   YX=     2.5023   ZX=   -16.3451
   XY=    18.9327   YY=   -14.4798   ZY=   -34.4335
   XZ=   -50.6032   YZ=    19.9104   ZZ=   170.6934
   Eigenvalues:   -20.7705    -0.5500   177.4554
     23  C    Isotropic =    53.2392   Anisotropy =   146.7412
   XX=   -22.0674   YX=   -32.0012   ZX=   -49.4857
   XY=   -23.2043   YY=    44.3661   ZY=   -15.6400
   XZ=   -43.8090   YZ=   -20.2525   ZZ=   137.4189
   Eigenvalues:   -45.6776    54.3286   151.0667
     24  H    Isotropic =    23.8249   Anisotropy =     7.5289
   XX=    25.1073   YX=    -1.7330   ZX=     1.5380
   XY=    -1.5944   YY=    28.0047   ZY=     0.0879
   XZ=     1.2557   YZ=    -0.8283   ZZ=    18.3628
   Eigenvalues:    18.0848    24.5458    28.8442
     25  C    Isotropic =    51.4969   Anisotropy =   150.1066
   XX=   -28.4915   YX=    33.9684   ZX=   -52.3137
   XY=    22.0311   YY=    46.6072   ZY=    -3.8075
   XZ=   -44.5594   YZ=   -10.6355   ZZ=   136.3748
   Eigenvalues:   -48.3857    51.3083   151.5679
     26  H    Isotropic =    23.7431   Anisotropy =     7.4052
   XX=    24.0663   YX=     1.1141   ZX=     1.9989
   XY=     0.9693   YY=    28.1000   ZY=     1.6568
   XZ=     2.0795   YZ=     0.8886   ZZ=    19.0630
   Eigenvalues:    18.2615    24.2880    28.6799
     27  C    Isotropic =    45.8108   Anisotropy =   207.2710
   XX=    -2.7702   YX=    13.7697   ZX=   -61.4651
   XY=     6.5593   YY=   -12.0335   ZY=   -41.6456
   XZ=   -62.6381   YZ=   -44.9232   ZZ=   152.2361
   Eigenvalues:   -28.0803   -18.4787   183.9915
     28  C    Isotropic =    47.8398   Anisotropy =   197.2870
   XX=    19.6900   YX=    14.4398   ZX=   -60.5682
   XY=    28.5650   YY=   -19.3566   ZY=   -56.7015
   XZ=   -63.1331   YZ=   -24.4782   ZZ=   143.1859
   Eigenvalues:   -30.5979    -5.2472   179.3644
     29  C    Isotropic =    49.3441   Anisotropy =   179.7793
   XX=    -3.4110   YX=    38.3775   ZX=   -80.8875
   XY=    36.1252   YY=    25.9805   ZY=   -23.7573
   XZ=   -78.1065   YZ=    -3.9802   ZZ=   125.4627
   Eigenvalues:   -51.6645    30.4997   169.1970
     30  H    Isotropic =    23.1387   Anisotropy =    13.3222
   XX=    22.4354   YX=    -0.7013   ZX=    -0.2375
   XY=    -2.1539   YY=    28.3546   ZY=     4.5555
   XZ=    -3.4181   YZ=     8.3231   ZZ=    18.6259
   Eigenvalues:    15.2751    22.1208    32.0201
     31  C    Isotropic =    55.4410   Anisotropy =   174.9390
   XX=    17.1871   YX=   -14.0890   ZX=   -84.0024
   XY=   -17.9030   YY=    37.4745   ZY=   -50.3662
   XZ=   -84.6557   YZ=   -54.8325   ZZ=   111.6615
   Eigenvalues:   -51.9248    46.1808   172.0670
     32  H    Isotropic =    24.5337   Anisotropy =     7.2554
   XX=    24.6185   YX=    -2.5264   ZX=     0.7632
   XY=    -2.7385   YY=    27.4630   ZY=     1.0335
   XZ=     1.1913   YZ=     3.7573   ZZ=    21.5194
   Eigenvalues:    19.8987    24.3316    29.3706
     33  C    Isotropic =    53.1814   Anisotropy =   179.0596
   XX=    60.9231   YX=    35.2256   ZX=   -42.9515
   XY=    32.0226   YY=   -38.1801   ZY=   -45.5652
   XZ=   -44.2248   YZ=   -50.7831   ZZ=   136.8014
   Eigenvalues:   -55.1197    42.1095   172.5545
     34  H    Isotropic =    24.2825   Anisotropy =     5.1861
   XX=    26.7643   YX=    -0.0934   ZX=     2.5955
   XY=    -0.2993   YY=    24.8157   ZY=     0.8589
   XZ=     2.3715   YZ=     1.4580   ZZ=    21.2676
   Eigenvalues:    20.0339    25.0737    27.7399
     35  C    Isotropic =    51.5295   Anisotropy =   155.1748
   XX=    -0.5131   YX=    52.5760   ZX=   -52.1551
   XY=    55.6135   YY=    25.1843   ZY=   -14.2643
   XZ=   -45.7255   YZ=   -17.1625   ZZ=   129.9171
   Eigenvalues:   -48.3147    47.9237   154.9793
     36  H    Isotropic =    23.8384   Anisotropy =     7.3073
   XX=    24.2302   YX=     1.4459   ZX=     2.1759
   XY=     1.2147   YY=    27.1572   ZY=     2.0665
   XZ=     1.6853   YZ=     2.7775   ZZ=    20.1277
   Eigenvalues:    18.9464    23.8588    28.7099
     37  Bq   Isotropic =     3.0441   Anisotropy =    14.9304
   XX=     4.6953   YX=    -1.9292   ZX=    -1.0200
   XY=    -0.7271   YY=    10.3858   ZY=     0.0854
   XZ=    -7.0092   YZ=    11.4057   ZZ=    -5.9486
   Eigenvalues:    -8.6658     4.8005    12.9978
     38  Bq   Isotropic =     4.8893   Anisotropy =    19.6210
   XX=    13.2382   YX=     2.9350   ZX=     1.7381
   XY=     6.4166   YY=    12.8738   ZY=    -5.6842
   XZ=     0.2037   YZ=    -3.6899   ZZ=   -11.4442
   Eigenvalues:   -12.4476     9.1455    17.9700
     39  Bq   Isotropic =     2.6650   Anisotropy =    15.2933
   XX=     3.5569   YX=    -2.0366   ZX=    -1.1401
   XY=    -0.9907   YY=     9.3784   ZY=     0.9202
   XZ=    -6.7969   YZ=    12.2278   ZZ=    -4.9403
   Eigenvalues:    -8.3614     3.4959    12.8605
     40  Bq   Isotropic =     4.8594   Anisotropy =    19.7235
   XX=    13.0709   YX=     3.1717   ZX=     1.9625
   XY=     6.8284   YY=    12.5756   ZY=    -5.3125
   XZ=     2.2205   YZ=    -5.3770   ZZ=   -11.0684
   Eigenvalues:   -12.6056     9.1753    18.0084
     41  Bq   Isotropic =     4.5192   Anisotropy =    13.6520
   XX=    10.2210   YX=    -0.0624   ZX=     0.2557
   XY=     2.1391   YY=    13.2818   ZY=    -4.2834
   XZ=    -5.9290   YZ=     4.6646   ZZ=    -9.9452
   Eigenvalues:   -10.3413    10.2784    13.6205
     42  Bq   Isotropic =     3.1222   Anisotropy =    12.2844
   XX=     8.0850   YX=    -1.1894   ZX=    -0.6039
   XY=     0.6792   YY=    11.0871   ZY=    -2.8100
   XZ=    -6.2592   YZ=     6.0479   ZZ=    -9.8054
   Eigenvalues:   -10.5515     8.6064    11.3118
     43  Bq   Isotropic =     3.6010   Anisotropy =    13.5081
   XX=    10.7974   YX=    -0.0045   ZX=     0.2146
   XY=     2.4452   YY=    11.4434   ZY=    -4.5262
   XZ=    -4.6180   YZ=     2.1075   ZZ=   -11.4376
   Eigenvalues:   -11.7045     9.9012    12.6064
     44  Bq   Isotropic =     2.8230   Anisotropy =    12.9973
   XX=     6.6662   YX=    -1.6016   ZX=    -0.8873
   XY=     0.0178   YY=    10.6188   ZY=    -1.8062
   XZ=    -6.5831   YZ=     7.7529   ZZ=    -8.8161
   Eigenvalues:   -10.0310     7.0121    11.4878
     45  Bq   Isotropic =     3.7470   Anisotropy =    15.2775
   XX=    11.8576   YX=     0.6733   ZX=     0.7161
   XY=     3.4286   YY=    11.3501   ZY=    -5.0523
   XZ=    -3.2376   YZ=     0.0816   ZZ=   -11.9666
   Eigenvalues:   -12.2737     9.5827    13.9320
     46  Bq   Isotropic =     2.5130   Anisotropy =    13.6653
   XX=     5.3266   YX=    -1.8795   ZX=    -1.0826
   XY=    -0.4752   YY=     9.9942   ZY=    -0.8308
   XZ=    -6.6595   YZ=     9.1784   ZZ=    -7.7818
   Eigenvalues:    -9.5573     5.4731    11.6232
     47  Bq   Isotropic =     3.8241   Anisotropy =    16.7099
   XX=    12.5649   YX=     1.3002   ZX=     1.2423
   XY=     4.3403   YY=    11.1352   ZY=    -5.2906
   XZ=    -1.5242   YZ=    -1.8505   ZZ=   -12.2278
   Eigenvalues:   -12.7644     9.2727    14.9640
     48  Bq   Isotropic =     2.2119   Anisotropy =    14.1686
   XX=     4.1205   YX=    -2.0384   ZX=    -1.1977
   XY=    -0.8157   YY=     9.2631   ZY=     0.0491
   XZ=    -6.5567   YZ=    10.2915   ZZ=    -6.7480
   Eigenvalues:    -9.1220     4.1001    11.6576
     49  Bq   Isotropic =     3.8401   Anisotropy =    17.5468
   XX=    12.8384   YX=     1.7863   ZX=     1.7616
   XY=     5.0591   YY=    10.8517   ZY=    -5.2698
   XZ=     0.4120   YZ=    -3.6349   ZZ=   -12.1699
   Eigenvalues:   -13.1136     9.0959    15.5379
     50  Bq   Isotropic =     1.9336   Anisotropy =    14.4777
   XX=     3.0747   YX=    -2.1026   ZX=    -1.2464
   XY=    -1.0311   YY=     8.4781   ZY=     0.7950
   XZ=    -6.3355   YZ=    11.0926   ZZ=    -5.7518
   Eigenvalues:    -8.7134     2.9289    11.5855
     51  Bq   Isotropic =     3.8076   Anisotropy =    17.6596
   XX=    12.6503   YX=     2.0660   ZX=     2.2458
   XY=     5.4882   YY=    10.5272   ZY=    -5.0798
   XZ=     2.4079   YZ=    -5.2638   ZZ=   -11.7546
   Eigenvalues:   -13.2699     9.1120    15.5807
     52  Bq   Isotropic =     3.3884   Anisotropy =    12.1200
   XX=     9.4988   YX=    -0.6464   ZX=    -0.2328
   XY=     1.5020   YY=    11.3644   ZY=    -3.7505
   XZ=    -5.6209   YZ=     4.1330   ZZ=   -10.6980
   Eigenvalues:   -11.1163     9.8131    11.4684
     53  Bq   Isotropic =     2.3077   Anisotropy =    11.9424
   XX=     7.3607   YX=    -1.7097   ZX=    -0.8993
   XY=     0.1264   YY=     9.6922   ZY=    -2.3808
   XZ=    -5.7955   YZ=     5.4512   ZZ=   -10.1297
   Eigenvalues:   -10.8396     7.4934    10.2693
     54  Bq   Isotropic =     2.7818   Anisotropy =    11.6430
   XX=    10.0822   YX=    -0.9069   ZX=    -0.0926
   XY=     1.4633   YY=     9.9327   ZY=    -3.9096
   XZ=    -4.2248   YZ=     1.8758   ZZ=   -11.6696
   Eigenvalues:   -11.9261     9.7277    10.5438
     55  Bq   Isotropic =     2.0459   Anisotropy =    12.6187
   XX=     5.9862   YX=    -1.9676   ZX=    -1.1289
   XY=    -0.3645   YY=     9.3457   ZY=    -1.5168
   XZ=    -6.0968   YZ=     6.9903   ZZ=    -9.1942
   Eigenvalues:   -10.3090     5.9883    10.4584
     56  Bq   Isotropic =     2.9559   Anisotropy =    13.3095
   XX=    11.1871   YX=    -0.4146   ZX=     0.4823
   XY=     2.2305   YY=     9.8368   ZY=    -4.4365
   XZ=    -2.8902   YZ=     0.0015   ZZ=   -12.1562
   Eigenvalues:   -12.4297     9.4684    11.8289
     57  Bq   Isotropic =     1.7908   Anisotropy =    13.1673
   XX=     4.7153   YX=    -2.1259   ZX=    -1.2607
   XY=    -0.7261   YY=     8.8730   ZY=    -0.6795
   XZ=    -6.1609   YZ=     8.2865   ZZ=    -8.2160
   Eigenvalues:    -9.8025     4.6059    10.5690
     58  Bq   Isotropic =     3.0669   Anisotropy =    14.5916
   XX=    11.9429   YX=     0.0724   ZX=     1.1399
   XY=     2.9683   YY=     9.6304   ZY=    -4.7519
   XZ=    -1.2305   YZ=    -1.8207   ZZ=   -12.3726
   Eigenvalues:   -12.8542     9.2602    12.7946
     59  Bq   Isotropic =     1.5547   Anisotropy =    13.5578
   XX=     3.5914   YX=    -2.1982   ZX=    -1.3146
   XY=    -0.9718   YY=     8.3085   ZY=     0.0801
   XZ=    -6.0566   YZ=     9.3151   ZZ=    -7.2358
   Eigenvalues:    -9.3214     3.3923    10.5932
     60  Bq   Isotropic =     3.1069   Anisotropy =    15.3345
   XX=    12.2448   YX=     0.4941   ZX=     1.8319
   XY=     3.5892   YY=     9.3434   ZY=    -4.8680
   XZ=     0.6422   YZ=    -3.5323   ZZ=   -12.2675
   Eigenvalues:   -13.1554     9.1463    13.3299
     61  Bq   Isotropic =     1.3452   Anisotropy =    13.7822
   XX=     2.6318   YX=    -2.2030   ZX=    -1.3111
   XY=    -1.1225   YY=     7.6896   ZY=     0.7314
   XZ=    -5.8439   YZ=    10.0764   ZZ=    -6.2858
   Eigenvalues:    -8.8629     2.3652    10.5333
     62  Bq   Isotropic =     3.0763   Anisotropy =    15.4469
   XX=    12.0479   YX=     0.8010   ZX=     2.4985
   XY=     4.0170   YY=     8.9922   ZY=    -4.8399
   XZ=     2.5632   YZ=    -5.1046   ZZ=   -11.8111
   Eigenvalues:   -13.2957     9.1504    13.3743
     63  Bq   Isotropic =     2.5595   Anisotropy =    11.1979
   XX=     8.7625   YX=    -1.3508   ZX=    -0.5561
   XY=     0.7442   YY=     9.8895   ZY=    -3.2033
   XZ=    -5.1888   YZ=     3.7213   ZZ=   -10.9736
   Eigenvalues:   -11.3853     9.0390    10.0247
     64  Bq   Isotropic =     1.6809   Anisotropy =    12.0272
   XX=     6.6059   YX=    -2.2470   ZX=    -1.0492
   XY=    -0.4501   YY=     8.6185   ZY=    -1.9675
   XZ=    -5.2480   YZ=     4.9541   ZZ=   -10.1817
   Eigenvalues:   -10.8310     6.1747     9.6991
     65  Bq   Isotropic =     2.1500   Anisotropy =    11.4375
   XX=     9.2321   YX=    -1.8029   ZX=    -0.2407
   XY=     0.4922   YY=     8.8064   ZY=    -3.3522
   XZ=    -3.7476   YZ=     1.6968   ZZ=   -11.5884
   Eigenvalues:   -11.8158     8.4908     9.7750
     66  Bq   Isotropic =     1.4445   Anisotropy =    12.4622
   XX=     5.3078   YX=    -2.3547   ZX=    -1.2486
   XY=    -0.7783   YY=     8.3439   ZY=    -1.2210
   XZ=    -5.5398   YZ=     6.3429   ZZ=    -9.3183
   Eigenvalues:   -10.3218     4.9026     9.7526
     67  Bq   Isotropic =     2.3414   Anisotropy =    12.0568
   XX=    10.3211   YX=    -1.4817   ZX=     0.3831
   XY=     1.0641   YY=     8.7170   ZY=    -3.8883
   XZ=    -2.4782   YZ=    -0.0464   ZZ=   -12.0140
   Eigenvalues:   -12.2491     8.8939    10.3792
     68  Bq   Isotropic =     1.2266   Anisotropy =    12.8197
   XX=     4.1239   YX=    -2.3933   ZX=    -1.3429
   XY=    -1.0104   YY=     7.9687   ZY=    -0.5048
   XZ=    -5.6080   YZ=     7.5161   ZZ=    -8.4129
   Eigenvalues:    -9.8193     3.7260     9.7730
     69  Bq   Isotropic =     2.4739   Anisotropy =    12.9439
   XX=    11.0753   YX=    -1.1254   ZX=     1.1229
   XY=     1.6434   YY=     8.5192   ZY=    -4.2743
   XZ=    -0.9044   YZ=    -1.7709   ZZ=   -12.1728
   Eigenvalues:   -12.6062     8.9247    11.1031
     70  Bq   Isotropic =     1.0353   Anisotropy =    13.0642
   XX=     3.0904   YX=    -2.3757   ZX=    -1.3598
   XY=    -1.1590   YY=     7.5176   ZY=     0.1445
   XZ=    -5.5186   YZ=     8.4575   ZZ=    -7.5023
   Eigenvalues:    -9.3300     2.6911     9.7447
     71  Bq   Isotropic =     2.5304   Anisotropy =    13.5216
   XX=    11.3807   YX=    -0.7695   ZX=     1.9195
   XY=     2.1692   YY=     8.2274   ZY=    -4.5084
   XZ=     0.8636   YZ=    -3.4139   ZZ=   -12.0170
   Eigenvalues:   -12.8570     8.9033    11.5448
     72  Bq   Isotropic =     0.8739   Anisotropy =    13.1843
   XX=     2.2181   YX=    -2.3165   ZX=    -1.3242
   XY=    -1.2402   YY=     7.0179   ZY=     0.7048
   XZ=    -5.3285   YZ=     9.1688   ZZ=    -6.6144
   Eigenvalues:    -8.8568     1.8150     9.6634
     73  Bq   Isotropic =     2.5039   Anisotropy =    13.6302
   XX=    11.1845   YX=    -0.4502   ZX=     2.6936
   XY=     2.5823   YY=     7.8525   ZY=    -4.6180
   XZ=     2.6672   YZ=    -4.9312   ZZ=   -11.5254
   Eigenvalues:   -12.9748     8.8957    11.5907
     74  Bq   Isotropic =     1.9224   Anisotropy =    11.5986
   XX=     7.9491   YX=    -2.0626   ZX=    -0.7189
   XY=    -0.0228   YY=     8.7750   ZY=    -2.6959
   XZ=    -4.6670   YZ=     3.3867   ZZ=   -10.9569
   Eigenvalues:   -11.3350     7.4473     9.6548
     75  Bq   Isotropic =     1.1782   Anisotropy =    12.1857
   XX=     5.8022   YX=    -2.7293   ZX=    -1.0686
   XY=    -0.9832   YY=     7.7993   ZY=    -1.6055
   XZ=    -4.6448   YZ=     4.5177   ZZ=   -10.0670
   Eigenvalues:   -10.6340     4.8665     9.3020
     76  Bq   Isotropic =     1.6243   Anisotropy =    12.0024
   XX=     8.2323   YX=    -2.5905   ZX=    -0.2589
   XY=    -0.3795   YY=     7.9689   ZY=    -2.8794
   XZ=    -3.2207   YZ=     1.5375   ZZ=   -11.3284
   Eigenvalues:   -11.5148     6.7618     9.6259
     77  Bq   Isotropic =     0.9660   Anisotropy =    12.3802
   XX=     4.6142   YX=    -2.7070   ZX=    -1.2549
   XY=    -1.1693   YY=     7.5644   ZY=    -0.9543
   XZ=    -4.9352   YZ=     5.7740   ZZ=    -9.2807
   Eigenvalues:   -10.1590     3.8375     9.2194
     78  Bq   Isotropic =     1.8166   Anisotropy =    12.1941
   XX=     9.2500   YX=    -2.4149   ZX=     0.3857
   XY=     0.0248   YY=     7.8886   ZY=    -3.4260
   XZ=    -2.0347   YZ=    -0.0888   ZZ=   -11.6888
   Eigenvalues:   -11.8861     7.3899     9.9460
     79  Bq   Isotropic =     0.7785   Anisotropy =    12.5438
   XX=     3.5390   YX=    -2.6399   ZX=    -1.3330
   XY=    -1.2862   YY=     7.2490   ZY=    -0.3396
   XZ=    -5.0188   YZ=     6.8357   ZZ=    -8.4524
   Eigenvalues:    -9.6788     2.8734     9.1411
     80  Bq   Isotropic =     1.9552   Anisotropy =    12.5360
   XX=     9.9581   YX=    -2.1723   ZX=     1.1593
   XY=     0.4655   YY=     7.6976   ZY=    -3.8707
   XZ=    -0.5747   YZ=    -1.7218   ZZ=   -11.7901
   Eigenvalues:   -12.1847     7.7378    10.3126
     81  Bq   Isotropic =     0.6215   Anisotropy =    12.6401
   XX=     2.6074   YX=    -2.5412   ZX=    -1.3339
   XY=    -1.3461   YY=     6.8725   ZY=     0.2146
   XZ=    -4.9560   YZ=     7.6938   ZZ=    -7.6154
   Eigenvalues:    -9.2026     2.0187     9.0482
     82  Bq   Isotropic =     2.0190   Anisotropy =    12.8267
   XX=    10.2451   YX=    -1.8790   ZX=     1.9972
   XY=     0.9024   YY=     7.4014   ZY=    -4.2005
   XZ=     1.0557   YZ=    -3.2960   ZZ=   -11.5896
   Eigenvalues:   -12.3903     7.8772    10.5701
     83  Bq   Isotropic =     0.4959   Anisotropy =    12.6535
   XX=     1.8268   YX=    -2.4227   ZX=    -1.2846
   XY=    -1.3622   YY=     6.4554   ZY=     0.6935
   XZ=    -4.7991   YZ=     8.3527   ZZ=    -6.7946
   Eigenvalues:    -8.7361     1.2922     8.9316
     84  Bq   Isotropic =     1.9973   Anisotropy =    12.9129
   XX=    10.0574   YX=    -1.5606   ZX=     2.8120
   XY=     1.2907   YY=     7.0084   ZY=    -4.4213
   XZ=     2.7092   YZ=    -4.7562   ZZ=   -11.0739
   Eigenvalues:   -12.4844     7.8704    10.6059
     85  Bq   Isotropic =     1.4036   Anisotropy =    12.0268
   XX=     7.0407   YX=    -2.6939   ZX=    -0.7436
   XY=    -0.7198   YY=     7.9376   ZY=    -2.2600
   XZ=    -4.0880   YZ=     3.0918   ZZ=   -10.7675
   Eigenvalues:   -11.0913     5.8806     9.4215
     86  Bq   Isotropic =     0.7596   Anisotropy =    12.2548
   XX=     4.9587   YX=    -3.1071   ZX=    -0.9845
   XY=    -1.4287   YY=     7.1696   ZY=    -1.3135
   XZ=    -4.0157   YZ=     4.1119   ZZ=    -9.8495
   Eigenvalues:   -10.3203     3.6695     8.9295
     87  Bq   Isotropic =     1.1617   Anisotropy =    12.3502
   XX=     7.1131   YX=    -3.2030   ZX=    -0.1834
   XY=    -1.0972   YY=     7.3377   ZY=    -2.4995
   XZ=    -2.6762   YZ=     1.3756   ZZ=   -10.9657
   Eigenvalues:   -11.1073     5.1972     9.3951
     88  Bq   Isotropic =     0.5747   Anisotropy =    12.2681
   XX=     3.9083   YX=    -2.9842   ZX=    -1.1685
   XY=    -1.5004   YY=     6.9556   ZY=    -0.7381
   XZ=    -4.3086   YZ=     5.2532   ZZ=    -9.1398
   Eigenvalues:    -9.8829     2.8536     8.7534
     89  Bq   Isotropic =     1.3401   Anisotropy =    12.5077
   XX=     8.0167   YX=    -3.1408   ZX=     0.4542
   XY=    -0.8294   YY=     7.2665   ZY=    -3.0525
   XZ=    -1.5885   YZ=    -0.1419   ZZ=   -11.2630
   Eigenvalues:   -11.4277     5.7694     9.6785
     90  Bq   Isotropic =     0.4162   Anisotropy =    12.2724
   XX=     2.9597   YX=    -2.8344   ZX=    -1.2453
   XY=    -1.5234   YY=     6.6759   ZY=    -0.2052
   XZ=    -4.4139   YZ=     6.2173   ZZ=    -8.3871
   Eigenvalues:    -9.4333     2.0841     8.5977
     91  Bq   Isotropic =     1.4712   Anisotropy =    12.7046
   XX=     8.6449   YX=    -2.9899   ZX=     1.2182
   XY=    -0.5052   YY=     7.0818   ZY=    -3.5401
   XZ=    -0.2634   YZ=    -1.6835   ZZ=   -11.3130
   Eigenvalues:   -11.6793     6.1520     9.9410
     92  Bq   Isotropic =     0.2884   Anisotropy =    12.2410
   XX=     2.1401   YX=    -2.6712   ZX=    -1.2462
   XY=    -1.5100   YY=     6.3474   ZY=     0.2705
   XZ=    -4.3848   YZ=     7.0006   ZZ=    -7.6224
   Eigenvalues:    -8.9812     1.3973     8.4490
     93  Bq   Isotropic =     1.5340   Anisotropy =    12.8651
   XX=     8.8967   YX=    -2.7531   ZX=     2.0440
   XY=    -0.1486   YY=     6.7838   ZY=    -3.9408
   XZ=     1.2051   YZ=    -3.1833   ZZ=   -11.0786
   Eigenvalues:   -11.8476     6.3388    10.1107
     94  Bq   Isotropic =     0.1916   Anisotropy =    12.1593
   XX=     1.4556   YX=    -2.5047   ZX=    -1.1981
   XY=    -1.4710   YY=     5.9869   ZY=     0.6806
   XZ=    -4.2676   YZ=     7.6096   ZZ=    -6.8678
   Eigenvalues:    -8.5336     0.8106     8.2978
     95  Bq   Isotropic =     1.5171   Anisotropy =    12.9240
   XX=     8.7236   YX=    -2.4471   ZX=     2.8445
   XY=     0.2072   YY=     6.3806   ZY=    -4.2456
   XZ=     2.6859   YZ=    -4.5797   ZZ=   -10.5528
   Eigenvalues:   -11.9194     6.3377    10.1331
     96  Bq   Isotropic =     0.9608   Anisotropy =    12.2698
   XX=     6.0559   YX=    -3.1862   ZX=    -0.6630
   XY=    -1.2969   YY=     7.3017   ZY=    -1.9097
   XZ=    -3.4838   YZ=     2.8091   ZZ=   -10.4753
   Eigenvalues:   -10.7331     4.4747     9.1406
     97  Bq   Isotropic =    19.9673   Anisotropy =    40.0993
   XX=     0.1601   YX=    21.0266   ZX=     3.5899
   XY=    13.7449   YY=    16.9625   ZY=     4.7788
   XZ=   -17.7659   YZ=    16.7700   ZZ=    42.7793
   Eigenvalues:   -13.2355    26.4371    46.7001
     98  Bq   Isotropic =    11.5416   Anisotropy =    45.2561
   XX=    -8.4997   YX=    23.5891   ZX=   -10.2534
   XY=    20.3642   YY=     9.3601   ZY=    13.8411
   XZ=   -19.2856   YZ=    17.1896   ZZ=    33.7645
   Eigenvalues:   -30.1758    23.0883    41.7124
     99  Bq   Isotropic =    24.7555   Anisotropy =    35.8380
   XX=     6.7983   YX=    16.8028   ZX=     6.7535
   XY=     9.8578   YY=    21.7577   ZY=     3.1095
   XZ=   -13.9923   YZ=    14.6125   ZZ=    45.7106
   Eigenvalues:    -2.2396    27.8587    48.6475
    100  Bq   Isotropic =    11.5703   Anisotropy =    43.4216
   XX=    -6.0585   YX=    20.7445   ZX=   -17.2041
   XY=    21.1841   YY=    10.3511   ZY=    18.4787
   XZ=   -16.2240   YZ=    15.0104   ZZ=    30.4183
   Eigenvalues:   -29.4463    23.6391    40.5180
    101  Bq   Isotropic =    27.6566   Anisotropy =    32.4918
   XX=    11.6867   YX=    12.3260   ZX=     7.2738
   XY=     6.7696   YY=    24.5082   ZY=     3.4885
   XZ=    -9.6679   YZ=    12.0957   ZZ=    46.7749
   Eigenvalues:     6.0263    27.6258    49.3178
    102  Bq   Isotropic =    14.4207   Anisotropy =    39.1163
   XX=     0.2013   YX=    16.2040   ZX=   -21.1194
   XY=    19.9854   YY=    14.0295   ZY=    21.1272
   XZ=   -11.8228   YZ=    12.3034   ZZ=    29.0312
   Eigenvalues:   -22.6180    25.3818    40.4982
    103  Bq   Isotropic =    28.3017   Anisotropy =    30.5118
   XX=    14.0263   YX=     8.4981   ZX=     6.1676
   XY=     4.7704   YY=    24.6742   ZY=     5.0943
   XZ=    -5.6341   YZ=     9.6755   ZZ=    46.2047
   Eigenvalues:    10.5793    25.6829    48.6429
    104  Bq   Isotropic =    18.2334   Anisotropy =    34.1844
   XX=     7.3663   YX=    11.4348   ZX=   -21.3976
   XY=    17.3474   YY=    18.1432   ZY=    21.5134
   XZ=    -7.5942   YZ=    10.2201   ZZ=    29.1908
   Eigenvalues:   -13.1251    26.8023    41.0230
    105  Bq   Isotropic =    27.1189   Anisotropy =    29.6203
   XX=    14.1657   YX=     5.6525   ZX=     4.4250
   XY=     3.7304   YY=    22.7282   ZY=     7.0736
   XZ=    -2.3144   YZ=     7.5344   ZZ=    44.4630
   Eigenvalues:    11.9580    22.5330    46.8658
    106  Bq   Isotropic =    21.2473   Anisotropy =    30.2333
   XX=    12.9085   YX=     7.4578   ZX=   -18.9685
   XY=    14.0477   YY=    20.8953   ZY=    20.3281
   XZ=    -4.6306   YZ=     9.3826   ZZ=    29.9382
   Eigenvalues:    -4.4332    26.7723    41.4028
    107  Bq   Isotropic =    14.8214   Anisotropy =    43.8455
   XX=    -5.9198   YX=    23.6590   ZX=    -2.4917
   XY=    17.6125   YY=    12.0023   ZY=     8.6775
   XZ=   -19.8327   YZ=    17.8319   ZZ=    38.3818
   Eigenvalues:   -23.9169    24.3293    44.0518
    108  Bq   Isotropic =    20.9295   Anisotropy =    34.7660
   XX=     7.5444   YX=    19.4250   ZX=     0.9895
   XY=    11.0365   YY=    14.7088   ZY=     4.4247
   XZ=   -18.2771   YZ=    14.6473   ZZ=    40.5353
   Eigenvalues:    -7.8596    26.5413    44.1069
    109  Bq   Isotropic =    15.1790   Anisotropy =    36.6071
   XX=     3.6150   YX=    21.8534   ZX=    -8.9309
   XY=    16.1356   YY=     9.3160   ZY=    11.6140
   XZ=   -18.1225   YZ=    15.0436   ZZ=    32.6061
   Eigenvalues:   -19.6204    25.5738    39.5838
    110  Bq   Isotropic =    24.0807   Anisotropy =    32.5220
   XX=    10.7615   YX=    15.7360   ZX=     3.5062
   XY=     8.2265   YY=    18.3429   ZY=     3.2569
   XZ=   -15.1626   YZ=    13.1536   ZZ=    43.1376
   Eigenvalues:    -0.1402    26.6201    45.7620
    111  Bq   Isotropic =    14.9481   Anisotropy =    34.6714
   XX=     5.3794   YX=    19.5845   ZX=   -13.7924
   XY=    17.0999   YY=    10.0466   ZY=    15.5979
   XZ=   -14.4446   YZ=    13.6807   ZZ=    29.4184
   Eigenvalues:   -19.2334    26.0155    38.0624
    112  Bq   Isotropic =    25.9074   Anisotropy =    30.7527
   XX=    12.9278   YX=    11.7659   ZX=     4.1579
   XY=     6.0120   YY=    20.6388   ZY=     3.7898
   XZ=   -11.1659   YZ=    11.3633   ZZ=    44.1555
   Eigenvalues:     5.7537    25.5593    46.4091
    113  Bq   Isotropic =    16.5929   Anisotropy =    31.4589
   XX=     9.2357   YX=    15.7266   ZX=   -16.5789
   XY=    16.6222   YY=    12.7172   ZY=    18.2130
   XZ=    -9.6120   YZ=    11.9135   ZZ=    27.8259
   Eigenvalues:   -14.5763    26.7895    37.5655
    114  Bq   Isotropic =    26.1117   Anisotropy =    29.7973
   XX=    13.5521   YX=     8.2801   ZX=     3.5665
   XY=     4.5749   YY=    21.0433   ZY=     5.3595
   XZ=    -7.1730   YZ=     9.5750   ZZ=    43.7397
   Eigenvalues:     9.0061    23.3525    45.9765
    115  Bq   Isotropic =    19.0039   Anisotropy =    28.2990
   XX=    13.4992   YX=    11.4466   ZX=   -16.8231
   XY=    14.9485   YY=    15.8306   ZY=    19.0677
   XZ=    -5.0977   YZ=    10.5021   ZZ=    27.6821
   Eigenvalues:    -7.8588    27.0007    37.8699
    116  Bq   Isotropic =    24.9572   Anisotropy =    29.4686
   XX=    12.8414   YX=     5.6045   ZX=     2.4165
   XY=     3.8210   YY=    19.7638   ZY=     7.2496
   XZ=    -3.7212   YZ=     7.9212   ZZ=    42.2665
   Eigenvalues:     9.9004    20.3683    44.6030
    117  Bq   Isotropic =    20.9888   Anisotropy =    26.0778
   XX=    16.6092   YX=     7.6740   ZX=   -15.0606
   XY=    12.5401   YY=    18.0853   ZY=    18.5264
   XZ=    -1.9860   YZ=     9.9315   ZZ=    28.2718
   Eigenvalues:    -1.5206    26.1130    38.3739
    118  Bq   Isotropic =    17.4877   Anisotropy =    36.5046
   XX=     4.6147   YX=    21.7604   ZX=    -3.4566
   XY=    13.9150   YY=    11.1446   ZY=     7.4449
   XZ=   -19.4826   YZ=    15.3962   ZZ=    36.7037
   Eigenvalues:   -15.2613    25.9003    41.8241
    119  Bq   Isotropic =    21.8552   Anisotropy =    31.1333
   XX=    13.3166   YX=    15.5514   ZX=    -0.4292
   XY=     7.0083   YY=    13.7849   ZY=     5.2474
   XZ=   -18.1976   YZ=    12.7004   ZZ=    38.4641
   Eigenvalues:    -1.8776    24.8325    42.6107
    120  Bq   Isotropic =    18.2901   Anisotropy =    30.4921
   XX=    12.7692   YX=    17.1841   ZX=    -6.8064
   XY=    10.4516   YY=    10.2294   ZY=    10.3158
   XZ=   -16.8878   YZ=    12.8675   ZZ=    31.8717
   Eigenvalues:    -9.0695    25.3216    38.6181
    121  Bq   Isotropic =    23.6223   Anisotropy =    30.2747
   XX=    13.9809   YX=    12.8245   ZX=     1.2679
   XY=     5.3861   YY=    16.2325   ZY=     4.4915
   XZ=   -15.6535   YZ=    11.7557   ZZ=    40.6536
   Eigenvalues:     2.8569    24.2046    43.8055
    122  Bq   Isotropic =    17.9364   Anisotropy =    28.1928
   XX=    14.0675   YX=    15.3988   ZX=    -9.9386
   XY=    11.4723   YY=    10.6494   ZY=    13.2653
   XZ=   -12.8596   YZ=    12.0023   ZZ=    29.0924
   Eigenvalues:    -8.8216    25.8993    36.7316
    123  Bq   Isotropic =    24.4687   Anisotropy =    29.5649
   XX=    14.0158   YX=     9.7879   ZX=     1.7718
   XY=     4.2130   YY=    17.8352   ZY=     4.9897
   XZ=   -12.0389   YZ=    10.5467   ZZ=    41.5551
   Eigenvalues:     6.4315    22.7960    44.1787
    124  Bq   Isotropic =    18.7007   Anisotropy =    25.4146
   XX=    16.2158   YX=    12.3746   ZX=   -11.8135
   XY=    11.6495   YY=    12.3478   ZY=    15.3672
   XZ=    -7.7935   YZ=    10.9147   ZZ=    27.5385
   Eigenvalues:    -5.8985    26.3568    35.6438
    125  Bq   Isotropic =    24.2033   Anisotropy =    29.2760
[...]
   144  Bq   0.000000
   145  Bq   0.000000
   146  Bq   0.000000
   147  Bq   0.000000
   148  Bq   0.000000
   149  Bq   0.000000
   150  Bq   0.000000
   151  Bq   0.000000
   152  Bq   0.000000
   153  Bq   0.000000
   154  Bq   0.000000
   155  Bq   0.000000
   156  Bq   0.000000
   157  Bq   0.000000
   158  Bq   0.000000
   159  Bq   0.000000
   160  Bq   0.000000
   161  Bq   0.000000
   162  Bq   0.000000
   163  Bq   0.000000
   164  Bq   0.000000
   165  Bq   0.000000
   166  Bq   0.000000
   167  Bq   0.000000
   168  Bq   0.000000
   169  Bq   0.000000
   170  Bq   0.000000
   171  Bq   0.000000
   172  Bq   0.000000
   173  Bq   0.000000
   174  Bq   0.000000
   175  Bq   0.000000
   176  Bq   0.000000
   177  Bq   0.000000
   178  Bq   0.000000
   179  Bq   0.000000
   180  Bq   0.000000
   181  Bq   0.000000
   182  Bq   0.000000
   183  Bq   0.000000
   184  Bq   0.000000
   185  Bq   0.000000
   186  Bq   0.000000
   187  Bq   0.000000
   188  Bq   0.000000
   189  Bq   0.000000
   190  Bq   0.000000
   191  Bq   0.000000
   192  Bq   0.000000
   193  Bq   0.000000
   194  Bq   0.000000
   195  Bq   0.000000
   196  Bq   0.000000
   197  Bq   0.000000
   198  Bq   0.000000
   199  Bq   0.000000
   200  Bq   0.000000
   201  Bq   0.000000
   202  Bq   0.000000
   203  Bq   0.000000
   204  Bq   0.000000
   205  Bq   0.000000
   206  Bq   0.000000
   207  Bq   0.000000
   208  Bq   0.000000
   209  Bq   0.000000
   210  Bq   0.000000
   211  Bq   0.000000
   212  Bq   0.000000
   213  Bq   0.000000
   214  Bq   0.000000
   215  Bq   0.000000
   216  Bq   0.000000
   217  Bq   0.000000
   218  Bq   0.000000
   219  Bq   0.000000
   220  Bq   0.000000
   221  Bq   0.000000
   222  Bq   0.000000
   223  Bq   0.000000
   224  Bq   0.000000
   225  Bq   0.000000
   226  Bq   0.000000
   227  Bq   0.000000
   228  Bq   0.000000
   229  Bq   0.000000
   230  Bq   0.000000
   231  Bq   0.000000
   232  Bq   0.000000
   233  Bq   0.000000
   234  Bq   0.000000
   235  Bq   0.000000
   236  Bq   0.000000
 Sum of Mulliken charges =   0.00000
 Mulliken charges with hydrogens summed into heavy atoms:
               1
     1  C   -0.255498
     3  C    0.169409
     5  C    0.448258
     6  C    0.064351
     7  C   -0.333926
     9  C   -0.139521
    11  C   -0.205988
    13  C   -0.235853
    15  C    0.653397
    16  C    0.034822
    17  C   -0.317410
    19  C   -0.316854
    21  C    0.651066
    22  C    0.037784
    23  C   -0.117289
    25  C   -0.205316
    27  C    0.448331
    28  C    0.061983
    29  C   -0.333381
    31  C   -0.139505
    33  C   -0.255977
    35  C    0.170579
    37  Bq   0.000000
    38  Bq   0.000000
    39  Bq   0.000000
    40  Bq   0.000000
    41  Bq   0.000000
    42  Bq   0.000000
    43  Bq   0.000000
    44  Bq   0.000000
    45  Bq   0.000000
    46  Bq   0.000000
    47  Bq   0.000000
    48  Bq   0.000000
    49  Bq   0.000000
    50  Bq   0.000000
    51  Bq   0.000000
    52  Bq   0.000000
    53  Bq   0.000000
    54  Bq   0.000000
    55  Bq   0.000000
    56  Bq   0.000000
    57  Bq   0.000000
    58  Bq   0.000000
    59  Bq   0.000000
    60  Bq   0.000000
    61  Bq   0.000000
    62  Bq   0.000000
    63  Bq   0.000000
    64  Bq   0.000000
    65  Bq   0.000000
    66  Bq   0.000000
    67  Bq   0.000000
    68  Bq   0.000000
    69  Bq   0.000000
    70  Bq   0.000000
    71  Bq   0.000000
    72  Bq   0.000000
    73  Bq   0.000000
    74  Bq   0.000000
    75  Bq   0.000000
    76  Bq   0.000000
    77  Bq   0.000000
    78  Bq   0.000000
    79  Bq   0.000000
    80  Bq   0.000000
    81  Bq   0.000000
    82  Bq   0.000000
    83  Bq   0.000000
    84  Bq   0.000000
    85  Bq   0.000000
    86  Bq   0.000000
    87  Bq   0.000000
    88  Bq   0.000000
    89  Bq   0.000000
    90  Bq   0.000000
    91  Bq   0.000000
    92  Bq   0.000000
    93  Bq   0.116538
    94  Bq   0.000000
    95  Bq   0.000000
    96  Bq   0.000000
    97  Bq   0.000000
    98  Bq   0.000000
    99  Bq   0.000000
   100  Bq   0.000000
   101  Bq   0.000000
   102  Bq   0.000000
   103  Bq   0.000000
   104  Bq   0.000000
   105  Bq   0.000000
   106  Bq   0.000000
   107  Bq   0.000000
   108  Bq   0.000000
   109  Bq   0.000000
   110  Bq   0.000000
   111  Bq   0.000000
   112  Bq   0.000000
   113  Bq   0.000000
   114  Bq   0.000000
   115  Bq   0.000000
   116  Bq   0.000000
   117  Bq   0.000000
   118  Bq   0.000000
   119  Bq   0.000000
   120  Bq   0.000000
   121  Bq   0.000000
   122  Bq   0.000000
   123  Bq   0.000000
   124  Bq   0.000000
   125  Bq   0.000000
   126  Bq   0.000000
   127  Bq   0.000000
   128  Bq   0.000000
   129  Bq   0.000000
   130  Bq   0.000000
   131  Bq   0.000000
   132  Bq   0.000000
   133  Bq   0.000000
   134  Bq   0.000000
   135  Bq   0.000000
   136  Bq   0.000000
   137  Bq   0.000000
   138  Bq   0.000000
   139  Bq   0.000000
   140  Bq   0.000000
   141  Bq   0.000000
   142  Bq   0.000000
   143  Bq   0.000000
   144  Bq   0.000000
   145  Bq   0.000000
   146  Bq   0.000000
   147  Bq   0.000000
   148  Bq   0.000000
   149  Bq   0.000000
   150  Bq   0.000000
   151  Bq   0.000000
   152  Bq   0.000000
   153  Bq   0.000000
   154  Bq   0.000000
   155  Bq   0.000000
   156  Bq   0.000000
   157  Bq   0.000000
   158  Bq   0.000000
   159  Bq   0.000000
   160  Bq   0.000000
   161  Bq   0.000000
   162  Bq   0.000000
   163  Bq   0.000000
   164  Bq   0.000000
   165  Bq   0.000000
   166  Bq   0.000000
   167  Bq   0.000000
   168  Bq   0.000000
   169  Bq   0.000000
   170  Bq   0.000000
   171  Bq   0.000000
   172  Bq   0.000000
   173  Bq   0.000000
   174  Bq   0.000000
   175  Bq   0.000000
   176  Bq   0.000000
   177  Bq   0.000000
   178  Bq   0.000000
   179  Bq   0.000000
   180  Bq   0.000000
   181  Bq   0.000000
   182  Bq   0.000000
   183  Bq   0.000000
   184  Bq   0.000000
   185  Bq   0.000000
   186  Bq   0.000000
   187  Bq   0.000000
   188  Bq   0.000000
   189  Bq   0.000000
   190  Bq   0.000000
   191  Bq   0.000000
   192  Bq   0.000000
   193  Bq   0.000000
   194  Bq   0.000000
   195  Bq   0.000000
   196  Bq   0.000000
   197  Bq   0.000000
   198  Bq   0.000000
   199  Bq   0.000000
   200  Bq   0.000000
   201  Bq   0.000000
   202  Bq   0.000000
   203  Bq   0.000000
   204  Bq   0.000000
   205  Bq   0.000000
   206  Bq   0.000000
   207  Bq   0.000000
   208  Bq   0.000000
   209  Bq   0.000000
   210  Bq   0.000000
   211  Bq   0.000000
   212  Bq   0.000000
   213  Bq   0.000000
   214  Bq   0.000000
   215  Bq   0.000000
   216  Bq   0.000000
   217  Bq   0.000000
   218  Bq   0.000000
   219  Bq   0.000000
   220  Bq   0.000000
   221  Bq   0.000000
   222  Bq   0.000000
   223  Bq   0.000000
   224  Bq   0.000000
   225  Bq   0.000000
   226  Bq   0.000000
   227  Bq   0.000000
   228  Bq   0.000000
   229  Bq   0.000000
   230  Bq   0.000000
   231  Bq   0.000000
   232  Bq   0.000000
   233  Bq   0.000000
   234  Bq   0.000000
   235  Bq   0.000000
   236  Bq   0.000000
 Electronic spatial extent (au):  <R**2>=           5736.9264
 Charge=              0.0000 electrons
 Dipole moment (field-independent basis, Debye):
    X=              0.0475    Y=              0.0856    Z=              0.0029  Tot=              0.0979
 Quadrupole moment (field-independent basis, Debye-Ang):
   XX=           -113.7056   YY=           -113.9456   ZZ=           -133.2669
   XY=             -0.3834   XZ=              3.2102   YZ=             -1.1839
 Traceless Quadrupole moment (field-independent basis, Debye-Ang):
   XX=              6.6005   YY=              6.3604   ZZ=            -12.9609
   XY=             -0.3834   XZ=              3.2102   YZ=             -1.1839
 Octapole moment (field-independent basis, Debye-Ang**2):
  XXX=            -16.4668  YYY=            -16.1860  ZZZ=             -1.7007  XYY=              2.5576
  XXY=             -6.5650  XXZ=             13.6547  XZZ=             -8.9478  YZZ=            -17.7168
  YYZ=            -13.2941  XYZ=              8.8036
 Hexadecapole moment (field-independent basis, Debye-Ang**3):
 XXXX=          -3951.1638 YYYY=          -3112.2161 ZZZZ=           -504.8311 XXXY=            340.6935
 XXXZ=            156.4968 YYYX=            335.5625 YYYZ=            -87.0893 ZZZX=            120.2262
 ZZZY=           -108.7373 XXYY=          -1176.4844 XXZZ=           -856.7291 YYZZ=           -665.7275
 XXYZ=            -68.9016 YYXZ=             48.1602 ZZXY=            153.0375
 N-N= 1.610917615562D+03 E-N=-5.186891130729D+03  KE= 8.436329774448D+02
 1\1\GINC-PLANA\SP\RB3LYP\6-311+G(d,p)\C22H14\YANNICK\21-Aug-2020\0\\# 
 rb3lyp/6-311+g** NMR geom=connectivity\\Title\\0,1\C,0,-4.0500558,-0.5
 771862,0.8136712\H,0,-5.0263804,-1.0082727,1.002476\C,0,-3.9381552,0.6
 617804,0.2400876\H,0,-4.8252424,1.233889,-0.0111295\C,0,-2.676841,1.24
 33246,0.0057578\C,0,-1.4974121,0.5051527,0.2848253\C,0,-1.6508332,-0.7
 338728,0.9404026\H,0,-0.7713646,-1.2730967,1.2633753\C,0,-2.8898548,-1
 .2624035,1.1994307\H,0,-2.9683706,-2.2124563,1.7152676\C,0,-2.5773185,
 2.5963696,-0.419293\H,0,-3.4870728,3.1412239,-0.6474055\C,0,-1.3741895
 ,3.2147896,-0.436403\H,0,-1.2997315,4.2742019,-0.6578144\C,0,-0.171948
 8,2.499409,-0.1734588\C,0,-0.2043917,1.1018437,0.0192689\C,0,1.0513491
 ,3.204256,-0.0676222\H,0,1.0427344,4.2819499,-0.1896997\C,0,2.1942091,
 2.5487446,0.2579577\H,0,3.1168527,3.0912848,0.4334727\C,0,2.2216473,1.
 1336562,0.293499\C,0,1.0486931,0.3945528,0.0302412\C,0,3.4483363,0.461
 4633,0.5573939\H,0,4.3095794,1.0606054,0.8334846\C,0,3.5427346,-0.8855
 926,0.4749463\H,0,4.4731467,-1.3939704,0.7038822\C,0,2.4490052,-1.6474
 447,-0.0196319\C,0,1.2150704,-1.0057258,-0.3013573\C,0,0.2531113,-1.74
 3444,-1.0216591\H,0,-0.6541356,-1.2535051,-1.3462847\C,0,0.4494193,-3.
 0628597,-1.3413779\H,0,-0.3083162,-3.5944309,-1.905406\C,0,1.6251726,-
 3.7207967,-0.9552541\H,0,1.7670048,-4.7687404,-1.1927019\C,0,2.6109872
 ,-3.0144177,-0.318305\H,0,3.5525612,-3.4902813,-0.0646367\Bq,0,-2.1315
 857036,4.0198886952,0.2335457772\Bq,0,-2.100849853,3.8234941562,-0.541
 3635675\Bq,0,-2.135427685,4.0444380125,0.3304094453\Bq,0,-2.0970078717
 ,3.7989448388,-0.6382272356\Bq,0,-2.1162177783,3.9216914257,-0.1539088
 951\Bq,0,-2.1190868054,4.043180575,-0.0815752565\Bq,0,-2.1114028428,3.
 9940819402,-0.2753025927\Bq,0,-2.1229287868,4.0677298924,0.0152884116\
 Bq,0,-2.1075608614,3.9695326228,-0.3721662607\Bq,0,-2.1267707681,4.092
 2792097,0.1121520797\Bq,0,-2.1037188801,3.9449833055,-0.4690299288\Bq,
 0,-2.1306127494,4.1168285271,0.2090157478\Bq,0,-2.0998768988,3.9204339
 881,-0.5658935969\Bq,0,-2.1344547307,4.1413778445,0.3058794159\Bq,0,-2
 .0960349175,3.8958846707,-0.662757265\Bq,0,-2.1152448241,4.0186312576,
 -0.1784389246\Bq,0,-2.1181138512,4.1401204069,-0.1061052859\Bq,0,-2.11
 04298885,4.0910217722,-0.2998326221\Bq,0,-2.1219558325,4.1646697243,-0
 .0092416178\Bq,0,-2.1065879072,4.0664724548,-0.3966962902\Bq,0,-2.1257
 978139,4.1892190417,0.0876220503\Bq,0,-2.1027459259,4.0419231374,-0.49
 35599583\Bq,0,-2.1296397952,4.213768359,0.1844857184\Bq,0,-2.098903944
 6,4.01737382,-0.5904236264\Bq,0,-2.1334817765,4.2383176764,0.281349386
 5\Bq,0,-2.0950619632,3.9928245027,-0.6872872944\Bq,0,-2.1142718699,4.1
 155710895,-0.202968954\Bq,0,-2.117140897,4.2370602389,-0.1306353153\Bq
 ,0,-2.1094569343,4.1879616041,-0.3243626515\Bq,0,-2.1209828783,4.26160
 95562,-0.0337716472\Bq,0,-2.105614953,4.1634122867,-0.4212263196\Bq,0,
 -2.1248248596,4.2861588736,0.0630920208\Bq,0,-2.1017729717,4.138862969
 4,-0.5180899877\Bq,0,-2.128666841,4.310708191,0.1599556889\Bq,0,-2.097
 9309903,4.114313652,-0.6149536558\Bq,0,-2.1325088223,4.3352575084,0.25
 6819357\Bq,0,-2.094089009,4.0897643346,-0.7118173239\Bq,0,-2.113298915
 6,4.2125109215,-0.2274989834\Bq,0,-2.1161679428,4.3340000708,-0.155165
 3448\Bq,0,-2.1084839801,4.284901436,-0.3488926809\Bq,0,-2.1200099241,4
 .3585493882,-0.0583016767\Bq,0,-2.1046419988,4.2603521187,-0.445756349
 \Bq,0,-2.1238519054,4.3830987055,0.0385619914\Bq,0,-2.1008000174,4.235
 8028013,-0.5426200171\Bq,0,-2.1276938867,4.4076480229,0.1354256595\Bq,
 0,-2.0969580361,4.2112534839,-0.6394836852\Bq,0,-2.1315358681,4.432197
 3403,0.2322893276\Bq,0,-2.0931160548,4.1867041665,-0.7363473533\Bq,0,-
 2.1123259614,4.3094507534,-0.2520290128\Bq,0,-2.1151949885,4.430939902
 7,-0.1796953742\Bq,0,-2.1075110259,4.381841268,-0.3734227104\Bq,0,-2.1
 190369699,4.4554892201,-0.0828317061\Bq,0,-2.1036690445,4.3572919506,-
 0.4702863785\Bq,0,-2.1228789512,4.4800385375,0.014031962\Bq,0,-2.09982
 70632,4.3327426332,-0.5671500465\Bq,0,-2.1267209325,4.5045878549,0.110
 8956301\Bq,0,-2.0959850819,4.3081933159,-0.6640137146\Bq,0,-2.13056291
 38,4.5291371722,0.2077592982\Bq,0,-2.0921431006,4.2836439985,-0.760877
 3827\Bq,0,-2.1113530072,4.4063905854,-0.2765590423\Bq,0,-2.0639212679,
 -0.4160516942,1.050769361\Bq,0,-2.0562373053,-0.465150329,0.8570420249
 \Bq,0,-2.0677632492,-0.3915023768,1.1476330291\Bq,0,-2.0523953239,-0.4
 896996464,0.7601783568\Bq,0,-2.0716052306,-0.3669530595,1.2444966972\B
 q,0,-2.0485533426,-0.5142489637,0.6633146887\Bq,0,-2.0754472119,-0.342
 4037421,1.3413603653\Bq,0,-2.0447113613,-0.5387982811,0.5664510206\Bq,
 0,-2.0792891932,-0.3178544247,1.4382240334\Bq,0,-2.0408693799,-0.56334
 75985,0.4695873525\Bq,0,-2.0600792866,-0.4406010116,0.9539056929\Bq,0,
 -2.0629483137,-0.3191118623,1.0262393316\Bq,0,-2.055264351,-0.36821049
 7,0.8325119954\Bq,0,-2.066790295,-0.2945625449,1.1231029997\Bq,0,-2.05
 14223697,-0.3927598144,0.7356483273\Bq,0,-2.0706322764,-0.2700132275,1
 .2199666678\Bq,0,-2.0475803884,-0.4173091318,0.6387846592\Bq,0,-2.0744
 742577,-0.2454639102,1.3168303359\Bq,0,-2.043738407,-0.4418584492,0.54
 19209912\Bq,0,-2.078316239,-0.2209145928,1.413694004\Bq,0,-2.039896425
 7,-0.4664077665,0.4450573231\Bq,0,-2.0591063324,-0.3436611797,0.929375
 6635\Bq,0,-2.0619753595,-0.2221720303,1.0017093022\Bq,0,-2.0542913968,
 -0.2712706651,0.807981966\Bq,0,-2.0658173408,-0.197622713,1.0985729703
 \Bq,0,-2.0504494155,-0.2958199825,0.7111182979\Bq,0,-2.0696593221,-0.1
 730733956,1.1954366384\Bq,0,-2.0466074342,-0.3203692998,0.6142546298\B
 q,0,-2.0735013035,-0.1485240782,1.2923003064\Bq,0,-2.0427654528,-0.344
 9186172,0.5173909617\Bq,0,-2.0773432848,-0.1239747608,1.3891639745\Bq,
 0,-2.0389234715,-0.3694679346,0.4205272936\Bq,0,-2.0581333781,-0.24672
 13477,0.9048456341\Bq,0,-2.0610024052,-0.1252321984,0.9771792728\Bq,0,
 -2.0533184426,-0.1743308332,0.7834519366\Bq,0,-2.0648443866,-0.1006828
 81,1.0740429408\Bq,0,-2.0494764613,-0.1988801505,0.6865882685\Bq,0,-2.
 0686863679,-0.0761335637,1.1709066089\Bq,0,-2.0456344799,-0.2234294679
 ,0.5897246004\Bq,0,-2.0725283492,-0.0515842463,1.267770277\Bq,0,-2.041
 7924986,-0.2479787853,0.4928609323\Bq,0,-2.0763703306,-0.0270349289,1.
 3646339451\Bq,0,-2.0379505173,-0.2725281027,0.3959972642\Bq,0,-2.05716
 04239,-0.1497815158,0.8803156047\Bq,0,-2.060029451,-0.0282923665,0.952
 6492433\Bq,0,-2.0523454884,-0.0773910012,0.7589219071\Bq,0,-2.06387143
 23,-0.0037430491,1.0495129114\Bq,0,-2.048503507,-0.1019403186,0.662058
 2391\Bq,0,-2.0677134137,0.0208062683,1.1463765795\Bq,0,-2.0446615257,-
 0.126489636,0.565194571\Bq,0,-2.071555395,0.0453555857,1.2432402476\Bq
 ,0,-2.0408195444,-0.1510389533,0.4683309029\Bq,0,-2.0753973763,0.06990
 4903,1.3401039157\Bq,0,-2.036977563,-0.1755882707,0.3714672348\Bq,0,-2
 .0561874697,-0.0528416838,0.8557855752\Bq,0,-2.0590564968,0.0686474655
 ,0.9281192139\Bq,0,-2.0513725341,0.0195488307,0.7343918777\Bq,0,-2.062
 8984781,0.0931967828,1.024982882\Bq,0,-2.0475305528,-0.0050004867,0.63
 75282096\Bq,0,-2.0667404595,0.1177461002,1.1218465501\Bq,0,-2.04368857
 15,-0.029549804,0.5406645415\Bq,0,-2.0705824408,0.1422954176,1.2187102
 182\Bq,0,-2.0398465901,-0.0540991214,0.4438008734\Bq,0,-2.0744244221,0
 .166844735,1.3155738863\Bq,0,-2.0360046088,-0.0786484388,0.3469372054\
 Bq,0,-2.0552145155,0.0440981481,0.8312555458\Bq,0,-2.0580835426,0.1655
 872974,0.9035891845\Bq,0,-2.0503995799,0.1164886627,0.7098618483\Bq,0,
 -2.0619255239,0.1901366148,1.0004528526\Bq,0,-2.0465575986,0.091939345
 3,0.6129981802\Bq,0,-2.0657675052,0.2146859322,1.0973165207\Bq,0,-2.04
 27156173,0.0673900279,0.5161345121\Bq,0,-2.0696094866,0.2392352495,1.1
 941801887\Bq,0,-2.0388736359,0.0428407105,0.419270844\Bq,0,-2.07345146
 79,0.2637845669,1.2910438568\Bq,0,-2.0350316546,0.0182913932,0.3224071
 759\Bq,0,-2.0542415612,0.14103798,0.8067255164\Bq,0,-2.0571105883,0.26
 25271294,0.879059155\Bq,0,-2.0494266257,0.2134284946,0.6853318189\Bq,0
 ,-2.0609525697,0.2870764467,0.9759228231\Bq,0,-2.0455846444,0.18887917
 72,0.5884681508\Bq,0,-2.064794551,0.3116257641,1.0727864912\Bq,0,-2.04
 1742663,0.1643298598,0.4916044827\Bq,0,-2.0686365323,0.3361750815,1.16
 96501593\Bq,0,-2.0379006817,0.1397805425,0.3947408146\Bq,0,-2.07247851
 37,0.3607243989,1.2665138274\Bq,0,-2.0340587004,0.1152312251,0.2978771
 465\Bq,0,-2.053268607,0.237977812,0.782195487\Bq,0,-2.0561376341,0.359
 4669613,0.8545291256\Bq,0,-2.0484536715,0.3103683265,0.6608017894\Bq,0
 ,-2.0599796155,0.3840162787,0.9513927937\Bq,0,-2.0446116901,0.28581900
 92,0.5639381213\Bq,0,-2.0638215968,0.408565596,1.0482564618\Bq,0,-2.04
 07697088,0.2612696918,0.4670744533\Bq,0,-2.0676635781,0.4331149134,1.1
 451201299\Bq,0,-2.0369277275,0.2367203744,0.3702107852\Bq,0,-2.0715055
 594,0.4576642308,1.241983798\Bq,0,-2.0330857461,0.212171057,0.27334711
 71\Bq,0,-2.0522956528,0.3349176439,0.7576654575\Bq,0,-2.0551646799,0.4
 564067932,0.8299990962\Bq,0,-2.0474807172,0.4073081585,0.63627176\Bq,0
 ,-2.0590066612,0.4809561106,0.9268627643\Bq,0,-2.0436387359,0.38275884
 11,0.5394080919\Bq,0,-2.0628486426,0.505505428,1.0237264324\Bq,0,-2.03
 97967546,0.3582095237,0.4425444238\Bq,0,-2.0666906239,0.5300547454,1.1
 205901005\Bq,0,-2.0359547733,0.3336602064,0.3456807557\Bq,0,-2.0705326
 052,0.5546040627,1.2174537685\Bq,0,-2.0321127919,0.309110889,0.2488170
 876\Bq,0,-2.0513226986,0.4318574759,0.7331354281\Bq,0,-2.0541917257,0.
 5533466252,0.8054690668\Bq,0,-2.046507763,0.5042479904,0.6117417306\Bq
 ,0,-2.058033707,0.5778959425,0.9023327349\Bq,0,-2.0426657817,0.4796986
 73,0.5148780625\Bq,0,-2.0618756883,0.6024452599,0.9991964029\Bq,0,-2.0
 388238004,0.4551493557,0.4180143944\Bq,0,-2.0657176697,0.6269945773,1.
 096060071\Bq,0,-2.034981819,0.4306000383,0.3211507263\Bq,0,-2.06955965
 1,0.6515438947,1.1929237391\Bq,0,-2.0311398377,0.4060507209,0.22428705
 82\Bq,0,-2.0503497443,0.5287973078,0.7086053987\Bq,0,-2.0532187714,0.6
 502864571,0.7809390373\Bq,0,-2.0455348088,0.6011878224,0.5872117012\Bq
 ,0,-2.0570607528,0.6748357745,0.8778027054\Bq,0,-2.0416928275,0.576638
 505,0.4903480331\Bq,0,-2.0609027341,0.6993850919,0.9746663735\Bq,0,-2.
 0378508461,0.5520891876,0.393484365\Bq,0,-2.0647447154,0.7239344092,1.
 0715300416\Bq,0,-2.0340088648,0.5275398702,0.2966206969\Bq,0,-2.068586
 6968,0.7484837266,1.1683937097\Bq,0,-2.0301668835,0.5029905529,0.19975
 70288\Bq,0,-2.0493767901,0.6257371397,0.6840753692\Bq,0,-2.0522458172,
 0.747226289,0.7564090079\Bq,0,-2.0445618546,0.6981276543,0.5626816717\
 Bq,0,-2.0560877986,0.7717756064,0.853272676\Bq,0,-2.0407198732,0.67357
 83369,0.4658180036\Bq,0,-2.0599297799,0.7963249238,0.9501363441\Bq,0,-
 2.0368778919,0.6490290195,0.3689543355\Bq,0,-2.0637717612,0.8208742412
 ,1.0470000122\Bq,0,-2.0330359106,0.6244797022,0.2720906675\\Version=ES
 64L-G09RevD.01\HF=-847.0032898\RMSD=7.587e-09\Dipole=0.0186808,0.03366
 71,0.0011595\Quadrupole=4.9072795,4.7288219,-9.6361014,-0.2850201,2.38
 67064,-0.880172\PG=C01 [X(C22H14)]\\@


 IT PROBABLY IS NOT POSSIBLE FOR A SCIENTIST TO INTERROGATE NATURE 
 FROM A WHOLLY DISINTERESTED VIEWPOINT.
 EVEN IF HE HAS NO PARTICULAR AXE TO GRIND, HE IS LIKELY TO HAVE 
 A DISTINCTIVE WAY OF VIEWING NATURE.

                                                   -- JOHN LOSEE
 Job cpu time:       0 days  3 hours 55 minutes 33.0 seconds.
 File lengths (MBytes):  RWF=    184 Int=      0 D2E=      0 Chk=     19 Scr=      1
 Normal termination of Gaussian 09 at Fri Aug 21 22:47:23 2020.
