 Entering Gaussian System, Link 0=g09
 Input=input_cycle_05_batch_03800.com
 Output=input_cycle_05_batch_03800.log
 Initial command:
 /share/programs/GAUSSIAN/64/g09/l1.exe "/scratch/yannick.30684/Gau-3119845.inp" -scrdir="/scratch/yannick.30684/"
 Entering Link 1 = /share/programs/GAUSSIAN/64/g09/l1.exe PID=   3119846.
  
 Copyright (c) 1988,1990,1992,1993,1995,1998,2003,2009,2013,
            Gaussian, Inc.  All Rights Reserved.
  
 This is part of the Gaussian(R) 09 program.  It is based on
 the Gaussian(R) 03 system (copyright 2003, Gaussian, Inc.),
 the Gaussian(R) 98 system (copyright 1998, Gaussian, Inc.),
 the Gaussian(R) 94 system (copyright 1995, Gaussian, Inc.),
 the Gaussian 92(TM) system (copyright 1992, Gaussian, Inc.),
 the Gaussian 90(TM) system (copyright 1990, Gaussian, Inc.),
 the Gaussian 88(TM) system (copyright 1988, Gaussian, Inc.),
 the Gaussian 86(TM) system (copyright 1986, Carnegie Mellon
 University), and the Gaussian 82(TM) system (copyright 1983,
 Carnegie Mellon University). Gaussian is a federally registered
 trademark of Gaussian, Inc.
  
 This software contains proprietary and confidential information,
 including trade secrets, belonging to Gaussian, Inc.
  
 This software is provided under written license and may be
 used, copied, transmitted, or stored only in accord with that
 written license.
  
 The following legend is applicable only to US Government
 contracts under FAR:
  
                    RESTRICTED RIGHTS LEGEND
  
 Use, reproduction and disclosure by the US Government is
 subject to restrictions as set forth in subparagraphs (a)
 and (c) of the Commercial Computer Software - Restricted
 Rights clause in FAR 52.227-19.
  
 Gaussian, Inc.
 340 Quinnipiac St., Bldg. 40, Wallingford CT 06492
  
  
 ---------------------------------------------------------------
 Warning -- This program may not be used in any manner that
 competes with the business of Gaussian, Inc. or will provide
 assistance to any competitor of Gaussian, Inc.  The licensee
 of this program is prohibited from giving any competitor of
 Gaussian, Inc. access to this program.  By using this program,
 the user acknowledges that Gaussian, Inc. is engaged in the
 business of creating and licensing software in the field of
 computational chemistry and represents and warrants to the
 licensee that it is not a competitor of Gaussian, Inc. and that
 it will not use this program in any manner prohibited above.
 ---------------------------------------------------------------
  

 Cite this work as:
 Gaussian 09, Revision D.01,
 M. J. Frisch, G. W. Trucks, H. B. Schlegel, G. E. Scuseria, 
 M. A. Robb, J. R. Cheeseman, G. Scalmani, V. Barone, B. Mennucci, 
 G. A. Petersson, H. Nakatsuji, M. Caricato, X. Li, H. P. Hratchian, 
 A. F. Izmaylov, J. Bloino, G. Zheng, J. L. Sonnenberg, M. Hada, 
 M. Ehara, K. Toyota, R. Fukuda, J. Hasegawa, M. Ishida, T. Nakajima, 
 Y. Honda, O. Kitao, H. Nakai, T. Vreven, J. A. Montgomery, Jr., 
 J. E. Peralta, F. Ogliaro, M. Bearpark, J. J. Heyd, E. Brothers, 
 K. N. Kudin, V. N. Staroverov, T. Keith, R. Kobayashi, J. Normand, 
 K. Raghavachari, A. Rendell, J. C. Burant, S. S. Iyengar, J. Tomasi, 
 M. Cossi, N. Rega, J. M. Millam, M. Klene, J. E. Knox, J. B. Cross, 
 V. Bakken, C. Adamo, J. Jaramillo, R. Gomperts, R. E. Stratmann, 
 O. Yazyev, A. J. Austin, R. Cammi, C. Pomelli, J. W. Ochterski, 
 R. L. Martin, K. Morokuma, V. G. Zakrzewski, G. A. Voth, 
 P. Salvador, J. J. Dannenberg, S. Dapprich, A. D. Daniels, 
 O. Farkas, J. B. Foresman, J. V. Ortiz, J. Cioslowski, 
 and D. J. Fox, Gaussian, Inc., Wallingford CT, 2013.
 
 ******************************************
 Gaussian 09:  ES64L-G09RevD.01 24-Apr-2013
                23-Aug-2020 
 ******************************************
 %nproc=8
 Will use up to    8 processors via shared memory.
 %mem=1000MB
 ----------------------------------------
 # rb3lyp/6-311+g** NMR geom=connectivity
 ----------------------------------------
 1/38=1,57=2/1;
 2/12=2,17=6,18=5,40=1/2;
 3/5=4,6=6,7=111,11=2,16=1,25=1,30=1,74=-5,116=1/1,2,8,3;
 4//1;
 5/5=2,38=5/2;
 8/6=1,10=90,11=11/1;
 10/13=100,45=16/2;
 6/7=2,8=2,9=2,10=2,28=1/1;
 99/9=1/99;
 -----
 Title
 -----
 Symbolic Z-matrix:
 Charge =  0 Multiplicity = 1
 C                    -4.05006  -0.57719   0.81367 
 H                    -5.02638  -1.00827   1.00248 
 C                    -3.93816   0.66178   0.24009 
 H                    -4.82524   1.23389  -0.01113 
 C                    -2.67684   1.24332   0.00576 
 C                    -1.49741   0.50515   0.28483 
 C                    -1.65083  -0.73387   0.9404 
 H                    -0.77136  -1.2731    1.26338 
 C                    -2.88985  -1.2624    1.19943 
 H                    -2.96837  -2.21246   1.71527 
 C                    -2.57732   2.59637  -0.41929 
 H                    -3.48707   3.14122  -0.64741 
 C                    -1.37419   3.21479  -0.4364 
 H                    -1.29973   4.2742   -0.65781 
 C                    -0.17195   2.49941  -0.17346 
 C                    -0.20439   1.10184   0.01927 
 C                     1.05135   3.20426  -0.06762 
 H                     1.04273   4.28195  -0.1897 
 C                     2.19421   2.54874   0.25796 
 H                     3.11685   3.09128   0.43347 
 C                     2.22165   1.13366   0.2935 
 C                     1.04869   0.39455   0.03024 
 C                     3.44834   0.46146   0.55739 
 H                     4.30958   1.06061   0.83348 
 C                     3.54273  -0.88559   0.47495 
 H                     4.47315  -1.39397   0.70388 
 C                     2.44901  -1.64744  -0.01963 
 C                     1.21507  -1.00573  -0.30136 
 C                     0.25311  -1.74344  -1.02166 
 H                    -0.65414  -1.25351  -1.34628 
 C                     0.44942  -3.06286  -1.34138 
 H                    -0.30832  -3.59443  -1.90541 
 C                     1.62517  -3.7208   -0.95525 
 H                     1.767    -4.76874  -1.1927 
 C                     2.61099  -3.01442  -0.31831 
 H                     3.55256  -3.49028  -0.06464 
 Bq                   -4.68428   1.58138   0.68488 
 Bq                   -4.68216   1.32048   0.14457 
 Bq                   -4.68464   1.62486   0.77493 
 Bq                   -4.6818    1.277     0.05452 
 Bq                   -4.68499   1.66835   0.86498 
 Bq                   -4.68145   1.23352  -0.03553 
 Bq                   -4.68322   1.45093   0.41473 
 Bq                   -4.6834    1.58447   0.4613 
 Bq                   -4.6827    1.4975    0.28119 
 Bq                   -4.68376   1.62795   0.55135 
 Bq                   -4.68234   1.45402   0.19114 
 Bq                   -4.68411   1.67143   0.6414 
 Bq                   -4.68199   1.41054   0.10109 
 Bq                   -4.68447   1.71491   0.73145 
 Bq                   -4.68163   1.36705   0.01104 
 Bq                   -4.68482   1.7584    0.8215 
 Bq                   -4.68128   1.32357  -0.07901 
 Bq                   -4.68305   1.54098   0.37124 
 Bq                   -4.68323   1.67452   0.41781 
 Bq                   -4.68253   1.58755   0.23771 
 Bq                   -4.68359   1.718     0.50786 
 Bq                   -4.68217   1.54407   0.14766 
 Bq                   -4.68394   1.76148   0.59791 
 Bq                   -4.68182   1.50059   0.05761 
 Bq                   -4.6843    1.80497   0.68797 
 Bq                   -4.68146   1.4571   -0.03244 
 Bq                   -4.68465   1.84845   0.77802 
 Bq                   -4.68111   1.41362  -0.12249 
 Bq                   -4.68288   1.63104   0.32776 
 Bq                   -4.68306   1.76457   0.37433 
 Bq                   -4.68235   1.6776    0.19423 
 Bq                   -4.68342   1.80805   0.46438 
 Bq                   -4.682     1.63412   0.10418 
 Bq                   -4.68377   1.85153   0.55443 
 Bq                   -4.68165   1.59064   0.01413 
 Bq                   -4.68412   1.89502   0.64448 
 Bq                   -4.68129   1.54716  -0.07592 
 Bq                   -4.68448   1.9385    0.73453 
 Bq                   -4.68094   1.50367  -0.16597 
 Bq                   -4.68271   1.72109   0.28428 
 Bq                   -4.68289   1.85462   0.33085 
 Bq                   -4.68218   1.76766   0.15075 
 Bq                   -4.68325   1.8981    0.4209 
 Bq                   -4.68183   1.72417   0.0607 
 Bq                   -4.6836    1.94159   0.51095 
 Bq                   -4.68148   1.68069  -0.02935 
 Bq                   -4.68395   1.98507   0.601 
 Bq                   -4.68112   1.63721  -0.11941 
 Bq                   -4.68431   2.02855   0.69105 
 Bq                   -4.68077   1.59372  -0.20946 
 Bq                   -4.68254   1.81114   0.2408 
 Bq                   -4.68272   1.94467   0.28737 
 Bq                   -4.68201   1.85771   0.10726 
 Bq                   -4.68307   1.98815   0.37742 
 Bq                   -4.68166   1.81422   0.01721 
 Bq                   -4.68343   2.03164   0.46747 
 Bq                   -4.6813    1.77074  -0.07284 
 Bq                   -4.68378   2.07512   0.55752 
 Bq                   -4.68095   1.72726  -0.16289 
 Bq                   -4.68414   2.1186    0.64757 
 Bq                   -4.6806    1.68378  -0.25294 
 Bq                   -4.68237   1.90119   0.19732 
 Bq                   -4.68255   2.03472   0.24388 
 Bq                   -4.68184   1.94776   0.06378 
 Bq                   -4.6829    2.07821   0.33393 
 Bq                   -4.68149   1.90428  -0.02627 
 Bq                   -4.68326   2.12169   0.42398 
 Bq                   -4.68113   1.86079  -0.11632 
 Bq                   -4.68361   2.16517   0.51404 
 Bq                   -4.68078   1.81731  -0.20637 
 Bq                   -4.68397   2.20865   0.60409 
 Bq                   -4.68043   1.77383  -0.29642 
 Bq                   -4.6822    1.99124   0.15383 
 Bq                   -4.68238   2.12477   0.2004 
 Bq                   -4.68167   2.03781   0.0203 
 Bq                   -4.68273   2.16826   0.29045 
 Bq                   -4.68132   1.99433  -0.06975 
 Bq                   -4.68309   2.21174   0.3805 
 Bq                   -4.68096   1.95084  -0.1598 
 Bq                   -4.68344   2.25522   0.47055 
 Bq                   -4.68061   1.90736  -0.24985 
 Bq                   -4.68379   2.29871   0.5606 
 Bq                   -4.68025   1.86388  -0.3399 
 Bq                   -4.68202   2.08129   0.11035 
 Bq                   -4.68221   2.21483   0.15692 
 Bq                   -4.6815    2.12786  -0.02318 
 Bq                   -4.68256   2.25831   0.24697 
 Bq                   -4.68115   2.08438  -0.11323 
 Bq                   -4.68292   2.30179   0.33702 
 Bq                   -4.68079   2.0409   -0.20328 
 Bq                   -4.68327   2.34527   0.42707 
 Bq                   -4.68044   1.99741  -0.29333 
 Bq                   -4.68362   2.38876   0.51712 
 Bq                   -4.68008   1.95393  -0.38339 
 Bq                   -4.68185   2.17134   0.06687 
 Bq                   -4.68204   2.30488   0.11344 
 Bq                   -4.68133   2.21791  -0.06667 
 Bq                   -4.68239   2.34836   0.20349 
 Bq                   -4.68097   2.17443  -0.15672 
 Bq                   -4.68274   2.39184   0.29354 
 Bq                   -4.68062   2.13095  -0.24677 
 Bq                   -4.6831    2.43533   0.38359 
 Bq                   -4.68027   2.08746  -0.33682 
 Bq                   -4.68345   2.47881   0.47364 
 Bq                   -4.67991   2.04398  -0.42687 
 Bq                   -4.68168   2.26139   0.02339 
 Bq                   -4.68187   2.39493   0.06995 
 Bq                   -4.68116   2.30796  -0.11015 
 Bq                   -4.68222   2.43841   0.16 
 Bq                   -4.6808    2.26448  -0.2002 
 Bq                   -4.68257   2.48189   0.25006 
 Bq                   -4.68045   2.221    -0.29025 
 Bq                   -4.68293   2.52538   0.34011 
 Bq                   -4.6801    2.17752  -0.3803 
 Bq                   -4.68328   2.56886   0.43016 
 Bq                   -4.67974   2.13403  -0.47035 
 Bq                   -4.68151   2.35145  -0.0201 
 Bq                   -4.68169   2.48498   0.02647 
 Bq                   -4.68099   2.39801  -0.15363 
 Bq                   -4.68205   2.52846   0.11652 
 Bq                   -4.68063   2.35453  -0.24368 
 Bq                   -4.6824    2.57195   0.20657 
 Bq                   -4.68028   2.31105  -0.33373 
 Bq                   -4.68276   2.61543   0.29662 
 Bq                   -4.67992   2.26757  -0.42378 
 Bq                   -4.68311   2.65891   0.38667 
 Bq                   -4.67957   2.22408  -0.51383 
 Bq                   -4.68134   2.4415   -0.06358 
 Bq                   -4.59024  -2.01759   2.20098 
 Bq                   -4.58953  -2.10455   2.02088 
 Bq                   -4.5906   -1.97411   2.29103 
 Bq                   -4.58918  -2.14804   1.93083 
 Bq                   -4.59095  -1.93062   2.38109 
 Bq                   -4.58883  -2.19152   1.84078 
 Bq                   -4.5913   -1.88714   2.47114 
 Bq                   -4.58847  -2.235     1.75073 
 Bq                   -4.59166  -1.84366   2.56119 
 Bq                   -4.58812  -2.27849   1.66068 
 Bq                   -4.58989  -2.06107   2.11093 
 Bq                   -4.59007  -1.92754   2.1575 
 Bq                   -4.58936  -2.0145    1.9774 
 Bq                   -4.59043  -1.88406   2.24755 
 Bq                   -4.58901  -2.05799   1.88735 
 Bq                   -4.59078  -1.84057   2.3376 
 Bq                   -4.58866  -2.10147   1.7973 
 Bq                   -4.59113  -1.79709   2.42765 
 Bq                   -4.5883   -2.14495   1.70725 
 Bq                   -4.59149  -1.75361   2.5177 
 Bq                   -4.58795  -2.18843   1.6172 
 Bq                   -4.58972  -1.97102   2.06745 
 Bq                   -4.5899   -1.83749   2.11402 
 Bq                   -4.58919  -1.92445   1.93392 
 Bq                   -4.59025  -1.794     2.20407 
 Bq                   -4.58884  -1.96793   1.84387 
 Bq                   -4.59061  -1.75052   2.29412 
 Bq                   -4.58848  -2.01142   1.75382 
 Bq                   -4.59096  -1.70704   2.38417 
 Bq                   -4.58813  -2.0549    1.66377 
 Bq                   -4.59132  -1.66356   2.47422 
 Bq                   -4.58778  -2.09838   1.57371 
 Bq                   -4.58955  -1.88097   2.02397 
 Bq                   -4.58973  -1.74744   2.07054 
 Bq                   -4.58902  -1.8344    1.89044 
 Bq                   -4.59008  -1.70395   2.16059 
 Bq                   -4.58867  -1.87788   1.80038 
 Bq                   -4.59044  -1.66047   2.25064 
 Bq                   -4.58831  -1.92137   1.71033 
 Bq                   -4.59079  -1.61699   2.34069 
 Bq                   -4.58796  -1.96485   1.62028 
 Bq                   -4.59115  -1.5735    2.43074 
 Bq                   -4.58761  -2.00833   1.53023 
 Bq                   -4.58938  -1.79092   1.98049 
 Bq                   -4.58956  -1.65738   2.02705 
 Bq                   -4.58885  -1.74435   1.84695 
 Bq                   -4.58991  -1.6139    2.1171 
 Bq                   -4.5885   -1.78783   1.7569 
 Bq                   -4.59027  -1.57042   2.20716 
 Bq                   -4.58814  -1.83131   1.66685 
 Bq                   -4.59062  -1.52694   2.29721 
 Bq                   -4.58779  -1.8748    1.5768 
 Bq                   -4.59097  -1.48345   2.38726 
 Bq                   -4.58743  -1.91828   1.48675 
 Bq                   -4.5892   -1.70087   1.937 
 Bq                   -4.58939  -1.56733   1.98357 
 Bq                   -4.58868  -1.6543    1.80347 
 Bq                   -4.58974  -1.52385   2.07362 
 Bq                   -4.58833  -1.69778   1.71342 
 Bq                   -4.5901   -1.48037   2.16367 
 Bq                   -4.58797  -1.74126   1.62337 
 Bq                   -4.59045  -1.43688   2.25372 
 Bq                   -4.58762  -1.78475   1.53332 
 Bq                   -4.5908   -1.3934    2.34377 
 Bq                   -4.58726  -1.82823   1.44327 
 Bq                   -4.58903  -1.61082   1.89352 
 Bq                   -4.58922  -1.47728   1.94009 
 Bq                   -4.58851  -1.56425   1.75999 
 Bq                   -4.58957  -1.4338    2.03014 
 Bq                   -4.58815  -1.60773   1.66994 
 Bq                   -4.58992  -1.39032   2.12019 
 Bq                   -4.5878   -1.65121   1.57989 
 
 Symmetry turned off:
 Cannot cope with ghost atoms or with translation vectors.
 Stoichiometry    C22H14
 Framework group  C1[X(C22H14)]
 NUMDOF-- NAT=    36 NAtoms=   236
 Deg. of freedom     0
 Full point group                 C1      NOp   1
                          Input orientation:                          
 ---------------------------------------------------------------------
 Center     Atomic      Atomic             Coordinates (Angstroms)
 Number     Number       Type             X           Y           Z
 ---------------------------------------------------------------------
      1          6           0       -4.050056   -0.577186    0.813671
      2          1           0       -5.026380   -1.008273    1.002476
      3          6           0       -3.938155    0.661780    0.240088
      4          1           0       -4.825242    1.233889   -0.011130
      5          6           0       -2.676841    1.243325    0.005758
      6          6           0       -1.497412    0.505153    0.284825
      7          6           0       -1.650833   -0.733873    0.940403
      8          1           0       -0.771365   -1.273097    1.263375
      9          6           0       -2.889855   -1.262404    1.199431
     10          1           0       -2.968371   -2.212456    1.715268
     11          6           0       -2.577319    2.596370   -0.419293
     12          1           0       -3.487073    3.141224   -0.647406
     13          6           0       -1.374190    3.214790   -0.436403
     14          1           0       -1.299732    4.274202   -0.657814
     15          6           0       -0.171949    2.499409   -0.173459
     16          6           0       -0.204392    1.101844    0.019269
     17          6           0        1.051349    3.204256   -0.067622
     18          1           0        1.042734    4.281950   -0.189700
     19          6           0        2.194209    2.548745    0.257958
     20          1           0        3.116853    3.091285    0.433473
     21          6           0        2.221647    1.133656    0.293499
     22          6           0        1.048693    0.394553    0.030241
     23          6           0        3.448336    0.461463    0.557394
     24          1           0        4.309579    1.060605    0.833485
     25          6           0        3.542735   -0.885593    0.474946
     26          1           0        4.473147   -1.393970    0.703882
     27          6           0        2.449005   -1.647445   -0.019632
     28          6           0        1.215070   -1.005726   -0.301357
     29          6           0        0.253111   -1.743444   -1.021659
     30          1           0       -0.654136   -1.253505   -1.346285
     31          6           0        0.449419   -3.062860   -1.341378
     32          1           0       -0.308316   -3.594431   -1.905406
     33          6           0        1.625173   -3.720797   -0.955254
     34          1           0        1.767005   -4.768740   -1.192702
     35          6           0        2.610987   -3.014418   -0.318305
     36          1           0        3.552561   -3.490281   -0.064637
     37          0           0       -4.684283    1.581380    0.684879
     38          0           0       -4.682159    1.320484    0.144575
     39          0           0       -4.684637    1.624863    0.774930
     40          0           0       -4.681805    1.277001    0.054524
     41          0           0       -4.684991    1.668346    0.864981
     42          0           0       -4.681451    1.233519   -0.035526
     43          0           0       -4.683221    1.450932    0.414727
     44          0           0       -4.683404    1.584466    0.461295
     45          0           0       -4.682696    1.497501    0.281194
     46          0           0       -4.683758    1.627949    0.551346
     47          0           0       -4.682342    1.454018    0.191143
     48          0           0       -4.684112    1.671432    0.641397
     49          0           0       -4.681988    1.410536    0.101093
     50          0           0       -4.684466    1.714915    0.731447
     51          0           0       -4.681634    1.367053    0.011042
     52          0           0       -4.684820    1.758397    0.821498
     53          0           0       -4.681280    1.323570   -0.079009
     54          0           0       -4.683050    1.540984    0.371245
     55          0           0       -4.683233    1.674518    0.417813
     56          0           0       -4.682525    1.587552    0.237712
     57          0           0       -4.683587    1.718001    0.507864
     58          0           0       -4.682171    1.544070    0.147661
     59          0           0       -4.683941    1.761483    0.597914
     60          0           0       -4.681817    1.500587    0.057610
     61          0           0       -4.684295    1.804966    0.687965
     62          0           0       -4.681463    1.457104   -0.032441
     63          0           0       -4.684649    1.848449    0.778016
     64          0           0       -4.681109    1.413621   -0.122491
     65          0           0       -4.682879    1.631035    0.327762
     66          0           0       -4.683062    1.764569    0.374331
     67          0           0       -4.682354    1.677604    0.194229
     68          0           0       -4.683416    1.808052    0.464381
     69          0           0       -4.682000    1.634121    0.104179
     70          0           0       -4.683770    1.851535    0.554432
     71          0           0       -4.681646    1.590638    0.014128
     72          0           0       -4.684124    1.895017    0.644483
     73          0           0       -4.681292    1.547156   -0.075923
     74          0           0       -4.684478    1.938500    0.734533
     75          0           0       -4.680938    1.503673   -0.165974
     76          0           0       -4.682708    1.721086    0.284280
     77          0           0       -4.682891    1.854621    0.330848
     78          0           0       -4.682183    1.767655    0.150747
     79          0           0       -4.683245    1.898103    0.420899
     80          0           0       -4.681829    1.724172    0.060696
     81          0           0       -4.683599    1.941586    0.510950
     82          0           0       -4.681475    1.680690   -0.029355
     83          0           0       -4.683953    1.985069    0.601000
     84          0           0       -4.681121    1.637207   -0.119405
     85          0           0       -4.684307    2.028551    0.691051
     86          0           0       -4.680767    1.593724   -0.209456
     87          0           0       -4.682537    1.811138    0.240798
     88          0           0       -4.682720    1.944672    0.287366
     89          0           0       -4.682012    1.857707    0.107264
     90          0           0       -4.683074    1.988155    0.377417
     91          0           0       -4.681658    1.814224    0.017214
     92          0           0       -4.683428    2.031637    0.467467
     93          0           0       -4.681304    1.770741   -0.072837
     94          0           0       -4.683782    2.075120    0.557518
     95          0           0       -4.680950    1.727258   -0.162888
     96          0           0       -4.684136    2.118603    0.647569
     97          0           0       -4.680596    1.683776   -0.252938
     98          0           0       -4.682366    1.901189    0.197315
     99          0           0       -4.682549    2.034723    0.243883
    100          0           0       -4.681841    1.947758    0.063782
    101          0           0       -4.682903    2.078206    0.333934
    102          0           0       -4.681487    1.904275   -0.026269
    103          0           0       -4.683257    2.121689    0.423985
    104          0           0       -4.681133    1.860792   -0.116319
    105          0           0       -4.683611    2.165172    0.514036
    106          0           0       -4.680779    1.817310   -0.206370
    107          0           0       -4.683965    2.208654    0.604086
    108          0           0       -4.680425    1.773827   -0.296421
    109          0           0       -4.682195    1.991241    0.153833
    110          0           0       -4.682378    2.124775    0.200401
    111          0           0       -4.681670    2.037809    0.020300
    112          0           0       -4.682732    2.168257    0.290452
    113          0           0       -4.681316    1.994327   -0.069751
    114          0           0       -4.683086    2.211740    0.380502
    115          0           0       -4.680962    1.950844   -0.159802
    116          0           0       -4.683440    2.255223    0.470553
    117          0           0       -4.680608    1.907361   -0.249852
    118          0           0       -4.683794    2.298706    0.560604
    119          0           0       -4.680254    1.863878   -0.339903
    120          0           0       -4.682024    2.081292    0.110350
    121          0           0       -4.682207    2.214826    0.156919
    122          0           0       -4.681499    2.127861   -0.023183
    123          0           0       -4.682561    2.258309    0.246969
    124          0           0       -4.681145    2.084378   -0.113233
    125          0           0       -4.682915    2.301792    0.337020
    126          0           0       -4.680791    2.040895   -0.203284
    127          0           0       -4.683269    2.345274    0.427071
    128          0           0       -4.680437    1.997413   -0.293335
    129          0           0       -4.683623    2.388757    0.517121
    130          0           0       -4.680083    1.953930   -0.383385
    131          0           0       -4.681853    2.171343    0.066868
    132          0           0       -4.682037    2.304878    0.113436
    133          0           0       -4.681329    2.217912   -0.066665
    134          0           0       -4.682391    2.348360    0.203487
    135          0           0       -4.680975    2.174429   -0.156716
    136          0           0       -4.682745    2.391843    0.293538
    137          0           0       -4.680621    2.130947   -0.246766
    138          0           0       -4.683099    2.435326    0.383588
    139          0           0       -4.680267    2.087464   -0.336817
    140          0           0       -4.683453    2.478808    0.473639
    141          0           0       -4.679913    2.043981   -0.426868
    142          0           0       -4.681683    2.261395    0.023386
    143          0           0       -4.681866    2.394929    0.069954
    144          0           0       -4.681158    2.307963   -0.110147
    145          0           0       -4.682220    2.438412    0.160005
    146          0           0       -4.680804    2.264481   -0.200198
    147          0           0       -4.682574    2.481894    0.250055
    148          0           0       -4.680450    2.220998   -0.290249
    149          0           0       -4.682928    2.525377    0.340106
    150          0           0       -4.680096    2.177515   -0.380300
    151          0           0       -4.683282    2.568860    0.430157
    152          0           0       -4.679742    2.134033   -0.470350
    153          0           0       -4.681512    2.351446   -0.020097
    154          0           0       -4.681695    2.484980    0.026472
    155          0           0       -4.680987    2.398015   -0.153630
    156          0           0       -4.682049    2.528463    0.116522
    157          0           0       -4.680633    2.354532   -0.243681
    158          0           0       -4.682403    2.571946    0.206573
    159          0           0       -4.680279    2.311049   -0.333731
    160          0           0       -4.682757    2.615428    0.296624
    161          0           0       -4.679925    2.267567   -0.423782
    162          0           0       -4.683111    2.658911    0.386674
    163          0           0       -4.679571    2.224084   -0.513833
    164          0           0       -4.681341    2.441498   -0.063579
    165          0           0       -4.590242   -2.017589    2.200984
    166          0           0       -4.589534   -2.104555    2.020882
    167          0           0       -4.590596   -1.974107    2.291034
    168          0           0       -4.589180   -2.148037    1.930832
    169          0           0       -4.590950   -1.930624    2.381085
    170          0           0       -4.588826   -2.191520    1.840781
    171          0           0       -4.591304   -1.887141    2.471136
    172          0           0       -4.588472   -2.235003    1.750730
    173          0           0       -4.591658   -1.843658    2.561186
    174          0           0       -4.588118   -2.278486    1.660680
    175          0           0       -4.589888   -2.061072    2.110933
    176          0           0       -4.590071   -1.927538    2.157501
    177          0           0       -4.589363   -2.014503    1.977400
    178          0           0       -4.590425   -1.884055    2.247552
    179          0           0       -4.589009   -2.057986    1.887349
    180          0           0       -4.590779   -1.840572    2.337603
    181          0           0       -4.588655   -2.101469    1.797299
    182          0           0       -4.591133   -1.797090    2.427653
    183          0           0       -4.588301   -2.144952    1.707248
    184          0           0       -4.591487   -1.753607    2.517704
    185          0           0       -4.587947   -2.188434    1.617197
    186          0           0       -4.589717   -1.971021    2.067451
    187          0           0       -4.589900   -1.837487    2.114019
    188          0           0       -4.589192   -1.924452    1.933918
    189          0           0       -4.590254   -1.794004    2.204070
    190          0           0       -4.588838   -1.967935    1.843867
    191          0           0       -4.590608   -1.750521    2.294120
    192          0           0       -4.588484   -2.011417    1.753816
    193          0           0       -4.590962   -1.707038    2.384171
    194          0           0       -4.588130   -2.054900    1.663765
    195          0           0       -4.591316   -1.663556    2.474222
    196          0           0       -4.587776   -2.098383    1.573715
    197          0           0       -4.589546   -1.880969    2.023968
    198          0           0       -4.589729   -1.747435    2.070537
    199          0           0       -4.589021   -1.834401    1.890435
    200          0           0       -4.590083   -1.703952    2.160587
    201          0           0       -4.588667   -1.877883    1.800384
    202          0           0       -4.590437   -1.660470    2.250638
    203          0           0       -4.588313   -1.921366    1.710334
    204          0           0       -4.590791   -1.616987    2.340689
    205          0           0       -4.587959   -1.964849    1.620283
    206          0           0       -4.591145   -1.573504    2.430739
    207          0           0       -4.587605   -2.008331    1.530232
    208          0           0       -4.589375   -1.790918    1.980486
    209          0           0       -4.589558   -1.657384    2.027054
    210          0           0       -4.588850   -1.744349    1.846953
    211          0           0       -4.589912   -1.613901    2.117105
    212          0           0       -4.588496   -1.787832    1.756902
    213          0           0       -4.590266   -1.570418    2.207156
    214          0           0       -4.588142   -1.831315    1.666851
    215          0           0       -4.590620   -1.526936    2.297206
    216          0           0       -4.587788   -1.874797    1.576801
    217          0           0       -4.590974   -1.483453    2.387257
    218          0           0       -4.587434   -1.918280    1.486750
    219          0           0       -4.589204   -1.700866    1.937003
    220          0           0       -4.589387   -1.567332    1.983572
    221          0           0       -4.588679   -1.654298    1.803470
    222          0           0       -4.589741   -1.523850    2.073622
    223          0           0       -4.588325   -1.697781    1.713420
    224          0           0       -4.590095   -1.480367    2.163673
    225          0           0       -4.587971   -1.741263    1.623369
    226          0           0       -4.590449   -1.436884    2.253724
    227          0           0       -4.587617   -1.784746    1.533318
    228          0           0       -4.590803   -1.393401    2.343775
    229          0           0       -4.587263   -1.828229    1.443268
    230          0           0       -4.589033   -1.610815    1.893521
    231          0           0       -4.589216   -1.477281    1.940089
    232          0           0       -4.588508   -1.564246    1.759988
    233          0           0       -4.589570   -1.433798    2.030140
    234          0           0       -4.588154   -1.607729    1.669937
    235          0           0       -4.589924   -1.390316    2.120191
    236          0           0       -4.587800   -1.651212    1.579887
 ---------------------------------------------------------------------
 Rotational constants (GHZ):      0.4529074      0.2836956      0.1879557
 Standard basis: 6-311+G(d,p) (5D, 7F)
 Warning:  center  37 has no basis functions!
 Warning:  center  38 has no basis functions!
 Warning:  center  39 has no basis functions!
 Warning:  center  40 has no basis functions!
 Warning:  center  41 has no basis functions!
 Warning:  center  42 has no basis functions!
 Warning:  center  43 has no basis functions!
 Warning:  center  44 has no basis functions!
 Warning:  center  45 has no basis functions!
 Warning:  center  46 has no basis functions!
 Warning:  center  47 has no basis functions!
 Warning:  center  48 has no basis functions!
 Warning:  center  49 has no basis functions!
 Warning:  center  50 has no basis functions!
 Warning:  center  51 has no basis functions!
 Warning:  center  52 has no basis functions!
 Warning:  center  53 has no basis functions!
 Warning:  center  54 has no basis functions!
 Warning:  center  55 has no basis functions!
 Warning:  center  56 has no basis functions!
 Warning:  center  57 has no basis functions!
 Warning:  center  58 has no basis functions!
 Warning:  center  59 has no basis functions!
 Warning:  center  60 has no basis functions!
 Warning:  center  61 has no basis functions!
 Warning:  center  62 has no basis functions!
 Warning:  center  63 has no basis functions!
 Warning:  center  64 has no basis functions!
 Warning:  center  65 has no basis functions!
 Warning:  center  66 has no basis functions!
 Warning:  center  67 has no basis functions!
 Warning:  center  68 has no basis functions!
 Warning:  center  69 has no basis functions!
 Warning:  center  70 has no basis functions!
 Warning:  center  71 has no basis functions!
 Warning:  center  72 has no basis functions!
 Warning:  center  73 has no basis functions!
 Warning:  center  74 has no basis functions!
 Warning:  center  75 has no basis functions!
 Warning:  center  76 has no basis functions!
 Warning:  center  77 has no basis functions!
 Warning:  center  78 has no basis functions!
 Warning:  center  79 has no basis functions!
 Warning:  center  80 has no basis functions!
 Warning:  center  81 has no basis functions!
 Warning:  center  82 has no basis functions!
 Warning:  center  83 has no basis functions!
 Warning:  center  84 has no basis functions!
 Warning:  center  85 has no basis functions!
 Warning:  center  86 has no basis functions!
 Warning:  center  87 has no basis functions!
 Warning:  center  88 has no basis functions!
 Warning:  center  89 has no basis functions!
 Warning:  center  90 has no basis functions!
 Warning:  center  91 has no basis functions!
 Warning:  center  92 has no basis functions!
 Warning:  center  93 has no basis functions!
 Warning:  center  94 has no basis functions!
 Warning:  center  95 has no basis functions!
 Warning:  center  96 has no basis functions!
 Warning:  center  97 has no basis functions!
 Warning:  center  98 has no basis functions!
 Warning:  center  99 has no basis functions!
 Warning:  center 100 has no basis functions!
 Warning:  center 101 has no basis functions!
 Warning:  center 102 has no basis functions!
 Warning:  center 103 has no basis functions!
 Warning:  center 104 has no basis functions!
 Warning:  center 105 has no basis functions!
 Warning:  center 106 has no basis functions!
 Warning:  center 107 has no basis functions!
 Warning:  center 108 has no basis functions!
 Warning:  center 109 has no basis functions!
 Warning:  center 110 has no basis functions!
 Warning:  center 111 has no basis functions!
 Warning:  center 112 has no basis functions!
 Warning:  center 113 has no basis functions!
 Warning:  center 114 has no basis functions!
 Warning:  center 115 has no basis functions!
 Warning:  center 116 has no basis functions!
 Warning:  center 117 has no basis functions!
 Warning:  center 118 has no basis functions!
 Warning:  center 119 has no basis functions!
 Warning:  center 120 has no basis functions!
 Warning:  center 121 has no basis functions!
 Warning:  center 122 has no basis functions!
 Warning:  center 123 has no basis functions!
 Warning:  center 124 has no basis functions!
 Warning:  center 125 has no basis functions!
 Warning:  center 126 has no basis functions!
 Warning:  center 127 has no basis functions!
 Warning:  center 128 has no basis functions!
 Warning:  center 129 has no basis functions!
 Warning:  center 130 has no basis functions!
 Warning:  center 131 has no basis functions!
 Warning:  center 132 has no basis functions!
 Warning:  center 133 has no basis functions!
 Warning:  center 134 has no basis functions!
 Warning:  center 135 has no basis functions!
 Warning:  center 136 has no basis functions!
 Warning:  center 137 has no basis functions!
 Warning:  center 138 has no basis functions!
 Warning:  center 139 has no basis functions!
 Warning:  center 140 has no basis functions!
 Warning:  center 141 has no basis functions!
 Warning:  center 142 has no basis functions!
 Warning:  center 143 has no basis functions!
 Warning:  center 144 has no basis functions!
 Warning:  center 145 has no basis functions!
 Warning:  center 146 has no basis functions!
 Warning:  center 147 has no basis functions!
 Warning:  center 148 has no basis functions!
 Warning:  center 149 has no basis functions!
 Warning:  center 150 has no basis functions!
 Warning:  center 151 has no basis functions!
 Warning:  center 152 has no basis functions!
 Warning:  center 153 has no basis functions!
 Warning:  center 154 has no basis functions!
 Warning:  center 155 has no basis functions!
 Warning:  center 156 has no basis functions!
 Warning:  center 157 has no basis functions!
 Warning:  center 158 has no basis functions!
 Warning:  center 159 has no basis functions!
 Warning:  center 160 has no basis functions!
 Warning:  center 161 has no basis functions!
 Warning:  center 162 has no basis functions!
 Warning:  center 163 has no basis functions!
 Warning:  center 164 has no basis functions!
 Warning:  center 165 has no basis functions!
 Warning:  center 166 has no basis functions!
 Warning:  center 167 has no basis functions!
 Warning:  center 168 has no basis functions!
 Warning:  center 169 has no basis functions!
 Warning:  center 170 has no basis functions!
 Warning:  center 171 has no basis functions!
 Warning:  center 172 has no basis functions!
 Warning:  center 173 has no basis functions!
 Warning:  center 174 has no basis functions!
 Warning:  center 175 has no basis functions!
 Warning:  center 176 has no basis functions!
 Warning:  center 177 has no basis functions!
 Warning:  center 178 has no basis functions!
 Warning:  center 179 has no basis functions!
 Warning:  center 180 has no basis functions!
 Warning:  center 181 has no basis functions!
 Warning:  center 182 has no basis functions!
 Warning:  center 183 has no basis functions!
 Warning:  center 184 has no basis functions!
 Warning:  center 185 has no basis functions!
 Warning:  center 186 has no basis functions!
 Warning:  center 187 has no basis functions!
 Warning:  center 188 has no basis functions!
 Warning:  center 189 has no basis functions!
 Warning:  center 190 has no basis functions!
 Warning:  center 191 has no basis functions!
 Warning:  center 192 has no basis functions!
 Warning:  center 193 has no basis functions!
 Warning:  center 194 has no basis functions!
 Warning:  center 195 has no basis functions!
 Warning:  center 196 has no basis functions!
 Warning:  center 197 has no basis functions!
 Warning:  center 198 has no basis functions!
 Warning:  center 199 has no basis functions!
 Warning:  center 200 has no basis functions!
 Warning:  center 201 has no basis functions!
 Warning:  center 202 has no basis functions!
 Warning:  center 203 has no basis functions!
 Warning:  center 204 has no basis functions!
 Warning:  center 205 has no basis functions!
 Warning:  center 206 has no basis functions!
 Warning:  center 207 has no basis functions!
 Warning:  center 208 has no basis functions!
 Warning:  center 209 has no basis functions!
 Warning:  center 210 has no basis functions!
 Warning:  center 211 has no basis functions!
 Warning:  center 212 has no basis functions!
 Warning:  center 213 has no basis functions!
 Warning:  center 214 has no basis functions!
 Warning:  center 215 has no basis functions!
 Warning:  center 216 has no basis functions!
 Warning:  center 217 has no basis functions!
 Warning:  center 218 has no basis functions!
 Warning:  center 219 has no basis functions!
 Warning:  center 220 has no basis functions!
 Warning:  center 221 has no basis functions!
 Warning:  center 222 has no basis functions!
 Warning:  center 223 has no basis functions!
 Warning:  center 224 has no basis functions!
 Warning:  center 225 has no basis functions!
 Warning:  center 226 has no basis functions!
 Warning:  center 227 has no basis functions!
 Warning:  center 228 has no basis functions!
 Warning:  center 229 has no basis functions!
 Warning:  center 230 has no basis functions!
 Warning:  center 231 has no basis functions!
 Warning:  center 232 has no basis functions!
 Warning:  center 233 has no basis functions!
 Warning:  center 234 has no basis functions!
 Warning:  center 235 has no basis functions!
 Warning:  center 236 has no basis functions!
   568 basis functions,   904 primitive gaussians,   590 cartesian basis functions
    73 alpha electrons       73 beta electrons
       nuclear repulsion energy      1610.9176155625 Hartrees.
 NAtoms=  236 NActive=  236 NUniq=  236 SFac= 1.00D+00 NAtFMM=   60 NAOKFM=T Big=T
 Integral buffers will be    131072 words long.
 Raffenetti 2 integral format.
 Two-electron integral symmetry is turned off.
 One-electron integrals computed using PRISM.
 NBasis=   568 RedAO= T EigKep=  1.78D-06  NBF=   568
 NBsUse=   556 1.00D-06 EigRej=  9.09D-07 NBFU=   556
 ExpMin= 4.38D-02 ExpMax= 4.56D+03 ExpMxC= 6.82D+02 IAcc=2 IRadAn=         4 AccDes= 0.00D+00
 Harris functional with IExCor=  402 and IRadAn=       4 diagonalized for initial guess.
 HarFok:  IExCor=  402 AccDes= 0.00D+00 IRadAn=         4 IDoV= 1 UseB2=F ITyADJ=14
 ICtDFT=  3500011 ScaDFX=  1.000000  1.000000  1.000000  1.000000
 FoFCou: FMM=F IPFlag=           0 FMFlag=      100000 FMFlg1=        2001
         NFxFlg=           0 DoJE=T BraDBF=F KetDBF=T FulRan=T
         wScrn=  0.000000 ICntrl=     500 IOpCl=  0 I1Cent=   200000004 NGrid=           0
         NMat0=    1 NMatS0=      1 NMatT0=    0 NMatD0=    1 NMtDS0=    0 NMtDT0=    0
 Symmetry not used in FoFCou.
 Requested convergence on RMS density matrix=1.00D-08 within 128 cycles.
 Requested convergence on MAX density matrix=1.00D-06.
 Requested convergence on             energy=1.00D-06.
 No special actions if energy rises.
 SCF Done:  E(RB3LYP) =  -847.003289847     A.U. after   15 cycles
            NFock= 15  Conv=0.75D-08     -V/T= 2.0040
 DoSCS=F DFT=T ScalE2(SS,OS)=  1.000000  1.000000
 Range of M.O.s used for correlation:     1   556
 NBasis=   568 NAE=    73 NBE=    73 NFC=     0 NFV=     0
 NROrb=    556 NOA=    73 NOB=    73 NVA=   483 NVB=   483

 **** Warning!!: The largest alpha MO coefficient is  0.10971038D+03

          Differentiating once with respect to magnetic field using GIAOs.
          Electric field/nuclear overlap derivatives assumed to be zero.
 FoFCou: FMM=F IPFlag=           0 FMFlag=      100000 FMFlg1=        2001
         NFxFlg=           0 DoJE=F BraDBF=F KetDBF=T FulRan=T
         wScrn=  0.000000 ICntrl=    6100 IOpCl=  0 I1Cent=           7 NGrid=         236
         NMat0=    1 NMatS0=      1 NMatT0=    0 NMatD0=    1 NMtDS0=    0 NMtDT0=    0
 Symmetry not used in FoFCou.
 FoFJK:  IHMeth= 1 ICntrl=    6127 DoSepK=F KAlg= 0 I1Cent=   0 FoldK=F
 IRaf=         1 NMat=   1 IRICut=       1 DoRegI=T DoRafI=F ISym2E= 0.
          There are     3 degrees of freedom in the 1st order CPHF.  IDoFFX=0 NUNeed=     3.
      3 vectors produced by pass  0 Test12= 1.18D-12 3.33D-08 XBig12= 2.07D+03 9.18D+00.
 AX will form     3 AO Fock derivatives at one time.
      3 vectors produced by pass  1 Test12= 1.18D-12 3.33D-08 XBig12= 3.56D+00 8.03D-01.
      3 vectors produced by pass  2 Test12= 1.18D-12 3.33D-08 XBig12= 2.10D-02 6.92D-02.
      3 vectors produced by pass  3 Test12= 1.18D-12 3.33D-08 XBig12= 5.45D-05 1.89D-03.
      3 vectors produced by pass  4 Test12= 1.18D-12 3.33D-08 XBig12= 1.20D-07 7.79D-05.
      3 vectors produced by pass  5 Test12= 1.18D-12 3.33D-08 XBig12= 4.02D-10 4.73D-06.
      3 vectors produced by pass  6 Test12= 1.18D-12 3.33D-08 XBig12= 1.32D-12 2.61D-07.
 InvSVY:  IOpt=1 It=  1 EMax= 2.84D-14
 Solved reduced A of dimension    21 with     3 vectors.
 Calculating GIAO nuclear magnetic shielding tensors.
 SCF GIAO Magnetic shielding tensor (ppm):
      1  C    Isotropic =    53.8139   Anisotropy =   178.0260
   XX=   -41.4327   YX=   -32.3458   ZX=    10.0287
   XY=   -28.3572   YY=    59.0527   ZY=    55.1899
   XZ=    13.1759   YZ=    58.7550   ZZ=   143.8218
   Eigenvalues:   -53.8775    42.8214   172.4979
      2  H    Isotropic =    24.3095   Anisotropy =     4.8536
   XX=    25.5771   YX=    -1.0289   ZX=     0.5661
   XY=    -0.7431   YY=    26.1829   ZY=    -2.3306
   XZ=    -0.1707   YZ=    -2.4411   ZZ=    21.1687
   Eigenvalues:    20.2108    25.1725    27.5453
      3  C    Isotropic =    51.4055   Anisotropy =   157.8639
   XX=   -31.5399   YX=    38.5015   ZX=   -17.9316
   XY=    34.3519   YY=    49.9437   ZY=    49.6392
   XZ=    -9.8383   YZ=    44.6006   ZZ=   135.8127
   Eigenvalues:   -50.5747    48.1432   156.6481
      4  H    Isotropic =    23.8290   Anisotropy =     7.1838
   XX=    25.3635   YX=     1.8486   ZX=    -0.3559
   XY=     1.9656   YY=    26.4581   ZY=    -2.4103
   XZ=    -1.2941   YZ=    -2.6614   ZZ=    19.6654
   Eigenvalues:    18.8176    24.0511    28.6182
      5  C    Isotropic =    46.0697   Anisotropy =   207.6751
   XX=   -19.2123   YX=    -4.8852   ZX=    -1.6475
   XY=     2.8938   YY=    -2.9860   ZY=    66.5656
   XZ=     2.5356   YZ=    67.9144   ZZ=   160.4073
   Eigenvalues:   -27.2455   -19.0652   184.5197
      6  C    Isotropic =    47.5218   Anisotropy =   196.9389
   XX=   -28.1552   YX=    -2.7889   ZX=    12.0660
   XY=   -14.3886   YY=    21.2063   ZY=    74.2521
   XZ=   -18.6356   YZ=    61.1113   ZZ=   149.5144
   Eigenvalues:   -30.2925    -5.9564   178.8144
      7  C    Isotropic =    49.3915   Anisotropy =   179.8333
   XX=   -12.5211   YX=    28.7048   ZX=   -24.6745
   XY=    31.5123   YY=    29.7000   ZY=    77.7459
   XZ=   -40.0095   YZ=    65.3072   ZZ=   130.9956
   Eigenvalues:   -52.1299    31.0240   169.2804
      8  H    Isotropic =    23.1586   Anisotropy =    13.5525
   XX=    28.5711   YX=     1.5482   ZX=    -3.6986
   XY=     3.2466   YY=    22.7592   ZY=    -2.1157
   XZ=    -8.3753   YZ=    -1.0821   ZZ=    18.1456
   Eigenvalues:    15.3521    21.9301    32.1936
      9  C    Isotropic =    55.1460   Anisotropy =   174.7426
   XX=    46.7071   YX=    -2.6162   ZX=    -2.8420
   XY=     0.6223   YY=    -1.6258   ZY=    92.8272
   XZ=     0.5159   YZ=    95.6598   ZZ=   120.3568
   Eigenvalues:   -52.8932    46.6901   171.6411
     10  H    Isotropic =    24.6278   Anisotropy =     7.1815
   XX=    29.1040   YX=     0.1399   ZX=    -0.3694
   XY=     0.3642   YY=    23.4778   ZY=    -1.0805
   XZ=    -2.4493   YZ=    -2.9465   ZZ=    21.3016
   Eigenvalues:    19.9703    24.4977    29.4155
     11  C    Isotropic =    51.5607   Anisotropy =   151.2142
   XX=     2.1639   YX=    40.9287   ZX=   -26.0048
   XY=    49.9131   YY=    12.2331   ZY=    42.1342
   XZ=   -15.6145   YZ=    38.6614   ZZ=   140.2851
   Eigenvalues:   -48.1951    50.5071   152.3701
     12  H    Isotropic =    23.8537   Anisotropy =     7.3815
   XX=    25.9672   YX=     2.3738   ZX=    -0.2390
   XY=     2.4320   YY=    26.3975   ZY=    -1.8291
   XZ=     0.3529   YZ=    -1.7731   ZZ=    19.1964
   Eigenvalues:    18.7149    24.0714    28.7747
     13  C    Isotropic =    52.8653   Anisotropy =   147.4265
   XX=    51.2944   YX=    19.9221   ZX=   -13.4678
   XY=    11.5478   YY=   -34.0176   ZY=    42.5079
   XZ=    -9.2241   YZ=    40.0716   ZZ=   141.3192
   Eigenvalues:   -46.5152    53.9616   151.1497
     14  H    Isotropic =    24.0156   Anisotropy =     7.3485
   XX=    28.6644   YX=     0.6281   ZX=     1.0808
   XY=     0.5926   YY=    24.4325   ZY=    -1.0823
   XZ=     1.6846   YZ=    -0.3842   ZZ=    18.9500
   Eigenvalues:    18.6430    24.4892    28.9146
     15  C    Isotropic =    46.2221   Anisotropy =   203.9048
   XX=   -27.2215   YX=    -0.0442   ZX=   -28.9124
   XY=     4.6427   YY=   -10.5571   ZY=    28.3830
   XZ=   -10.2704   YZ=    26.7376   ZZ=   176.4448
   Eigenvalues:   -30.5512   -12.9411   182.1586
     16  C    Isotropic =    51.9375   Anisotropy =   188.2004
   XX=   -19.4441   YX=     5.5046   ZX=    15.7858
   XY=    -8.3874   YY=     2.4863   ZY=    22.9264
   XZ=   -50.6243   YZ=    23.3340   ZZ=   172.7704
   Eigenvalues:   -21.0294    -0.5625   177.4045
     17  C    Isotropic =    51.9482   Anisotropy =   149.1264
   XX=    50.7296   YX=   -23.9353   ZX=   -18.4207
   XY=   -16.7271   YY=   -41.8764   ZY=    17.8662
   XZ=   -14.3278   YZ=    11.4871   ZZ=   146.9915
   Eigenvalues:   -46.7796    51.2584   151.3658
     18  H    Isotropic =    24.0122   Anisotropy =     7.5163
   XX=    28.5811   YX=    -0.0866   ZX=     1.5071
   XY=    -0.2466   YY=    24.3342   ZY=    -0.7657
   XZ=     2.5088   YZ=    -1.5208   ZZ=    19.1214
   Eigenvalues:    18.5094    24.5041    29.0231
     19  C    Isotropic =    51.7356   Anisotropy =   148.5924
   XX=     2.4559   YX=   -45.6913   ZX=   -31.2531
   XY=   -53.4448   YY=     7.4698   ZY=    -1.8888
   XZ=   -23.5601   YZ=    -1.2765   ZZ=   145.2810
   Eigenvalues:   -46.9894    51.3989   150.7972
     20  H    Isotropic =    23.9071   Anisotropy =     7.6651
   XX=    25.5796   YX=    -2.0226   ZX=     1.4905
   XY=    -1.9998   YY=    27.3706   ZY=    -0.5164
   XZ=     2.7276   YZ=    -1.1179   ZZ=    18.7711
   Eigenvalues:    18.1643    24.5398    29.0172
     21  C    Isotropic =    45.9767   Anisotropy =   203.9316
   XX=   -16.2108   YX=    13.1802   ZX=   -44.5913
   XY=     6.5714   YY=   -20.6329   ZY=     0.0949
   XZ=   -28.8984   YZ=   -13.0883   ZZ=   174.7736
   Eigenvalues:   -30.5796   -13.4215   181.9311
     22  C    Isotropic =    52.0450   Anisotropy =   188.1157
   XX=    -0.0787   YX=     2.5023   ZX=   -16.3451
   XY=    18.9327   YY=   -14.4798   ZY=   -34.4335
   XZ=   -50.6032   YZ=    19.9104   ZZ=   170.6934
   Eigenvalues:   -20.7705    -0.5500   177.4554
     23  C    Isotropic =    53.2392   Anisotropy =   146.7412
   XX=   -22.0674   YX=   -32.0012   ZX=   -49.4857
   XY=   -23.2043   YY=    44.3661   ZY=   -15.6400
   XZ=   -43.8090   YZ=   -20.2525   ZZ=   137.4189
   Eigenvalues:   -45.6776    54.3286   151.0667
     24  H    Isotropic =    23.8249   Anisotropy =     7.5289
   XX=    25.1073   YX=    -1.7330   ZX=     1.5380
   XY=    -1.5944   YY=    28.0047   ZY=     0.0879
   XZ=     1.2557   YZ=    -0.8283   ZZ=    18.3628
   Eigenvalues:    18.0848    24.5458    28.8442
     25  C    Isotropic =    51.4969   Anisotropy =   150.1066
   XX=   -28.4915   YX=    33.9684   ZX=   -52.3137
   XY=    22.0311   YY=    46.6072   ZY=    -3.8075
   XZ=   -44.5594   YZ=   -10.6355   ZZ=   136.3748
   Eigenvalues:   -48.3857    51.3083   151.5679
     26  H    Isotropic =    23.7431   Anisotropy =     7.4052
   XX=    24.0663   YX=     1.1141   ZX=     1.9989
   XY=     0.9693   YY=    28.1000   ZY=     1.6568
   XZ=     2.0795   YZ=     0.8886   ZZ=    19.0630
   Eigenvalues:    18.2615    24.2880    28.6799
     27  C    Isotropic =    45.8108   Anisotropy =   207.2710
   XX=    -2.7702   YX=    13.7697   ZX=   -61.4651
   XY=     6.5593   YY=   -12.0335   ZY=   -41.6456
   XZ=   -62.6381   YZ=   -44.9232   ZZ=   152.2361
   Eigenvalues:   -28.0803   -18.4787   183.9915
     28  C    Isotropic =    47.8398   Anisotropy =   197.2870
   XX=    19.6900   YX=    14.4398   ZX=   -60.5682
   XY=    28.5650   YY=   -19.3566   ZY=   -56.7015
   XZ=   -63.1331   YZ=   -24.4782   ZZ=   143.1859
   Eigenvalues:   -30.5979    -5.2472   179.3644
     29  C    Isotropic =    49.3441   Anisotropy =   179.7793
   XX=    -3.4110   YX=    38.3775   ZX=   -80.8875
   XY=    36.1252   YY=    25.9805   ZY=   -23.7573
   XZ=   -78.1065   YZ=    -3.9802   ZZ=   125.4627
   Eigenvalues:   -51.6645    30.4997   169.1970
     30  H    Isotropic =    23.1387   Anisotropy =    13.3222
   XX=    22.4354   YX=    -0.7013   ZX=    -0.2375
   XY=    -2.1539   YY=    28.3546   ZY=     4.5555
   XZ=    -3.4181   YZ=     8.3231   ZZ=    18.6259
   Eigenvalues:    15.2751    22.1208    32.0201
     31  C    Isotropic =    55.4410   Anisotropy =   174.9390
   XX=    17.1871   YX=   -14.0890   ZX=   -84.0024
   XY=   -17.9030   YY=    37.4745   ZY=   -50.3662
   XZ=   -84.6557   YZ=   -54.8325   ZZ=   111.6615
   Eigenvalues:   -51.9248    46.1808   172.0670
     32  H    Isotropic =    24.5337   Anisotropy =     7.2554
   XX=    24.6185   YX=    -2.5264   ZX=     0.7632
   XY=    -2.7385   YY=    27.4630   ZY=     1.0335
   XZ=     1.1913   YZ=     3.7573   ZZ=    21.5194
   Eigenvalues:    19.8987    24.3316    29.3706
     33  C    Isotropic =    53.1814   Anisotropy =   179.0596
   XX=    60.9231   YX=    35.2256   ZX=   -42.9515
   XY=    32.0226   YY=   -38.1801   ZY=   -45.5652
   XZ=   -44.2248   YZ=   -50.7831   ZZ=   136.8014
   Eigenvalues:   -55.1197    42.1095   172.5545
     34  H    Isotropic =    24.2825   Anisotropy =     5.1861
   XX=    26.7643   YX=    -0.0934   ZX=     2.5955
   XY=    -0.2993   YY=    24.8157   ZY=     0.8589
   XZ=     2.3715   YZ=     1.4580   ZZ=    21.2676
   Eigenvalues:    20.0339    25.0737    27.7399
     35  C    Isotropic =    51.5295   Anisotropy =   155.1748
   XX=    -0.5131   YX=    52.5760   ZX=   -52.1551
   XY=    55.6135   YY=    25.1843   ZY=   -14.2643
   XZ=   -45.7255   YZ=   -17.1625   ZZ=   129.9171
   Eigenvalues:   -48.3147    47.9237   154.9793
     36  H    Isotropic =    23.8384   Anisotropy =     7.3073
   XX=    24.2302   YX=     1.4459   ZX=     2.1759
   XY=     1.2147   YY=    27.1572   ZY=     2.0665
   XZ=     1.6853   YZ=     2.7775   ZZ=    20.1277
   Eigenvalues:    18.9464    23.8588    28.7099
     37  Bq   Isotropic =     4.6901   Anisotropy =    12.2544
   XX=     4.8567   YX=    -0.9938   ZX=     0.4486
   XY=    -4.7220   YY=     8.5171   ZY=     0.9174
   XZ=   -10.6378   YZ=     6.3312   ZZ=     0.6965
   Eigenvalues:    -2.9320     4.1426    12.8597
     38  Bq   Isotropic =    22.4112   Anisotropy =     9.3425
   XX=    21.4372   YX=     5.2765   ZX=    -0.2299
   XY=     1.4062   YY=    27.0153   ZY=    -1.0845
   XZ=    -6.3884   YZ=     2.5820   ZZ=    18.7812
   Eigenvalues:    15.9440    22.6501    28.6396
     39  Bq   Isotropic =     3.4924   Anisotropy =    12.7859
   XX=     3.7666   YX=    -1.4577   ZX=     0.1242
   XY=    -4.9328   YY=     7.0907   ZY=     1.0699
   XZ=   -10.7850   YZ=     6.2932   ZZ=    -0.3801
   Eigenvalues:    -4.1890     2.6499    12.0164
     40  Bq   Isotropic =    25.4700   Anisotropy =    10.5003
   XX=    24.5124   YX=     5.9397   ZX=    -1.2354
   XY=     2.9862   YY=    29.5001   ZY=    -1.4199
   XZ=    -4.3155   YZ=     0.4084   ZZ=    22.3975
   Eigenvalues:    19.8665    24.0733    32.4701
     41  Bq   Isotropic =     2.6271   Anisotropy =    13.0751
   XX=     2.9441   YX=    -1.7588   ZX=    -0.1957
   XY=    -4.9911   YY=     5.9862   ZY=     1.1977
   XZ=   -10.8426   YZ=     6.2128   ZZ=    -1.0491
   Eigenvalues:    -5.0544     1.5918    11.3438
     42  Bq   Isotropic =    26.3672   Anisotropy =    10.5701
   XX=    25.4011   YX=     5.7708   ZX=    -2.2992
   XY=     4.3246   YY=    29.2496   ZY=    -1.3240
   XZ=    -1.6590   YZ=    -1.9593   ZZ=    24.4509
   Eigenvalues:    21.7011    23.9866    33.4140
     43  Bq   Isotropic =    11.2687   Anisotropy =     9.1070
   XX=    10.7802   YX=     1.6216   ZX=     1.0057
   XY=    -2.7425   YY=    15.7390   ZY=     0.2003
   XZ=    -9.5279   YZ=     5.7993   ZZ=     7.2870
   Eigenvalues:     4.0067    12.4594    17.3401
     44  Bq   Isotropic =     7.0831   Anisotropy =    11.1908
   XX=     7.3040   YX=     0.4467   ZX=     0.8163
   XY=    -3.5972   YY=    12.5963   ZY=     0.4753
   XZ=    -8.9137   YZ=     6.1386   ZZ=     1.3490
   Eigenvalues:    -1.0886     7.7943    14.5437
     45  Bq   Isotropic =    12.2710   Anisotropy =    10.0259
   XX=    12.2642   YX=     2.4401   ZX=     0.7484
   XY=    -1.9712   YY=    18.5276   ZY=    -0.3675
   XZ=    -7.6094   YZ=     4.9360   ZZ=     6.0211
   Eigenvalues:     4.1711    13.6870    18.9549
     46  Bq   Isotropic =     5.2391   Anisotropy =    11.8092
   XX=     5.5889   YX=    -0.3106   ZX=     0.6424
   XY=    -4.1089   YY=    10.3407   ZY=     0.7114
   XZ=    -9.3405   YZ=     6.3133   ZZ=    -0.2121
   Eigenvalues:    -2.8900     5.4955    13.1120
     47  Bq   Isotropic =    15.4420   Anisotropy =    10.1083
   XX=    15.3998   YX=     3.5551   ZX=     0.4101
   XY=    -0.8889   YY=    21.8787   ZY=    -1.0441
   XZ=    -6.6034   YZ=     3.6330   ZZ=     9.0475
   Eigenvalues:     7.5844    16.5608    22.1808
     48  Bq   Isotropic =     3.8505   Anisotropy =    12.2698
   XX=     4.3027   YX=    -0.8901   ZX=     0.3926
   XY=    -4.4341   YY=     8.5504   ZY=     0.8745
   XZ=    -9.6577   YZ=     6.3359   ZZ=    -1.3017
   Eigenvalues:    -4.2120     3.7331    12.0303
     49  Bq   Isotropic =    18.5805   Anisotropy =    10.7367
   XX=    18.5879   YX=     4.5466   ZX=    -0.1993
   XY=     0.3166   YY=    24.8225   ZY=    -1.8902
   XZ=    -5.2177   YZ=     1.6337   ZZ=    12.3310
   Eigenvalues:    11.2802    18.7228    25.7383
     50  Bq   Isotropic =     2.8323   Anisotropy =    12.5574
   XX=     3.3443   YX=    -1.3069   ZX=     0.1095
   XY=    -4.6036   YY=     7.1473   ZY=     0.9949
   XZ=    -9.8791   YZ=     6.2739   ZZ=    -1.9947
   Eigenvalues:    -5.1392     2.4322    11.2039
     51  Bq   Isotropic =    20.9516   Anisotropy =    11.3151
   XX=    21.0469   YX=     5.1260   ZX=    -1.0608
   XY=     1.5416   YY=    26.3374   ZY=    -2.7289
   XZ=    -3.3627   YZ=    -1.0281   ZZ=    15.4704
   Eigenvalues:    14.6525    19.7073    28.4950
     52  Bq   Isotropic =     2.1002   Anisotropy =    12.6865
   XX=     2.6253   YX=    -1.5870   ZX=    -0.1748
   XY=    -4.6518   YY=     6.0467   ZY=     1.0912
   XZ=   -10.0123   YZ=     6.1678   ZZ=    -2.3714
   Eigenvalues:    -5.7510     1.4937    10.5579
     53  Bq   Isotropic =    21.6279   Anisotropy =    11.1028
   XX=    21.7442   YX=     4.9843   ZX=    -1.9312
   XY=     2.6119   YY=    25.3819   ZY=    -3.1657
   XZ=    -1.1144   YZ=    -3.7953   ZZ=    17.7575
   Eigenvalues:    16.4071    19.4467    29.0297
     54  Bq   Isotropic =     9.4352   Anisotropy =    10.5092
   XX=     9.5271   YX=     1.3758   ZX=     0.8672
   XY=    -2.8826   YY=    15.3493   ZY=     0.1283
   XZ=    -8.3521   YZ=     5.7185   ZZ=     3.4292
   Eigenvalues:     1.2596    10.6047    16.4414
     55  Bq   Isotropic =     5.5304   Anisotropy =    11.8265
   XX=     6.1769   YX=     0.3414   ZX=     0.6991
   XY=    -3.4654   YY=    12.1051   ZY=     0.1124
   XZ=    -7.8459   YZ=     5.5495   ZZ=    -1.6907
   Eigenvalues:    -3.3610     6.5376    13.4148
     56  Bq   Isotropic =     9.5497   Anisotropy =    11.6082
   XX=    10.1224   YX=     1.9900   ZX=     0.6460
   XY=    -2.2159   YY=    17.1332   ZY=    -1.0125
   XZ=    -6.4297   YZ=     3.9289   ZZ=     1.3936
   Eigenvalues:     0.4111    10.9496    17.2885
     57  Bq   Isotropic =     4.0702   Anisotropy =    12.0276
   XX=     4.7774   YX=    -0.3002   ZX=     0.5462
   XY=    -3.8645   YY=    10.0728   ZY=     0.4167
   XZ=    -8.3433   YZ=     5.8472   ZZ=    -2.6395
   Eigenvalues:    -4.6185     4.7406    12.0886
     58  Bq   Isotropic =    11.9107   Anisotropy =    11.8273
   XX=    12.5085   YX=     2.8882   ZX=     0.3615
   XY=    -1.3918   YY=    19.7186   ZY=    -1.9195
   XZ=    -5.4181   YZ=     2.3361   ZZ=     3.5051
   Eigenvalues:     2.8347    13.1019    19.7956
     59  Bq   Isotropic =     2.9623   Anisotropy =    12.1784
   XX=     3.7162   YX=    -0.8010   ZX=     0.3271
   XY=    -4.1230   YY=     8.4121   ZY=     0.6186
   XZ=    -8.7336   YZ=     5.9547   ZZ=    -3.2414
   Eigenvalues:    -5.5098     3.3154    11.0812
     60  Bq   Isotropic =    14.1448   Anisotropy =    12.2136
   XX=    14.8151   YX=     3.6654   ZX=    -0.1343
   XY=    -0.4793   YY=    21.7108   ZY=    -3.0354
   XZ=    -4.1198   YZ=     0.0776   ZZ=     5.9084
   Eigenvalues:     5.3522    14.7949    22.2872
     61  Bq   Isotropic =     2.1473   Anisotropy =    12.2528
   XX=     2.9189   YX=    -1.1709   ZX=     0.0769
   XY=    -4.2623   YY=     7.0794   ZY=     0.7598
   XZ=    -9.0282   YZ=     5.9513   ZZ=    -3.5565
   Eigenvalues:    -6.1029     2.2289    10.3158
     62  Bq   Isotropic =    15.7545   Anisotropy =    12.4212
   XX=    16.5070   YX=     4.0953   ZX=    -0.7964
   XY=     0.4498   YY=    22.3384   ZY=    -4.1541
   XZ=    -2.5055   YZ=    -2.7032   ZZ=     8.4180
   Eigenvalues:     7.4806    15.7476    24.0353
     63  Bq   Isotropic =     1.5626   Anisotropy =    12.2464
   XX=     2.3173   YX=    -1.4290   ZX=    -0.1769
   XY=    -4.3066   YY=     6.0149   ZY=     0.8668
   XZ=    -9.2334   YZ=     5.8867   ZZ=    -3.6445
   Eigenvalues:    -6.4600     1.4209     9.7268
     64  Bq   Isotropic =    16.2061   Anisotropy =    12.0550
   XX=    16.9802   YX=     3.9807   ZX=    -1.4279
   XY=     1.2807   YY=    21.0198   ZY=    -4.8760
   XZ=    -0.6534   YZ=    -5.4317   ZZ=    10.6182
   Eigenvalues:     8.4969    15.8786    24.2427
     65  Bq   Isotropic =     7.3714   Anisotropy =    11.6444
   XX=     7.9656   YX=     1.1161   ZX=     0.7457
   XY=    -2.9142   YY=    14.4981   ZY=    -0.3466
   XZ=    -7.2202   YZ=     4.9531   ZZ=    -0.3496
   Eigenvalues:    -1.6845     8.6643    15.1343
     66  Bq   Isotropic =     4.0091   Anisotropy =    12.1777
   XX=     5.0475   YX=     0.2396   ZX=     0.5789
   XY=    -3.2609   YY=    11.3067   ZY=    -0.4595
   XZ=    -6.8918   YZ=     4.5908   ZZ=    -4.3268
   Eigenvalues:    -5.4344     5.3341    12.1276
     67  Bq   Isotropic =     6.9072   Anisotropy =    12.6443
   XX=     7.9494   YX=     1.5564   ZX=     0.5525
   XY=    -2.2915   YY=    15.3042   ZY=    -1.8362
   XZ=    -5.4005   YZ=     2.5825   ZZ=    -2.5320
   Eigenvalues:    -3.0698     8.4547    15.3367
     68  Bq   Isotropic =     2.9271   Anisotropy =    12.0534
   XX=     3.9804   YX=    -0.2941   ZX=     0.4413
   XY=    -3.5785   YY=     9.5652   ZY=    -0.0617
   XZ=    -7.4482   YZ=     5.0529   ZZ=    -4.7642
   Eigenvalues:    -6.1885     4.0072    10.9627
     69  Bq   Isotropic =     8.5409   Anisotropy =    13.0009
   XX=     9.6238   YX=     2.2373   ZX=     0.3322
   XY=    -1.6603   YY=    17.1292   ZY=    -2.8758
   XZ=    -4.4098   YZ=     0.8313   ZZ=    -1.1302
   Eigenvalues:    -1.5524     9.9670    17.2082
     70  Bq   Isotropic =     2.0969   Anisotropy =    11.9577
   XX=     3.1543   YX=    -0.7221   ZX=     0.2469
   XY=    -3.7912   YY=     8.0903   ZY=     0.2120
   XZ=    -7.9010   YZ=     5.2964   ZZ=    -4.9539
   Eigenvalues:    -6.6889     2.9108    10.0687
     71  Bq   Isotropic =    10.0217   Anisotropy =    13.3187
   XX=    11.1655   YX=     2.7982   ZX=    -0.0365
   XY=    -0.9679   YY=    18.3046   ZY=    -4.0857
   XZ=    -3.2164   YZ=    -1.4503   ZZ=     0.5948
   Eigenvalues:    -0.0220    11.1863    18.9008
     72  Bq   Isotropic =     1.4829   Anisotropy =    11.8638
   XX=     2.5220   YX=    -1.0484   ZX=     0.0249
   XY=    -3.9133   YY=     6.8720   ZY=     0.4065
   XZ=    -8.2583   YZ=     5.4020   ZZ=    -4.9455
   Eigenvalues:    -6.9821     2.0387     9.3920
     73  Bq   Isotropic =    11.0438   Anisotropy =    13.3810
   XX=    12.2422   YX=     3.0911   ZX=    -0.4998
   XY=    -0.2642   YY=    18.3311   ZY=    -5.2548
   XZ=    -1.8218   YZ=    -4.0543   ZZ=     2.5580
   Eigenvalues:     1.2354    11.9314    19.9644
     74  Bq   Isotropic =     1.0436   Anisotropy =    11.7538
   XX=     2.0378   YX=    -1.2855   ZX=    -0.2018
   XY=    -3.9611   YY=     5.8765   ZY=     0.5532
   XZ=    -8.5249   YZ=     5.4236   ZZ=    -4.7834
   Eigenvalues:    -7.1111     1.3625     8.8795
     75  Bq   Isotropic =    11.3285   Anisotropy =    12.9894
   XX=    12.5380   YX=     3.0053   ZX=    -0.9217
   XY=     0.3815   YY=    16.9332   ZY=    -6.0524
   XZ=    -0.2857   YZ=    -6.5082   ZZ=     4.5142
   Eigenvalues:     1.8911    12.1063    19.9881
     76  Bq   Isotropic =     5.3519   Anisotropy =    12.3649
   XX=     6.3815   YX=     0.8680   ZX=     0.6266
   XY=    -2.8307   YY=    13.2682   ZY=    -1.0353
   XZ=    -6.2172   YZ=     3.8052   ZZ=    -3.5940
   Eigenvalues:    -4.3920     6.8525    13.5952
     77  Bq   Isotropic =     2.6477   Anisotropy =    12.2065
   XX=     4.0474   YX=     0.1500   ZX=     0.4534
   XY=    -2.9982   YY=    10.2847   ZY=    -1.1009
   XZ=    -6.0834   YZ=     3.4856   ZZ=    -6.3890
   Eigenvalues:    -7.1378     4.2956    10.7854
     78  Bq   Isotropic =     4.6109   Anisotropy =    13.0983
   XX=     6.0513   YX=     1.1789   ZX=     0.4664
   XY=    -2.2254   YY=    13.2894   ZY=    -2.6200
   XZ=    -4.5611   YZ=     1.2383   ZZ=    -5.5079
   Eigenvalues:    -5.8907     6.3804    13.3431
     79  Bq   Isotropic =     1.8940   Anisotropy =    11.8654
   XX=     3.2768   YX=    -0.2889   ZX=     0.3263
   XY=    -3.2623   YY=     8.8604   ZY=    -0.6200
   XZ=    -6.6799   YZ=     4.0994   ZZ=    -6.4553
   Eigenvalues:    -7.4852     3.3628     9.8042
     80  Bq   Isotropic =     5.6800   Anisotropy =    13.5489
   XX=     7.1577   YX=     1.6793   ZX=     0.3165
   XY=    -1.7328   YY=    14.4820   ZY=    -3.6771
   XZ=    -3.6101   YZ=    -0.5145   ZZ=    -4.5997
   Eigenvalues:    -5.0476     7.3750    14.7126
     81  Bq   Isotropic =     1.3088   Anisotropy =    11.6001
   XX=     2.6627   YX=    -0.6525   ZX=     0.1523
   XY=    -3.4483   YY=     7.6040   ZY=    -0.2705
   XZ=    -7.1785   YZ=     4.4861   ZZ=    -6.3404
   Eigenvalues:    -7.6688     2.5530     9.0422
     82  Bq   Isotropic =     6.6206   Anisotropy =    13.8598
   XX=     8.1408   YX=     2.0708   ZX=     0.0683
   XY=    -1.1975   YY=    15.0723   ZY=    -4.8407
   XZ=    -2.5204   YZ=    -2.6416   ZZ=    -3.3512
   Eigenvalues:    -4.1838     8.1852    15.8605
     83  Bq   Isotropic =     0.8746   Anisotropy =    11.3905
   XX=     2.1801   YX=    -0.9401   ZX=    -0.0451
   XY=    -3.5649   YY=     6.5316   ZY=    -0.0116
   XZ=    -7.5833   YZ=     4.7171   ZZ=    -6.0878
   Eigenvalues:    -7.7180     1.8737     8.4683
     84  Bq   Isotropic =     7.2522   Anisotropy =    13.8883
   XX=     8.8028   YX=     2.2641   ZX=    -0.2305
   XY=    -0.6537   YY=    14.7642   ZY=    -5.9230
   XZ=    -1.3045   YZ=    -4.9323   ZZ=    -1.8105
   Eigenvalues:    -3.4507     8.6961    16.5110
     85  Bq   Isotropic =     0.5670   Anisotropy =    11.2128
   XX=     1.8018   YX=    -1.1582   ZX=    -0.2471
   XY=    -3.6227   YY=     5.6323   ZY=     0.1876
   XZ=    -7.8973   YZ=     4.8445   ZZ=    -5.7330
   Eigenvalues:    -7.6599     1.3188     8.0423
     86  Bq   Isotropic =     7.4284   Anisotropy =    13.5342
   XX=     8.9783   YX=     2.2022   ZX=    -0.4920
   XY=    -0.1430   YY=    13.4452   ZY=    -6.6780
   XZ=    -0.0048   YZ=    -7.0362   ZZ=    -0.1384
   Eigenvalues:    -3.0003     8.8342    16.4512
     87  Bq   Isotropic =     3.5674   Anisotropy =    12.6270
   XX=     4.9829   YX=     0.6502   ZX=     0.5078
   XY=    -2.6515   YY=    11.8098   ZY=    -1.7574
   XZ=    -5.3810   YZ=     2.5588   ZZ=    -6.0905
   Eigenvalues:    -6.6048     5.3217    11.9854
     88  Bq   Isotropic =     1.5118   Anisotropy =    11.9341
   XX=     3.2468   YX=     0.0765   ZX=     0.3256
   XY=    -2.6994   YY=     9.1428   ZY=    -1.7037
   XZ=    -5.4242   YZ=     2.4066   ZZ=    -7.8543
   Eigenvalues:    -8.4120     3.4795     9.4678
     89  Bq   Isotropic =     2.7694   Anisotropy =    13.0326
   XX=     4.5660   YX=     0.8757   ZX=     0.3852
   XY=    -2.0563   YY=    11.2974   ZY=    -3.2444
   XZ=    -3.9050   YZ=     0.0869   ZZ=    -7.5553
   Eigenvalues:    -7.9466     4.7969    11.4578
     90  Bq   Isotropic =     1.0170   Anisotropy =    11.4757
   XX=     2.7113   YX=    -0.2835   ZX=     0.2046
   XY=    -2.9323   YY=     8.0240   ZY=    -1.1701
   XZ=    -6.0426   YZ=     3.1292   ZZ=    -7.6844
   Eigenvalues:    -8.4660     2.8494     8.6674
     91  Bq   Isotropic =     3.4351   Anisotropy =    13.5255
   XX=     5.2610   YX=     1.2425   ZX=     0.3030
   XY=    -1.6595   YY=    12.0204   ZY=    -4.2356
   XZ=    -2.9996   YZ=    -1.5564   ZZ=    -6.9762
   Eigenvalues:    -7.5531     5.4062    12.4521
     92  Bq   Isotropic =     0.6301   Anisotropy =    11.1152
   XX=     2.2689   YX=    -0.5931   ZX=     0.0470
   XY=    -3.1065   YY=     6.9931   ZY=    -0.7607
   XZ=    -6.5695   YZ=     3.6357   ZZ=    -7.3716
   Eigenvalues:    -8.4173     2.2675     8.0403
     93  Bq   Isotropic =     4.0098   Anisotropy =    13.8401
   XX=     5.8607   YX=     1.5180   ZX=     0.1572
   XY=    -1.2328   YY=    12.2353   ZY=    -5.2763
   XZ=    -1.9998   YZ=    -3.4424   ZZ=    -6.0665
   Eigenvalues:    -7.1098     5.9027    13.2366
     94  Bq   Isotropic =     0.3450   Anisotropy =    10.8422
   XX=     1.9095   YX=    -0.8476   ZX=    -0.1292
   XY=    -3.2268   YY=     6.0816   ZY=    -0.4437
   XZ=    -7.0059   YZ=     3.9826   ZZ=    -6.9561
   Eigenvalues:    -8.2846     1.7464     7.5731
     95  Bq   Isotropic =     4.3904   Anisotropy =    13.8741
   XX=     6.2523   YX=     1.6490   ZX=    -0.0161
   XY=    -0.7995   YY=    11.7746   ZY=    -6.2152
   XZ=    -0.9208   YZ=    -5.3914   ZZ=    -4.8558
   Eigenvalues:    -6.6885     6.2198    13.6398
     96  Bq   Isotropic =     0.1485   Anisotropy =    10.6329
   XX=     1.6194   YX=    -1.0491   ZX=    -0.3089
   XY=    -3.2992   YY=     5.2954   ZY=    -0.1924
   XZ=    -7.3529   YZ=     4.2146   ZZ=    -6.4695
   Eigenvalues:    -8.0849     1.2931     7.2371
     97  Bq   Isotropic =     4.4978   Anisotropy =    13.5729
   XX=     6.3468   YX=     1.6068   ZX=    -0.1607
   XY=    -0.3849   YY=    10.6018   ZY=    -6.8764
   XZ=     0.2073   YZ=    -7.1534   ZZ=    -3.4551
   Eigenvalues:    -6.3619     6.3090    13.5464
     98  Bq   Isotropic =     2.1067   Anisotropy =    12.4718
   XX=     3.8738   YX=     0.4724   ZX=     0.3909
   XY=    -2.4063   YY=    10.2768   ZY=    -2.3911
   XZ=    -4.7126   YZ=     1.4078   ZZ=    -7.8305
   Eigenvalues:    -8.2398     4.1387    10.4213
     99  Bq   Isotropic =     0.6136   Anisotropy =    11.4194
   XX=     2.6620   YX=     0.0195   ZX=     0.2001
   XY=    -2.3871   YY=     7.9737   ZY=    -2.2052
   XZ=    -4.9000   YZ=     1.4575   ZZ=    -8.7948
   Eigenvalues:    -9.2788     2.8931     8.2266
    100  Bq   Isotropic =     1.3772   Anisotropy =    12.5658
   XX=     3.5049   YX=     0.6467   ZX=     0.3079
   XY=    -1.8230   YY=     9.4585   ZY=    -3.6731
   XZ=    -3.4039   YZ=    -0.8033   ZZ=    -8.8317
   Eigenvalues:    -9.3035     3.6807     9.7544
    101  Bq   Isotropic =     0.3090   Anisotropy =    10.9206
   XX=     2.2970   YX=    -0.2786   ZX=     0.0814
   XY=    -2.6050   YY=     7.1239   ZY=    -1.6536
   XZ=    -5.5256   YZ=     2.2381   ZZ=    -8.4937
   Eigenvalues:    -9.1417     2.4793     7.5895
    102  Bq   Isotropic =     1.7729   Anisotropy =    13.0546
   XX=     3.9240   YX=     0.9204   ZX=     0.2853
   XY=    -1.4889   YY=     9.8586   ZY=    -4.5526
   XZ=    -2.5418   YZ=    -2.2808   ZZ=    -8.4640
   Eigenvalues:    -9.1832     4.0259    10.4759
    103  Bq   Isotropic =     0.0726   Anisotropy =    10.5264
   XX=     1.9825   YX=    -0.5447   ZX=    -0.0640
   XY=    -2.7781   YY=     6.3047   ZY=    -1.2088
   XZ=    -6.0663   YZ=     2.8279   ZZ=    -8.0695
   Eigenvalues:    -8.9377     2.0652     7.0902
    104  Bq   Isotropic =     2.1100   Anisotropy =    13.3598
   XX=     4.2728   YX=     1.1205   ZX=     0.2222
   XY=    -1.1350   YY=     9.8522   ZY=    -5.4403
   XZ=    -1.6140   YZ=    -3.9035   ZZ=    -7.7950
   Eigenvalues:    -8.9901     4.3036    11.0166
    105  Bq   Isotropic =    -0.0965   Anisotropy =    10.2361
   XX=     1.7170   YX=    -0.7722   ZX=    -0.2226
   XY=    -2.9080   YY=     5.5538   ZY=    -0.8494
   XZ=    -6.5202   YZ=     3.2663   ZZ=    -7.5603
   Eigenvalues:    -8.6804     1.6633     6.7276
    106  Bq   Isotropic =     2.3317   Anisotropy =    13.4034
   XX=     4.4900   YX=     1.2153   ZX=     0.1438
   XY=    -0.7768   YY=     9.3475   ZY=    -6.2212
   XZ=    -0.6360   YZ=    -5.5310   ZZ=    -6.8423
   Eigenvalues:    -8.7523     4.4802    11.2673
    107  Bq   Isotropic =    -0.2045   Anisotropy =    10.0282
   XX=     1.4949   YX=    -0.9596   ZX=    -0.3827
   XY=    -2.9976   YY=     4.8872   ZY=    -0.5552
   XZ=    -6.8872   YZ=     3.5880   ZZ=    -6.9956
   Eigenvalues:    -8.3817     1.2872     6.4810
    108  Bq   Isotropic =     2.3959   Anisotropy =    13.1506
   XX=     4.5287   YX=     1.1898   ZX=     0.0855
   XY=    -0.4304   YY=     8.3411   ZY=    -6.7713
   XZ=     0.3696   YZ=    -6.9875   ZZ=    -5.6820
   Eigenvalues:    -8.5029     4.5277    11.1630
    109  Bq   Isotropic =     0.9774   Anisotropy =    11.9902
   XX=     3.0713   YX=     0.3357   ZX=     0.2789
   XY=    -2.1251   YY=     8.7864   ZY=    -2.8791
   XZ=    -4.1916   YZ=     0.4497   ZZ=    -8.9254
   Eigenvalues:    -9.3357     3.2970     8.9709
    110  Bq   Isotropic =    -0.0672   Anisotropy =    10.7339
   XX=     2.2757   YX=    -0.0239   ZX=     0.0809
   XY=    -2.0807   YY=     6.8444   ZY=    -2.5820
   XZ=    -4.4876   YZ=     0.6820   ZZ=    -9.3217
   Eigenvalues:    -9.8024     2.5121     7.0887
    111  Bq   Isotropic =     0.3689   Anisotropy =    11.8303
   XX=     2.8094   YX=     0.4812   ZX=     0.2352
   XY=    -1.5592   YY=     7.8322   ZY=    -3.9191
   XZ=    -3.0236   YZ=    -1.4375   ZZ=    -9.5350
   Eigenvalues:   -10.1036     2.9545     8.2557
    112  Bq   Isotropic =    -0.2390   Anisotropy =    10.2466
   XX=     2.0262   YX=    -0.2759   ZX=    -0.0389
   XY=    -2.2946   YY=     6.2164   ZY=    -2.0415
   XZ=    -5.1110   YZ=     1.4769   ZZ=    -8.9595
   Eigenvalues:    -9.5528     2.2438     6.5921
    113  Bq   Isotropic =     0.5931   Anisotropy =    12.2836
   XX=     3.0552   YX=     0.6929   ZX=     0.2630
   XY=    -1.2636   YY=     8.0232   ZY=    -4.6703
   XZ=    -2.1986   YZ=    -2.7323   ZZ=    -9.2990
   Eigenvalues:   -10.1334     3.1305     8.7822
    114  Bq   Isotropic =    -0.3669   Anisotropy =     9.8648
   XX=     1.8008   YX=    -0.5088   ZX=    -0.1759
   XY=    -2.4734   YY=     5.5830   ZY=    -1.5855
   XZ=    -5.6547   YZ=     2.1128   ZZ=    -8.4846
   Eigenvalues:    -9.2545     1.9441     6.2096
    115  Bq   Isotropic =     0.7829   Anisotropy =    12.5631
   XX=     3.2481   YX=     0.8457   ZX=     0.2657
   XY=    -0.9564   YY=     7.8986   ZY=    -5.4024
   XZ=    -1.3260   YZ=    -4.1050   ZZ=    -8.7980
   Eigenvalues:   -10.0774     3.2677     9.1583
    116  Bq   Isotropic =    -0.4498   Anisotropy =     9.5949
   XX=     1.6017   YX=    -0.7149   ZX=    -0.3204
   XY=    -2.6163   YY=     4.9812   ZY=    -1.2022
   XZ=    -6.1153   YZ=     2.6138   ZZ=    -7.9324
   Eigenvalues:    -8.9194     1.6231     5.9468
    117  Bq   Isotropic =     0.9076   Anisotropy =    12.6077
   XX=     3.3561   YX=     0.9204   ZX=     0.2599
   XY=    -0.6485   YY=     7.4094   ZY=    -6.0312
   XZ=    -0.4208   YZ=    -5.4503   ZZ=    -8.0427
   Eigenvalues:    -9.9422     3.3522     9.3128
    118  Bq   Isotropic =    -0.4907   Anisotropy =     9.4171
   XX=     1.4281   YX=    -0.8907   ZX=    -0.4639
   XY=    -2.7240   YY=     4.4316   ZY=    -0.8784
   XZ=    -6.4917   YZ=     3.0042   ZZ=    -7.3318
   Eigenvalues:    -8.5578     1.2984     5.7874
    119  Bq   Isotropic =     0.9453   Anisotropy =    12.3937
   XX=     3.3558   YX=     0.9090   ZX=     0.2673
   XY=    -0.3503   YY=     6.5652   ZY=    -6.4707
   XZ=     0.4984   YZ=    -6.6461   ZZ=    -7.0849
   Eigenvalues:    -9.7414     3.3696     9.2078
    120  Bq   Isotropic =     0.1406   Anisotropy =    11.2853
   XX=     2.5417   YX=     0.2346   ZX=     0.1743
   XY=    -1.8340   YY=     7.4091   ZY=    -3.2114
   XZ=    -3.7896   YZ=    -0.2895   ZZ=    -9.5289
   Eigenvalues:    -9.9903     2.7480     7.6642
    121  Bq   Isotropic =    -0.5647   Anisotropy =     9.9427
   XX=     2.0572   YX=    -0.0588   ZX=    -0.0291
   XY=    -1.7948   YY=     5.7946   ZY=    -2.8361
   XZ=    -4.1627   YZ=     0.0842   ZZ=    -9.5460
   Eigenvalues:   -10.0581     2.3002     6.0638
    122  Bq   Isotropic =    -0.3385   Anisotropy =    10.9400
   XX=     2.3999   YX=     0.3641   ZX=     0.1689
   XY=    -1.2918   YY=     6.4290   ZY=    -4.0165
   XZ=    -2.7323   YZ=    -1.8545   ZZ=    -9.8445
   Eigenvalues:   -10.4975     2.5271     6.9548
    123  Bq   Isotropic =    -0.6470   Anisotropy =     9.4996
   XX=     1.8815   YX=    -0.2782   ZX=    -0.1525
   XY=    -2.0118   YY=     5.3415   ZY=    -2.3266
   XZ=    -4.7783   YZ=     0.8621   ZZ=    -9.1639
   Eigenvalues:    -9.7499     2.1229     5.6861
    124  Bq   Isotropic =    -0.2193   Anisotropy =    11.3440
   XX=     2.5412   YX=     0.5364   ZX=     0.2389
   XY=    -1.0181   YY=     6.4917   ZY=    -4.6414
   XZ=    -1.9371   YZ=    -2.9737   ZZ=    -9.6909
   Eigenvalues:   -10.6011     2.5997     7.3434
    125  Bq   Isotropic =    -0.6997   Anisotropy =     9.1643
[...]
   138  Bq   0.000000
   139  Bq   0.000000
   140  Bq   0.000000
   141  Bq   0.000000
   142  Bq   0.000000
   143  Bq   0.000000
   144  Bq   0.000000
   145  Bq   0.000000
   146  Bq   0.000000
   147  Bq   0.000000
   148  Bq   0.000000
   149  Bq   0.000000
   150  Bq   0.000000
   151  Bq   0.000000
   152  Bq   0.000000
   153  Bq   0.000000
   154  Bq   0.000000
   155  Bq   0.000000
   156  Bq   0.000000
   157  Bq   0.000000
   158  Bq   0.000000
   159  Bq   0.000000
   160  Bq   0.000000
   161  Bq   0.000000
   162  Bq   0.000000
   163  Bq   0.000000
   164  Bq   0.000000
   165  Bq   0.000000
   166  Bq   0.000000
   167  Bq   0.000000
   168  Bq   0.000000
   169  Bq   0.000000
   170  Bq   0.000000
   171  Bq   0.000000
   172  Bq   0.000000
   173  Bq   0.000000
   174  Bq   0.000000
   175  Bq   0.000000
   176  Bq   0.000000
   177  Bq   0.000000
   178  Bq   0.000000
   179  Bq   0.000000
   180  Bq   0.000000
   181  Bq   0.000000
   182  Bq   0.000000
   183  Bq   0.000000
   184  Bq   0.000000
   185  Bq   0.000000
   186  Bq   0.000000
   187  Bq   0.000000
   188  Bq   0.000000
   189  Bq   0.000000
   190  Bq   0.000000
   191  Bq   0.000000
   192  Bq   0.000000
   193  Bq   0.000000
   194  Bq   0.000000
   195  Bq   0.000000
   196  Bq   0.000000
   197  Bq   0.000000
   198  Bq   0.000000
   199  Bq   0.000000
   200  Bq   0.000000
   201  Bq   0.000000
   202  Bq   0.000000
   203  Bq   0.000000
   204  Bq   0.000000
   205  Bq   0.000000
   206  Bq   0.000000
   207  Bq   0.000000
   208  Bq   0.000000
   209  Bq   0.000000
   210  Bq   0.000000
   211  Bq   0.000000
   212  Bq   0.000000
   213  Bq   0.000000
   214  Bq   0.000000
   215  Bq   0.000000
   216  Bq   0.000000
   217  Bq   0.000000
   218  Bq   0.000000
   219  Bq   0.000000
   220  Bq   0.000000
   221  Bq   0.000000
   222  Bq   0.000000
   223  Bq   0.000000
   224  Bq   0.000000
   225  Bq   0.000000
   226  Bq   0.000000
   227  Bq   0.000000
   228  Bq   0.000000
   229  Bq   0.000000
   230  Bq   0.000000
   231  Bq   0.000000
   232  Bq   0.000000
   233  Bq   0.000000
   234  Bq   0.000000
   235  Bq   0.000000
   236  Bq   0.000000
 Sum of Mulliken charges =   0.00000
 Mulliken charges with hydrogens summed into heavy atoms:
               1
     1  C   -0.379265
     3  C    0.053849
     5  C    0.448258
     6  C    0.064351
     7  C   -0.333926
     9  C   -0.139521
    11  C   -0.205988
    13  C   -0.119315
    15  C    0.653397
    16  C    0.034822
    17  C   -0.317410
    19  C   -0.316854
    21  C    0.651066
    22  C    0.037784
    23  C   -0.117289
    25  C   -0.205316
    27  C    0.448331
    28  C    0.061983
    29  C   -0.333381
    31  C   -0.139505
    33  C   -0.255977
    35  C    0.170579
    37  Bq   0.000000
    38  Bq   0.000000
    39  Bq   0.000000
    40  Bq   0.000000
    41  Bq   0.000000
    42  Bq   0.115559
    43  Bq   0.000000
    44  Bq   0.000000
    45  Bq   0.000000
    46  Bq   0.000000
    47  Bq   0.000000
    48  Bq   0.000000
    49  Bq   0.000000
    50  Bq   0.000000
    51  Bq   0.000000
    52  Bq   0.000000
    53  Bq   0.000000
    54  Bq   0.000000
    55  Bq   0.000000
    56  Bq   0.000000
    57  Bq   0.000000
    58  Bq   0.000000
    59  Bq   0.000000
    60  Bq   0.000000
    61  Bq   0.000000
    62  Bq   0.000000
    63  Bq   0.000000
    64  Bq   0.000000
    65  Bq   0.000000
    66  Bq   0.000000
    67  Bq   0.000000
    68  Bq   0.000000
    69  Bq   0.000000
    70  Bq   0.000000
    71  Bq   0.000000
    72  Bq   0.000000
    73  Bq   0.000000
    74  Bq   0.000000
    75  Bq   0.000000
    76  Bq   0.000000
    77  Bq   0.000000
    78  Bq   0.000000
    79  Bq   0.000000
    80  Bq   0.000000
    81  Bq   0.000000
    82  Bq   0.000000
    83  Bq   0.000000
    84  Bq   0.000000
    85  Bq   0.000000
    86  Bq   0.000000
    87  Bq   0.000000
    88  Bq   0.000000
    89  Bq   0.000000
    90  Bq   0.000000
    91  Bq   0.000000
    92  Bq   0.000000
    93  Bq   0.000000
    94  Bq   0.000000
    95  Bq   0.000000
    96  Bq   0.000000
    97  Bq   0.000000
    98  Bq   0.000000
    99  Bq   0.000000
   100  Bq   0.000000
   101  Bq   0.000000
   102  Bq   0.000000
   103  Bq   0.000000
   104  Bq   0.000000
   105  Bq   0.000000
   106  Bq   0.000000
   107  Bq   0.000000
   108  Bq   0.000000
   109  Bq   0.000000
   110  Bq   0.000000
   111  Bq   0.000000
   112  Bq   0.000000
   113  Bq   0.000000
   114  Bq   0.000000
   115  Bq   0.000000
   116  Bq   0.000000
   117  Bq   0.000000
   118  Bq   0.000000
   119  Bq   0.000000
   120  Bq   0.000000
   121  Bq   0.000000
   122  Bq   0.000000
   123  Bq   0.000000
   124  Bq   0.000000
   125  Bq   0.000000
   126  Bq   0.000000
   127  Bq   0.000000
   128  Bq   0.000000
   129  Bq   0.000000
   130  Bq   0.000000
   131  Bq   0.000000
   132  Bq   0.000000
   133  Bq   0.000000
   134  Bq   0.000000
   135  Bq   0.000000
   136  Bq   0.000000
   137  Bq   0.000000
   138  Bq   0.000000
   139  Bq   0.000000
   140  Bq   0.000000
   141  Bq   0.000000
   142  Bq   0.000000
   143  Bq   0.000000
   144  Bq   0.000000
   145  Bq   0.000000
   146  Bq   0.000000
   147  Bq   0.000000
   148  Bq   0.000000
   149  Bq   0.000000
   150  Bq   0.000000
   151  Bq   0.000000
   152  Bq   0.000000
   153  Bq   0.000000
   154  Bq   0.000000
   155  Bq   0.000000
   156  Bq   0.000000
   157  Bq   0.000000
   158  Bq   0.000000
   159  Bq   0.000000
   160  Bq   0.000000
   161  Bq   0.000000
   162  Bq   0.000000
   163  Bq   0.000000
   164  Bq   0.000000
   165  Bq   0.000000
   166  Bq   0.000000
   167  Bq   0.000000
   168  Bq   0.000000
   169  Bq   0.000000
   170  Bq   0.000000
   171  Bq   0.000000
   172  Bq   0.000000
   173  Bq   0.000000
   174  Bq   0.000000
   175  Bq   0.000000
   176  Bq   0.000000
   177  Bq   0.000000
   178  Bq   0.000000
   179  Bq   0.000000
   180  Bq   0.000000
   181  Bq   0.000000
   182  Bq   0.000000
   183  Bq   0.000000
   184  Bq   0.000000
   185  Bq   0.000000
   186  Bq   0.000000
   187  Bq   0.000000
   188  Bq   0.000000
   189  Bq   0.000000
   190  Bq   0.000000
   191  Bq   0.000000
   192  Bq   0.000000
   193  Bq   0.000000
   194  Bq   0.000000
   195  Bq   0.000000
   196  Bq   0.000000
   197  Bq   0.000000
   198  Bq   0.000000
   199  Bq   0.000000
   200  Bq   0.000000
   201  Bq   0.000000
   202  Bq   0.000000
   203  Bq   0.000000
   204  Bq   0.000000
   205  Bq   0.000000
   206  Bq   0.000000
   207  Bq   0.000000
   208  Bq   0.000000
   209  Bq   0.000000
   210  Bq   0.000000
   211  Bq   0.000000
   212  Bq   0.000000
   213  Bq   0.000000
   214  Bq   0.000000
   215  Bq   0.000000
   216  Bq   0.000000
   217  Bq   0.000000
   218  Bq   0.000000
   219  Bq   0.000000
   220  Bq   0.000000
   221  Bq   0.000000
   222  Bq   0.000000
   223  Bq   0.000000
   224  Bq   0.000000
   225  Bq   0.000000
   226  Bq   0.000000
   227  Bq   0.000000
   228  Bq   0.000000
   229  Bq   0.000000
   230  Bq   0.000000
   231  Bq   0.000000
   232  Bq   0.000000
   233  Bq   0.000000
   234  Bq   0.000000
   235  Bq   0.000000
   236  Bq   0.123768
 Electronic spatial extent (au):  <R**2>=           5736.9264
 Charge=              0.0000 electrons
 Dipole moment (field-independent basis, Debye):
    X=              0.0475    Y=              0.0856    Z=              0.0029  Tot=              0.0979
 Quadrupole moment (field-independent basis, Debye-Ang):
   XX=           -113.7056   YY=           -113.9456   ZZ=           -133.2669
   XY=             -0.3834   XZ=              3.2102   YZ=             -1.1839
 Traceless Quadrupole moment (field-independent basis, Debye-Ang):
   XX=              6.6005   YY=              6.3604   ZZ=            -12.9609
   XY=             -0.3834   XZ=              3.2102   YZ=             -1.1839
 Octapole moment (field-independent basis, Debye-Ang**2):
  XXX=            -16.4668  YYY=            -16.1860  ZZZ=             -1.7007  XYY=              2.5576
  XXY=             -6.5650  XXZ=             13.6547  XZZ=             -8.9478  YZZ=            -17.7168
  YYZ=            -13.2941  XYZ=              8.8036
 Hexadecapole moment (field-independent basis, Debye-Ang**3):
 XXXX=          -3951.1638 YYYY=          -3112.2161 ZZZZ=           -504.8311 XXXY=            340.6935
 XXXZ=            156.4968 YYYX=            335.5625 YYYZ=            -87.0893 ZZZX=            120.2262
 ZZZY=           -108.7373 XXYY=          -1176.4844 XXZZ=           -856.7291 YYZZ=           -665.7275
 XXYZ=            -68.9016 YYXZ=             48.1602 ZZXY=            153.0375
 N-N= 1.610917615562D+03 E-N=-5.186891130729D+03  KE= 8.436329774449D+02
 1\1\GINC-MUHKA\SP\RB3LYP\6-311+G(d,p)\C22H14\YANNICK\23-Aug-2020\0\\# 
 rb3lyp/6-311+g** NMR geom=connectivity\\Title\\0,1\C,0,-4.0500558,-0.5
 771862,0.8136712\H,0,-5.0263804,-1.0082727,1.002476\C,0,-3.9381552,0.6
 617804,0.2400876\H,0,-4.8252424,1.233889,-0.0111295\C,0,-2.676841,1.24
 33246,0.0057578\C,0,-1.4974121,0.5051527,0.2848253\C,0,-1.6508332,-0.7
 338728,0.9404026\H,0,-0.7713646,-1.2730967,1.2633753\C,0,-2.8898548,-1
 .2624035,1.1994307\H,0,-2.9683706,-2.2124563,1.7152676\C,0,-2.5773185,
 2.5963696,-0.419293\H,0,-3.4870728,3.1412239,-0.6474055\C,0,-1.3741895
 ,3.2147896,-0.436403\H,0,-1.2997315,4.2742019,-0.6578144\C,0,-0.171948
 8,2.499409,-0.1734588\C,0,-0.2043917,1.1018437,0.0192689\C,0,1.0513491
 ,3.204256,-0.0676222\H,0,1.0427344,4.2819499,-0.1896997\C,0,2.1942091,
 2.5487446,0.2579577\H,0,3.1168527,3.0912848,0.4334727\C,0,2.2216473,1.
 1336562,0.293499\C,0,1.0486931,0.3945528,0.0302412\C,0,3.4483363,0.461
 4633,0.5573939\H,0,4.3095794,1.0606054,0.8334846\C,0,3.5427346,-0.8855
 926,0.4749463\H,0,4.4731467,-1.3939704,0.7038822\C,0,2.4490052,-1.6474
 447,-0.0196319\C,0,1.2150704,-1.0057258,-0.3013573\C,0,0.2531113,-1.74
 3444,-1.0216591\H,0,-0.6541356,-1.2535051,-1.3462847\C,0,0.4494193,-3.
 0628597,-1.3413779\H,0,-0.3083162,-3.5944309,-1.905406\C,0,1.6251726,-
 3.7207967,-0.9552541\H,0,1.7670048,-4.7687404,-1.1927019\C,0,2.6109872
 ,-3.0144177,-0.318305\H,0,3.5525612,-3.4902813,-0.0646367\Bq,0,-4.6842
 829156,1.5813804334,0.6848791324\Bq,0,-4.6821589422,1.3204841314,0.144
 5749511\Bq,0,-4.6846369112,1.6248631504,0.7749298293\Bq,0,-4.681804946
 6,1.2770014144,0.0545242542\Bq,0,-4.6849909068,1.6683458674,0.86498052
 61\Bq,0,-4.681450951,1.2335186974,-0.0355264427\Bq,0,-4.6832209289,1.4
 509322824,0.4147270417\Bq,0,-4.6834039922,1.5844663921,0.4612953576\Bq
 ,0,-4.682696001,1.4975009581,0.2811939638\Bq,0,-4.6837579878,1.6279491
 091,0.5513460545\Bq,0,-4.6823420055,1.4540182411,0.1911432669\Bq,0,-4.
 6841119833,1.6714318261,0.6413967513\Bq,0,-4.6819880099,1.4105355241,0
 .10109257\Bq,0,-4.6844659789,1.7149145431,0.7314474482\Bq,0,-4.6816340
 143,1.3670528071,0.0110418732\Bq,0,-4.6848199745,1.7583972601,0.821498
 1451\Bq,0,-4.6812800187,1.3235700901,-0.0790088237\Bq,0,-4.6830499966,
 1.5409836751,0.3712446607\Bq,0,-4.6832330599,1.6745177848,0.4178129765
 \Bq,0,-4.6825250688,1.5875523507,0.2377115828\Bq,0,-4.6835870555,1.718
 0005018,0.5078636734\Bq,0,-4.6821710732,1.5440696337,0.1476608859\Bq,0
 ,-4.6839410511,1.7614832188,0.5979143703\Bq,0,-4.6818170776,1.50058691
 67,0.057610189\Bq,0,-4.6842950466,1.8049659358,0.6879650672\Bq,0,-4.68
 1463082,1.4571041997,-0.0324405079\Bq,0,-4.6846490422,1.8484486528,0.7
 780157641\Bq,0,-4.6811090865,1.4136214827,-0.1224912048\Bq,0,-4.682879
 0643,1.6310350678,0.3277622797\Bq,0,-4.6830621276,1.7645691774,0.37433
 05955\Bq,0,-4.6823541365,1.6776037434,0.1942292017\Bq,0,-4.6834161232,
 1.8080518944,0.4643812924\Bq,0,-4.6820001409,1.6341210264,0.1041785049
 \Bq,0,-4.6837701188,1.8515346114,0.5544319893\Bq,0,-4.6816461453,1.590
 6383094,0.014127808\Bq,0,-4.6841241144,1.8950173284,0.6444826862\Bq,0,
 -4.6812921498,1.5471555924,-0.0759228889\Bq,0,-4.6844781099,1.93850004
 54,0.734533383\Bq,0,-4.6809381542,1.5036728754,-0.1659735858\Bq,0,-4.6
 827081321,1.7210864604,0.2842798986\Bq,0,-4.6828911954,1.8546205701,0.
 3308482145\Bq,0,-4.6821832042,1.7676551361,0.1507468207\Bq,0,-4.683245
 1909,1.8981032871,0.4208989114\Bq,0,-4.6818292086,1.7241724191,0.06069
 61238\Bq,0,-4.6835991865,1.9415860041,0.5109496082\Bq,0,-4.6814752131,
 1.6806897021,-0.0293545731\Bq,0,-4.6839531821,1.9850687211,0.601000305
 1\Bq,0,-4.6811212175,1.6372069851,-0.1194052699\Bq,0,-4.6843071777,2.0
 285514381,0.691051002\Bq,0,-4.6807672219,1.5937242681,-0.2094559668\Bq
 ,0,-4.6825371998,1.8111378531,0.2407975176\Bq,0,-4.6827202631,1.944671
 9628,0.2873658334\Bq,0,-4.6820122719,1.8577065288,0.1072644397\Bq,0,-4
 .6830742587,1.9881546798,0.3774165303\Bq,0,-4.6816582764,1.8142238118,
 0.0172137428\Bq,0,-4.6834282542,2.0316373968,0.4674672272\Bq,0,-4.6813
 042808,1.7707410947,-0.0728369541\Bq,0,-4.6837822498,2.0751201138,0.55
 75179241\Bq,0,-4.6809502852,1.7272583777,-0.162887651\Bq,0,-4.68413624
 54,2.1186028308,0.647568621\Bq,0,-4.6805962896,1.6837756607,-0.2529383
 479\Bq,0,-4.6823662675,1.9011892458,0.1973151366\Bq,0,-4.6825493308,2.
 0347233554,0.2438834524\Bq,0,-4.6818413397,1.9477579214,0.0637820586\B
 q,0,-4.6829033264,2.0782060724,0.3339341493\Bq,0,-4.6814873441,1.90427
 52044,-0.0262686382\Bq,0,-4.683257322,2.1216887894,0.4239848462\Bq,0,-
 4.6811333485,1.8607924874,-0.1163193351\Bq,0,-4.6836113175,2.165171506
 5,0.5140355431\Bq,0,-4.6807793529,1.8173097704,-0.206370032\Bq,0,-4.68
 39653131,2.2086542235,0.6040862399\Bq,0,-4.6804253574,1.7738270534,-0.
 2964207289\Bq,0,-4.6821953352,1.9912406384,0.1538327555\Bq,0,-4.682378
 3985,2.1247747481,0.2004010714\Bq,0,-4.6816704074,2.0378093141,0.02029
 96776\Bq,0,-4.6827323941,2.1682574651,0.2904517683\Bq,0,-4.6813164118,
 1.9943265971,-0.0697510193\Bq,0,-4.6830863897,2.2117401821,0.380502465
 1\Bq,0,-4.6809624162,1.9508438801,-0.1598017162\Bq,0,-4.6834403853,2.2
 552228991,0.470553162\Bq,0,-4.6806084207,1.9073611631,-0.249852413\Bq,
 0,-4.6837943808,2.2987056161,0.5606038589\Bq,0,-4.6802544251,1.8638784
 461,-0.3399031099\Bq,0,-4.682024403,2.0812920311,0.1103503745\Bq,0,-4.
 6822074663,2.2148261408,0.1569186903\Bq,0,-4.6814994751,2.1278607068,-
 0.0231827034\Bq,0,-4.6825614618,2.2583088578,0.2469693872\Bq,0,-4.6811
 454795,2.0843779898,-0.1132334003\Bq,0,-4.6829154574,2.3017915748,0.33
 70200841\Bq,0,-4.680791484,2.0408952728,-0.2032840972\Bq,0,-4.68326945
 3,2.3452742918,0.427070781\Bq,0,-4.6804374884,1.9974125558,-0.29333479
 41\Bq,0,-4.6836234486,2.3887570088,0.5171214779\Bq,0,-4.6800834928,1.9
 539298388,-0.3833854909\Bq,0,-4.6818534707,2.1713434238,0.0668679935\B
 q,0,-4.682036534,2.3048775334,0.1134363093\Bq,0,-4.6813285428,2.217912
 0994,-0.0666650845\Bq,0,-4.6823905296,2.3483602505,0.2034870062\Bq,0,-
 4.6809745473,2.1744293824,-0.1567157813\Bq,0,-4.6827445251,2.391842967
 5,0.2935377031\Bq,0,-4.6806205517,2.1309466654,-0.2467664782\Bq,0,-4.6
 830985207,2.4353256845,0.3835884\Bq,0,-4.6802665561,2.0874639484,-0.33
 68171751\Bq,0,-4.6834525163,2.4788084015,0.4736390968\Bq,0,-4.67991256
 05,2.0439812314,-0.426867872\Bq,0,-4.6816825384,2.2613948164,0.0233856
 124\Bq,0,-4.6818656017,2.3949289261,0.0699539283\Bq,0,-4.6811576106,2.
 3079634921,-0.1101474655\Bq,0,-4.6822195973,2.4384116431,0.1600046252\
 Bq,0,-4.680803615,2.2644807751,-0.2001981624\Bq,0,-4.6825735929,2.4818
 943601,0.250055322\Bq,0,-4.6804496194,2.2209980581,-0.2902488592\Bq,0,
 -4.6829275884,2.5253770771,0.3401060189\Bq,0,-4.6800956238,2.177515341
 1,-0.3802995561\Bq,0,-4.683281584,2.5688597941,0.4301567158\Bq,0,-4.67
 97416283,2.1340326241,-0.470350253\Bq,0,-4.6815116061,2.3514462091,-0.
 0200967686\Bq,0,-4.6816946694,2.4849803188,0.0264715472\Bq,0,-4.680986
 6783,2.3980148848,-0.1536298465\Bq,0,-4.682048665,2.5284630358,0.11652
 22441\Bq,0,-4.6806326827,2.3545321678,-0.2436805434\Bq,0,-4.6824026606
 ,2.5719457528,0.206572941\Bq,0,-4.6802786871,2.3110494508,-0.333731240
 3\Bq,0,-4.6827566562,2.6154284698,0.2966236379\Bq,0,-4.6799246916,2.26
 75667338,-0.4237819372\Bq,0,-4.6831106517,2.6589111868,0.3866743348\Bq
 ,0,-4.679570696,2.2240840168,-0.513832634\Bq,0,-4.6813406739,2.4414976
 018,-0.0635791496\Bq,0,-4.5902420558,-2.0175893147,2.2009837028\Bq,0,-
 4.5895340647,-2.1045547487,2.020882309\Bq,0,-4.5905960514,-1.974106597
 7,2.2910343997\Bq,0,-4.5891800691,-2.1480374658,1.9308316122\Bq,0,-4.5
 90950047,-1.9306238807,2.3810850966\Bq,0,-4.5888260735,-2.1915201828,1
 .8407809153\Bq,0,-4.5913040426,-1.8871411637,2.4711357935\Bq,0,-4.5884
 72078,-2.2350028998,1.7507302184\Bq,0,-4.5916580381,-1.8436584467,2.56
 11864903\Bq,0,-4.5881180824,-2.2784856168,1.6606795215\Bq,0,-4.5898880
 603,-2.0610720317,2.1109330059\Bq,0,-4.5900711236,-1.9275379221,2.1575
 013218\Bq,0,-4.5893631324,-2.0145033561,1.977399928\Bq,0,-4.5904251191
 ,-1.8840552051,2.2475520187\Bq,0,-4.5890091368,-2.0579860731,1.8873492
 311\Bq,0,-4.5907791147,-1.8405724881,2.3376027155\Bq,0,-4.5886551413,-
 2.1014687901,1.7972985343\Bq,0,-4.5911331103,-1.7970897711,2.427653412
 4\Bq,0,-4.5883011457,-2.1449515071,1.7072478374\Bq,0,-4.5914871059,-1.
 753607054,2.5177041093\Bq,0,-4.5879471501,-2.1884342241,1.6171971405\B
 q,0,-4.589717128,-1.9710206391,2.0674506249\Bq,0,-4.5899001913,-1.8374
 865294,2.1140189407\Bq,0,-4.5891922001,-1.9244519634,1.933917547\Bq,0,
 -4.5902541869,-1.7940038124,2.2040696376\Bq,0,-4.5888382046,-1.9679346
 804,1.8438668501\Bq,0,-4.5906081824,-1.7505210954,2.2941203345\Bq,0,-4
 .588484209,-2.0114173974,1.7538161532\Bq,0,-4.590962178,-1.7070383784,
 2.3841710314\Bq,0,-4.5881302134,-2.0549001144,1.6637654563\Bq,0,-4.591
 3161736,-1.6635556614,2.4742217283\Bq,0,-4.5877762178,-2.0983828314,1.
 5737147595\Bq,0,-4.5895461957,-1.8809692464,2.0239682439\Bq,0,-4.58972
 9259,-1.7474351367,2.0705365597\Bq,0,-4.5890212679,-1.8344005707,1.890
 435166\Bq,0,-4.5900832546,-1.7039524197,2.1605872566\Bq,0,-4.588667272
 3,-1.8778832877,1.8003844691\Bq,0,-4.5904372502,-1.6604697027,2.250637
 9535\Bq,0,-4.5883132767,-1.9213660047,1.7103337722\Bq,0,-4.5907912457,
 -1.6169869857,2.3406886504\Bq,0,-4.5879592811,-1.9648487217,1.62028307
 53\Bq,0,-4.5911452413,-1.5735042687,2.4307393472\Bq,0,-4.5876052856,-2
 .0083314388,1.5302323784\Bq,0,-4.5893752634,-1.7909178537,1.9804858628
 \Bq,0,-4.5895583267,-1.6573837441,2.0270541787\Bq,0,-4.5888503356,-1.7
 443491781,1.8469527849\Bq,0,-4.5899123223,-1.613901027,2.1171048756\Bq
 ,0,-4.58849634,-1.7878318951,1.756902088\Bq,0,-4.5902663179,-1.5704183
 1,2.2071555724\Bq,0,-4.5881423444,-1.8313146121,1.6668513912\Bq,0,-4.5
 906203135,-1.526935593,2.2972062693\Bq,0,-4.5877883489,-1.8747973291,1
 .5768006943\Bq,0,-4.590974309,-1.483452876,2.3872569662\Bq,0,-4.587434
 3533,-1.9182800461,1.4867499974\Bq,0,-4.5892043312,-1.7008664611,1.937
 0034818\Bq,0,-4.5893873945,-1.5673323514,1.9835717977\Bq,0,-4.58867940
 33,-1.6542977854,1.8034704039\Bq,0,-4.58974139,-1.5238496344,2.0736224
 945\Bq,0,-4.5883254077,-1.6977805024,1.713419707\Bq,0,-4.5900953856,-1
 .4803669174,2.1636731914\Bq,0,-4.5879714122,-1.7412632194,1.6233690101
 \Bq,0,-4.5904493812,-1.4368842004,2.2537238883\Bq,0,-4.5876174166,-1.7
 847459364,1.5333183132\Bq,0,-4.5908033768,-1.3934014834,2.3437745852\B
 q,0,-4.587263421,-1.8282286534,1.4432676164\Bq,0,-4.5890333989,-1.6108
 150684,1.8935211008\Bq,0,-4.5892164622,-1.4772809587,1.9400894166\Bq,0
 ,-4.588508471,-1.5642463927,1.7599880229\Bq,0,-4.5895704578,-1.4337982
 417,2.0301401135\Bq,0,-4.5881544755,-1.6077291097,1.669937326\Bq,0,-4.
 5899244533,-1.3903155247,2.1201908104\Bq,0,-4.5878004799,-1.6512118267
 ,1.5798866291\\Version=ES64L-G09RevD.01\HF=-847.0032898\RMSD=7.517e-09
 \Dipole=0.0186808,0.0336671,0.0011595\Quadrupole=4.9072795,4.7288219,-
 9.6361014,-0.2850201,2.3867064,-0.880172\PG=C01 [X(C22H14)]\\@


 There was a great rattling of the words for the fewness of ideas.
                   -- Charles Baxter in Gryphon
 Job cpu time:       0 days  2 hours 33 minutes 34.8 seconds.
 File lengths (MBytes):  RWF=    184 Int=      0 D2E=      0 Chk=     19 Scr=      1
 Normal termination of Gaussian 09 at Sun Aug 23 00:58:00 2020.
