 Entering Gaussian System, Link 0=g09
 Input=input_cycle_04_batch_20800.com
 Output=input_cycle_04_batch_20800.log
 Initial command:
 /share/programs/GAUSSIAN/64/g09/l1.exe "/scratch/yannick.30558/Gau-26689.inp" -scrdir="/scratch/yannick.30558/"
 Entering Link 1 = /share/programs/GAUSSIAN/64/g09/l1.exe PID=     26690.
  
 Copyright (c) 1988,1990,1992,1993,1995,1998,2003,2009,2013,
            Gaussian, Inc.  All Rights Reserved.
  
 This is part of the Gaussian(R) 09 program.  It is based on
 the Gaussian(R) 03 system (copyright 2003, Gaussian, Inc.),
 the Gaussian(R) 98 system (copyright 1998, Gaussian, Inc.),
 the Gaussian(R) 94 system (copyright 1995, Gaussian, Inc.),
 the Gaussian 92(TM) system (copyright 1992, Gaussian, Inc.),
 the Gaussian 90(TM) system (copyright 1990, Gaussian, Inc.),
 the Gaussian 88(TM) system (copyright 1988, Gaussian, Inc.),
 the Gaussian 86(TM) system (copyright 1986, Carnegie Mellon
 University), and the Gaussian 82(TM) system (copyright 1983,
 Carnegie Mellon University). Gaussian is a federally registered
 trademark of Gaussian, Inc.
  
 This software contains proprietary and confidential information,
 including trade secrets, belonging to Gaussian, Inc.
  
 This software is provided under written license and may be
 used, copied, transmitted, or stored only in accord with that
 written license.
  
 The following legend is applicable only to US Government
 contracts under FAR:
  
                    RESTRICTED RIGHTS LEGEND
  
 Use, reproduction and disclosure by the US Government is
 subject to restrictions as set forth in subparagraphs (a)
 and (c) of the Commercial Computer Software - Restricted
 Rights clause in FAR 52.227-19.
  
 Gaussian, Inc.
 340 Quinnipiac St., Bldg. 40, Wallingford CT 06492
  
  
 ---------------------------------------------------------------
 Warning -- This program may not be used in any manner that
 competes with the business of Gaussian, Inc. or will provide
 assistance to any competitor of Gaussian, Inc.  The licensee
 of this program is prohibited from giving any competitor of
 Gaussian, Inc. access to this program.  By using this program,
 the user acknowledges that Gaussian, Inc. is engaged in the
 business of creating and licensing software in the field of
 computational chemistry and represents and warrants to the
 licensee that it is not a competitor of Gaussian, Inc. and that
 it will not use this program in any manner prohibited above.
 ---------------------------------------------------------------
  

 Cite this work as:
 Gaussian 09, Revision D.01,
 M. J. Frisch, G. W. Trucks, H. B. Schlegel, G. E. Scuseria, 
 M. A. Robb, J. R. Cheeseman, G. Scalmani, V. Barone, B. Mennucci, 
 G. A. Petersson, H. Nakatsuji, M. Caricato, X. Li, H. P. Hratchian, 
 A. F. Izmaylov, J. Bloino, G. Zheng, J. L. Sonnenberg, M. Hada, 
 M. Ehara, K. Toyota, R. Fukuda, J. Hasegawa, M. Ishida, T. Nakajima, 
 Y. Honda, O. Kitao, H. Nakai, T. Vreven, J. A. Montgomery, Jr., 
 J. E. Peralta, F. Ogliaro, M. Bearpark, J. J. Heyd, E. Brothers, 
 K. N. Kudin, V. N. Staroverov, T. Keith, R. Kobayashi, J. Normand, 
 K. Raghavachari, A. Rendell, J. C. Burant, S. S. Iyengar, J. Tomasi, 
 M. Cossi, N. Rega, J. M. Millam, M. Klene, J. E. Knox, J. B. Cross, 
 V. Bakken, C. Adamo, J. Jaramillo, R. Gomperts, R. E. Stratmann, 
 O. Yazyev, A. J. Austin, R. Cammi, C. Pomelli, J. W. Ochterski, 
 R. L. Martin, K. Morokuma, V. G. Zakrzewski, G. A. Voth, 
 P. Salvador, J. J. Dannenberg, S. Dapprich, A. D. Daniels, 
 O. Farkas, J. B. Foresman, J. V. Ortiz, J. Cioslowski, 
 and D. J. Fox, Gaussian, Inc., Wallingford CT, 2013.
 
 ******************************************
 Gaussian 09:  ES64L-G09RevD.01 24-Apr-2013
                22-Aug-2020 
 ******************************************
 %nproc=8
 Will use up to    8 processors via shared memory.
 %mem=1000MB
 ----------------------------------------
 # rb3lyp/6-311+g** NMR geom=connectivity
 ----------------------------------------
 1/38=1,57=2/1;
 2/12=2,17=6,18=5,40=1/2;
 3/5=4,6=6,7=111,11=2,16=1,25=1,30=1,74=-5,116=1/1,2,8,3;
 4//1;
 5/5=2,38=5/2;
 8/6=1,10=90,11=11/1;
 10/13=100,45=16/2;
 6/7=2,8=2,9=2,10=2,28=1/1;
 99/9=1/99;
 -----
 Title
 -----
 Symbolic Z-matrix:
 Charge =  0 Multiplicity = 1
 C                    -4.05006  -0.57719   0.81367 
 H                    -5.02638  -1.00827   1.00248 
 C                    -3.93816   0.66178   0.24009 
 H                    -4.82524   1.23389  -0.01113 
 C                    -2.67684   1.24332   0.00576 
 C                    -1.49741   0.50515   0.28483 
 C                    -1.65083  -0.73387   0.9404 
 H                    -0.77136  -1.2731    1.26338 
 C                    -2.88985  -1.2624    1.19943 
 H                    -2.96837  -2.21246   1.71527 
 C                    -2.57732   2.59637  -0.41929 
 H                    -3.48707   3.14122  -0.64741 
 C                    -1.37419   3.21479  -0.4364 
 H                    -1.29973   4.2742   -0.65781 
 C                    -0.17195   2.49941  -0.17346 
 C                    -0.20439   1.10184   0.01927 
 C                     1.05135   3.20426  -0.06762 
 H                     1.04273   4.28195  -0.1897 
 C                     2.19421   2.54874   0.25796 
 H                     3.11685   3.09128   0.43347 
 C                     2.22165   1.13366   0.2935 
 C                     1.04869   0.39455   0.03024 
 C                     3.44834   0.46146   0.55739 
 H                     4.30958   1.06061   0.83348 
 C                     3.54273  -0.88559   0.47495 
 H                     4.47315  -1.39397   0.70388 
 C                     2.44901  -1.64744  -0.01963 
 C                     1.21507  -1.00573  -0.30136 
 C                     0.25311  -1.74344  -1.02166 
 H                    -0.65414  -1.25351  -1.34628 
 C                     0.44942  -3.06286  -1.34138 
 H                    -0.30832  -3.59443  -1.90541 
 C                     1.62517  -3.7208   -0.95525 
 H                     1.767    -4.76874  -1.1927 
 C                     2.61099  -3.01442  -0.31831 
 H                     3.55256  -3.49028  -0.06464 
 Bq                    3.56103  -2.4358    0.18154 
 Bq                    3.43264  -2.50694   0.65951 
 Bq                    3.40327  -2.42218   0.76884 
 Bq                    3.45463  -2.39373   0.57765 
 Bq                    3.37759  -2.43641   0.86443 
 Bq                    3.4803   -2.3795    0.48206 
 Bq                    3.35191  -2.45064   0.96003 
 Bq                    3.50598  -2.36527   0.38646 
 Bq                    3.32623  -2.46487   1.05562 
 Bq                    3.53166  -2.35105   0.29087 
 Bq                    3.30055  -2.47909   1.15121 
 Bq                    3.55734  -2.33682   0.19528 
 Bq                    3.42895  -2.40796   0.67325 
 Bq                    3.39958  -2.3232    0.78258 
 Bq                    3.45094  -2.29475   0.59139 
 Bq                    3.3739   -2.33743   0.87817 
 Bq                    3.47661  -2.28052   0.4958 
 Bq                    3.34822  -2.35166   0.97377 
 Bq                    3.50229  -2.26629   0.40021 
 Bq                    3.32254  -2.36588   1.06936 
 Bq                    3.52797  -2.25206   0.30461 
 Bq                    3.29686  -2.38011   1.16496 
 Bq                    3.55365  -2.23784   0.20902 
 Bq                    3.42526  -2.30897   0.68699 
 Bq                    3.39589  -2.22422   0.79632 
 Bq                    3.44724  -2.19576   0.60513 
 Bq                    3.37021  -2.23845   0.89191 
 Bq                    3.47292  -2.18154   0.50954 
 Bq                    3.34453  -2.25267   0.98751 
 Bq                    3.4986   -2.16731   0.41395 
 Bq                    3.31885  -2.2669    1.0831 
 Bq                    3.52428  -2.15308   0.31835 
 Bq                    3.29317  -2.28113   1.1787 
 Bq                    3.54996  -2.13885   0.22276 
 Bq                    3.42157  -2.20999   0.70073 
 Bq                    3.3922   -2.12524   0.81006 
 Bq                    3.44355  -2.09678   0.61887 
 Bq                    3.36652  -2.13946   0.90566 
 Bq                    3.46923  -2.08255   0.52328 
 Bq                    3.34084  -2.15369   1.00125 
 Bq                    3.49491  -2.06833   0.42769 
 Bq                    3.31516  -2.16792   1.09684 
 Bq                    3.52059  -2.0541    0.33209 
 Bq                    3.28948  -2.18215   1.19244 
 Bq                    3.54627  -2.03987   0.2365 
 Bq                    3.41787  -2.11101   0.71447 
 Bq                    3.3885   -2.02625   0.8238 
 Bq                    3.43986  -1.9978    0.63261 
 Bq                    3.36283  -2.04048   0.9194 
 Bq                    3.46554  -1.98357   0.53702 
 Bq                    3.33715  -2.05471   1.01499 
 Bq                    3.49122  -1.96934   0.44143 
 Bq                    3.31147  -2.06894   1.11058 
 Bq                    3.5169   -1.95512   0.34583 
 Bq                    3.28579  -2.08316   1.20618 
 Bq                    3.54258  -1.94089   0.25024 
 Bq                    3.41418  -2.01203   0.72821 
 Bq                    3.38481  -1.92727   0.83754 
 Bq                    3.43617  -1.89882   0.64636 
 Bq                    3.35913  -1.9415    0.93314 
 Bq                    3.46185  -1.88459   0.55076 
 Bq                    3.33346  -1.95573   1.02873 
 Bq                    3.48753  -1.87036   0.45517 
 Bq                    3.30778  -1.96995   1.12432 
 Bq                    3.51321  -1.85613   0.35957 
 Bq                    3.2821   -1.98418   1.21992 
 Bq                    3.53889  -1.8419    0.26398 
 Bq                    3.41049  -1.91304   0.74195 
 Bq                    3.38112  -1.82829   0.85128 
 Bq                    3.43248  -1.79983   0.6601 
 Bq                    3.35544  -1.84252   0.94688 
 Bq                    3.45816  -1.78561   0.5645 
 Bq                    3.32976  -1.85674   1.04247 
 Bq                    3.48384  -1.77138   0.46891 
 Bq                    3.30409  -1.87097   1.13806 
 Bq                    3.50952  -1.75715   0.37331 
 Bq                    3.27841  -1.8852    1.23366 
 Bq                    3.5352   -1.74292   0.27772 
 Bq                    3.4068   -1.81406   0.75569 
 Bq                    3.37743  -1.72931   0.86502 
 Bq                    3.42879  -1.70085   0.67384 
 Bq                    3.35175  -1.74353   0.96062 
 Bq                    3.45447  -1.68662   0.57824 
 Bq                    3.32607  -1.75776   1.05621 
 Bq                    3.48015  -1.67239   0.48265 
 Bq                    3.30039  -1.77199   1.1518 
 Bq                    3.50583  -1.65817   0.38705 
 Bq                    3.27472  -1.78622   1.2474 
 Bq                    3.5315   -1.64394   0.29146 
 Bq                    3.40311  -1.71508   0.76943 
 Bq                    3.37374  -1.63032   0.87876 
 Bq                    3.4251   -1.60187   0.68758 
 Bq                    3.34806  -1.64455   0.97436 
 Bq                    3.45078  -1.58764   0.59198 
 Bq                    3.32238  -1.65878   1.06995 
 Bq                    3.47646  -1.57341   0.49639 
 Bq                    3.2967   -1.67301   1.16555 
 Bq                    3.50213  -1.55918   0.4008 
 Bq                    3.27102  -1.68723   1.26114 
 Bq                    3.52781  -1.54496   0.3052 
 Bq                    3.39942  -1.6161    0.78317 
 Bq                    3.37005  -1.53134   0.8925 
 Bq                    3.42141  -1.50288   0.70132 
 Bq                    3.34437  -1.54557   0.9881 
 Bq                    3.44709  -1.48866   0.60572 
 Bq                    3.31869  -1.5598    1.08369 
 Bq                    3.47276  -1.47443   0.51013 
 Bq                    3.29301  -1.57402   1.17929 
 Bq                    3.49844  -1.4602    0.41454 
 Bq                    3.26733  -1.58825   1.27488 
 Bq                    3.52412  -1.44597   0.31894 
 Bq                    3.39573  -1.51711   0.79691 
 Bq                    3.36636  -1.43236   0.90625 
 Bq                    3.41772  -1.4039    0.71506 
 Bq                    3.34068  -1.44659   1.00184 
 Bq                    3.44339  -1.38967   0.61946 
 Bq                    3.315    -1.46081   1.09743 
 Bq                    3.46907  -1.37545   0.52387 
 Bq                    3.28932  -1.47504   1.19303 
 Bq                    3.49475  -1.36122   0.42828 
 Bq                    3.26364  -1.48927   1.28862 
 Bq                    3.52043  -1.34699   0.33268 
 Bq                    3.39204  -1.41813   0.81065 
 Bq                    3.36267  -1.33337   0.91999 
 Bq                    3.41402  -1.30492   0.7288 
 Bq                    3.33699  -1.3476    1.01558 
 Bq                    3.4397   -1.29069   0.6332 
 Bq                    3.31131  -1.36183   1.11117 
 Bq                    3.46538  -1.27646   0.53761 
 Bq                    3.28563  -1.37606   1.20677 
 Bq                    3.49106  -1.26224   0.44202 
 Bq                    3.25995  -1.39029   1.30236 
 Bq                    3.51674  -1.24801   0.34642 
 Bq                    3.38835  -1.31915   0.82439 
 Bq                    3.35898  -1.23439   0.93373 
 Bq                    3.41033  -1.20594   0.74254 
 Bq                    3.3333   -1.24862   1.02932 
 Bq                    3.43601  -1.19171   0.64695 
 Bq                    3.30762  -1.26285   1.12491 
 Bq                    3.46169  -1.17748   0.55135 
 Bq                    3.28194  -1.27707   1.22051 
 Bq                    3.48737  -1.16325   0.45576 
 Bq                    3.25626  -1.2913    1.3161 
 Bq                    3.51305  -1.14903   0.36016 
 Bq                    3.38465  -1.22016   0.83813 
 Bq                    3.35528  -1.13541   0.94747 
 Bq                    3.40664  -1.10695   0.75628 
 Bq                    3.32961  -1.14964   1.04306 
 Bq                    3.43232  -1.09273   0.66069 
 Bq                    3.30393  -1.16386   1.13865 
 Bq                    3.458    -1.0785    0.56509 
 Bq                    3.27825  -1.17809   1.23425 
 Bq                    3.48368  -1.06427   0.4695 
 Bq                    3.25257  -1.19232   1.32984 
 Bq                    3.50936  -1.05004   0.3739 
 Bq                    3.38096  -1.12118   0.85187 
 Bq                    3.35159  -1.03643   0.96121 
 Bq                    3.40295  -1.00797   0.77002 
 Bq                    3.32591  -1.05065   1.0568 
 Bq                    3.42863  -0.99374   0.67443 
 Bq                    3.30024  -1.06488   1.15239 
 Bq                    3.45431  -0.97952   0.57883 
 Bq                    3.27456  -1.07911   1.24799 
 Bq                    3.47999  -0.96529   0.48324 
 Bq                    3.24888  -1.09334   1.34358 
 Bq                    3.50567  -0.95106   0.38764 
 Bq                    3.37727  -1.0222    0.86561 
 Bq                    3.3479   -0.93744   0.97495 
 Bq                    3.39926  -0.90899   0.78376 
 Bq                    3.32222  -0.95167   1.07054 
 Bq                    3.42494  -0.89476   0.68817 
 Bq                    3.29654  -0.9659    1.16614 
 Bq                    3.45062  -0.88053   0.59257 
 Bq                    3.27087  -0.98013   1.26173 
 Bq                    3.4763   -0.86631   0.49698 
 Bq                    3.24519  -0.99435   1.35732 
 Bq                    3.50198  -0.85208   0.40139 
 Bq                    3.37358  -0.92322   0.87935 
 Bq                    3.34421  -0.83846   0.98869 
 Bq                    3.39557  -0.81001   0.7975 
 Bq                    3.31853  -0.85269   1.08428 
 Bq                    3.42125  -0.79578   0.70191 
 Bq                    3.29285  -0.86692   1.17988 
 Bq                    3.44693  -0.78155   0.60631 
 Bq                    3.26717  -0.88114   1.27547 
 Bq                    3.47261  -0.76732   0.51072 
 Bq                    3.2415   -0.89537   1.37106 
 Bq                    3.49828  -0.7531    0.41513 
 Bq                    3.36989  -0.82423   0.89309 
 Bq                    3.34052  -0.73948   1.00243 
 Bq                    3.39188  -0.71102   0.81124 
 Bq                    3.31484  -0.75371   1.09802 
 Bq                    3.41756  -0.6968    0.71565 
 Bq                    3.28916  -0.76793   1.19362 
 Bq                    3.44324  -0.68257   0.62005 
 Bq                    3.26348  -0.78216   1.28921 
 Bq                    3.46891  -0.66834   0.52446 
 Bq                    3.23781  -0.79639   1.3848 
 Bq                    3.49459  -0.65411   0.42887 
 Bq                    3.3662   -0.72525   0.90684 
 
 Symmetry turned off:
 Cannot cope with ghost atoms or with translation vectors.
 Stoichiometry    C22H14
 Framework group  C1[X(C22H14)]
 NUMDOF-- NAT=    36 NAtoms=   236
 Deg. of freedom     0
 Full point group                 C1      NOp   1
                          Input orientation:                          
 ---------------------------------------------------------------------
 Center     Atomic      Atomic             Coordinates (Angstroms)
 Number     Number       Type             X           Y           Z
 ---------------------------------------------------------------------
      1          6           0       -4.050056   -0.577186    0.813671
      2          1           0       -5.026380   -1.008273    1.002476
      3          6           0       -3.938155    0.661780    0.240088
      4          1           0       -4.825242    1.233889   -0.011130
      5          6           0       -2.676841    1.243325    0.005758
      6          6           0       -1.497412    0.505153    0.284825
      7          6           0       -1.650833   -0.733873    0.940403
      8          1           0       -0.771365   -1.273097    1.263375
      9          6           0       -2.889855   -1.262404    1.199431
     10          1           0       -2.968371   -2.212456    1.715268
     11          6           0       -2.577319    2.596370   -0.419293
     12          1           0       -3.487073    3.141224   -0.647406
     13          6           0       -1.374190    3.214790   -0.436403
     14          1           0       -1.299732    4.274202   -0.657814
     15          6           0       -0.171949    2.499409   -0.173459
     16          6           0       -0.204392    1.101844    0.019269
     17          6           0        1.051349    3.204256   -0.067622
     18          1           0        1.042734    4.281950   -0.189700
     19          6           0        2.194209    2.548745    0.257958
     20          1           0        3.116853    3.091285    0.433473
     21          6           0        2.221647    1.133656    0.293499
     22          6           0        1.048693    0.394553    0.030241
     23          6           0        3.448336    0.461463    0.557394
     24          1           0        4.309579    1.060605    0.833485
     25          6           0        3.542735   -0.885593    0.474946
     26          1           0        4.473147   -1.393970    0.703882
     27          6           0        2.449005   -1.647445   -0.019632
     28          6           0        1.215070   -1.005726   -0.301357
     29          6           0        0.253111   -1.743444   -1.021659
     30          1           0       -0.654136   -1.253505   -1.346285
     31          6           0        0.449419   -3.062860   -1.341378
     32          1           0       -0.308316   -3.594431   -1.905406
     33          6           0        1.625173   -3.720797   -0.955254
     34          1           0        1.767005   -4.768740   -1.192702
     35          6           0        2.610987   -3.014418   -0.318305
     36          1           0        3.552561   -3.490281   -0.064637
     37          0           0        3.561033   -2.435801    0.181537
     38          0           0        3.432638   -2.506939    0.659506
     39          0           0        3.403268   -2.422184    0.768840
     40          0           0        3.454626   -2.393729    0.577652
     41          0           0        3.377589   -2.436412    0.864434
     42          0           0        3.480305   -2.379501    0.482059
     43          0           0        3.351911   -2.450640    0.960027
     44          0           0        3.505984   -2.365274    0.386465
     45          0           0        3.326232   -2.464867    1.055621
     46          0           0        3.531663   -2.351046    0.290871
     47          0           0        3.300553   -2.479095    1.151215
     48          0           0        3.557342   -2.336818    0.195277
     49          0           0        3.428947   -2.407957    0.673246
     50          0           0        3.399577   -2.323202    0.782580
     51          0           0        3.450935   -2.294746    0.591393
     52          0           0        3.373898   -2.337429    0.878174
     53          0           0        3.476614   -2.280519    0.495799
     54          0           0        3.348220   -2.351657    0.973768
     55          0           0        3.502293   -2.266291    0.400205
     56          0           0        3.322541   -2.365885    1.069362
     57          0           0        3.527972   -2.252063    0.304612
     58          0           0        3.296862   -2.380112    1.164956
     59          0           0        3.553650   -2.237836    0.209018
     60          0           0        3.425256   -2.308974    0.686987
     61          0           0        3.395886   -2.224219    0.796321
     62          0           0        3.447244   -2.195764    0.605133
     63          0           0        3.370207   -2.238447    0.891915
     64          0           0        3.472923   -2.181536    0.509540
     65          0           0        3.344529   -2.252674    0.987509
     66          0           0        3.498602   -2.167308    0.413946
     67          0           0        3.318850   -2.266902    1.083102
     68          0           0        3.524281   -2.153081    0.318352
     69          0           0        3.293171   -2.281130    1.178696
     70          0           0        3.549959   -2.138853    0.222758
     71          0           0        3.421565   -2.209991    0.700727
     72          0           0        3.392195   -2.125236    0.810062
     73          0           0        3.443553   -2.096781    0.618874
     74          0           0        3.366516   -2.139464    0.905655
     75          0           0        3.469232   -2.082553    0.523280
     76          0           0        3.340837   -2.153692    1.001249
     77          0           0        3.494911   -2.068326    0.427686
     78          0           0        3.315159   -2.167919    1.096843
     79          0           0        3.520590   -2.054098    0.332093
     80          0           0        3.289480   -2.182147    1.192437
     81          0           0        3.546268   -2.039870    0.236499
     82          0           0        3.417874   -2.111009    0.714468
     83          0           0        3.388504   -2.026254    0.823802
     84          0           0        3.439862   -1.997798    0.632615
     85          0           0        3.362825   -2.040481    0.919396
     86          0           0        3.465541   -1.983571    0.537021
     87          0           0        3.337146   -2.054709    1.014990
     88          0           0        3.491220   -1.969343    0.441427
     89          0           0        3.311468   -2.068937    1.110583
     90          0           0        3.516898   -1.955115    0.345833
     91          0           0        3.285789   -2.083164    1.206177
     92          0           0        3.542577   -1.940888    0.250239
     93          0           0        3.414183   -2.012026    0.728208
     94          0           0        3.384813   -1.927271    0.837543
     95          0           0        3.436171   -1.898816    0.646355
     96          0           0        3.359134   -1.941499    0.933136
     97          0           0        3.461850   -1.884588    0.550761
     98          0           0        3.333455   -1.955726    1.028730
     99          0           0        3.487529   -1.870360    0.455167
    100          0           0        3.307777   -1.969954    1.124324
    101          0           0        3.513207   -1.856133    0.359574
    102          0           0        3.282098   -1.984181    1.219918
    103          0           0        3.538886   -1.841905    0.263980
    104          0           0        3.410492   -1.913043    0.741949
    105          0           0        3.381122   -1.828288    0.851283
    106          0           0        3.432480   -1.799833    0.660096
    107          0           0        3.355443   -1.842516    0.946877
    108          0           0        3.458159   -1.785605    0.564502
    109          0           0        3.329764   -1.856743    1.042471
    110          0           0        3.483838   -1.771378    0.468908
    111          0           0        3.304085   -1.870971    1.138064
    112          0           0        3.509516   -1.757150    0.373314
    113          0           0        3.278407   -1.885199    1.233658
    114          0           0        3.535195   -1.742922    0.277720
    115          0           0        3.406801   -1.814061    0.755689
    116          0           0        3.377431   -1.729305    0.865024
    117          0           0        3.428789   -1.700850    0.673836
    118          0           0        3.351752   -1.743533    0.960617
    119          0           0        3.454468   -1.686622    0.578242
    120          0           0        3.326073   -1.757761    1.056211
    121          0           0        3.480146   -1.672395    0.482649
    122          0           0        3.300394   -1.771988    1.151805
    123          0           0        3.505825   -1.658167    0.387055
    124          0           0        3.274716   -1.786216    1.247399
    125          0           0        3.531504   -1.643940    0.291461
    126          0           0        3.403110   -1.715078    0.769430
    127          0           0        3.373740   -1.630323    0.878764
    128          0           0        3.425098   -1.601867    0.687577
    129          0           0        3.348061   -1.644550    0.974358
    130          0           0        3.450777   -1.587640    0.591983
    131          0           0        3.322382   -1.658778    1.069952
    132          0           0        3.476455   -1.573412    0.496389
    133          0           0        3.296703   -1.673006    1.165546
    134          0           0        3.502134   -1.559184    0.400795
    135          0           0        3.271024   -1.687233    1.261139
    136          0           0        3.527813   -1.544957    0.305202
    137          0           0        3.399419   -1.616095    0.783170
    138          0           0        3.370049   -1.531340    0.892505
    139          0           0        3.421407   -1.502885    0.701317
    140          0           0        3.344370   -1.545568    0.988099
    141          0           0        3.447085   -1.488657    0.605723
    142          0           0        3.318691   -1.559795    1.083692
    143          0           0        3.472764   -1.474429    0.510130
    144          0           0        3.293012   -1.574023    1.179286
    145          0           0        3.498443   -1.460202    0.414536
    146          0           0        3.267333   -1.588251    1.274880
    147          0           0        3.524122   -1.445974    0.318942
    148          0           0        3.395728   -1.517112    0.796911
    149          0           0        3.366358   -1.432357    0.906245
    150          0           0        3.417716   -1.403902    0.715058
    151          0           0        3.340679   -1.446585    1.001839
    152          0           0        3.443394   -1.389674    0.619464
    153          0           0        3.315000   -1.460813    1.097433
    154          0           0        3.469073   -1.375447    0.523870
    155          0           0        3.289321   -1.475040    1.193027
    156          0           0        3.494752   -1.361219    0.428276
    157          0           0        3.263642   -1.489268    1.288620
    158          0           0        3.520431   -1.346991    0.332683
    159          0           0        3.392037   -1.418130    0.810652
    160          0           0        3.362667   -1.333375    0.919986
    161          0           0        3.414025   -1.304919    0.728798
    162          0           0        3.336988   -1.347602    1.015580
    163          0           0        3.439703   -1.290692    0.633205
    164          0           0        3.311309   -1.361830    1.111173
    165          0           0        3.465382   -1.276464    0.537611
    166          0           0        3.285630   -1.376058    1.206767
    167          0           0        3.491061   -1.262236    0.442017
    168          0           0        3.259951   -1.390285    1.302361
    169          0           0        3.516740   -1.248009    0.346423
    170          0           0        3.388346   -1.319147    0.824392
    171          0           0        3.358976   -1.234392    0.933726
    172          0           0        3.410333   -1.205937    0.742539
    173          0           0        3.333297   -1.248620    1.029320
    174          0           0        3.436012   -1.191709    0.646945
    175          0           0        3.307618   -1.262847    1.124914
    176          0           0        3.461691   -1.177481    0.551351
    177          0           0        3.281939   -1.277075    1.220508
    178          0           0        3.487370   -1.163254    0.455757
    179          0           0        3.256260   -1.291303    1.316101
    180          0           0        3.513049   -1.149026    0.360164
    181          0           0        3.384655   -1.220164    0.838133
    182          0           0        3.355285   -1.135409    0.947467
    183          0           0        3.406642   -1.106954    0.756279
    184          0           0        3.329606   -1.149637    1.043061
    185          0           0        3.432321   -1.092726    0.660686
    186          0           0        3.303927   -1.163865    1.138654
    187          0           0        3.458000   -1.078499    0.565092
    188          0           0        3.278248   -1.178092    1.234248
    189          0           0        3.483679   -1.064271    0.469498
    190          0           0        3.252569   -1.192320    1.329842
    191          0           0        3.509358   -1.050043    0.373904
    192          0           0        3.380964   -1.121182    0.851873
    193          0           0        3.351594   -1.036427    0.961207
    194          0           0        3.402951   -1.007971    0.770020
    195          0           0        3.325915   -1.050654    1.056801
    196          0           0        3.428630   -0.993744    0.674426
    197          0           0        3.300236   -1.064882    1.152395
    198          0           0        3.454309   -0.979516    0.578832
    199          0           0        3.274557   -1.079110    1.247989
    200          0           0        3.479988   -0.965288    0.483239
    201          0           0        3.248878   -1.093337    1.343583
    202          0           0        3.505667   -0.951061    0.387645
    203          0           0        3.377273   -1.022199    0.865614
    204          0           0        3.347903   -0.937444    0.974948
    205          0           0        3.399260   -0.908989    0.783760
    206          0           0        3.322224   -0.951672    1.070542
    207          0           0        3.424939   -0.894761    0.688167
    208          0           0        3.296545   -0.965899    1.166136
    209          0           0        3.450618   -0.880533    0.592573
    210          0           0        3.270866   -0.980127    1.261729
    211          0           0        3.476297   -0.866306    0.496979
    212          0           0        3.245187   -0.994355    1.357323
    213          0           0        3.501976   -0.852078    0.401385
    214          0           0        3.373581   -0.923216    0.879354
    215          0           0        3.344212   -0.838461    0.988689
    216          0           0        3.395569   -0.810006    0.797501
    217          0           0        3.318533   -0.852689    1.084282
    218          0           0        3.421248   -0.795778    0.701907
    219          0           0        3.292854   -0.866917    1.179876
    220          0           0        3.446927   -0.781551    0.606313
    221          0           0        3.267175   -0.881144    1.275470
    222          0           0        3.472606   -0.767323    0.510720
    223          0           0        3.241496   -0.895372    1.371064
    224          0           0        3.498285   -0.753095    0.415126
    225          0           0        3.369890   -0.824234    0.893095
    226          0           0        3.340521   -0.739479    1.002429
    227          0           0        3.391878   -0.711023    0.811242
    228          0           0        3.314842   -0.753706    1.098023
    229          0           0        3.417557   -0.696796    0.715648
    230          0           0        3.289163   -0.767934    1.193617
    231          0           0        3.443236   -0.682568    0.620054
    232          0           0        3.263484   -0.782162    1.289210
    233          0           0        3.468915   -0.668340    0.524460
    234          0           0        3.237805   -0.796389    1.384804
    235          0           0        3.494594   -0.654113    0.428866
    236          0           0        3.366199   -0.725251    0.906835
 ---------------------------------------------------------------------
 Rotational constants (GHZ):      0.4529074      0.2836956      0.1879557
 Standard basis: 6-311+G(d,p) (5D, 7F)
 Warning:  center  37 has no basis functions!
 Warning:  center  38 has no basis functions!
 Warning:  center  39 has no basis functions!
 Warning:  center  40 has no basis functions!
 Warning:  center  41 has no basis functions!
 Warning:  center  42 has no basis functions!
 Warning:  center  43 has no basis functions!
 Warning:  center  44 has no basis functions!
 Warning:  center  45 has no basis functions!
 Warning:  center  46 has no basis functions!
 Warning:  center  47 has no basis functions!
 Warning:  center  48 has no basis functions!
 Warning:  center  49 has no basis functions!
 Warning:  center  50 has no basis functions!
 Warning:  center  51 has no basis functions!
 Warning:  center  52 has no basis functions!
 Warning:  center  53 has no basis functions!
 Warning:  center  54 has no basis functions!
 Warning:  center  55 has no basis functions!
 Warning:  center  56 has no basis functions!
 Warning:  center  57 has no basis functions!
 Warning:  center  58 has no basis functions!
 Warning:  center  59 has no basis functions!
 Warning:  center  60 has no basis functions!
 Warning:  center  61 has no basis functions!
 Warning:  center  62 has no basis functions!
 Warning:  center  63 has no basis functions!
 Warning:  center  64 has no basis functions!
 Warning:  center  65 has no basis functions!
 Warning:  center  66 has no basis functions!
 Warning:  center  67 has no basis functions!
 Warning:  center  68 has no basis functions!
 Warning:  center  69 has no basis functions!
 Warning:  center  70 has no basis functions!
 Warning:  center  71 has no basis functions!
 Warning:  center  72 has no basis functions!
 Warning:  center  73 has no basis functions!
 Warning:  center  74 has no basis functions!
 Warning:  center  75 has no basis functions!
 Warning:  center  76 has no basis functions!
 Warning:  center  77 has no basis functions!
 Warning:  center  78 has no basis functions!
 Warning:  center  79 has no basis functions!
 Warning:  center  80 has no basis functions!
 Warning:  center  81 has no basis functions!
 Warning:  center  82 has no basis functions!
 Warning:  center  83 has no basis functions!
 Warning:  center  84 has no basis functions!
 Warning:  center  85 has no basis functions!
 Warning:  center  86 has no basis functions!
 Warning:  center  87 has no basis functions!
 Warning:  center  88 has no basis functions!
 Warning:  center  89 has no basis functions!
 Warning:  center  90 has no basis functions!
 Warning:  center  91 has no basis functions!
 Warning:  center  92 has no basis functions!
 Warning:  center  93 has no basis functions!
 Warning:  center  94 has no basis functions!
 Warning:  center  95 has no basis functions!
 Warning:  center  96 has no basis functions!
 Warning:  center  97 has no basis functions!
 Warning:  center  98 has no basis functions!
 Warning:  center  99 has no basis functions!
 Warning:  center 100 has no basis functions!
 Warning:  center 101 has no basis functions!
 Warning:  center 102 has no basis functions!
 Warning:  center 103 has no basis functions!
 Warning:  center 104 has no basis functions!
 Warning:  center 105 has no basis functions!
 Warning:  center 106 has no basis functions!
 Warning:  center 107 has no basis functions!
 Warning:  center 108 has no basis functions!
 Warning:  center 109 has no basis functions!
 Warning:  center 110 has no basis functions!
 Warning:  center 111 has no basis functions!
 Warning:  center 112 has no basis functions!
 Warning:  center 113 has no basis functions!
 Warning:  center 114 has no basis functions!
 Warning:  center 115 has no basis functions!
 Warning:  center 116 has no basis functions!
 Warning:  center 117 has no basis functions!
 Warning:  center 118 has no basis functions!
 Warning:  center 119 has no basis functions!
 Warning:  center 120 has no basis functions!
 Warning:  center 121 has no basis functions!
 Warning:  center 122 has no basis functions!
 Warning:  center 123 has no basis functions!
 Warning:  center 124 has no basis functions!
 Warning:  center 125 has no basis functions!
 Warning:  center 126 has no basis functions!
 Warning:  center 127 has no basis functions!
 Warning:  center 128 has no basis functions!
 Warning:  center 129 has no basis functions!
 Warning:  center 130 has no basis functions!
 Warning:  center 131 has no basis functions!
 Warning:  center 132 has no basis functions!
 Warning:  center 133 has no basis functions!
 Warning:  center 134 has no basis functions!
 Warning:  center 135 has no basis functions!
 Warning:  center 136 has no basis functions!
 Warning:  center 137 has no basis functions!
 Warning:  center 138 has no basis functions!
 Warning:  center 139 has no basis functions!
 Warning:  center 140 has no basis functions!
 Warning:  center 141 has no basis functions!
 Warning:  center 142 has no basis functions!
 Warning:  center 143 has no basis functions!
 Warning:  center 144 has no basis functions!
 Warning:  center 145 has no basis functions!
 Warning:  center 146 has no basis functions!
 Warning:  center 147 has no basis functions!
 Warning:  center 148 has no basis functions!
 Warning:  center 149 has no basis functions!
 Warning:  center 150 has no basis functions!
 Warning:  center 151 has no basis functions!
 Warning:  center 152 has no basis functions!
 Warning:  center 153 has no basis functions!
 Warning:  center 154 has no basis functions!
 Warning:  center 155 has no basis functions!
 Warning:  center 156 has no basis functions!
 Warning:  center 157 has no basis functions!
 Warning:  center 158 has no basis functions!
 Warning:  center 159 has no basis functions!
 Warning:  center 160 has no basis functions!
 Warning:  center 161 has no basis functions!
 Warning:  center 162 has no basis functions!
 Warning:  center 163 has no basis functions!
 Warning:  center 164 has no basis functions!
 Warning:  center 165 has no basis functions!
 Warning:  center 166 has no basis functions!
 Warning:  center 167 has no basis functions!
 Warning:  center 168 has no basis functions!
 Warning:  center 169 has no basis functions!
 Warning:  center 170 has no basis functions!
 Warning:  center 171 has no basis functions!
 Warning:  center 172 has no basis functions!
 Warning:  center 173 has no basis functions!
 Warning:  center 174 has no basis functions!
 Warning:  center 175 has no basis functions!
 Warning:  center 176 has no basis functions!
 Warning:  center 177 has no basis functions!
 Warning:  center 178 has no basis functions!
 Warning:  center 179 has no basis functions!
 Warning:  center 180 has no basis functions!
 Warning:  center 181 has no basis functions!
 Warning:  center 182 has no basis functions!
 Warning:  center 183 has no basis functions!
 Warning:  center 184 has no basis functions!
 Warning:  center 185 has no basis functions!
 Warning:  center 186 has no basis functions!
 Warning:  center 187 has no basis functions!
 Warning:  center 188 has no basis functions!
 Warning:  center 189 has no basis functions!
 Warning:  center 190 has no basis functions!
 Warning:  center 191 has no basis functions!
 Warning:  center 192 has no basis functions!
 Warning:  center 193 has no basis functions!
 Warning:  center 194 has no basis functions!
 Warning:  center 195 has no basis functions!
 Warning:  center 196 has no basis functions!
 Warning:  center 197 has no basis functions!
 Warning:  center 198 has no basis functions!
 Warning:  center 199 has no basis functions!
 Warning:  center 200 has no basis functions!
 Warning:  center 201 has no basis functions!
 Warning:  center 202 has no basis functions!
 Warning:  center 203 has no basis functions!
 Warning:  center 204 has no basis functions!
 Warning:  center 205 has no basis functions!
 Warning:  center 206 has no basis functions!
 Warning:  center 207 has no basis functions!
 Warning:  center 208 has no basis functions!
 Warning:  center 209 has no basis functions!
 Warning:  center 210 has no basis functions!
 Warning:  center 211 has no basis functions!
 Warning:  center 212 has no basis functions!
 Warning:  center 213 has no basis functions!
 Warning:  center 214 has no basis functions!
 Warning:  center 215 has no basis functions!
 Warning:  center 216 has no basis functions!
 Warning:  center 217 has no basis functions!
 Warning:  center 218 has no basis functions!
 Warning:  center 219 has no basis functions!
 Warning:  center 220 has no basis functions!
 Warning:  center 221 has no basis functions!
 Warning:  center 222 has no basis functions!
 Warning:  center 223 has no basis functions!
 Warning:  center 224 has no basis functions!
 Warning:  center 225 has no basis functions!
 Warning:  center 226 has no basis functions!
 Warning:  center 227 has no basis functions!
 Warning:  center 228 has no basis functions!
 Warning:  center 229 has no basis functions!
 Warning:  center 230 has no basis functions!
 Warning:  center 231 has no basis functions!
 Warning:  center 232 has no basis functions!
 Warning:  center 233 has no basis functions!
 Warning:  center 234 has no basis functions!
 Warning:  center 235 has no basis functions!
 Warning:  center 236 has no basis functions!
   568 basis functions,   904 primitive gaussians,   590 cartesian basis functions
    73 alpha electrons       73 beta electrons
       nuclear repulsion energy      1610.9176155625 Hartrees.
 NAtoms=  236 NActive=  236 NUniq=  236 SFac= 1.00D+00 NAtFMM=   60 NAOKFM=T Big=T
 Integral buffers will be    131072 words long.
 Raffenetti 2 integral format.
 Two-electron integral symmetry is turned off.
 One-electron integrals computed using PRISM.
 NBasis=   568 RedAO= T EigKep=  1.78D-06  NBF=   568
 NBsUse=   556 1.00D-06 EigRej=  9.09D-07 NBFU=   556
 ExpMin= 4.38D-02 ExpMax= 4.56D+03 ExpMxC= 6.82D+02 IAcc=2 IRadAn=         4 AccDes= 0.00D+00
 Harris functional with IExCor=  402 and IRadAn=       4 diagonalized for initial guess.
 HarFok:  IExCor=  402 AccDes= 0.00D+00 IRadAn=         4 IDoV= 1 UseB2=F ITyADJ=14
 ICtDFT=  3500011 ScaDFX=  1.000000  1.000000  1.000000  1.000000
 FoFCou: FMM=F IPFlag=           0 FMFlag=      100000 FMFlg1=        2001
         NFxFlg=           0 DoJE=T BraDBF=F KetDBF=T FulRan=T
         wScrn=  0.000000 ICntrl=     500 IOpCl=  0 I1Cent=   200000004 NGrid=           0
         NMat0=    1 NMatS0=      1 NMatT0=    0 NMatD0=    1 NMtDS0=    0 NMtDT0=    0
 Symmetry not used in FoFCou.
 Requested convergence on RMS density matrix=1.00D-08 within 128 cycles.
 Requested convergence on MAX density matrix=1.00D-06.
 Requested convergence on             energy=1.00D-06.
 No special actions if energy rises.
 SCF Done:  E(RB3LYP) =  -847.003289847     A.U. after   15 cycles
            NFock= 15  Conv=0.76D-08     -V/T= 2.0040
 DoSCS=F DFT=T ScalE2(SS,OS)=  1.000000  1.000000
 Range of M.O.s used for correlation:     1   556
 NBasis=   568 NAE=    73 NBE=    73 NFC=     0 NFV=     0
 NROrb=    556 NOA=    73 NOB=    73 NVA=   483 NVB=   483

 **** Warning!!: The largest alpha MO coefficient is  0.10971037D+03

          Differentiating once with respect to magnetic field using GIAOs.
          Electric field/nuclear overlap derivatives assumed to be zero.
 FoFCou: FMM=F IPFlag=           0 FMFlag=      100000 FMFlg1=        2001
         NFxFlg=           0 DoJE=F BraDBF=F KetDBF=T FulRan=T
         wScrn=  0.000000 ICntrl=    6100 IOpCl=  0 I1Cent=           7 NGrid=         236
         NMat0=    1 NMatS0=      1 NMatT0=    0 NMatD0=    1 NMtDS0=    0 NMtDT0=    0
 Symmetry not used in FoFCou.
 FoFJK:  IHMeth= 1 ICntrl=    6127 DoSepK=F KAlg= 0 I1Cent=   0 FoldK=F
 IRaf=         1 NMat=   1 IRICut=       1 DoRegI=T DoRafI=F ISym2E= 0.
          There are     3 degrees of freedom in the 1st order CPHF.  IDoFFX=0 NUNeed=     3.
      3 vectors produced by pass  0 Test12= 1.18D-12 3.33D-08 XBig12= 2.07D+03 9.18D+00.
 AX will form     3 AO Fock derivatives at one time.
      3 vectors produced by pass  1 Test12= 1.18D-12 3.33D-08 XBig12= 3.56D+00 8.03D-01.
      3 vectors produced by pass  2 Test12= 1.18D-12 3.33D-08 XBig12= 2.10D-02 6.92D-02.
      3 vectors produced by pass  3 Test12= 1.18D-12 3.33D-08 XBig12= 5.45D-05 1.89D-03.
      3 vectors produced by pass  4 Test12= 1.18D-12 3.33D-08 XBig12= 1.20D-07 7.79D-05.
      3 vectors produced by pass  5 Test12= 1.18D-12 3.33D-08 XBig12= 4.02D-10 4.73D-06.
      3 vectors produced by pass  6 Test12= 1.18D-12 3.33D-08 XBig12= 1.32D-12 2.61D-07.
 InvSVY:  IOpt=1 It=  1 EMax= 7.11D-15
 Solved reduced A of dimension    21 with     3 vectors.
 Calculating GIAO nuclear magnetic shielding tensors.
 SCF GIAO Magnetic shielding tensor (ppm):
      1  C    Isotropic =    53.8139   Anisotropy =   178.0260
   XX=   -41.4327   YX=   -32.3458   ZX=    10.0287
   XY=   -28.3572   YY=    59.0527   ZY=    55.1899
   XZ=    13.1759   YZ=    58.7550   ZZ=   143.8218
   Eigenvalues:   -53.8775    42.8214   172.4979
      2  H    Isotropic =    24.3095   Anisotropy =     4.8536
   XX=    25.5771   YX=    -1.0289   ZX=     0.5661
   XY=    -0.7431   YY=    26.1829   ZY=    -2.3306
   XZ=    -0.1707   YZ=    -2.4411   ZZ=    21.1687
   Eigenvalues:    20.2108    25.1725    27.5453
      3  C    Isotropic =    51.4055   Anisotropy =   157.8639
   XX=   -31.5399   YX=    38.5015   ZX=   -17.9316
   XY=    34.3519   YY=    49.9437   ZY=    49.6392
   XZ=    -9.8383   YZ=    44.6006   ZZ=   135.8127
   Eigenvalues:   -50.5747    48.1432   156.6481
      4  H    Isotropic =    23.8290   Anisotropy =     7.1838
   XX=    25.3635   YX=     1.8486   ZX=    -0.3559
   XY=     1.9656   YY=    26.4581   ZY=    -2.4103
   XZ=    -1.2941   YZ=    -2.6614   ZZ=    19.6654
   Eigenvalues:    18.8176    24.0511    28.6182
      5  C    Isotropic =    46.0697   Anisotropy =   207.6751
   XX=   -19.2123   YX=    -4.8852   ZX=    -1.6475
   XY=     2.8938   YY=    -2.9860   ZY=    66.5656
   XZ=     2.5356   YZ=    67.9144   ZZ=   160.4073
   Eigenvalues:   -27.2455   -19.0652   184.5197
      6  C    Isotropic =    47.5218   Anisotropy =   196.9389
   XX=   -28.1552   YX=    -2.7889   ZX=    12.0660
   XY=   -14.3886   YY=    21.2063   ZY=    74.2521
   XZ=   -18.6356   YZ=    61.1113   ZZ=   149.5144
   Eigenvalues:   -30.2925    -5.9564   178.8144
      7  C    Isotropic =    49.3915   Anisotropy =   179.8333
   XX=   -12.5211   YX=    28.7048   ZX=   -24.6745
   XY=    31.5123   YY=    29.7000   ZY=    77.7459
   XZ=   -40.0095   YZ=    65.3072   ZZ=   130.9956
   Eigenvalues:   -52.1299    31.0240   169.2804
      8  H    Isotropic =    23.1586   Anisotropy =    13.5525
   XX=    28.5711   YX=     1.5482   ZX=    -3.6986
   XY=     3.2466   YY=    22.7592   ZY=    -2.1157
   XZ=    -8.3753   YZ=    -1.0821   ZZ=    18.1456
   Eigenvalues:    15.3521    21.9301    32.1936
      9  C    Isotropic =    55.1460   Anisotropy =   174.7426
   XX=    46.7071   YX=    -2.6162   ZX=    -2.8420
   XY=     0.6223   YY=    -1.6258   ZY=    92.8272
   XZ=     0.5159   YZ=    95.6598   ZZ=   120.3568
   Eigenvalues:   -52.8932    46.6901   171.6411
     10  H    Isotropic =    24.6278   Anisotropy =     7.1815
   XX=    29.1040   YX=     0.1399   ZX=    -0.3694
   XY=     0.3642   YY=    23.4778   ZY=    -1.0805
   XZ=    -2.4493   YZ=    -2.9465   ZZ=    21.3016
   Eigenvalues:    19.9703    24.4977    29.4155
     11  C    Isotropic =    51.5607   Anisotropy =   151.2142
   XX=     2.1639   YX=    40.9287   ZX=   -26.0048
   XY=    49.9131   YY=    12.2331   ZY=    42.1342
   XZ=   -15.6145   YZ=    38.6614   ZZ=   140.2851
   Eigenvalues:   -48.1951    50.5071   152.3701
     12  H    Isotropic =    23.8537   Anisotropy =     7.3815
   XX=    25.9672   YX=     2.3738   ZX=    -0.2390
   XY=     2.4320   YY=    26.3975   ZY=    -1.8291
   XZ=     0.3529   YZ=    -1.7731   ZZ=    19.1964
   Eigenvalues:    18.7149    24.0714    28.7747
     13  C    Isotropic =    52.8653   Anisotropy =   147.4265
   XX=    51.2944   YX=    19.9221   ZX=   -13.4678
   XY=    11.5478   YY=   -34.0176   ZY=    42.5079
   XZ=    -9.2241   YZ=    40.0716   ZZ=   141.3192
   Eigenvalues:   -46.5152    53.9616   151.1497
     14  H    Isotropic =    24.0156   Anisotropy =     7.3485
   XX=    28.6644   YX=     0.6281   ZX=     1.0808
   XY=     0.5926   YY=    24.4325   ZY=    -1.0823
   XZ=     1.6846   YZ=    -0.3842   ZZ=    18.9500
   Eigenvalues:    18.6430    24.4892    28.9146
     15  C    Isotropic =    46.2221   Anisotropy =   203.9048
   XX=   -27.2215   YX=    -0.0442   ZX=   -28.9124
   XY=     4.6427   YY=   -10.5571   ZY=    28.3830
   XZ=   -10.2704   YZ=    26.7376   ZZ=   176.4448
   Eigenvalues:   -30.5512   -12.9411   182.1586
     16  C    Isotropic =    51.9375   Anisotropy =   188.2004
   XX=   -19.4441   YX=     5.5046   ZX=    15.7858
   XY=    -8.3874   YY=     2.4863   ZY=    22.9264
   XZ=   -50.6243   YZ=    23.3340   ZZ=   172.7704
   Eigenvalues:   -21.0294    -0.5625   177.4045
     17  C    Isotropic =    51.9482   Anisotropy =   149.1264
   XX=    50.7296   YX=   -23.9353   ZX=   -18.4207
   XY=   -16.7271   YY=   -41.8764   ZY=    17.8662
   XZ=   -14.3278   YZ=    11.4871   ZZ=   146.9915
   Eigenvalues:   -46.7796    51.2584   151.3658
     18  H    Isotropic =    24.0122   Anisotropy =     7.5163
   XX=    28.5811   YX=    -0.0866   ZX=     1.5071
   XY=    -0.2466   YY=    24.3342   ZY=    -0.7657
   XZ=     2.5088   YZ=    -1.5208   ZZ=    19.1214
   Eigenvalues:    18.5094    24.5041    29.0231
     19  C    Isotropic =    51.7356   Anisotropy =   148.5924
   XX=     2.4559   YX=   -45.6913   ZX=   -31.2531
   XY=   -53.4448   YY=     7.4698   ZY=    -1.8888
   XZ=   -23.5601   YZ=    -1.2765   ZZ=   145.2810
   Eigenvalues:   -46.9894    51.3989   150.7972
     20  H    Isotropic =    23.9071   Anisotropy =     7.6651
   XX=    25.5796   YX=    -2.0226   ZX=     1.4905
   XY=    -1.9998   YY=    27.3706   ZY=    -0.5164
   XZ=     2.7276   YZ=    -1.1179   ZZ=    18.7711
   Eigenvalues:    18.1643    24.5398    29.0172
     21  C    Isotropic =    45.9767   Anisotropy =   203.9316
   XX=   -16.2108   YX=    13.1802   ZX=   -44.5913
   XY=     6.5714   YY=   -20.6329   ZY=     0.0949
   XZ=   -28.8984   YZ=   -13.0883   ZZ=   174.7736
   Eigenvalues:   -30.5796   -13.4215   181.9311
     22  C    Isotropic =    52.0450   Anisotropy =   188.1157
   XX=    -0.0787   YX=     2.5023   ZX=   -16.3451
   XY=    18.9327   YY=   -14.4798   ZY=   -34.4335
   XZ=   -50.6032   YZ=    19.9104   ZZ=   170.6934
   Eigenvalues:   -20.7705    -0.5500   177.4554
     23  C    Isotropic =    53.2392   Anisotropy =   146.7412
   XX=   -22.0674   YX=   -32.0012   ZX=   -49.4857
   XY=   -23.2043   YY=    44.3661   ZY=   -15.6400
   XZ=   -43.8090   YZ=   -20.2525   ZZ=   137.4189
   Eigenvalues:   -45.6776    54.3286   151.0667
     24  H    Isotropic =    23.8249   Anisotropy =     7.5289
   XX=    25.1073   YX=    -1.7330   ZX=     1.5380
   XY=    -1.5944   YY=    28.0047   ZY=     0.0879
   XZ=     1.2557   YZ=    -0.8283   ZZ=    18.3628
   Eigenvalues:    18.0848    24.5458    28.8442
     25  C    Isotropic =    51.4969   Anisotropy =   150.1066
   XX=   -28.4915   YX=    33.9684   ZX=   -52.3137
   XY=    22.0311   YY=    46.6072   ZY=    -3.8075
   XZ=   -44.5594   YZ=   -10.6355   ZZ=   136.3748
   Eigenvalues:   -48.3857    51.3083   151.5679
     26  H    Isotropic =    23.7431   Anisotropy =     7.4052
   XX=    24.0663   YX=     1.1141   ZX=     1.9989
   XY=     0.9693   YY=    28.1000   ZY=     1.6568
   XZ=     2.0795   YZ=     0.8886   ZZ=    19.0630
   Eigenvalues:    18.2615    24.2880    28.6799
     27  C    Isotropic =    45.8108   Anisotropy =   207.2710
   XX=    -2.7702   YX=    13.7697   ZX=   -61.4651
   XY=     6.5593   YY=   -12.0335   ZY=   -41.6456
   XZ=   -62.6381   YZ=   -44.9232   ZZ=   152.2361
   Eigenvalues:   -28.0803   -18.4787   183.9915
     28  C    Isotropic =    47.8398   Anisotropy =   197.2870
   XX=    19.6900   YX=    14.4398   ZX=   -60.5682
   XY=    28.5650   YY=   -19.3566   ZY=   -56.7015
   XZ=   -63.1331   YZ=   -24.4782   ZZ=   143.1859
   Eigenvalues:   -30.5979    -5.2472   179.3644
     29  C    Isotropic =    49.3441   Anisotropy =   179.7793
   XX=    -3.4110   YX=    38.3775   ZX=   -80.8875
   XY=    36.1252   YY=    25.9805   ZY=   -23.7573
   XZ=   -78.1065   YZ=    -3.9802   ZZ=   125.4627
   Eigenvalues:   -51.6645    30.4997   169.1970
     30  H    Isotropic =    23.1387   Anisotropy =    13.3222
   XX=    22.4354   YX=    -0.7013   ZX=    -0.2375
   XY=    -2.1539   YY=    28.3546   ZY=     4.5555
   XZ=    -3.4181   YZ=     8.3231   ZZ=    18.6259
   Eigenvalues:    15.2751    22.1208    32.0201
     31  C    Isotropic =    55.4410   Anisotropy =   174.9390
   XX=    17.1871   YX=   -14.0890   ZX=   -84.0024
   XY=   -17.9030   YY=    37.4745   ZY=   -50.3662
   XZ=   -84.6557   YZ=   -54.8325   ZZ=   111.6615
   Eigenvalues:   -51.9248    46.1808   172.0670
     32  H    Isotropic =    24.5337   Anisotropy =     7.2554
   XX=    24.6185   YX=    -2.5264   ZX=     0.7632
   XY=    -2.7385   YY=    27.4630   ZY=     1.0335
   XZ=     1.1913   YZ=     3.7573   ZZ=    21.5194
   Eigenvalues:    19.8987    24.3316    29.3706
     33  C    Isotropic =    53.1814   Anisotropy =   179.0596
   XX=    60.9231   YX=    35.2256   ZX=   -42.9515
   XY=    32.0226   YY=   -38.1801   ZY=   -45.5652
   XZ=   -44.2248   YZ=   -50.7831   ZZ=   136.8014
   Eigenvalues:   -55.1197    42.1095   172.5545
     34  H    Isotropic =    24.2825   Anisotropy =     5.1861
   XX=    26.7643   YX=    -0.0934   ZX=     2.5955
   XY=    -0.2993   YY=    24.8157   ZY=     0.8589
   XZ=     2.3715   YZ=     1.4580   ZZ=    21.2676
   Eigenvalues:    20.0339    25.0737    27.7399
     35  C    Isotropic =    51.5295   Anisotropy =   155.1748
   XX=    -0.5131   YX=    52.5760   ZX=   -52.1551
   XY=    55.6135   YY=    25.1843   ZY=   -14.2643
   XZ=   -45.7255   YZ=   -17.1625   ZZ=   129.9171
   Eigenvalues:   -48.3147    47.9237   154.9793
     36  H    Isotropic =    23.8384   Anisotropy =     7.3073
   XX=    24.2302   YX=     1.4459   ZX=     2.1759
   XY=     1.2147   YY=    27.1572   ZY=     2.0665
   XZ=     1.6853   YZ=     2.7775   ZZ=    20.1277
   Eigenvalues:    18.9464    23.8588    28.7099
     37  Bq   Isotropic =    -1.1160   Anisotropy =    20.8050
   XX=     3.5472   YX=    -0.4349   ZX=     8.5388
   XY=     1.0353   YY=    10.7268   ZY=     6.7908
   XZ=     6.6552   YZ=     6.6613   ZZ=   -17.6220
   Eigenvalues:   -21.3169     5.2149    12.7540
     38  Bq   Isotropic =    -1.3298   Anisotropy =    14.2600
   XX=    -0.1634   YX=     0.1594   ZX=     6.8668
   XY=    -1.1878   YY=     7.2190   ZY=     4.4510
   XZ=    12.2922   YZ=     2.2482   ZZ=   -11.0451
   Eigenvalues:   -17.0323     4.8659     8.1768
     39  Bq   Isotropic =    -1.3755   Anisotropy =    12.9987
   XX=    -0.6411   YX=     0.9659   ZX=     6.6418
   XY=    -1.2803   YY=     6.8270   ZY=     3.3541
   XZ=    12.9908   YZ=     0.2036   ZZ=   -10.3123
   Eigenvalues:   -16.5282     5.1115     7.2903
     40  Bq   Isotropic =    -1.6328   Anisotropy =    16.9339
   XX=     0.8198   YX=     0.7420   ZX=     7.8950
   XY=    -0.6847   YY=     8.3742   ZY=     5.0899
   XZ=    12.0452   YZ=     2.8527   ZZ=   -14.0922
   Eigenvalues:   -19.5365     4.9817     9.6565
     41  Bq   Isotropic =    -1.2113   Anisotropy =    10.9973
   XX=    -1.3128   YX=     1.0525   ZX=     5.9403
   XY=    -1.4760   YY=     6.0370   ZY=     2.4502
   XZ=    13.0884   YZ=    -1.0651   ZZ=    -8.3581
   Eigenvalues:   -15.0036     5.2494     6.1202
     42  Bq   Isotropic =    -1.7049   Anisotropy =    18.6323
   XX=     1.5601   YX=     0.6101   ZX=     8.4052
   XY=    -0.2951   YY=     9.0708   ZY=     5.8146
   XZ=    11.1922   YZ=     4.0956   ZZ=   -15.7456
   Eigenvalues:   -20.8319     5.0006    10.7167
     43  Bq   Isotropic =    -1.0373   Anisotropy =     9.9787
   XX=    -1.9121   YX=     1.1189   ZX=     5.2197
   XY=    -1.6082   YY=     5.2674   ZY=     1.5856
   XZ=    12.9628   YZ=    -2.2185   ZZ=    -6.4673
   Eigenvalues:   -13.5625     4.8353     5.6151
     44  Bq   Isotropic =    -1.7270   Anisotropy =    20.0166
   XX=     2.2884   YX=     0.4690   ZX=     8.8121
   XY=     0.1381   YY=     9.6673   ZY=     6.3803
   XZ=    10.0991   YZ=     5.2019   ZZ=   -17.1365
   Eigenvalues:   -21.8597     5.0614    11.6174
     45  Bq   Isotropic =    -0.8626   Anisotropy =    10.0795
   XX=    -2.4216   YX=     1.1638   ZX=     4.5033
   XY=    -1.6860   YY=     4.5352   ZY=     0.7942
   XZ=    12.6489   YZ=    -3.2195   ZZ=    -4.7016
   Eigenvalues:   -12.2459     3.8009     5.8571
     46  Bq   Isotropic =    -1.6924   Anisotropy =    21.0014
   XX=     3.0066   YX=     0.3232   ZX=     9.0941
   XY=     0.5965   YY=    10.1228   ZY=     6.7570
   XZ=     8.7792   YZ=     6.1339   ZZ=   -18.2066
   Eigenvalues:   -22.5420     5.1562    12.3086
     47  Bq   Isotropic =    -0.6944   Anisotropy =    10.2729
   XX=    -2.8327   YX=     1.1870   ZX=     3.8117
   XY=    -1.7204   YY=     3.8526   ZY=     0.0973
   XZ=    12.1876   YZ=    -4.0497   ZZ=    -3.1032
   Eigenvalues:   -11.0699     2.8325     6.1542
     48  Bq   Isotropic =    -1.5981   Anisotropy =    21.5245
   XX=     3.7257   YX=     0.1783   ZX=     9.2245
   XY=     1.0624   YY=    10.3970   ZY=     6.9345
   XZ=     7.2417   YZ=     6.8808   ZZ=   -18.9171
   Eigenvalues:   -22.8277     5.2817    12.7515
     49  Bq   Isotropic =    -1.5195   Anisotropy =    15.0208
   XX=     0.0787   YX=     0.8615   ZX=     7.3006
   XY=    -1.0160   YY=     7.6152   ZY=     4.2518
   XZ=    12.6461   YZ=     1.5321   ZZ=   -12.2525
   Eigenvalues:   -18.0688     5.0159     8.4944
     50  Bq   Isotropic =    -1.2887   Anisotropy =    13.5833
   XX=    -0.2542   YX=     1.6627   ZX=     6.8559
   XY=    -1.1318   YY=     7.3828   ZY=     3.0811
   XZ=    13.2652   YZ=    -0.7102   ZZ=   -10.9947
   Eigenvalues:   -17.0603     5.4273     7.7669
     51  Bq   Isotropic =    -1.6061   Anisotropy =    17.6215
   XX=     1.2640   YX=     1.5282   ZX=     8.2366
   XY=    -0.5630   YY=     8.8442   ZY=     4.8971
   XZ=    12.3670   YZ=     2.1481   ZZ=   -14.9266
   Eigenvalues:   -20.2355     5.2756    10.1415
     52  Bq   Isotropic =    -1.1043   Anisotropy =    11.5842
   XX=    -0.9735   YX=     1.6854   ZX=     6.0963
   XY=    -1.3180   YY=     6.5834   ZY=     2.1581
   XZ=    13.3479   YZ=    -2.0123   ZZ=    -8.9226
   Eigenvalues:   -15.4513     5.5200     6.6185
     53  Bq   Isotropic =    -1.7160   Anisotropy =    19.3590
   XX=     2.0065   YX=     1.4088   ZX=     8.8110
   XY=    -0.1896   YY=     9.4466   ZY=     5.6820
   XZ=    11.5510   YZ=     3.5693   ZZ=   -16.6012
   Eigenvalues:   -21.6045     5.2664    11.1899
     54  Bq   Isotropic =    -0.9164   Anisotropy =    10.5371
   XX=    -1.6258   YX=     1.6828   ZX=     5.3232
   XY=    -1.4444   YY=     5.7771   ZY=     1.2880
   XZ=    13.2087   YZ=    -3.1588   ZZ=    -6.9006
   Eigenvalues:   -13.9312     5.0736     6.1083
     55  Bq   Isotropic =    -1.7779   Anisotropy =    20.7686
   XX=     2.7188   YX=     1.2506   ZX=     9.2766
   XY=     0.2249   YY=     9.9253   ZY=     6.3198
   XZ=    10.5021   YZ=     4.8977   ZZ=   -17.9779
   Eigenvalues:   -22.6949     5.2933    12.0678
     56  Bq   Isotropic =    -0.7335   Anisotropy =    10.5367
   XX=    -2.1885   YX=     1.6578   ZX=     4.5605
   XY=    -1.5208   YY=     4.9897   ZY=     0.5028
   XZ=    12.8807   YZ=    -4.1210   ZZ=    -5.0017
   Eigenvalues:   -12.5441     4.0527     6.2910
     57  Bq   Isotropic =    -1.7821   Anisotropy =    21.7682
   XX=     3.4058   YX=     1.0547   ZX=     9.6055
   XY=     0.6616   YY=    10.2538   ZY=     6.7793
   XZ=     9.2266   YZ=     6.0867   ZZ=   -19.0058
   Eigenvalues:   -23.4273     5.3510    12.7300
     58  Bq   Isotropic =    -0.5617   Anisotropy =    10.6997
   XX=    -2.6489   YX=     1.6132   ZX=     3.8295
   XY=    -1.5582   YY=     4.2417   ZY=    -0.1788
   XZ=    12.4038   YZ=    -4.8896   ZZ=    -3.2777
   Eigenvalues:   -11.3076     3.0512     6.5715
     59  Bq   Isotropic =    -1.7221   Anisotropy =    22.3001
   XX=     4.0829   YX=     0.8282   ZX=     9.7649
   XY=     1.1022   YY=    10.4078   ZY=     7.0484
   XZ=     7.7232   YZ=     7.1110   ZZ=   -19.6570
   Eigenvalues:   -23.7497     5.4388    13.1447
     60  Bq   Isotropic =    -1.4597   Anisotropy =    15.6573
   XX=     0.5021   YX=     1.6115   ZX=     7.5773
   XY=    -0.8799   YY=     8.1464   ZY=     4.0119
   XZ=    12.9403   YZ=     0.6982   ZZ=   -13.0278
   Eigenvalues:   -18.6863     5.3286     8.9784
     61  Bq   Isotropic =    -0.9393   Anisotropy =    13.9189
   XX=     0.3606   YX=     2.3560   ZX=     6.9093
   XY=    -1.0428   YY=     8.0130   ZY=     2.7561
   XZ=    13.4519   YZ=    -1.7592   ZZ=   -11.1916
   Eigenvalues:   -17.1210     5.9630     8.3399
     62  Bq   Isotropic =    -1.2443   Anisotropy =    18.0144
   XX=     2.0033   YX=     2.2932   ZX=     8.3913
   XY=    -0.5206   YY=     9.4479   ZY=     4.6536
   XZ=    12.5814   YZ=     1.3371   ZZ=   -15.1840
   Eigenvalues:   -20.3312     5.8330    10.7653
     63  Bq   Isotropic =    -0.7725   Anisotropy =    11.9915
   XX=    -0.4461   YX=     2.3215   ZX=     6.1086
   XY=    -1.2070   YY=     7.1800   ZY=     1.8125
   XZ=    13.5298   YZ=    -3.1003   ZZ=    -9.0514
   Eigenvalues:   -15.5007     5.9613     7.2218
     64  Bq   Isotropic =    -1.3619   Anisotropy =    19.7889
   XX=     2.7669   YX=     2.1755   ZX=     9.0246
   XY=    -0.1674   YY=     9.9900   ZY=     5.4944
   XZ=    11.7939   YZ=     2.9540   ZZ=   -16.8426
   Eigenvalues:   -21.7224     5.8060    11.8307
     65  Bq   Isotropic =    -0.6069   Anisotropy =    11.0814
   XX=    -1.1897   YX=     2.2547   ZX=     5.3006
   XY=    -1.3155   YY=     6.3167   ZY=     0.9367
   XZ=    13.3866   YZ=    -4.2382   ZZ=    -6.9478
   Eigenvalues:   -13.9732     5.3718     6.7807
     66  Bq   Isotropic =    -1.4405   Anisotropy =    21.2318
   XX=     3.4685   YX=     1.9887   ZX=     9.5504
   XY=     0.2298   YY=    10.3866   ZY=     6.1948
   XZ=    10.7815   YZ=     4.5198   ZZ=   -18.1766
   Eigenvalues:   -22.8374     5.8019    12.7141
     67  Bq   Isotropic =    -0.4485   Anisotropy =    11.0466
   XX=    -1.8394   YX=     2.1627   ZX=     4.5088
   XY=    -1.3800   YY=     5.4577   ZY=     0.1596
   XZ=    13.0527   YZ=    -5.1532   ZZ=    -4.9637
   Eigenvalues:   -12.5814     4.3201     6.9159
     68  Bq   Isotropic =    -1.4684   Anisotropy =    22.2605
   XX=     4.1163   YX=     1.7310   ZX=     9.9349
   XY=     0.6511   YY=    10.6231   ZY=     6.7226
   XZ=     9.5428   YZ=     5.9764   ZZ=   -19.1445
   Eigenvalues:   -23.5965     5.8194    13.3720
     69  Bq   Isotropic =    -0.3016   Anisotropy =    11.1960
   XX=    -2.3775   YX=     2.0516   ZX=     3.7542
   XY=    -1.4121   YY=     4.6321   ZY=    -0.5026
   XZ=    12.5674   YZ=    -5.8469   ZZ=    -3.1595
   Eigenvalues:   -11.3416     3.2743     7.1623
     70  Bq   Isotropic =    -1.4365   Anisotropy =    22.8178
   XX=     4.7329   YX=     1.4117   ZX=    10.1371
   XY=     1.0767   YY=    10.6869   ZY=     7.0661
   XZ=     8.0643   YZ=     7.2843   ZZ=   -19.7294
   Eigenvalues:   -23.9468     5.8618    13.7753
     71  Bq   Isotropic =    -1.0997   Anisotropy =    16.0134
   XX=     1.1907   YX=     2.3498   ZX=     7.6781
   XY=    -0.8146   YY=     8.7800   ZY=     3.7217
   XZ=    13.1365   YZ=    -0.2588   ZZ=   -13.2698
   Eigenvalues:   -18.7625     5.8875     9.5759
     72  Bq   Isotropic =    -0.2740   Anisotropy =    13.8591
   XX=     1.2882   YX=     3.0010   ZX=     6.7936
   XY=    -1.0364   YY=     8.6720   ZY=     2.3913
   XZ=    13.5173   YZ=    -2.9315   ZZ=   -10.7820
   Eigenvalues:   -16.5809     6.7935     8.9654
     73  Bq   Isotropic =    -0.4812   Anisotropy =    17.8985
   XX=     3.1703   YX=     2.9807   ZX=     8.3526
   XY=    -0.5927   YY=    10.1012   ZY=     4.3508
   XZ=    12.6460   YZ=     0.4033   ZZ=   -14.7151
   Eigenvalues:   -19.6568     6.7620    11.4511
     74  Bq   Isotropic =    -0.1704   Anisotropy =    12.1362
   XX=     0.3330   YX=     2.9220   ZX=     5.9685
   XY=    -1.1606   YY=     7.7948   ZY=     1.4298
   XZ=    13.6065   YZ=    -4.3082   ZZ=    -8.6390
   Eigenvalues:   -15.0442     6.6126     7.9204
     75  Bq   Isotropic =    -0.5724   Anisotropy =    19.6706
   XX=     3.9954   YX=     2.8495   ZX=     9.0398
   XY=    -0.2697   YY=    10.5970   ZY=     5.2261
   XZ=    11.8785   YZ=     2.2154   ZZ=   -16.3094
   Eigenvalues:   -21.0058     6.7474    12.5414
     76  Bq   Isotropic =    -0.0710   Anisotropy =    11.5318
   XX=    -0.5578   YX=     2.8019   ZX=     5.1431
   XY=    -1.2348   YY=     6.8640   ZY=     0.5496
   XZ=    13.4745   YZ=    -5.4301   ZZ=    -6.5193
   Eigenvalues:   -13.6026     5.7727     7.6168
     77  Bq   Isotropic =    -0.6417   Anisotropy =    21.1179
   XX=     4.7081   YX=     2.6188   ZX=     9.6268
   XY=     0.1062   YY=    10.9311   ZY=     5.9601
   XZ=    10.8988   YZ=     4.0151   ZZ=   -17.5642
   Eigenvalues:   -22.0984     6.7365    13.4370
     78  Bq   Isotropic =     0.0226   Anisotropy =    11.5622
   XX=    -1.3426   YX=     2.6515   ZX=     4.3396
   XY=    -1.2733   YY=     5.9237   ZY=    -0.2177
   XZ=    13.1483   YZ=    -6.2867   ZZ=    -4.5134
   Eigenvalues:   -12.2918     4.6289     7.7307
     79  Bq   Isotropic =    -0.6767   Anisotropy =    22.1595
   XX=     5.3180   YX=     2.2848   ZX=    10.0733
   XY=     0.5142   YY=    11.1022   ZY=     6.5229
   XZ=     9.6957   YZ=     5.7326   ZZ=   -18.4502
   Eigenvalues:   -22.8557     6.7293    14.0963
     80  Bq   Isotropic =     0.1091   Anisotropy =    11.7359
   XX=    -1.9969   YX=     2.4802   ZX=     3.5780
   XY=    -1.2890   YY=     5.0127   ZY=    -0.8580
   XZ=    12.6659   YZ=    -6.8916   ZZ=    -2.6884
   Eigenvalues:   -11.1225     3.5168     7.9331
     81  Bq   Isotropic =    -0.6666   Anisotropy =    22.7400
   XX=     5.8560   YX=     1.8598   ZX=    10.3288
   XY=     0.9321   YY=    11.1075   ZY=     6.9085
   XZ=     8.2409   YZ=     7.3170   ZZ=   -18.9633
   Eigenvalues:   -23.2249     6.7318    14.4934
     82  Bq   Isotropic =    -0.3791   Anisotropy =    15.9096
   XX=     2.2529   YX=     3.0257   ZX=     7.5958
   XY=    -0.8493   YY=     9.4523   ZY=     3.3852
   XZ=    13.1959   YZ=    -1.3393   ZZ=   -12.8427
   Eigenvalues:   -18.1481     6.7834    10.2272
     83  Bq   Isotropic =     0.7586   Anisotropy =    13.2531
   XX=     2.6135   YX=     3.5624   ZX=     6.5086
   XY=    -1.1273   YY=     9.2965   ZY=     2.0232
   XZ=    13.4299   YZ=    -4.1967   ZZ=    -9.6340
   Eigenvalues:   -15.3069     7.9888     9.5940
     84  Bq   Isotropic =     0.7443   Anisotropy =    17.1287
   XX=     4.9054   YX=     3.5571   ZX=     8.1245
   XY=    -0.7983   YY=    10.6787   ZY=     4.0087
   XZ=    12.5220   YZ=    -0.6545   ZZ=   -13.3513
   Eigenvalues:   -18.0356     8.1051    12.1634
     85  Bq   Isotropic =     0.7463   Anisotropy =    11.9774
   XX=     1.4257   YX=     3.4536   ZX=     5.6737
   XY=    -1.1909   YY=     8.3868   ZY=     1.0463
   XZ=    13.5525   YZ=    -5.5967   ZZ=    -7.5735
   Eigenvalues:   -13.9736     7.4813     8.7312
     86  Bq   Isotropic =     0.7167   Anisotropy =    18.8501
   XX=     5.8594   YX=     3.4002   ZX=     8.8620
   XY=    -0.5156   YY=    11.1088   ZY=     4.8772
   XZ=    11.7676   YZ=     1.3303   ZZ=   -14.8180
   Eigenvalues:   -19.2616     8.1283    13.2835
     87  Bq   Isotropic =     0.7278   Anisotropy =    11.8463
   XX=     0.3131   YX=     3.2940   ZX=     4.8472
   XY=    -1.2115   YY=     7.3932   ZY=     0.1599
   XZ=    13.4527   YZ=    -6.6907   ZZ=    -5.5227
   Eigenvalues:   -12.7354     6.2935     8.6254
     88  Bq   Isotropic =     0.6848   Anisotropy =    20.2528
   XX=     6.6266   YX=     3.1144   ZX=     9.5110
   XY=    -0.1638   YY=    11.3743   ZY=     5.5887
   XZ=    10.8228   YZ=     3.3359   ZZ=   -15.9465
   Eigenvalues:   -20.2723     8.1400    14.1867
     89  Bq   Isotropic =     0.7088   Anisotropy =    12.0380
   XX=    -0.6685   YX=     3.0977   ZX=     4.0489
   XY=    -1.2079   YY=     6.3717   ZY=    -0.6005
   XZ=    13.1525   YZ=    -7.4768   ZZ=    -3.5769
   Eigenvalues:   -11.6127     5.0049     8.7341
     90  Bq   Isotropic =     0.6611   Anisotropy =    21.2623
   XX=     7.2128   YX=     2.6935   ZX=    10.0235
   XY=     0.2348   YY=    11.4949   ZY=     6.1231
   XZ=     9.6645   YZ=     5.2844   ZZ=   -16.7243
   Eigenvalues:   -20.9920     8.1394    14.8360
     91  Bq   Isotropic =     0.6928   Anisotropy =    12.2903
   XX=    -1.4878   YX=     2.8766   ZX=     3.2969
   XY=    -1.1945   YY=     5.3731   ZY=    -1.2208
   XZ=    12.6884   YZ=    -7.9807   ZZ=    -1.8069
   Eigenvalues:   -10.6054     3.7975     8.8864
     92  Bq   Isotropic =     0.6581   Anisotropy =    21.8337
   XX=     7.6575   YX=     2.1533   ZX=    10.3375
   XY=     0.6542   YY=    11.4799   ZY=     6.4920
   XZ=     8.2437   YZ=     7.1181   ZZ=   -17.1631
   Eigenvalues:   -21.3691     8.1295    15.2139
     93  Bq   Isotropic =     0.7590   Anisotropy =    15.1980
   XX=     3.8007   YX=     3.6037   ZX=     7.3322
   XY=    -1.0012   YY=    10.0716   ZY=     3.0342
   XZ=    13.0820   YZ=    -2.5265   ZZ=   -11.5953
   Eigenvalues:   -16.6864     8.0724    10.8910
     94  Bq   Isotropic =     2.1936   Anisotropy =    12.0009
   XX=     4.3963   YX=     4.0153   ZX=     6.0606
   XY=    -1.3194   YY=     9.8172   ZY=     1.7204
   XZ=    13.1657   YZ=    -5.4975   ZZ=    -7.6328
   Eigenvalues:   -13.1889     9.5755    10.1942
     95  Bq   Isotropic =     2.4645   Anisotropy =    15.9273
   XX=     7.3163   YX=     4.0120   ZX=     7.7178
   XY=    -1.1356   YY=    11.0180   ZY=     3.6921
   XZ=    12.1770   YZ=    -1.8103   ZZ=   -10.9409
   Eigenvalues:   -15.3165     9.6273    13.0827
     96  Bq   Isotropic =     2.0102   Anisotropy =    11.6299
   XX=     2.8733   YX=     3.8891   ZX=     5.2285
   XY=    -1.3017   YY=     8.9163   ZY=     0.7216
   XZ=    13.3495   YZ=    -6.9023   ZZ=    -5.7591
   Eigenvalues:   -12.2021     8.4692     9.7634
     97  Bq   Isotropic =     2.5333   Anisotropy =    17.6195
   XX=     8.4908   YX=     3.8297   ZX=     8.5030
   XY=    -0.8960   YY=    11.3105   ZY=     4.4910
   XZ=    11.4302   YZ=     0.2991   ZZ=   -12.2014
   Eigenvalues:   -16.3229     9.6432    14.2796
     98  Bq   Isotropic =     1.8177   Anisotropy =    12.0206
   XX=     1.4505   YX=     3.7044   ZX=     4.4154
   XY=    -1.2490   YY=     7.8835   ZY=    -0.1830
   XZ=    13.3077   YZ=    -7.9550   ZZ=    -3.8810
   Eigenvalues:   -11.3067     6.9283     9.8314
     99  Bq   Isotropic =     2.5631   Anisotropy =    18.9530
   XX=     9.3759   YX=     3.4912   ZX=     9.2143
   XY=    -0.5613   YY=    11.4595   ZY=     5.0878
   XZ=    10.5304   YZ=     2.4526   ZZ=   -13.1461
   Eigenvalues:   -17.1805     9.6713    15.1984
    100  Bq   Isotropic =     1.6327   Anisotropy =    12.4467
   XX=     0.2006   YX=     3.4765   ZX=     3.6379
   XY=    -1.1866   YY=     6.7917   ZY=    -0.9489
   XZ=    13.0559   YZ=    -8.6608   ZZ=    -2.0941
   Eigenvalues:   -10.4978     5.4654     9.9305
    101  Bq   Isotropic =     2.5684   Anisotropy =    19.8534
   XX=     9.9655   YX=     2.9848   ZX=     9.7939
   XY=    -0.1575   YY=    11.5267   ZY=     5.4859
   XZ=     9.4391   YZ=     4.5701   ZZ=   -13.7868
   Eigenvalues:   -17.8189     9.7202    15.8041
    102  Bq   Isotropic =     1.4667   Anisotropy =    12.8359
   XX=    -0.8387   YX=     3.2187   ZX=     2.9116
   XY=    -1.1312   YY=     5.7090   ZY=    -1.5594
   XZ=    12.6285   YZ=    -9.0563   ZZ=    -0.4704
   Eigenvalues:    -9.7581     4.1342    10.0239
    103  Bq   Isotropic =     2.5639   Anisotropy =    20.2960
   XX=    10.3061   YX=     2.3281   ZX=    10.1664
   XY=     0.2811   YY=    11.5414   ZY=     5.7364
   XZ=     8.0768   YZ=     6.5980   ZZ=   -14.1558
   Eigenvalues:   -18.1898     9.7869    16.0945
    104  Bq   Isotropic =     2.3497   Anisotropy =    13.9891
   XX=     5.9165   YX=     4.0643   ZX=     6.8960
   XY=    -1.2726   YY=    10.5265   ZY=     2.7406
   XZ=    12.7654   YZ=    -3.7755   ZZ=    -9.3938
   Eigenvalues:   -14.2454     9.6187    11.6758
    105  Bq   Isotropic =     4.0350   Anisotropy =    11.4708
   XX=     6.6407   YX=     4.3413   ZX=     5.4618
   XY=    -1.6043   YY=    10.1773   ZY=     1.5839
   XZ=    12.7150   YZ=    -6.7450   ZZ=    -4.7128
   Eigenvalues:   -10.1709    10.5938    11.6822
    106  Bq   Isotropic =     4.6558   Anisotropy =    15.3909
   XX=    10.4236   YX=     4.3514   ZX=     7.1426
   XY=    -1.5814   YY=    10.9322   ZY=     3.5228
   XZ=    11.5861   YZ=    -2.9991   ZZ=    -7.3883
   Eigenvalues:   -11.4097    10.4607    14.9164
    107  Bq   Isotropic =     3.6307   Anisotropy =    11.3737
   XX=     4.6750   YX=     4.2057   ZX=     4.6437
   XY=    -1.4873   YY=     9.3609   ZY=     0.5359
   XZ=    12.9930   YZ=    -8.1350   ZZ=    -3.1438
   Eigenvalues:    -9.6914     9.3703    11.2132
    108  Bq   Isotropic =     4.8337   Anisotropy =    17.1900
   XX=    11.9189   YX=     4.1644   ZX=     7.9694
   XY=    -1.3715   YY=    10.9323   ZY=     4.1704
   XZ=    10.8380   YZ=    -0.8410   ZZ=    -8.3502
   Eigenvalues:   -12.0882    10.2955    16.2936
    109  Bq   Isotropic =     3.2094   Anisotropy =    12.0864
   XX=     2.8518   YX=     4.0091   ZX=     3.8570
   XY=    -1.3435   YY=     8.3307   ZY=    -0.4184
   XZ=    13.0384   YZ=    -9.1366   ZZ=    -1.5542
   Eigenvalues:    -9.2925     7.6538    11.2671
    110  Bq   Isotropic =     4.9314   Anisotropy =    18.5397
   XX=    12.9916   YX=     3.7984   ZX=     8.7386
   XY=    -1.0251   YY=    10.8484   ZY=     4.5147
   XZ=     9.9979   YZ=     1.3631   ZZ=    -9.0458
   Eigenvalues:   -12.7123    10.2154    17.2912
    111  Bq   Isotropic =     2.8042   Anisotropy =    12.7872
   XX=     1.2617   YX=     3.7650   ZX=     3.1145
   XY=    -1.2070   YY=     7.1874   ZY=    -1.2176
   XZ=    12.8587   YZ=    -9.7590   ZZ=    -0.0366
   Eigenvalues:    -8.9328     6.0164    11.3290
    112  Bq   Isotropic =     4.9742   Anisotropy =    19.2974
   XX=    13.6159   YX=     3.2286   ZX=     9.3819
   XY=    -0.5792   YY=    10.8294   ZY=     4.6037
   XZ=     9.0084   YZ=     3.5434   ZZ=    -9.5226
   Eigenvalues:   -13.2196    10.3031    17.8392
    113  Bq   Isotropic =     2.4382   Anisotropy =    13.3647
   XX=    -0.0522   YX=     3.4860   ZX=     2.4285
   XY=    -1.0978   YY=     6.0266   ZY=    -1.8399
   XZ=    12.4871   YZ=   -10.0475   ZZ=     1.3401
   Eigenvalues:    -8.5724     4.5390    11.3480
    114  Bq   Isotropic =     4.9835   Anisotropy =    19.4149
   XX=    13.8453   YX=     2.4684   ZX=     9.8081
   XY=    -0.0874   YY=    10.9449   ZY=     4.5697
   XZ=     7.7465   YZ=     5.6705   ZZ=    -9.8399
   Eigenvalues:   -13.5683    10.5919    17.9267
    115  Bq   Isotropic =     4.3862   Anisotropy =    13.3487
   XX=     8.6118   YX=     4.3984   ZX=     6.2994
   XY=    -1.6502   YY=    10.7051   ZY=     2.6224
   XZ=    12.2290   YZ=    -5.0047   ZZ=    -6.1582
   Eigenvalues:   -10.7507    10.6241    13.2853
    116  Bq   Isotropic =     6.2440   Anisotropy =    11.7163
   XX=     9.2623   YX=     4.5216   ZX=     4.7298
   XY=    -1.9624   YY=    10.3586   ZY=     1.7355
   XZ=    12.0887   YZ=    -7.8174   ZZ=    -0.8890
   Eigenvalues:    -6.2814    10.9584    14.0549
    117  Bq   Isotropic =     7.2081   Anisotropy =    15.9402
   XX=    14.0864   YX=     4.5802   ZX=     6.3977
   XY=    -2.0935   YY=    10.2323   ZY=     3.6847
   XZ=    10.7309   YZ=    -4.1062   ZZ=    -2.6945
   Eigenvalues:    -6.3212    10.1106    17.8348
    118  Bq   Isotropic =     5.5857   Anisotropy =    11.2637
   XX=     6.7677   YX=     4.3819   ZX=     3.9390
   XY=    -1.7320   YY=     9.7349   ZY=     0.5750
   XZ=    12.4993   YZ=    -9.1820   ZZ=     0.2545
   Eigenvalues:    -6.4789    10.1412    13.0949
    119  Bq   Isotropic =     7.4550   Anisotropy =    18.0722
   XX=    15.9680   YX=     4.4339   ZX=     7.2440
   XY=    -1.8737   YY=     9.6566   ZY=     4.0899
   XZ=     9.9562   YZ=    -2.0054   ZZ=    -3.2596
   Eigenvalues:    -6.5615     9.4233    19.5031
    120  Bq   Isotropic =     4.8898   Anisotropy =    12.1005
   XX=     4.4712   YX=     4.1865   ZX=     3.1908
   XY=    -1.4824   YY=     8.7598   ZY=    -0.4878
   XZ=    12.6608   YZ=   -10.1337   ZZ=     1.4384
   Eigenvalues:    -6.7316     8.4442    12.9568
    121  Bq   Isotropic =     7.5776   Anisotropy =    19.6621
   XX=    17.2660   YX=     4.0963   ZX=     8.0508
   XY=    -1.4505   YY=     9.1092   ZY=     3.9901
   XZ=     9.1831   YZ=     0.1011   ZZ=    -3.6425
   Eigenvalues:    -6.8740     8.9210    20.6856
    122  Bq   Isotropic =     4.2145   Anisotropy =    13.0884
   XX=     2.4833   YX=     3.9428   ZX=     2.4952
   XY=    -1.2600   YY=     7.5836   ZY=    -1.3667
   XZ=    12.5747   YZ=   -10.6818   ZZ=     2.5766
   Eigenvalues:    -6.9512     6.6546    12.9401
    123  Bq   Isotropic =     7.6379   Anisotropy =    20.4376
   XX=    17.9386   YX=     3.5147   ZX=     8.7428
   XY=    -0.8879   YY=     8.9176   ZY=     3.5091
   XZ=     8.3372   YZ=     2.1752   ZZ=    -3.9424
   Eigenvalues:    -7.2011     8.8519    21.2630
    124  Bq   Isotropic =     3.6009   Anisotropy =    13.8883
   XX=     0.8507   YX=     3.6600   ZX=     1.8616
   XY=    -1.0884   YY=     6.3462   ZY=    -2.0341
   XZ=    12.2750   YZ=   -10.8772   ZZ=     3.6058
   Eigenvalues:    -7.0738     5.0167    12.8598
    125  Bq   Isotropic =     7.6813   Anisotropy =    20.2765
[...]
   130  Bq   0.000000
   131  Bq   0.000000
   132  Bq   0.000000
   133  Bq   0.000000
   134  Bq   0.000000
   135  Bq   0.000000
   136  Bq   0.000000
   137  Bq   0.000000
   138  Bq   0.000000
   139  Bq   0.000000
   140  Bq   0.000000
   141  Bq   0.000000
   142  Bq   0.000000
   143  Bq   0.000000
   144  Bq   0.000000
   145  Bq   0.000000
   146  Bq   0.000000
   147  Bq   0.000000
   148  Bq   0.000000
   149  Bq   0.000000
   150  Bq   0.000000
   151  Bq   0.000000
   152  Bq   0.000000
   153  Bq   0.000000
   154  Bq   0.000000
   155  Bq   0.000000
   156  Bq   0.000000
   157  Bq   0.000000
   158  Bq   0.000000
   159  Bq   0.000000
   160  Bq   0.000000
   161  Bq   0.000000
   162  Bq   0.000000
   163  Bq   0.000000
   164  Bq   0.000000
   165  Bq   0.000000
   166  Bq   0.000000
   167  Bq   0.000000
   168  Bq   0.000000
   169  Bq   0.000000
   170  Bq   0.000000
   171  Bq   0.000000
   172  Bq   0.000000
   173  Bq   0.000000
   174  Bq   0.000000
   175  Bq   0.000000
   176  Bq   0.000000
   177  Bq   0.000000
   178  Bq   0.000000
   179  Bq   0.000000
   180  Bq   0.000000
   181  Bq   0.000000
   182  Bq   0.000000
   183  Bq   0.000000
   184  Bq   0.000000
   185  Bq   0.000000
   186  Bq   0.000000
   187  Bq   0.000000
   188  Bq   0.000000
   189  Bq   0.000000
   190  Bq   0.000000
   191  Bq   0.000000
   192  Bq   0.000000
   193  Bq   0.000000
   194  Bq   0.000000
   195  Bq   0.000000
   196  Bq   0.000000
   197  Bq   0.000000
   198  Bq   0.000000
   199  Bq   0.000000
   200  Bq   0.000000
   201  Bq   0.000000
   202  Bq   0.000000
   203  Bq   0.000000
   204  Bq   0.000000
   205  Bq   0.000000
   206  Bq   0.000000
   207  Bq   0.000000
   208  Bq   0.000000
   209  Bq   0.000000
   210  Bq   0.000000
   211  Bq   0.000000
   212  Bq   0.000000
   213  Bq   0.000000
   214  Bq   0.000000
   215  Bq   0.000000
   216  Bq   0.000000
   217  Bq   0.000000
   218  Bq   0.000000
   219  Bq   0.000000
   220  Bq   0.000000
   221  Bq   0.000000
   222  Bq   0.000000
   223  Bq   0.000000
   224  Bq   0.000000
   225  Bq   0.000000
   226  Bq   0.000000
   227  Bq   0.000000
   228  Bq   0.000000
   229  Bq   0.000000
   230  Bq   0.000000
   231  Bq   0.000000
   232  Bq   0.000000
   233  Bq   0.000000
   234  Bq   0.000000
   235  Bq   0.000000
   236  Bq   0.000000
 Sum of Mulliken charges =   0.00000
 Mulliken charges with hydrogens summed into heavy atoms:
               1
     1  C   -0.255498
     3  C    0.169409
     5  C    0.448258
     6  C    0.064351
     7  C   -0.333926
     9  C   -0.139521
    11  C   -0.205988
    13  C   -0.119315
    15  C    0.653397
    16  C    0.034822
    17  C   -0.317410
    19  C   -0.316854
    21  C    0.651066
    22  C    0.037784
    23  C   -0.117289
    25  C   -0.321531
    27  C    0.448331
    28  C    0.061983
    29  C   -0.333381
    31  C   -0.139505
    33  C   -0.255977
    35  C    0.055019
    37  Bq   0.115561
    38  Bq   0.000000
    39  Bq   0.000000
    40  Bq   0.000000
    41  Bq   0.000000
    42  Bq   0.000000
    43  Bq   0.000000
    44  Bq   0.000000
    45  Bq   0.000000
    46  Bq   0.000000
    47  Bq   0.000000
    48  Bq   0.000000
    49  Bq   0.000000
    50  Bq   0.000000
    51  Bq   0.000000
    52  Bq   0.000000
    53  Bq   0.000000
    54  Bq   0.000000
    55  Bq   0.000000
    56  Bq   0.000000
    57  Bq   0.000000
    58  Bq   0.000000
    59  Bq   0.000000
    60  Bq   0.000000
    61  Bq   0.000000
    62  Bq   0.000000
    63  Bq   0.000000
    64  Bq   0.000000
    65  Bq   0.000000
    66  Bq   0.000000
    67  Bq   0.000000
    68  Bq   0.000000
    69  Bq   0.000000
    70  Bq   0.000000
    71  Bq   0.000000
    72  Bq   0.000000
    73  Bq   0.000000
    74  Bq   0.000000
    75  Bq   0.000000
    76  Bq   0.000000
    77  Bq   0.000000
    78  Bq   0.000000
    79  Bq   0.000000
    80  Bq   0.000000
    81  Bq   0.000000
    82  Bq   0.000000
    83  Bq   0.000000
    84  Bq   0.000000
    85  Bq   0.000000
    86  Bq   0.000000
    87  Bq   0.000000
    88  Bq   0.000000
    89  Bq   0.000000
    90  Bq   0.000000
    91  Bq   0.000000
    92  Bq   0.000000
    93  Bq   0.000000
    94  Bq   0.000000
    95  Bq   0.000000
    96  Bq   0.000000
    97  Bq   0.000000
    98  Bq   0.000000
    99  Bq   0.000000
   100  Bq   0.000000
   101  Bq   0.000000
   102  Bq   0.000000
   103  Bq   0.000000
   104  Bq   0.000000
   105  Bq   0.000000
   106  Bq   0.000000
   107  Bq   0.000000
   108  Bq   0.000000
   109  Bq   0.000000
   110  Bq   0.000000
   111  Bq   0.000000
   112  Bq   0.000000
   113  Bq   0.000000
   114  Bq   0.000000
   115  Bq   0.000000
   116  Bq   0.000000
   117  Bq   0.000000
   118  Bq   0.000000
   119  Bq   0.000000
   120  Bq   0.000000
   121  Bq   0.000000
   122  Bq   0.000000
   123  Bq   0.000000
   124  Bq   0.000000
   125  Bq   0.000000
   126  Bq   0.000000
   127  Bq   0.000000
   128  Bq   0.000000
   129  Bq   0.000000
   130  Bq   0.000000
   131  Bq   0.000000
   132  Bq   0.000000
   133  Bq   0.000000
   134  Bq   0.000000
   135  Bq   0.000000
   136  Bq   0.000000
   137  Bq   0.000000
   138  Bq   0.000000
   139  Bq   0.000000
   140  Bq   0.000000
   141  Bq   0.000000
   142  Bq   0.000000
   143  Bq   0.000000
   144  Bq   0.000000
   145  Bq   0.000000
   146  Bq   0.000000
   147  Bq   0.000000
   148  Bq   0.000000
   149  Bq   0.000000
   150  Bq   0.000000
   151  Bq   0.000000
   152  Bq   0.000000
   153  Bq   0.000000
   154  Bq   0.000000
   155  Bq   0.000000
   156  Bq   0.116215
   157  Bq   0.000000
   158  Bq   0.000000
   159  Bq   0.000000
   160  Bq   0.000000
   161  Bq   0.000000
   162  Bq   0.000000
   163  Bq   0.000000
   164  Bq   0.000000
   165  Bq   0.000000
   166  Bq   0.000000
   167  Bq   0.000000
   168  Bq   0.000000
   169  Bq   0.000000
   170  Bq   0.000000
   171  Bq   0.000000
   172  Bq   0.000000
   173  Bq   0.000000
   174  Bq   0.000000
   175  Bq   0.000000
   176  Bq   0.000000
   177  Bq   0.000000
   178  Bq   0.000000
   179  Bq   0.000000
   180  Bq   0.000000
   181  Bq   0.000000
   182  Bq   0.000000
   183  Bq   0.000000
   184  Bq   0.000000
   185  Bq   0.000000
   186  Bq   0.000000
   187  Bq   0.000000
   188  Bq   0.000000
   189  Bq   0.000000
   190  Bq   0.000000
   191  Bq   0.000000
   192  Bq   0.000000
   193  Bq   0.000000
   194  Bq   0.000000
   195  Bq   0.000000
   196  Bq   0.000000
   197  Bq   0.000000
   198  Bq   0.000000
   199  Bq   0.000000
   200  Bq   0.000000
   201  Bq   0.000000
   202  Bq   0.000000
   203  Bq   0.000000
   204  Bq   0.000000
   205  Bq   0.000000
   206  Bq   0.000000
   207  Bq   0.000000
   208  Bq   0.000000
   209  Bq   0.000000
   210  Bq   0.000000
   211  Bq   0.000000
   212  Bq   0.000000
   213  Bq   0.000000
   214  Bq   0.000000
   215  Bq   0.000000
   216  Bq   0.000000
   217  Bq   0.000000
   218  Bq   0.000000
   219  Bq   0.000000
   220  Bq   0.000000
   221  Bq   0.000000
   222  Bq   0.000000
   223  Bq   0.000000
   224  Bq   0.000000
   225  Bq   0.000000
   226  Bq   0.000000
   227  Bq   0.000000
   228  Bq   0.000000
   229  Bq   0.000000
   230  Bq   0.000000
   231  Bq   0.000000
   232  Bq   0.000000
   233  Bq   0.000000
   234  Bq   0.000000
   235  Bq   0.000000
   236  Bq   0.000000
 Electronic spatial extent (au):  <R**2>=           5736.9264
 Charge=              0.0000 electrons
 Dipole moment (field-independent basis, Debye):
    X=              0.0475    Y=              0.0856    Z=              0.0029  Tot=              0.0979
 Quadrupole moment (field-independent basis, Debye-Ang):
   XX=           -113.7056   YY=           -113.9456   ZZ=           -133.2669
   XY=             -0.3834   XZ=              3.2102   YZ=             -1.1839
 Traceless Quadrupole moment (field-independent basis, Debye-Ang):
   XX=              6.6005   YY=              6.3604   ZZ=            -12.9609
   XY=             -0.3834   XZ=              3.2102   YZ=             -1.1839
 Octapole moment (field-independent basis, Debye-Ang**2):
  XXX=            -16.4668  YYY=            -16.1860  ZZZ=             -1.7007  XYY=              2.5576
  XXY=             -6.5650  XXZ=             13.6547  XZZ=             -8.9478  YZZ=            -17.7168
  YYZ=            -13.2941  XYZ=              8.8036
 Hexadecapole moment (field-independent basis, Debye-Ang**3):
 XXXX=          -3951.1638 YYYY=          -3112.2161 ZZZZ=           -504.8311 XXXY=            340.6935
 XXXZ=            156.4968 YYYX=            335.5625 YYYZ=            -87.0893 ZZZX=            120.2262
 ZZZY=           -108.7373 XXYY=          -1176.4844 XXZZ=           -856.7291 YYZZ=           -665.7275
 XXYZ=            -68.9016 YYXZ=             48.1602 ZZXY=            153.0375
 N-N= 1.610917615562D+03 E-N=-5.186891130729D+03  KE= 8.436329774448D+02
 1\1\GINC-XHYSTOS\SP\RB3LYP\6-311+G(d,p)\C22H14\YANNICK\22-Aug-2020\0\\
 # rb3lyp/6-311+g** NMR geom=connectivity\\Title\\0,1\C,0,-4.0500558,-0
 .5771862,0.8136712\H,0,-5.0263804,-1.0082727,1.002476\C,0,-3.9381552,0
 .6617804,0.2400876\H,0,-4.8252424,1.233889,-0.0111295\C,0,-2.676841,1.
 2433246,0.0057578\C,0,-1.4974121,0.5051527,0.2848253\C,0,-1.6508332,-0
 .7338728,0.9404026\H,0,-0.7713646,-1.2730967,1.2633753\C,0,-2.8898548,
 -1.2624035,1.1994307\H,0,-2.9683706,-2.2124563,1.7152676\C,0,-2.577318
 5,2.5963696,-0.419293\H,0,-3.4870728,3.1412239,-0.6474055\C,0,-1.37418
 95,3.2147896,-0.436403\H,0,-1.2997315,4.2742019,-0.6578144\C,0,-0.1719
 488,2.499409,-0.1734588\C,0,-0.2043917,1.1018437,0.0192689\C,0,1.05134
 91,3.204256,-0.0676222\H,0,1.0427344,4.2819499,-0.1896997\C,0,2.194209
 1,2.5487446,0.2579577\H,0,3.1168527,3.0912848,0.4334727\C,0,2.2216473,
 1.1336562,0.293499\C,0,1.0486931,0.3945528,0.0302412\C,0,3.4483363,0.4
 614633,0.5573939\H,0,4.3095794,1.0606054,0.8334846\C,0,3.5427346,-0.88
 55926,0.4749463\H,0,4.4731467,-1.3939704,0.7038822\C,0,2.4490052,-1.64
 74447,-0.0196319\C,0,1.2150704,-1.0057258,-0.3013573\C,0,0.2531113,-1.
 743444,-1.0216591\H,0,-0.6541356,-1.2535051,-1.3462847\C,0,0.4494193,-
 3.0628597,-1.3413779\H,0,-0.3083162,-3.5944309,-1.905406\C,0,1.6251726
 ,-3.7207967,-0.9552541\H,0,1.7670048,-4.7687404,-1.1927019\C,0,2.61098
 72,-3.0144177,-0.318305\H,0,3.5525612,-3.4902813,-0.0646367\Bq,0,3.561
 0325957,-2.4358010688,0.1815367112\Bq,0,3.4326382741,-2.5069393639,0.6
 595055816\Bq,0,3.4032683592,-2.4221843289,0.7688398953\Bq,0,3.45462608
 78,-2.3937290109,0.5776523471\Bq,0,3.3775894949,-2.4364119879,0.864433
 6694\Bq,0,3.4803049522,-2.3795013518,0.482058573\Bq,0,3.3519106306,-2.
 450639647,0.9600274435\Bq,0,3.5059838165,-2.3652736928,0.3864647989\Bq
 ,0,3.3262317662,-2.464867306,1.0556212176\Bq,0,3.5316626808,-2.3510460
 338,0.2908710248\Bq,0,3.3005529019,-2.479094965,1.1512149917\Bq,0,3.55
 73415451,-2.3368183748,0.1952772507\Bq,0,3.4289472235,-2.4079566699,0.
 6732461212\Bq,0,3.3995773087,-2.3232016349,0.7825804349\Bq,0,3.4509350
 373,-2.2947463168,0.5913928867\Bq,0,3.3738984443,-2.3374292939,0.87817
 4209\Bq,0,3.4766139016,-2.2805186578,0.4957991126\Bq,0,3.34821958,-2.3
 516569529,0.973767983\Bq,0,3.502292766,-2.2662909988,0.4002053385\Bq,0
 ,3.3225407157,-2.365884612,1.0693617571\Bq,0,3.5279716303,-2.252063339
 7,0.3046115644\Bq,0,3.2968618514,-2.380112271,1.1649555312\Bq,0,3.5536
 504946,-2.2378356807,0.2090177903\Bq,0,3.425256173,-2.3089739759,0.686
 9866608\Bq,0,3.3958862581,-2.2242189408,0.7963209744\Bq,0,3.4472439868
 ,-2.1957636228,0.6051334262\Bq,0,3.3702073938,-2.2384465999,0.89191474
 85\Bq,0,3.4729228511,-2.1815359638,0.5095396521\Bq,0,3.3445285295,-2.2
 526742589,0.9875085226\Bq,0,3.4986017154,-2.1673083047,0.413945878\Bq,
 0,3.3188496652,-2.2669019179,1.0831022967\Bq,0,3.5242805797,-2.1530806
 457,0.3183521039\Bq,0,3.2931708008,-2.281129577,1.1786960708\Bq,0,3.54
 99594441,-2.1388529867,0.2227583298\Bq,0,3.4215651225,-2.2099912818,0.
 7007272003\Bq,0,3.3921952076,-2.1252362468,0.810061514\Bq,0,3.44355293
 62,-2.0967809288,0.6188739658\Bq,0,3.3665163433,-2.1394639058,0.905655
 2881\Bq,0,3.4692318006,-2.0825532697,0.5232801917\Bq,0,3.3408374789,-2
 .1536915649,1.0012490622\Bq,0,3.4949106649,-2.0683256107,0.4276864176\
 Bq,0,3.3151586146,-2.1679192239,1.0968428363\Bq,0,3.5205895292,-2.0540
 979517,0.3320926435\Bq,0,3.2894797503,-2.1821468829,1.1924366104\Bq,0,
 3.5462683935,-2.0398702926,0.2364988694\Bq,0,3.4178740719,-2.111008587
 8,0.7144677399\Bq,0,3.3885041571,-2.0262535528,0.8238020535\Bq,0,3.439
 8618857,-1.9977982347,0.6326145053\Bq,0,3.3628252927,-2.0404812118,0.9
 193958276\Bq,0,3.46554075,-1.9835705757,0.5370207313\Bq,0,3.3371464284
 ,-2.0547088708,1.0149896017\Bq,0,3.4912196143,-1.9693429167,0.44142695
 72\Bq,0,3.3114675641,-2.0689365299,1.1105833758\Bq,0,3.5168984787,-1.9
 551152576,0.3458331831\Bq,0,3.2857886998,-2.0831641889,1.2061771499\Bq
 ,0,3.542577343,-1.9408875986,0.250239409\Bq,0,3.4141830214,-2.01202589
 37,0.7282082794\Bq,0,3.3848131065,-1.9272708587,0.8375425931\Bq,0,3.43
 61708352,-1.8988155407,0.6463550449\Bq,0,3.3591342422,-1.9414985178,0.
 9331363672\Bq,0,3.4618496995,-1.8845878817,0.5507612708\Bq,0,3.3334553
 779,-1.9557261768,1.0287301413\Bq,0,3.4875285638,-1.8703602226,0.45516
 74967\Bq,0,3.3077765136,-1.9699538358,1.1243239154\Bq,0,3.5132074281,-
 1.8561325636,0.3595737226\Bq,0,3.2820976492,-1.9841814949,1.2199176895
 \Bq,0,3.5388862925,-1.8419049046,0.2639799485\Bq,0,3.4104919708,-1.913
 0431997,0.741948819\Bq,0,3.381122056,-1.8282881647,0.8512831327\Bq,0,3
 .4324797846,-1.7998328466,0.6600955845\Bq,0,3.3554431917,-1.8425158237
 ,0.9468769067\Bq,0,3.458158649,-1.7856051876,0.5645018104\Bq,0,3.32976
 43273,-1.8567434828,1.0424706808\Bq,0,3.4838375133,-1.7713775286,0.468
 9080363\Bq,0,3.304085463,-1.8709711418,1.1380644549\Bq,0,3.5095163776,
 -1.7571498696,0.3733142622\Bq,0,3.2784065987,-1.8851988008,1.233658229
 \Bq,0,3.5351952419,-1.7429222105,0.2777204881\Bq,0,3.4068009203,-1.814
 0605057,0.7556893586\Bq,0,3.3774310055,-1.7293054707,0.8650236722\Bq,0
 ,3.4287887341,-1.7008501526,0.673836124\Bq,0,3.3517521411,-1.743533129
 7,0.9606174463\Bq,0,3.4544675984,-1.6866224936,0.5782423499\Bq,0,3.326
 0732768,-1.7577607887,1.0562112204\Bq,0,3.4801464627,-1.6723948346,0.4
 826485758\Bq,0,3.3003944125,-1.7719884478,1.1518049945\Bq,0,3.50582532
 71,-1.6581671755,0.3870548017\Bq,0,3.2747155482,-1.7862161068,1.247398
 7686\Bq,0,3.5315041914,-1.6439395165,0.2914610276\Bq,0,3.4031098698,-1
 .7150778116,0.7694298981\Bq,0,3.3737399549,-1.6303227766,0.8787642118\
 Bq,0,3.4250976836,-1.6018674586,0.6875766636\Bq,0,3.3480610906,-1.6445
 504357,0.9743579859\Bq,0,3.4507765479,-1.5876397995,0.5919828895\Bq,0,
 3.3223822263,-1.6587780947,1.06995176\Bq,0,3.4764554122,-1.5734121405,
 0.4963891154\Bq,0,3.2967033619,-1.6730057537,1.1655455341\Bq,0,3.50213
 42765,-1.5591844815,0.4007953413\Bq,0,3.2710244976,-1.6872334127,1.261
 1393081\Bq,0,3.5278131409,-1.5449568225,0.3052015672\Bq,0,3.3994188192
 ,-1.6160951176,0.7831704377\Bq,0,3.3700489044,-1.5313400826,0.89250475
 13\Bq,0,3.421406633,-1.5028847645,0.7013172031\Bq,0,3.3443700401,-1.54
 55677416,0.9880985254\Bq,0,3.4470854973,-1.4886571055,0.605723429\Bq,0
 ,3.3186911757,-1.5597954007,1.0836922995\Bq,0,3.4727643617,-1.47442944
 65,0.510129655\Bq,0,3.2930123114,-1.5740230597,1.1792860736\Bq,0,3.498
 443226,-1.4602017875,0.4145358809\Bq,0,3.2673334471,-1.5882507187,1.27
 48798477\Bq,0,3.5241220903,-1.4459741284,0.3189421068\Bq,0,3.395727768
 7,-1.5171124236,0.7969109772\Bq,0,3.3663578538,-1.4323573886,0.9062452
 909\Bq,0,3.4177155825,-1.4039020705,0.7150577427\Bq,0,3.3406789895,-1.
 4465850476,1.001839065\Bq,0,3.4433944468,-1.3896744115,0.6194639686\Bq
 ,0,3.3150001252,-1.4608127066,1.0974328391\Bq,0,3.4690733111,-1.375446
 7524,0.5238701945\Bq,0,3.2893212609,-1.4750403656,1.1930266132\Bq,0,3.
 4947521755,-1.3612190934,0.4282764204\Bq,0,3.2636423966,-1.4892680247,
 1.2886203873\Bq,0,3.5204310398,-1.3469914344,0.3326826463\Bq,0,3.39203
 67182,-1.4181297295,0.8106515168\Bq,0,3.3626668033,-1.3333746945,0.919
 9858304\Bq,0,3.414024532,-1.3049193765,0.7287982823\Bq,0,3.336987939,-
 1.3476023536,1.0155796045\Bq,0,3.4397033963,-1.2906917174,0.6332045082
 \Bq,0,3.3113090747,-1.3618300126,1.1111733786\Bq,0,3.4653822606,-1.276
 4640584,0.5376107341\Bq,0,3.2856302103,-1.3760576716,1.2067671527\Bq,0
 ,3.4910611249,-1.2622363994,0.44201696\Bq,0,3.259951346,-1.3902853306,
 1.3023609268\Bq,0,3.5167399892,-1.2480087404,0.3464231859\Bq,0,3.38834
 56676,-1.3191470355,0.8243920564\Bq,0,3.3589757528,-1.2343920005,0.933
 72637\Bq,0,3.4103334814,-1.2059366824,0.7425388218\Bq,0,3.3332968885,-
 1.2486196595,1.0293201441\Bq,0,3.4360123457,-1.1917090234,0.6469450477
 \Bq,0,3.3076180241,-1.2628473185,1.1249139182\Bq,0,3.4616912101,-1.177
 4813644,0.5513512736\Bq,0,3.2819391598,-1.2770749776,1.2205076923\Bq,0
 ,3.4873700744,-1.1632537054,0.4557574995\Bq,0,3.2562602955,-1.29130263
 66,1.3161014664\Bq,0,3.5130489387,-1.1490260463,0.3601637254\Bq,0,3.38
 46546171,-1.2201643415,0.8381325959\Bq,0,3.3552847022,-1.1354093065,0.
 9474669096\Bq,0,3.4066424309,-1.1069539884,0.7562793614\Bq,0,3.3296058
 379,-1.1496369655,1.0430606837\Bq,0,3.4323212952,-1.0927263294,0.66068
 55873\Bq,0,3.3039269736,-1.1638646245,1.1386544578\Bq,0,3.4580001595,-
 1.0784986703,0.5650918132\Bq,0,3.2782481093,-1.1780922835,1.2342482318
 \Bq,0,3.4836790239,-1.0642710113,0.4694980391\Bq,0,3.2525692449,-1.192
 3199426,1.3298420059\Bq,0,3.5093578882,-1.0500433523,0.373904265\Bq,0,
 3.3809635666,-1.1211816474,0.8518731355\Bq,0,3.3515936517,-1.036426612
 4,0.9612074491\Bq,0,3.4029513803,-1.0079712944,0.7700199009\Bq,0,3.325
 9147874,-1.0506542714,1.0568012232\Bq,0,3.4286302447,-0.9937436353,0.6
 744261268\Bq,0,3.3002359231,-1.0648819305,1.1523949973\Bq,0,3.45430910
 9,-0.9795159763,0.5788323527\Bq,0,3.2745570587,-1.0791095895,1.2479887
 714\Bq,0,3.4799879733,-0.9652883173,0.4832385787\Bq,0,3.2488781944,-1.
 0933372485,1.3435825455\Bq,0,3.5056668376,-0.9510606583,0.3876448046\B
 q,0,3.377272516,-1.0221989534,0.865613675\Bq,0,3.3479026012,-0.9374439
 184,0.9749479887\Bq,0,3.3992603298,-0.9089886003,0.7837604405\Bq,0,3.3
 222237368,-0.9516715774,1.0705417628\Bq,0,3.4249391941,-0.8947609413,0
 .6881666664\Bq,0,3.2965448725,-0.9658992364,1.1661355369\Bq,0,3.450618
 0585,-0.8805332823,0.5925728923\Bq,0,3.2708660082,-0.9801268955,1.2617
 29311\Bq,0,3.4762969228,-0.8663056232,0.4969791182\Bq,0,3.2451871439,-
 0.9943545545,1.3573230851\Bq,0,3.5019757871,-0.8520779642,0.4013853441
 \Bq,0,3.3735814655,-0.9232162594,0.8793542146\Bq,0,3.3442115506,-0.838
 4612243,0.9886885282\Bq,0,3.3955692793,-0.8100059063,0.7975009801\Bq,0
 ,3.3185326863,-0.8526888834,1.0842823023\Bq,0,3.4212481436,-0.79577824
 73,0.701907206\Bq,0,3.292853822,-0.8669165424,1.1798760764\Bq,0,3.4469
 270079,-0.7815505882,0.6063134319\Bq,0,3.2671749577,-0.8811442014,1.27
 54698505\Bq,0,3.4726058722,-0.7673229292,0.5107196578\Bq,0,3.241496093
 3,-0.8953718605,1.3710636246\Bq,0,3.4982847366,-0.7530952702,0.4151258
 837\Bq,0,3.369890415,-0.8242335653,0.8930947541\Bq,0,3.3405205001,-0.7
 394785303,1.0024290678\Bq,0,3.3918782287,-0.7110232123,0.8112415196\Bq
 ,0,3.3148416358,-0.7537061893,1.0980228419\Bq,0,3.4175570931,-0.696795
 5532,0.7156477455\Bq,0,3.2891627715,-0.7679338484,1.193616616\Bq,0,3.4
 432359574,-0.6825678942,0.6200539714\Bq,0,3.2634839071,-0.7821615074,1
 .2892103901\Bq,0,3.4689148217,-0.6683402352,0.5244601973\Bq,0,3.237805
 0428,-0.7963891664,1.3848041642\Bq,0,3.494593686,-0.6541125761,0.42886
 64232\Bq,0,3.3661993644,-0.7252508713,0.9068352937\\Version=ES64L-G09R
 evD.01\HF=-847.0032898\RMSD=7.591e-09\Dipole=0.0186808,0.0336671,0.001
 1595\Quadrupole=4.9072795,4.7288219,-9.6361014,-0.2850201,2.3867064,-0
 .880172\PG=C01 [X(C22H14)]\\@


 QED = W**5 (WHICH WAS WHAT WE WANTED)
 Job cpu time:       0 days  2 hours 35 minutes 27.3 seconds.
 File lengths (MBytes):  RWF=    184 Int=      0 D2E=      0 Chk=     19 Scr=      1
 Normal termination of Gaussian 09 at Sat Aug 22 20:01:04 2020.
