 Entering Gaussian System, Link 0=g09
 Input=input_batch_03800.com
 Output=input_batch_03800.log
 Initial command:
 /share/programs/GAUSSIAN/64/g09/l1.exe "/scratch/yannick.36522/Gau-3424907.inp" -scrdir="/scratch/yannick.36522/"
 Entering Link 1 = /share/programs/GAUSSIAN/64/g09/l1.exe PID=   3424914.
  
 Copyright (c) 1988,1990,1992,1993,1995,1998,2003,2009,2013,
            Gaussian, Inc.  All Rights Reserved.
  
 This is part of the Gaussian(R) 09 program.  It is based on
 the Gaussian(R) 03 system (copyright 2003, Gaussian, Inc.),
 the Gaussian(R) 98 system (copyright 1998, Gaussian, Inc.),
 the Gaussian(R) 94 system (copyright 1995, Gaussian, Inc.),
 the Gaussian 92(TM) system (copyright 1992, Gaussian, Inc.),
 the Gaussian 90(TM) system (copyright 1990, Gaussian, Inc.),
 the Gaussian 88(TM) system (copyright 1988, Gaussian, Inc.),
 the Gaussian 86(TM) system (copyright 1986, Carnegie Mellon
 University), and the Gaussian 82(TM) system (copyright 1983,
 Carnegie Mellon University). Gaussian is a federally registered
 trademark of Gaussian, Inc.
  
 This software contains proprietary and confidential information,
 including trade secrets, belonging to Gaussian, Inc.
  
 This software is provided under written license and may be
 used, copied, transmitted, or stored only in accord with that
 written license.
  
 The following legend is applicable only to US Government
 contracts under FAR:
  
                    RESTRICTED RIGHTS LEGEND
  
 Use, reproduction and disclosure by the US Government is
 subject to restrictions as set forth in subparagraphs (a)
 and (c) of the Commercial Computer Software - Restricted
 Rights clause in FAR 52.227-19.
  
 Gaussian, Inc.
 340 Quinnipiac St., Bldg. 40, Wallingford CT 06492
  
  
 ---------------------------------------------------------------
 Warning -- This program may not be used in any manner that
 competes with the business of Gaussian, Inc. or will provide
 assistance to any competitor of Gaussian, Inc.  The licensee
 of this program is prohibited from giving any competitor of
 Gaussian, Inc. access to this program.  By using this program,
 the user acknowledges that Gaussian, Inc. is engaged in the
 business of creating and licensing software in the field of
 computational chemistry and represents and warrants to the
 licensee that it is not a competitor of Gaussian, Inc. and that
 it will not use this program in any manner prohibited above.
 ---------------------------------------------------------------
  

 Cite this work as:
 Gaussian 09, Revision D.01,
 M. J. Frisch, G. W. Trucks, H. B. Schlegel, G. E. Scuseria, 
 M. A. Robb, J. R. Cheeseman, G. Scalmani, V. Barone, B. Mennucci, 
 G. A. Petersson, H. Nakatsuji, M. Caricato, X. Li, H. P. Hratchian, 
 A. F. Izmaylov, J. Bloino, G. Zheng, J. L. Sonnenberg, M. Hada, 
 M. Ehara, K. Toyota, R. Fukuda, J. Hasegawa, M. Ishida, T. Nakajima, 
 Y. Honda, O. Kitao, H. Nakai, T. Vreven, J. A. Montgomery, Jr., 
 J. E. Peralta, F. Ogliaro, M. Bearpark, J. J. Heyd, E. Brothers, 
 K. N. Kudin, V. N. Staroverov, T. Keith, R. Kobayashi, J. Normand, 
 K. Raghavachari, A. Rendell, J. C. Burant, S. S. Iyengar, J. Tomasi, 
 M. Cossi, N. Rega, J. M. Millam, M. Klene, J. E. Knox, J. B. Cross, 
 V. Bakken, C. Adamo, J. Jaramillo, R. Gomperts, R. E. Stratmann, 
 O. Yazyev, A. J. Austin, R. Cammi, C. Pomelli, J. W. Ochterski, 
 R. L. Martin, K. Morokuma, V. G. Zakrzewski, G. A. Voth, 
 P. Salvador, J. J. Dannenberg, S. Dapprich, A. D. Daniels, 
 O. Farkas, J. B. Foresman, J. V. Ortiz, J. Cioslowski, 
 and D. J. Fox, Gaussian, Inc., Wallingford CT, 2013.
 
 ******************************************
 Gaussian 09:  ES64L-G09RevD.01 24-Apr-2013
                11-Sep-2020 
 ******************************************
 %nproc=8
 Will use up to    8 processors via shared memory.
 %mem=1000MB
 ----------------------------------------
 # rb3lyp/6-311+g** NMR geom=connectivity
 ----------------------------------------
 1/38=1,57=2/1;
 2/12=2,17=6,18=5,40=1/2;
 3/5=4,6=6,7=111,11=2,16=1,25=1,30=1,74=-5,116=1/1,2,8,3;
 4//1;
 5/5=2,38=5/2;
 8/6=1,10=90,11=11/1;
 10/13=100,45=16/2;
 6/7=2,8=2,9=2,10=2,28=1/1;
 99/9=1/99;
 -----
 Title
 -----
 Symbolic Z-matrix:
 Charge =  0 Multiplicity = 1
 C                     2.45076  -0.71174   0. 
 C                     2.45076   0.71174   0. 
 C                     1.25139   1.41137   0. 
 C                     0.        0.72289   0. 
 C                    -1.25139   1.41137   0. 
 C                    -2.45076   0.71174   0. 
 C                    -2.45076  -0.71174   0. 
 C                    -1.25139  -1.41137   0. 
 C                     0.       -0.72289   0. 
 C                     1.25139  -1.41137   0. 
 H                     3.40873  -1.25791   0. 
 H                     3.40873   1.25791   0. 
 H                     1.24972   2.51472   0. 
 H                    -1.24972   2.51472   0. 
 H                    -3.40873   1.25791   0. 
 H                    -3.40873  -1.25791   0. 
 H                    -1.24972  -2.51472   0. 
 H                     1.24972  -2.51472   0. 
 Bq                   -0.62168  -0.35355  -0.70711 
 Bq                   -0.55104  -0.18301  -0.70711 
 Bq                   -0.73405   0.       -0.86603 
 Bq                   -0.75109   0.12941  -0.86603 
 Bq                   -0.80104   0.25     -0.86603 
 Bq                   -0.8805    0.35355  -0.86603 
 Bq                   -0.98405   0.43301  -0.86603 
 Bq                   -1.10464   0.48296  -0.86603 
 Bq                   -1.23405   0.5      -0.86603 
 Bq                   -1.36346   0.48296  -0.86603 
 Bq                   -1.48405   0.43301  -0.86603 
 Bq                   -1.5876    0.35355  -0.86603 
 Bq                   -1.66706   0.25     -0.86603 
 Bq                   -1.71701   0.12941  -0.86603 
 Bq                   -1.73405   0.       -0.86603 
 Bq                   -1.71701  -0.12941  -0.86603 
 Bq                   -1.66706  -0.25     -0.86603 
 Bq                   -1.5876   -0.35355  -0.86603 
 Bq                   -1.48405  -0.43301  -0.86603 
 Bq                   -1.36346  -0.48296  -0.86603 
 Bq                   -1.23405  -0.5      -0.86603 
 Bq                   -1.10464  -0.48296  -0.86603 
 Bq                   -0.98405  -0.43301  -0.86603 
 Bq                   -0.8805   -0.35355  -0.86603 
 Bq                   -0.80104  -0.25     -0.86603 
 Bq                   -0.75109  -0.12941  -0.86603 
 Bq                   -0.97523   0.       -0.96593 
 Bq                   -0.98405   0.06699  -0.96593 
 Bq                   -1.00991   0.12941  -0.96593 
 Bq                   -1.05104   0.18301  -0.96593 
 Bq                   -1.10464   0.22414  -0.96593 
 Bq                   -1.16706   0.25     -0.96593 
 Bq                   -1.23405   0.25882  -0.96593 
 Bq                   -1.30104   0.25     -0.96593 
 Bq                   -1.36346   0.22414  -0.96593 
 Bq                   -1.41706   0.18301  -0.96593 
 Bq                   -1.45819   0.12941  -0.96593 
 Bq                   -1.48405   0.06699  -0.96593 
 Bq                   -1.49287   0.       -0.96593 
 Bq                   -1.48405  -0.06699  -0.96593 
 Bq                   -1.45819  -0.12941  -0.96593 
 Bq                   -1.41706  -0.18301  -0.96593 
 Bq                   -1.36346  -0.22414  -0.96593 
 Bq                   -1.30104  -0.25     -0.96593 
 Bq                   -1.23405  -0.25882  -0.96593 
 Bq                   -1.16706  -0.25     -0.96593 
 Bq                   -1.10464  -0.22414  -0.96593 
 Bq                   -1.05104  -0.18301  -0.96593 
 Bq                   -1.00991  -0.12941  -0.96593 
 Bq                   -0.98405  -0.06699  -0.96593 
 Bq                    1.23405   0.        1. 
 Bq                    1.23405   0.        1. 
 Bq                    1.23405   0.        1. 
 Bq                    1.23405   0.        1. 
 Bq                    1.23405   0.        1. 
 Bq                    1.23405   0.        1. 
 Bq                    1.23405   0.        1. 
 Bq                    1.23405   0.        1. 
 Bq                    1.23405   0.        1. 
 Bq                    1.23405   0.        1. 
 Bq                    1.23405   0.        1. 
 Bq                    1.23405   0.        1. 
 Bq                    1.23405   0.        1. 
 Bq                    1.23405   0.        1. 
 Bq                    1.23405   0.        1. 
 Bq                    1.23405   0.        1. 
 Bq                    1.23405   0.        1. 
 Bq                    1.23405   0.        1. 
 Bq                    1.23405   0.        1. 
 Bq                    1.23405   0.        1. 
 Bq                    1.23405   0.        1. 
 Bq                    1.23405   0.        1. 
 Bq                    1.23405   0.        1. 
 Bq                    1.23405   0.        1. 
 Bq                    1.49287   0.        0.96593 
 Bq                    1.48405   0.06699   0.96593 
 Bq                    1.45819   0.12941   0.96593 
 Bq                    1.41706   0.18301   0.96593 
 Bq                    1.36346   0.22414   0.96593 
 Bq                    1.30104   0.25      0.96593 
 Bq                    1.23405   0.25882   0.96593 
 Bq                    1.16706   0.25      0.96593 
 Bq                    1.10464   0.22414   0.96593 
 Bq                    1.05104   0.18301   0.96593 
 Bq                    1.00991   0.12941   0.96593 
 Bq                    0.98405   0.06699   0.96593 
 Bq                    0.97523   0.        0.96593 
 Bq                    0.98405  -0.06699   0.96593 
 Bq                    1.00991  -0.12941   0.96593 
 Bq                    1.05104  -0.18301   0.96593 
 Bq                    1.10464  -0.22414   0.96593 
 Bq                    1.16706  -0.25      0.96593 
 Bq                    1.23405  -0.25882   0.96593 
 Bq                    1.30104  -0.25      0.96593 
 Bq                    1.36346  -0.22414   0.96593 
 Bq                    1.41706  -0.18301   0.96593 
 Bq                    1.45819  -0.12941   0.96593 
 Bq                    1.48405  -0.06699   0.96593 
 Bq                    1.73405   0.        0.86603 
 Bq                    1.71701   0.12941   0.86603 
 Bq                    1.66706   0.25      0.86603 
 Bq                    1.5876    0.35355   0.86603 
 Bq                    1.48405   0.43301   0.86603 
 Bq                    1.36346   0.48296   0.86603 
 Bq                    1.23405   0.5       0.86603 
 Bq                    1.10464   0.48296   0.86603 
 Bq                    0.98405   0.43301   0.86603 
 Bq                    0.8805    0.35355   0.86603 
 Bq                    0.80104   0.25      0.86603 
 Bq                    0.75109   0.12941   0.86603 
 Bq                    0.73405   0.        0.86603 
 Bq                    0.75109  -0.12941   0.86603 
 Bq                    0.80104  -0.25      0.86603 
 Bq                    0.8805   -0.35355   0.86603 
 Bq                    0.98405  -0.43301   0.86603 
 Bq                    1.10464  -0.48296   0.86603 
 Bq                    1.23405  -0.5       0.86603 
 Bq                    1.36346  -0.48296   0.86603 
 Bq                    1.48405  -0.43301   0.86603 
 Bq                    1.5876   -0.35355   0.86603 
 Bq                    1.66706  -0.25      0.86603 
 Bq                    1.71701  -0.12941   0.86603 
 Bq                    1.94116   0.        0.70711 
 Bq                    1.91706   0.18301   0.70711 
 Bq                    1.73405   0.5       0.70711 
 Bq                    1.5876    0.61237   0.70711 
 Bq                    1.41706   0.68301   0.70711 
 Bq                    1.05104   0.68301   0.70711 
 Bq                    0.8805    0.61237   0.70711 
 Bq                    0.73405   0.5       0.70711 
 Bq                    0.62168   0.35355   0.70711 
 Bq                    0.55104   0.18301   0.70711 
 Bq                    0.52694   0.        0.70711 
 Bq                    0.55104  -0.18301   0.70711 
 Bq                    0.62168  -0.35355   0.70711 
 Bq                    0.73405  -0.5       0.70711 
 Bq                    0.8805   -0.61237   0.70711 
 Bq                    1.05104  -0.68301   0.70711 
 Bq                    1.41706  -0.68301   0.70711 
 Bq                    1.5876   -0.61237   0.70711 
 Bq                    1.73405  -0.5       0.70711 
 Bq                    1.91706  -0.18301   0.70711 
 Bq                    1.94116   0.       -0.70711 
 Bq                    1.91706   0.18301  -0.70711 
 Bq                    1.73405   0.5      -0.70711 
 Bq                    1.5876    0.61237  -0.70711 
 Bq                    1.41706   0.68301  -0.70711 
 Bq                    1.05104   0.68301  -0.70711 
 Bq                    0.8805    0.61237  -0.70711 
 Bq                    0.73405   0.5      -0.70711 
 Bq                    0.62168   0.35355  -0.70711 
 Bq                    0.55104   0.18301  -0.70711 
 Bq                    0.52694   0.       -0.70711 
 Bq                    0.55104  -0.18301  -0.70711 
 Bq                    0.62168  -0.35355  -0.70711 
 Bq                    0.73405  -0.5      -0.70711 
 Bq                    0.8805   -0.61237  -0.70711 
 Bq                    1.05104  -0.68301  -0.70711 
 Bq                    1.41706  -0.68301  -0.70711 
 Bq                    1.5876   -0.61237  -0.70711 
 Bq                    1.73405  -0.5      -0.70711 
 Bq                    1.91706  -0.18301  -0.70711 
 Bq                    1.73405   0.       -0.86603 
 Bq                    1.71701   0.12941  -0.86603 
 Bq                    1.66706   0.25     -0.86603 
 Bq                    1.5876    0.35355  -0.86603 
 Bq                    1.48405   0.43301  -0.86603 
 Bq                    1.36346   0.48296  -0.86603 
 Bq                    1.23405   0.5      -0.86603 
 Bq                    1.10464   0.48296  -0.86603 
 Bq                    0.98405   0.43301  -0.86603 
 Bq                    0.8805    0.35355  -0.86603 
 Bq                    0.80104   0.25     -0.86603 
 Bq                    0.75109   0.12941  -0.86603 
 Bq                    0.73405   0.       -0.86603 
 Bq                    0.75109  -0.12941  -0.86603 
 Bq                    0.80104  -0.25     -0.86603 
 Bq                    0.8805   -0.35355  -0.86603 
 Bq                    0.98405  -0.43301  -0.86603 
 Bq                    1.10464  -0.48296  -0.86603 
 Bq                    1.23405  -0.5      -0.86603 
 Bq                    1.36346  -0.48296  -0.86603 
 Bq                    1.48405  -0.43301  -0.86603 
 Bq                    1.5876   -0.35355  -0.86603 
 Bq                    1.66706  -0.25     -0.86603 
 Bq                    1.71701  -0.12941  -0.86603 
 Bq                    1.49287   0.       -0.96593 
 Bq                    1.48405   0.06699  -0.96593 
 Bq                    1.45819   0.12941  -0.96593 
 Bq                    1.41706   0.18301  -0.96593 
 Bq                    1.36346   0.22414  -0.96593 
 Bq                    1.30104   0.25     -0.96593 
 Bq                    1.23405   0.25882  -0.96593 
 Bq                    1.16706   0.25     -0.96593 
 Bq                    1.10464   0.22414  -0.96593 
 Bq                    1.05104   0.18301  -0.96593 
 Bq                    1.00991   0.12941  -0.96593 
 Bq                    0.98405   0.06699  -0.96593 
 Bq                    0.97523   0.       -0.96593 
 Bq                    0.98405  -0.06699  -0.96593 
 
 Symmetry turned off:
 Cannot cope with ghost atoms or with translation vectors.
 Stoichiometry    C10H8
 Framework group  C1[X(C10H8)]
 NUMDOF-- NAT=    18 NAtoms=   218
 Deg. of freedom     0
 Full point group                 C1      NOp   1
                          Input orientation:                          
 ---------------------------------------------------------------------
 Center     Atomic      Atomic             Coordinates (Angstroms)
 Number     Number       Type             X           Y           Z
 ---------------------------------------------------------------------
      1          6           0        2.450760   -0.711740    0.000000
      2          6           0        2.450760    0.711740    0.000000
      3          6           0        1.251390    1.411370    0.000000
      4          6           0        0.000000    0.722890    0.000000
      5          6           0       -1.251390    1.411370    0.000000
      6          6           0       -2.450760    0.711740    0.000000
      7          6           0       -2.450760   -0.711740    0.000000
      8          6           0       -1.251390   -1.411370    0.000000
      9          6           0        0.000000   -0.722890    0.000000
     10          6           0        1.251390   -1.411370    0.000000
     11          1           0        3.408730   -1.257910    0.000000
     12          1           0        3.408730    1.257910    0.000000
     13          1           0        1.249720    2.514720    0.000000
     14          1           0       -1.249720    2.514720    0.000000
     15          1           0       -3.408730    1.257910    0.000000
     16          1           0       -3.408730   -1.257910    0.000000
     17          1           0       -1.249720   -2.514720    0.000000
     18          1           0        1.249720   -2.514720    0.000000
     19          0           0       -0.621678   -0.353553   -0.707107
     20          0           0       -0.551037   -0.183013   -0.707107
     21          0           0       -0.734050    0.000000   -0.866025
     22          0           0       -0.751087    0.129410   -0.866025
     23          0           0       -0.801037    0.250000   -0.866025
     24          0           0       -0.880497    0.353553   -0.866025
     25          0           0       -0.984050    0.433013   -0.866025
     26          0           0       -1.104640    0.482963   -0.866025
     27          0           0       -1.234050    0.500000   -0.866025
     28          0           0       -1.363460    0.482963   -0.866025
     29          0           0       -1.484050    0.433013   -0.866025
     30          0           0       -1.587603    0.353553   -0.866025
     31          0           0       -1.667063    0.250000   -0.866025
     32          0           0       -1.717013    0.129410   -0.866025
     33          0           0       -1.734050    0.000000   -0.866025
     34          0           0       -1.717013   -0.129410   -0.866025
     35          0           0       -1.667063   -0.250000   -0.866025
     36          0           0       -1.587603   -0.353553   -0.866025
     37          0           0       -1.484050   -0.433013   -0.866025
     38          0           0       -1.363460   -0.482963   -0.866025
     39          0           0       -1.234050   -0.500000   -0.866025
     40          0           0       -1.104640   -0.482963   -0.866025
     41          0           0       -0.984050   -0.433013   -0.866025
     42          0           0       -0.880497   -0.353553   -0.866025
     43          0           0       -0.801037   -0.250000   -0.866025
     44          0           0       -0.751087   -0.129410   -0.866025
     45          0           0       -0.975231    0.000000   -0.965926
     46          0           0       -0.984050    0.066987   -0.965926
     47          0           0       -1.009906    0.129410   -0.965926
     48          0           0       -1.051037    0.183013   -0.965926
     49          0           0       -1.104640    0.224144   -0.965926
     50          0           0       -1.167063    0.250000   -0.965926
     51          0           0       -1.234050    0.258819   -0.965926
     52          0           0       -1.301037    0.250000   -0.965926
     53          0           0       -1.363460    0.224144   -0.965926
     54          0           0       -1.417063    0.183013   -0.965926
     55          0           0       -1.458194    0.129410   -0.965926
     56          0           0       -1.484050    0.066987   -0.965926
     57          0           0       -1.492869    0.000000   -0.965926
     58          0           0       -1.484050   -0.066987   -0.965926
     59          0           0       -1.458194   -0.129410   -0.965926
     60          0           0       -1.417063   -0.183013   -0.965926
     61          0           0       -1.363460   -0.224144   -0.965926
     62          0           0       -1.301037   -0.250000   -0.965926
     63          0           0       -1.234050   -0.258819   -0.965926
     64          0           0       -1.167063   -0.250000   -0.965926
     65          0           0       -1.104640   -0.224144   -0.965926
     66          0           0       -1.051037   -0.183013   -0.965926
     67          0           0       -1.009906   -0.129410   -0.965926
     68          0           0       -0.984050   -0.066987   -0.965926
     69          0           0        1.234050    0.000000    1.000000
     70          0           0        1.234050    0.000000    1.000000
     71          0           0        1.234050    0.000000    1.000000
     72          0           0        1.234050    0.000000    1.000000
     73          0           0        1.234050    0.000000    1.000000
     74          0           0        1.234050    0.000000    1.000000
     75          0           0        1.234050    0.000000    1.000000
     76          0           0        1.234050    0.000000    1.000000
     77          0           0        1.234050    0.000000    1.000000
     78          0           0        1.234050    0.000000    1.000000
     79          0           0        1.234050    0.000000    1.000000
     80          0           0        1.234050    0.000000    1.000000
     81          0           0        1.234050    0.000000    1.000000
     82          0           0        1.234050    0.000000    1.000000
     83          0           0        1.234050    0.000000    1.000000
     84          0           0        1.234050    0.000000    1.000000
     85          0           0        1.234050    0.000000    1.000000
     86          0           0        1.234050    0.000000    1.000000
     87          0           0        1.234050    0.000000    1.000000
     88          0           0        1.234050    0.000000    1.000000
     89          0           0        1.234050    0.000000    1.000000
     90          0           0        1.234050    0.000000    1.000000
     91          0           0        1.234050    0.000000    1.000000
     92          0           0        1.234050    0.000000    1.000000
     93          0           0        1.492869    0.000000    0.965926
     94          0           0        1.484050    0.066987    0.965926
     95          0           0        1.458194    0.129410    0.965926
     96          0           0        1.417063    0.183013    0.965926
     97          0           0        1.363460    0.224144    0.965926
     98          0           0        1.301037    0.250000    0.965926
     99          0           0        1.234050    0.258819    0.965926
    100          0           0        1.167063    0.250000    0.965926
    101          0           0        1.104640    0.224144    0.965926
    102          0           0        1.051037    0.183013    0.965926
    103          0           0        1.009906    0.129410    0.965926
    104          0           0        0.984050    0.066987    0.965926
    105          0           0        0.975231    0.000000    0.965926
    106          0           0        0.984050   -0.066987    0.965926
    107          0           0        1.009906   -0.129410    0.965926
    108          0           0        1.051037   -0.183013    0.965926
    109          0           0        1.104640   -0.224144    0.965926
    110          0           0        1.167063   -0.250000    0.965926
    111          0           0        1.234050   -0.258819    0.965926
    112          0           0        1.301037   -0.250000    0.965926
    113          0           0        1.363460   -0.224144    0.965926
    114          0           0        1.417063   -0.183013    0.965926
    115          0           0        1.458194   -0.129410    0.965926
    116          0           0        1.484050   -0.066987    0.965926
    117          0           0        1.734050    0.000000    0.866025
    118          0           0        1.717013    0.129410    0.866025
    119          0           0        1.667063    0.250000    0.866025
    120          0           0        1.587603    0.353553    0.866025
    121          0           0        1.484050    0.433013    0.866025
    122          0           0        1.363460    0.482963    0.866025
    123          0           0        1.234050    0.500000    0.866025
    124          0           0        1.104640    0.482963    0.866025
    125          0           0        0.984050    0.433013    0.866025
    126          0           0        0.880497    0.353553    0.866025
    127          0           0        0.801037    0.250000    0.866025
    128          0           0        0.751087    0.129410    0.866025
    129          0           0        0.734050    0.000000    0.866025
    130          0           0        0.751087   -0.129410    0.866025
    131          0           0        0.801037   -0.250000    0.866025
    132          0           0        0.880497   -0.353553    0.866025
    133          0           0        0.984050   -0.433013    0.866025
    134          0           0        1.104640   -0.482963    0.866025
    135          0           0        1.234050   -0.500000    0.866025
    136          0           0        1.363460   -0.482963    0.866025
    137          0           0        1.484050   -0.433013    0.866025
    138          0           0        1.587603   -0.353553    0.866025
    139          0           0        1.667063   -0.250000    0.866025
    140          0           0        1.717013   -0.129410    0.866025
    141          0           0        1.941157    0.000000    0.707107
    142          0           0        1.917063    0.183013    0.707107
    143          0           0        1.734050    0.500000    0.707107
    144          0           0        1.587603    0.612372    0.707107
    145          0           0        1.417063    0.683013    0.707107
    146          0           0        1.051037    0.683013    0.707107
    147          0           0        0.880497    0.612372    0.707107
    148          0           0        0.734050    0.500000    0.707107
    149          0           0        0.621678    0.353553    0.707107
    150          0           0        0.551037    0.183013    0.707107
    151          0           0        0.526943    0.000000    0.707107
    152          0           0        0.551037   -0.183013    0.707107
    153          0           0        0.621678   -0.353553    0.707107
    154          0           0        0.734050   -0.500000    0.707107
    155          0           0        0.880497   -0.612372    0.707107
    156          0           0        1.051037   -0.683013    0.707107
    157          0           0        1.417063   -0.683013    0.707107
    158          0           0        1.587603   -0.612372    0.707107
    159          0           0        1.734050   -0.500000    0.707107
    160          0           0        1.917063   -0.183013    0.707107
    161          0           0        1.941157    0.000000   -0.707107
    162          0           0        1.917063    0.183013   -0.707107
    163          0           0        1.734050    0.500000   -0.707107
    164          0           0        1.587603    0.612372   -0.707107
    165          0           0        1.417063    0.683013   -0.707107
    166          0           0        1.051037    0.683013   -0.707107
    167          0           0        0.880497    0.612372   -0.707107
    168          0           0        0.734050    0.500000   -0.707107
    169          0           0        0.621678    0.353553   -0.707107
    170          0           0        0.551037    0.183013   -0.707107
    171          0           0        0.526943    0.000000   -0.707107
    172          0           0        0.551037   -0.183013   -0.707107
    173          0           0        0.621678   -0.353553   -0.707107
    174          0           0        0.734050   -0.500000   -0.707107
    175          0           0        0.880497   -0.612372   -0.707107
    176          0           0        1.051037   -0.683013   -0.707107
    177          0           0        1.417063   -0.683013   -0.707107
    178          0           0        1.587603   -0.612372   -0.707107
    179          0           0        1.734050   -0.500000   -0.707107
    180          0           0        1.917063   -0.183013   -0.707107
    181          0           0        1.734050    0.000000   -0.866025
    182          0           0        1.717013    0.129410   -0.866025
    183          0           0        1.667063    0.250000   -0.866025
    184          0           0        1.587603    0.353553   -0.866025
    185          0           0        1.484050    0.433013   -0.866025
    186          0           0        1.363460    0.482963   -0.866025
    187          0           0        1.234050    0.500000   -0.866025
    188          0           0        1.104640    0.482963   -0.866025
    189          0           0        0.984050    0.433013   -0.866025
    190          0           0        0.880497    0.353553   -0.866025
    191          0           0        0.801037    0.250000   -0.866025
    192          0           0        0.751087    0.129410   -0.866025
    193          0           0        0.734050    0.000000   -0.866025
    194          0           0        0.751087   -0.129410   -0.866025
    195          0           0        0.801037   -0.250000   -0.866025
    196          0           0        0.880497   -0.353553   -0.866025
    197          0           0        0.984050   -0.433013   -0.866025
    198          0           0        1.104640   -0.482963   -0.866025
    199          0           0        1.234050   -0.500000   -0.866025
    200          0           0        1.363460   -0.482963   -0.866025
    201          0           0        1.484050   -0.433013   -0.866025
    202          0           0        1.587603   -0.353553   -0.866025
    203          0           0        1.667063   -0.250000   -0.866025
    204          0           0        1.717013   -0.129410   -0.866025
    205          0           0        1.492869    0.000000   -0.965926
    206          0           0        1.484050    0.066987   -0.965926
    207          0           0        1.458194    0.129410   -0.965926
    208          0           0        1.417063    0.183013   -0.965926
    209          0           0        1.363460    0.224144   -0.965926
    210          0           0        1.301037    0.250000   -0.965926
    211          0           0        1.234050    0.258819   -0.965926
    212          0           0        1.167063    0.250000   -0.965926
    213          0           0        1.104640    0.224144   -0.965926
    214          0           0        1.051037    0.183013   -0.965926
    215          0           0        1.009906    0.129410   -0.965926
    216          0           0        0.984050    0.066987   -0.965926
    217          0           0        0.975231    0.000000   -0.965926
    218          0           0        0.984050   -0.066987   -0.965926
 ---------------------------------------------------------------------
 Rotational constants (GHZ):      3.0751358      1.2130944      0.8699230
 Standard basis: 6-311+G(d,p) (5D, 7F)
 Warning:  center  19 has no basis functions!
 Warning:  center  20 has no basis functions!
 Warning:  center  21 has no basis functions!
 Warning:  center  22 has no basis functions!
 Warning:  center  23 has no basis functions!
 Warning:  center  24 has no basis functions!
 Warning:  center  25 has no basis functions!
 Warning:  center  26 has no basis functions!
 Warning:  center  27 has no basis functions!
 Warning:  center  28 has no basis functions!
 Warning:  center  29 has no basis functions!
 Warning:  center  30 has no basis functions!
 Warning:  center  31 has no basis functions!
 Warning:  center  32 has no basis functions!
 Warning:  center  33 has no basis functions!
 Warning:  center  34 has no basis functions!
 Warning:  center  35 has no basis functions!
 Warning:  center  36 has no basis functions!
 Warning:  center  37 has no basis functions!
 Warning:  center  38 has no basis functions!
 Warning:  center  39 has no basis functions!
 Warning:  center  40 has no basis functions!
 Warning:  center  41 has no basis functions!
 Warning:  center  42 has no basis functions!
 Warning:  center  43 has no basis functions!
 Warning:  center  44 has no basis functions!
 Warning:  center  45 has no basis functions!
 Warning:  center  46 has no basis functions!
 Warning:  center  47 has no basis functions!
 Warning:  center  48 has no basis functions!
 Warning:  center  49 has no basis functions!
 Warning:  center  50 has no basis functions!
 Warning:  center  51 has no basis functions!
 Warning:  center  52 has no basis functions!
 Warning:  center  53 has no basis functions!
 Warning:  center  54 has no basis functions!
 Warning:  center  55 has no basis functions!
 Warning:  center  56 has no basis functions!
 Warning:  center  57 has no basis functions!
 Warning:  center  58 has no basis functions!
 Warning:  center  59 has no basis functions!
 Warning:  center  60 has no basis functions!
 Warning:  center  61 has no basis functions!
 Warning:  center  62 has no basis functions!
 Warning:  center  63 has no basis functions!
 Warning:  center  64 has no basis functions!
 Warning:  center  65 has no basis functions!
 Warning:  center  66 has no basis functions!
 Warning:  center  67 has no basis functions!
 Warning:  center  68 has no basis functions!
 Warning:  center  69 has no basis functions!
 Warning:  center  70 has no basis functions!
 Warning:  center  71 has no basis functions!
 Warning:  center  72 has no basis functions!
 Warning:  center  73 has no basis functions!
 Warning:  center  74 has no basis functions!
 Warning:  center  75 has no basis functions!
 Warning:  center  76 has no basis functions!
 Warning:  center  77 has no basis functions!
 Warning:  center  78 has no basis functions!
 Warning:  center  79 has no basis functions!
 Warning:  center  80 has no basis functions!
 Warning:  center  81 has no basis functions!
 Warning:  center  82 has no basis functions!
 Warning:  center  83 has no basis functions!
 Warning:  center  84 has no basis functions!
 Warning:  center  85 has no basis functions!
 Warning:  center  86 has no basis functions!
 Warning:  center  87 has no basis functions!
 Warning:  center  88 has no basis functions!
 Warning:  center  89 has no basis functions!
 Warning:  center  90 has no basis functions!
 Warning:  center  91 has no basis functions!
 Warning:  center  92 has no basis functions!
 Warning:  center  93 has no basis functions!
 Warning:  center  94 has no basis functions!
 Warning:  center  95 has no basis functions!
 Warning:  center  96 has no basis functions!
 Warning:  center  97 has no basis functions!
 Warning:  center  98 has no basis functions!
 Warning:  center  99 has no basis functions!
 Warning:  center 100 has no basis functions!
 Warning:  center 101 has no basis functions!
 Warning:  center 102 has no basis functions!
 Warning:  center 103 has no basis functions!
 Warning:  center 104 has no basis functions!
 Warning:  center 105 has no basis functions!
 Warning:  center 106 has no basis functions!
 Warning:  center 107 has no basis functions!
 Warning:  center 108 has no basis functions!
 Warning:  center 109 has no basis functions!
 Warning:  center 110 has no basis functions!
 Warning:  center 111 has no basis functions!
 Warning:  center 112 has no basis functions!
 Warning:  center 113 has no basis functions!
 Warning:  center 114 has no basis functions!
 Warning:  center 115 has no basis functions!
 Warning:  center 116 has no basis functions!
 Warning:  center 117 has no basis functions!
 Warning:  center 118 has no basis functions!
 Warning:  center 119 has no basis functions!
 Warning:  center 120 has no basis functions!
 Warning:  center 121 has no basis functions!
 Warning:  center 122 has no basis functions!
 Warning:  center 123 has no basis functions!
 Warning:  center 124 has no basis functions!
 Warning:  center 125 has no basis functions!
 Warning:  center 126 has no basis functions!
 Warning:  center 127 has no basis functions!
 Warning:  center 128 has no basis functions!
 Warning:  center 129 has no basis functions!
 Warning:  center 130 has no basis functions!
 Warning:  center 131 has no basis functions!
 Warning:  center 132 has no basis functions!
 Warning:  center 133 has no basis functions!
 Warning:  center 134 has no basis functions!
 Warning:  center 135 has no basis functions!
 Warning:  center 136 has no basis functions!
 Warning:  center 137 has no basis functions!
 Warning:  center 138 has no basis functions!
 Warning:  center 139 has no basis functions!
 Warning:  center 140 has no basis functions!
 Warning:  center 141 has no basis functions!
 Warning:  center 142 has no basis functions!
 Warning:  center 143 has no basis functions!
 Warning:  center 144 has no basis functions!
 Warning:  center 145 has no basis functions!
 Warning:  center 146 has no basis functions!
 Warning:  center 147 has no basis functions!
 Warning:  center 148 has no basis functions!
 Warning:  center 149 has no basis functions!
 Warning:  center 150 has no basis functions!
 Warning:  center 151 has no basis functions!
 Warning:  center 152 has no basis functions!
 Warning:  center 153 has no basis functions!
 Warning:  center 154 has no basis functions!
 Warning:  center 155 has no basis functions!
 Warning:  center 156 has no basis functions!
 Warning:  center 157 has no basis functions!
 Warning:  center 158 has no basis functions!
 Warning:  center 159 has no basis functions!
 Warning:  center 160 has no basis functions!
 Warning:  center 161 has no basis functions!
 Warning:  center 162 has no basis functions!
 Warning:  center 163 has no basis functions!
 Warning:  center 164 has no basis functions!
 Warning:  center 165 has no basis functions!
 Warning:  center 166 has no basis functions!
 Warning:  center 167 has no basis functions!
 Warning:  center 168 has no basis functions!
 Warning:  center 169 has no basis functions!
 Warning:  center 170 has no basis functions!
 Warning:  center 171 has no basis functions!
 Warning:  center 172 has no basis functions!
 Warning:  center 173 has no basis functions!
 Warning:  center 174 has no basis functions!
 Warning:  center 175 has no basis functions!
 Warning:  center 176 has no basis functions!
 Warning:  center 177 has no basis functions!
 Warning:  center 178 has no basis functions!
 Warning:  center 179 has no basis functions!
 Warning:  center 180 has no basis functions!
 Warning:  center 181 has no basis functions!
 Warning:  center 182 has no basis functions!
 Warning:  center 183 has no basis functions!
 Warning:  center 184 has no basis functions!
 Warning:  center 185 has no basis functions!
 Warning:  center 186 has no basis functions!
 Warning:  center 187 has no basis functions!
 Warning:  center 188 has no basis functions!
 Warning:  center 189 has no basis functions!
 Warning:  center 190 has no basis functions!
 Warning:  center 191 has no basis functions!
 Warning:  center 192 has no basis functions!
 Warning:  center 193 has no basis functions!
 Warning:  center 194 has no basis functions!
 Warning:  center 195 has no basis functions!
 Warning:  center 196 has no basis functions!
 Warning:  center 197 has no basis functions!
 Warning:  center 198 has no basis functions!
 Warning:  center 199 has no basis functions!
 Warning:  center 200 has no basis functions!
 Warning:  center 201 has no basis functions!
 Warning:  center 202 has no basis functions!
 Warning:  center 203 has no basis functions!
 Warning:  center 204 has no basis functions!
 Warning:  center 205 has no basis functions!
 Warning:  center 206 has no basis functions!
 Warning:  center 207 has no basis functions!
 Warning:  center 208 has no basis functions!
 Warning:  center 209 has no basis functions!
 Warning:  center 210 has no basis functions!
 Warning:  center 211 has no basis functions!
 Warning:  center 212 has no basis functions!
 Warning:  center 213 has no basis functions!
 Warning:  center 214 has no basis functions!
 Warning:  center 215 has no basis functions!
 Warning:  center 216 has no basis functions!
 Warning:  center 217 has no basis functions!
 Warning:  center 218 has no basis functions!
   268 basis functions,   424 primitive gaussians,   278 cartesian basis functions
    34 alpha electrons       34 beta electrons
       nuclear repulsion energy       453.8675371600 Hartrees.
 NAtoms=  218 NActive=  218 NUniq=  218 SFac= 1.00D+00 NAtFMM=   60 NAOKFM=T Big=T
 Integral buffers will be    131072 words long.
 Raffenetti 2 integral format.
 Two-electron integral symmetry is turned off.
 One-electron integrals computed using PRISM.
 NBasis=   268 RedAO= T EigKep=  1.12D-06  NBF=   268
 NBsUse=   267 1.00D-06 EigRej=  6.14D-07 NBFU=   267
 ExpMin= 4.38D-02 ExpMax= 4.56D+03 ExpMxC= 6.82D+02 IAcc=2 IRadAn=         4 AccDes= 0.00D+00
 Harris functional with IExCor=  402 and IRadAn=       4 diagonalized for initial guess.
 HarFok:  IExCor=  402 AccDes= 0.00D+00 IRadAn=         4 IDoV= 1 UseB2=F ITyADJ=14
 ICtDFT=  3500011 ScaDFX=  1.000000  1.000000  1.000000  1.000000
 FoFCou: FMM=F IPFlag=           0 FMFlag=      100000 FMFlg1=        2001
         NFxFlg=           0 DoJE=T BraDBF=F KetDBF=T FulRan=T
         wScrn=  0.000000 ICntrl=     500 IOpCl=  0 I1Cent=   200000004 NGrid=           0
         NMat0=    1 NMatS0=      1 NMatT0=    0 NMatD0=    1 NMtDS0=    0 NMtDT0=    0
 Symmetry not used in FoFCou.
 Requested convergence on RMS density matrix=1.00D-08 within 128 cycles.
 Requested convergence on MAX density matrix=1.00D-06.
 Requested convergence on             energy=1.00D-06.
 No special actions if energy rises.
 SCF Done:  E(RB3LYP) =  -385.985931946     A.U. after   11 cycles
            NFock= 11  Conv=0.78D-08     -V/T= 2.0059
 DoSCS=F DFT=T ScalE2(SS,OS)=  1.000000  1.000000
 Range of M.O.s used for correlation:     1   267
 NBasis=   268 NAE=    34 NBE=    34 NFC=     0 NFV=     0
 NROrb=    267 NOA=    34 NOB=    34 NVA=   233 NVB=   233

 **** Warning!!: The largest alpha MO coefficient is  0.20992188D+03

          Differentiating once with respect to magnetic field using GIAOs.
          Electric field/nuclear overlap derivatives assumed to be zero.
 FoFCou: FMM=F IPFlag=           0 FMFlag=      100000 FMFlg1=        2001
         NFxFlg=           0 DoJE=F BraDBF=F KetDBF=T FulRan=T
         wScrn=  0.000000 ICntrl=    6100 IOpCl=  0 I1Cent=           7 NGrid=         218
         NMat0=    1 NMatS0=      1 NMatT0=    0 NMatD0=    1 NMtDS0=    0 NMtDT0=    0
 Symmetry not used in FoFCou.
 FoFJK:  IHMeth= 1 ICntrl=    6127 DoSepK=F KAlg= 0 I1Cent=   0 FoldK=F
 IRaf=         1 NMat=   1 IRICut=       1 DoRegI=T DoRafI=F ISym2E= 0.
          There are     3 degrees of freedom in the 1st order CPHF.  IDoFFX=0 NUNeed=     3.
      3 vectors produced by pass  0 Test12= 2.64D-13 3.33D-08 XBig12= 1.44D+02 6.48D+00.
 AX will form     3 AO Fock derivatives at one time.
      3 vectors produced by pass  1 Test12= 2.64D-13 3.33D-08 XBig12= 2.28D-01 1.79D-01.
      3 vectors produced by pass  2 Test12= 2.64D-13 3.33D-08 XBig12= 7.58D-04 1.41D-02.
      3 vectors produced by pass  3 Test12= 2.64D-13 3.33D-08 XBig12= 2.19D-06 6.12D-04.
      3 vectors produced by pass  4 Test12= 2.64D-13 3.33D-08 XBig12= 2.99D-09 2.39D-05.
      3 vectors produced by pass  5 Test12= 2.64D-13 3.33D-08 XBig12= 6.15D-12 9.51D-07.
      1 vectors produced by pass  6 Test12= 2.64D-13 3.33D-08 XBig12= 9.29D-15 3.79D-08.
 InvSVY:  IOpt=1 It=  1 EMax= 8.88D-16
 Solved reduced A of dimension    19 with     3 vectors.
 Calculating GIAO nuclear magnetic shielding tensors.
 SCF GIAO Magnetic shielding tensor (ppm):
      1  C    Isotropic =    48.8814   Anisotropy =   178.3631
   XX=   -26.3877   YX=    47.3635   ZX=     0.0000
   XY=    49.5434   YY=     5.2417   ZY=     0.0000
   XZ=     0.0000   YZ=     0.0000   ZZ=   167.7901
   Eigenvalues:   -61.5420    40.3960   167.7901
      2  C    Isotropic =    48.8814   Anisotropy =   178.3631
   XX=   -26.3877   YX=   -47.3635   ZX=     0.0000
   XY=   -49.5434   YY=     5.2417   ZY=     0.0000
   XZ=     0.0000   YZ=     0.0000   ZZ=   167.7901
   Eigenvalues:   -61.5420    40.3960   167.7901
      3  C    Isotropic =    47.0315   Anisotropy =   159.6105
   XX=    39.7012   YX=   -14.9645   ZX=     0.0000
   XY=   -12.8373   YY=   -52.0452   ZY=     0.0000
   XZ=     0.0000   YZ=     0.0000   ZZ=   153.4385
   Eigenvalues:   -54.1051    41.7611   153.4385
      4  C    Isotropic =    40.3220   Anisotropy =   214.7654
   XX=   -33.3511   YX=     0.0000   ZX=     0.0000
   XY=     0.0000   YY=   -29.1819   ZY=     0.0000
   XZ=     0.0000   YZ=     0.0000   ZZ=   183.4989
   Eigenvalues:   -33.3511   -29.1819   183.4989
      5  C    Isotropic =    47.0315   Anisotropy =   159.6105
   XX=    39.7012   YX=    14.9645   ZX=     0.0000
   XY=    12.8373   YY=   -52.0452   ZY=     0.0000
   XZ=     0.0000   YZ=     0.0000   ZZ=   153.4385
   Eigenvalues:   -54.1051    41.7611   153.4385
      6  C    Isotropic =    48.8814   Anisotropy =   178.3631
   XX=   -26.3877   YX=    47.3635   ZX=     0.0000
   XY=    49.5434   YY=     5.2417   ZY=     0.0000
   XZ=     0.0000   YZ=     0.0000   ZZ=   167.7901
   Eigenvalues:   -61.5420    40.3960   167.7901
      7  C    Isotropic =    48.8814   Anisotropy =   178.3631
   XX=   -26.3877   YX=   -47.3635   ZX=     0.0000
   XY=   -49.5434   YY=     5.2417   ZY=     0.0000
   XZ=     0.0000   YZ=     0.0000   ZZ=   167.7901
   Eigenvalues:   -61.5420    40.3960   167.7901
      8  C    Isotropic =    47.0315   Anisotropy =   159.6105
   XX=    39.7012   YX=   -14.9645   ZX=     0.0000
   XY=   -12.8373   YY=   -52.0452   ZY=     0.0000
   XZ=     0.0000   YZ=     0.0000   ZZ=   153.4385
   Eigenvalues:   -54.1051    41.7611   153.4385
      9  C    Isotropic =    40.3220   Anisotropy =   214.7654
   XX=   -33.3511   YX=     0.0000   ZX=     0.0000
   XY=     0.0000   YY=   -29.1819   ZY=     0.0000
   XZ=     0.0000   YZ=     0.0000   ZZ=   183.4989
   Eigenvalues:   -33.3511   -29.1819   183.4989
     10  C    Isotropic =    47.0315   Anisotropy =   159.6105
   XX=    39.7012   YX=    14.9645   ZX=     0.0000
   XY=    12.8373   YY=   -52.0452   ZY=     0.0000
   XZ=     0.0000   YZ=     0.0000   ZZ=   153.4385
   Eigenvalues:   -54.1051    41.7611   153.4385
     11  H    Isotropic =    23.8865   Anisotropy =     5.6622
   XX=    25.3494   YX=     1.7328   ZX=     0.0000
   XY=     1.7216   YY=    26.3711   ZY=     0.0000
   XZ=     0.0000   YZ=     0.0000   ZZ=    19.9391
   Eigenvalues:    19.9391    24.0591    27.6614
     12  H    Isotropic =    23.8865   Anisotropy =     5.6622
   XX=    25.3494   YX=    -1.7328   ZX=     0.0000
   XY=    -1.7216   YY=    26.3711   ZY=     0.0000
   XZ=     0.0000   YZ=     0.0000   ZZ=    19.9391
   Eigenvalues:    19.9391    24.0591    27.6614
     13  H    Isotropic =    23.5289   Anisotropy =     7.4859
   XX=    28.4698   YX=    -0.2957   ZX=     0.0000
   XY=    -0.7473   YY=    23.0511   ZY=     0.0000
   XZ=     0.0000   YZ=     0.0000   ZZ=    19.0659
   Eigenvalues:    19.0659    23.0014    28.5196
     14  H    Isotropic =    23.5289   Anisotropy =     7.4859
   XX=    28.4698   YX=     0.2957   ZX=     0.0000
   XY=     0.7473   YY=    23.0511   ZY=     0.0000
   XZ=     0.0000   YZ=     0.0000   ZZ=    19.0659
   Eigenvalues:    19.0659    23.0014    28.5196
     15  H    Isotropic =    23.8865   Anisotropy =     5.6622
   XX=    25.3494   YX=     1.7328   ZX=     0.0000
   XY=     1.7216   YY=    26.3711   ZY=     0.0000
   XZ=     0.0000   YZ=     0.0000   ZZ=    19.9391
   Eigenvalues:    19.9391    24.0591    27.6614
     16  H    Isotropic =    23.8865   Anisotropy =     5.6622
   XX=    25.3494   YX=    -1.7328   ZX=     0.0000
   XY=    -1.7216   YY=    26.3711   ZY=     0.0000
   XZ=     0.0000   YZ=     0.0000   ZZ=    19.9391
   Eigenvalues:    19.9391    24.0591    27.6614
     17  H    Isotropic =    23.5289   Anisotropy =     7.4859
   XX=    28.4698   YX=    -0.2957   ZX=     0.0000
   XY=    -0.7473   YY=    23.0511   ZY=     0.0000
   XZ=     0.0000   YZ=     0.0000   ZZ=    19.0659
   Eigenvalues:    19.0659    23.0014    28.5196
     18  H    Isotropic =    23.5289   Anisotropy =     7.4859
   XX=    28.4698   YX=     0.2957   ZX=     0.0000
   XY=     0.7473   YY=    23.0511   ZY=     0.0000
   XZ=     0.0000   YZ=     0.0000   ZZ=    19.0659
   Eigenvalues:    19.0659    23.0014    28.5196
     19  Bq   Isotropic =    17.5397   Anisotropy =    28.5568
   XX=     7.4760   YX=     2.5909   ZX=    -1.3831
   XY=     2.4213   YY=     8.9144   ZY=     0.7191
   XZ=     7.5946   YZ=     0.1292   ZZ=    36.2287
   Eigenvalues:     5.4223    10.6193    36.5776
     20  Bq   Isotropic =    17.8096   Anisotropy =    29.8691
   XX=     8.4303   YX=     2.0365   ZX=    -0.4032
   XY=     1.8836   YY=     7.8512   ZY=     0.9686
   XZ=     8.4062   YZ=     0.3305   ZZ=    37.1474
   Eigenvalues:     5.9999     9.7067    37.7224
     21  Bq   Isotropic =    13.1634   Anisotropy =    28.9491
   XX=     3.5869   YX=     0.0000   ZX=     1.5146
   XY=     0.0000   YY=     4.0508   ZY=     0.0000
   XZ=     6.8811   YZ=     0.0000   ZZ=    31.8525
   Eigenvalues:     2.9766     4.0508    32.4628
     22  Bq   Isotropic =    13.1468   Anisotropy =    28.7966
   XX=     3.5665   YX=    -0.6077   ZX=     1.3800
   XY=    -0.5631   YY=     4.0996   ZY=     0.2228
   XZ=     6.7148   YZ=    -0.3869   ZZ=    31.7743
   Eigenvalues:     2.7566     4.3393    32.3445
     23  Bq   Isotropic =    13.1248   Anisotropy =    28.4760
   XX=     3.5958   YX=    -0.9131   ZX=     1.0931
   XY=    -0.8344   YY=     4.1455   ZY=     0.5556
   XZ=     6.2642   YZ=    -0.6631   ZZ=    31.6333
   Eigenvalues:     2.6324     4.6332    32.1089
     24  Bq   Isotropic =    13.1517   Anisotropy =    28.2341
   XX=     3.8377   YX=    -0.8605   ZX=     0.8562
   XY=    -0.7482   YY=     4.0186   ZY=     0.8838
   XZ=     5.6452   YZ=    -0.8241   ZZ=    31.5987
   Eigenvalues:     2.8910     4.5896    31.9744
     25  Bq   Isotropic =    13.2617   Anisotropy =    28.1611
   XX=     4.3115   YX=    -0.6463   ZX=     0.7030
   XY=    -0.5057   YY=     3.7266   ZY=     1.0050
   XZ=     4.9578   YZ=    -0.9307   ZZ=    31.7468
   Eigenvalues:     3.2792     4.4701    32.0357
     26  Bq   Isotropic =    13.4599   Anisotropy =    28.2065
   XX=     4.7966   YX=    -0.4892   ZX=     0.5006
   XY=    -0.3572   YY=     3.5235   ZY=     0.9184
   XZ=     4.2395   YZ=    -0.9905   ZZ=    32.0595
   Eigenvalues:     3.3789     4.7365    32.2642
     27  Bq   Isotropic =    13.7270   Anisotropy =    28.3576
   XX=     4.9618   YX=    -0.4369   ZX=     0.2062
   XY=    -0.3412   YY=     3.7141   ZY=     0.8277
   XZ=     3.5406   YZ=    -0.9399   ZZ=    32.5050
   Eigenvalues:     3.5947     4.9541    32.6321
     28  Bq   Isotropic =    14.0013   Anisotropy =    28.6342
   XX=     4.6225   YX=    -0.3665   ZX=    -0.0158
   XY=    -0.2619   YY=     4.3679   ZY=     0.8582
   XZ=     2.9811   YZ=    -0.7528   ZZ=    33.0135
   Eigenvalues:     4.1278     4.7853    33.0908
     29  Bq   Isotropic =    14.1900   Anisotropy =    28.9809
   XX=     3.9036   YX=    -0.1378   ZX=    -0.0163
   XY=     0.0489   YY=     5.2155   ZY=     0.8875
   XZ=     2.6462   YZ=    -0.5151   ZZ=    33.4510
   Eigenvalues:     3.8431     5.2164    33.5106
     30  Bq   Isotropic =    14.2437   Anisotropy =    29.3070
   XX=     3.1429   YX=     0.2247   ZX=     0.1106
   XY=     0.4826   YY=     5.8627   ZY=     0.7298
   XZ=     2.4755   YZ=    -0.3454   ZZ=    33.7256
   Eigenvalues:     3.0460     5.9035    33.7818
     31  Bq   Isotropic =    14.2033   Anisotropy =    29.5786
   XX=     2.6305   YX=     0.4874   ZX=     0.1468
   XY=     0.7177   YY=     6.1070   ZY=     0.4106
   XZ=     2.3436   YZ=    -0.2581   ZZ=    33.8724
   Eigenvalues:     2.4819     6.2057    33.9223
     32  Bq   Isotropic =    14.1490   Anisotropy =    29.7817
   XX=     2.4191   YX=     0.4040   ZX=     0.0463
   XY=     0.5273   YY=     6.0648   ZY=     0.1362
   XZ=     2.2150   YZ=    -0.1604   ZZ=    33.9630
   Eigenvalues:     2.3207     6.1227    34.0034
     33  Bq   Isotropic =    14.1277   Anisotropy =    29.8621
   XX=     2.3774   YX=     0.0000   ZX=    -0.0248
   XY=     0.0000   YY=     6.0058   ZY=     0.0000
   XZ=     2.1567   YZ=     0.0000   ZZ=    33.9998
   Eigenvalues:     2.3415     6.0058    34.0357
     34  Bq   Isotropic =    14.1490   Anisotropy =    29.7817
   XX=     2.4191   YX=    -0.4040   ZX=     0.0463
   XY=    -0.5273   YY=     6.0648   ZY=    -0.1362
   XZ=     2.2150   YZ=     0.1604   ZZ=    33.9630
   Eigenvalues:     2.3207     6.1227    34.0034
     35  Bq   Isotropic =    14.2033   Anisotropy =    29.5786
   XX=     2.6305   YX=    -0.4874   ZX=     0.1468
   XY=    -0.7177   YY=     6.1070   ZY=    -0.4106
   XZ=     2.3436   YZ=     0.2581   ZZ=    33.8724
   Eigenvalues:     2.4819     6.2057    33.9223
     36  Bq   Isotropic =    14.2437   Anisotropy =    29.3070
   XX=     3.1429   YX=    -0.2247   ZX=     0.1106
   XY=    -0.4826   YY=     5.8627   ZY=    -0.7298
   XZ=     2.4755   YZ=     0.3454   ZZ=    33.7256
   Eigenvalues:     3.0460     5.9035    33.7818
     37  Bq   Isotropic =    14.1900   Anisotropy =    28.9809
   XX=     3.9036   YX=     0.1378   ZX=    -0.0163
   XY=    -0.0489   YY=     5.2155   ZY=    -0.8875
   XZ=     2.6462   YZ=     0.5151   ZZ=    33.4510
   Eigenvalues:     3.8431     5.2164    33.5106
     38  Bq   Isotropic =    14.0013   Anisotropy =    28.6342
   XX=     4.6225   YX=     0.3665   ZX=    -0.0158
   XY=     0.2619   YY=     4.3679   ZY=    -0.8582
   XZ=     2.9811   YZ=     0.7528   ZZ=    33.0135
   Eigenvalues:     4.1278     4.7853    33.0908
     39  Bq   Isotropic =    13.7270   Anisotropy =    28.3576
   XX=     4.9618   YX=     0.4369   ZX=     0.2062
   XY=     0.3412   YY=     3.7141   ZY=    -0.8277
   XZ=     3.5406   YZ=     0.9399   ZZ=    32.5050
   Eigenvalues:     3.5947     4.9541    32.6321
     40  Bq   Isotropic =    13.4599   Anisotropy =    28.2065
   XX=     4.7966   YX=     0.4892   ZX=     0.5006
   XY=     0.3572   YY=     3.5235   ZY=    -0.9184
   XZ=     4.2395   YZ=     0.9905   ZZ=    32.0595
   Eigenvalues:     3.3789     4.7365    32.2642
     41  Bq   Isotropic =    13.2617   Anisotropy =    28.1611
   XX=     4.3115   YX=     0.6463   ZX=     0.7030
   XY=     0.5057   YY=     3.7266   ZY=    -1.0050
   XZ=     4.9578   YZ=     0.9307   ZZ=    31.7468
   Eigenvalues:     3.2792     4.4701    32.0357
     42  Bq   Isotropic =    13.1517   Anisotropy =    28.2341
   XX=     3.8377   YX=     0.8605   ZX=     0.8562
   XY=     0.7482   YY=     4.0186   ZY=    -0.8838
   XZ=     5.6452   YZ=     0.8241   ZZ=    31.5987
   Eigenvalues:     2.8910     4.5896    31.9744
     43  Bq   Isotropic =    13.1248   Anisotropy =    28.4760
   XX=     3.5958   YX=     0.9131   ZX=     1.0931
   XY=     0.8344   YY=     4.1455   ZY=    -0.5556
   XZ=     6.2642   YZ=     0.6631   ZZ=    31.6333
   Eigenvalues:     2.6324     4.6332    32.1089
     44  Bq   Isotropic =    13.1468   Anisotropy =    28.7966
   XX=     3.5665   YX=     0.6077   ZX=     1.3800
   XY=     0.5631   YY=     4.0996   ZY=    -0.2228
   XZ=     6.7148   YZ=     0.3869   ZZ=    31.7743
   Eigenvalues:     2.7566     4.3393    32.3445
     45  Bq   Isotropic =    10.9637   Anisotropy =    27.9838
   XX=     1.4569   YX=     0.0000   ZX=     1.3711
   XY=     0.0000   YY=     2.1910   ZY=     0.0000
   XZ=     5.1400   YZ=     0.0000   ZZ=    29.2432
   Eigenvalues:     1.0806     2.1910    29.6196
     46  Bq   Isotropic =    10.9691   Anisotropy =    27.9698
   XX=     1.4723   YX=    -0.1428   ZX=     1.3305
   XY=    -0.1180   YY=     2.1849   ZY=     0.2628
   XZ=     5.0843   YZ=    -0.2239   ZZ=    29.2501
   Eigenvalues:     1.0909     2.2008    29.6156
     47  Bq   Isotropic =    10.9872   Anisotropy =    27.9379
   XX=     1.5174   YX=    -0.2500   ZX=     1.2164
   XY=    -0.2018   YY=     2.1675   ZY=     0.5089
   XZ=     4.9264   YZ=    -0.4232   ZZ=    29.2767
   Eigenvalues:     1.1309     2.2182    29.6125
     48  Bq   Isotropic =    11.0221   Anisotropy =    27.9111
   XX=     1.5847   YX=    -0.3036   ZX=     1.0467
   XY=    -0.2348   YY=     2.1457   ZY=     0.7179
   XZ=     4.6912   YZ=    -0.5797   ZZ=    29.3360
   Eigenvalues:     1.2104     2.2264    29.6295
     49  Bq   Isotropic =    11.0769   Anisotropy =    27.9107
   XX=     1.6525   YX=    -0.3073   ZX=     0.8398
   XY=    -0.2219   YY=     2.1401   ZY=     0.8713
   XZ=     4.4110   YZ=    -0.6833   ZZ=    29.4380
   Eigenvalues:     1.3166     2.2299    29.6840
     50  Bq   Isotropic =    11.1497   Anisotropy =    27.9482
   XX=     1.6860   YX=    -0.2758   ZX=     0.6116
   XY=    -0.1784   YY=     2.1808   ZY=     0.9609
   XZ=     4.1190   YZ=    -0.7293   ZZ=    29.5824
   Eigenvalues:     1.4142     2.2531    29.7819
     51  Bq   Isotropic =    11.2331   Anisotropy =    28.0248
   XX=     1.6508   YX=    -0.2221   ZX=     0.3809
   XY=    -0.1159   YY=     2.2907   ZY=     0.9887
   XZ=     3.8450   YZ=    -0.7178   ZZ=    29.7578
   Eigenvalues:     1.4547     2.3283    29.9163
     52  Bq   Isotropic =    11.3148   Anisotropy =    28.1327
   XX=     1.5335   YX=    -0.1532   ZX=     0.1695
   XY=    -0.0404   YY=     2.4670   ZY=     0.9572
   XZ=     3.6122   YZ=    -0.6555   ZZ=    29.9439
   Eigenvalues:     1.3976     2.4769    30.0700
     53  Bq   Isotropic =    11.3829   Anisotropy =    28.2565
   XX=     1.3528   YX=    -0.0771   ZX=    -0.0063
   XY=     0.0381   YY=     2.6778   ZY=     0.8640
   XZ=     3.4322   YZ=    -0.5554   ZZ=    30.1180
   Eigenvalues:     1.2506     2.6775    30.2205
     54  Bq   Isotropic =    11.4301   Anisotropy =    28.3773
   XX=     1.1515   YX=    -0.0093   ZX=    -0.1422
   XY=     0.0985   YY=     2.8768   ZY=     0.7081
   XZ=     3.3040   YZ=    -0.4321   ZZ=    30.2620
   Eigenvalues:     1.0651     2.8769    30.3483
     55  Bq   Isotropic =    11.4569   Anisotropy =    28.4781
   XX=     0.9763   YX=     0.0300   ZX=    -0.2418
   XY=     0.1150   YY=     3.0277   ZY=     0.4993
   XZ=     3.2194   YZ=    -0.2956   ZZ=    30.3666
   Eigenvalues:     0.8990     3.0294    30.4423
     56  Bq   Isotropic =    11.4688   Anisotropy =    28.5450
   XX=     0.8609   YX=     0.0297   ZX=    -0.3052
   XY=     0.0766   YY=     3.1161   ZY=     0.2568
   XZ=     3.1708   YZ=    -0.1504   ZZ=    30.4294
   Eigenvalues:     0.7905     3.1171    30.4988
     57  Bq   Isotropic =    11.4720   Anisotropy =    28.5685
   XX=     0.8211   YX=     0.0000   ZX=    -0.3275
   XY=     0.0000   YY=     3.1445   ZY=     0.0000
   XZ=     3.1547   YZ=     0.0000   ZZ=    30.4504
   Eigenvalues:     0.7538     3.1445    30.5176
     58  Bq   Isotropic =    11.4688   Anisotropy =    28.5450
   XX=     0.8609   YX=    -0.0297   ZX=    -0.3052
   XY=    -0.0766   YY=     3.1161   ZY=    -0.2568
   XZ=     3.1708   YZ=     0.1504   ZZ=    30.4294
   Eigenvalues:     0.7905     3.1171    30.4988
     59  Bq   Isotropic =    11.4569   Anisotropy =    28.4781
   XX=     0.9763   YX=    -0.0300   ZX=    -0.2418
   XY=    -0.1150   YY=     3.0277   ZY=    -0.4993
   XZ=     3.2194   YZ=     0.2956   ZZ=    30.3666
   Eigenvalues:     0.8990     3.0294    30.4423
     60  Bq   Isotropic =    11.4301   Anisotropy =    28.3773
   XX=     1.1515   YX=     0.0093   ZX=    -0.1422
   XY=    -0.0985   YY=     2.8768   ZY=    -0.7081
   XZ=     3.3040   YZ=     0.4321   ZZ=    30.2620
   Eigenvalues:     1.0651     2.8769    30.3483
     61  Bq   Isotropic =    11.3829   Anisotropy =    28.2565
   XX=     1.3528   YX=     0.0771   ZX=    -0.0063
   XY=    -0.0381   YY=     2.6778   ZY=    -0.8640
   XZ=     3.4322   YZ=     0.5554   ZZ=    30.1180
   Eigenvalues:     1.2506     2.6775    30.2205
     62  Bq   Isotropic =    11.3148   Anisotropy =    28.1327
   XX=     1.5335   YX=     0.1532   ZX=     0.1695
   XY=     0.0404   YY=     2.4670   ZY=    -0.9572
   XZ=     3.6122   YZ=     0.6555   ZZ=    29.9439
   Eigenvalues:     1.3976     2.4769    30.0700
     63  Bq   Isotropic =    11.2331   Anisotropy =    28.0248
   XX=     1.6508   YX=     0.2221   ZX=     0.3809
   XY=     0.1159   YY=     2.2907   ZY=    -0.9887
   XZ=     3.8450   YZ=     0.7178   ZZ=    29.7578
   Eigenvalues:     1.4547     2.3283    29.9163
     64  Bq   Isotropic =    11.1497   Anisotropy =    27.9482
   XX=     1.6860   YX=     0.2758   ZX=     0.6116
   XY=     0.1784   YY=     2.1808   ZY=    -0.9609
   XZ=     4.1190   YZ=     0.7293   ZZ=    29.5824
   Eigenvalues:     1.4142     2.2531    29.7819
     65  Bq   Isotropic =    11.0769   Anisotropy =    27.9107
   XX=     1.6525   YX=     0.3073   ZX=     0.8398
   XY=     0.2219   YY=     2.1401   ZY=    -0.8713
   XZ=     4.4110   YZ=     0.6833   ZZ=    29.4380
   Eigenvalues:     1.3166     2.2299    29.6840
     66  Bq   Isotropic =    11.0221   Anisotropy =    27.9111
   XX=     1.5847   YX=     0.3036   ZX=     1.0467
   XY=     0.2348   YY=     2.1457   ZY=    -0.7179
   XZ=     4.6912   YZ=     0.5797   ZZ=    29.3360
   Eigenvalues:     1.2104     2.2264    29.6295
     67  Bq   Isotropic =    10.9872   Anisotropy =    27.9379
   XX=     1.5174   YX=     0.2500   ZX=     1.2164
   XY=     0.2018   YY=     2.1675   ZY=    -0.5089
   XZ=     4.9264   YZ=     0.4232   ZZ=    29.2767
   Eigenvalues:     1.1309     2.2182    29.6125
     68  Bq   Isotropic =    10.9691   Anisotropy =    27.9698
   XX=     1.4723   YX=     0.1428   ZX=     1.3305
   XY=     0.1180   YY=     2.1849   ZY=    -0.2628
   XZ=     5.0843   YZ=     0.2239   ZZ=    29.2501
   Eigenvalues:     1.0909     2.2008    29.6156
     69  Bq   Isotropic =    10.5208   Anisotropy =    27.8321
   XX=     0.7459   YX=     0.0000   ZX=     0.4585
   XY=     0.0000   YY=     1.9133   ZY=     0.0000
   XZ=     3.9592   YZ=     0.0000   ZZ=    28.9033
   Eigenvalues:     0.5737     1.9133    29.0756
     70  Bq   Isotropic =    10.5208   Anisotropy =    27.8321
   XX=     0.7459   YX=     0.0000   ZX=     0.4585
   XY=     0.0000   YY=     1.9133   ZY=     0.0000
   XZ=     3.9592   YZ=     0.0000   ZZ=    28.9033
   Eigenvalues:     0.5737     1.9133    29.0756
     71  Bq   Isotropic =    10.5208   Anisotropy =    27.8321
   XX=     0.7459   YX=     0.0000   ZX=     0.4585
   XY=     0.0000   YY=     1.9133   ZY=     0.0000
   XZ=     3.9592   YZ=     0.0000   ZZ=    28.9033
   Eigenvalues:     0.5737     1.9133    29.0756
     72  Bq   Isotropic =    10.5208   Anisotropy =    27.8321
   XX=     0.7459   YX=     0.0000   ZX=     0.4585
   XY=     0.0000   YY=     1.9133   ZY=     0.0000
   XZ=     3.9592   YZ=     0.0000   ZZ=    28.9033
   Eigenvalues:     0.5737     1.9133    29.0756
     73  Bq   Isotropic =    10.5208   Anisotropy =    27.8321
   XX=     0.7459   YX=     0.0000   ZX=     0.4585
   XY=     0.0000   YY=     1.9133   ZY=     0.0000
   XZ=     3.9592   YZ=     0.0000   ZZ=    28.9033
   Eigenvalues:     0.5737     1.9133    29.0756
     74  Bq   Isotropic =    10.5208   Anisotropy =    27.8321
   XX=     0.7459   YX=     0.0000   ZX=     0.4585
   XY=     0.0000   YY=     1.9133   ZY=     0.0000
   XZ=     3.9592   YZ=     0.0000   ZZ=    28.9033
   Eigenvalues:     0.5737     1.9133    29.0756
     75  Bq   Isotropic =    10.5208   Anisotropy =    27.8321
   XX=     0.7459   YX=     0.0000   ZX=     0.4585
   XY=     0.0000   YY=     1.9133   ZY=     0.0000
   XZ=     3.9592   YZ=     0.0000   ZZ=    28.9033
   Eigenvalues:     0.5737     1.9133    29.0756
     76  Bq   Isotropic =    10.5208   Anisotropy =    27.8321
   XX=     0.7459   YX=     0.0000   ZX=     0.4585
   XY=     0.0000   YY=     1.9133   ZY=     0.0000
   XZ=     3.9592   YZ=     0.0000   ZZ=    28.9033
   Eigenvalues:     0.5737     1.9133    29.0756
     77  Bq   Isotropic =    10.5208   Anisotropy =    27.8321
   XX=     0.7459   YX=     0.0000   ZX=     0.4585
   XY=     0.0000   YY=     1.9133   ZY=     0.0000
   XZ=     3.9592   YZ=     0.0000   ZZ=    28.9033
   Eigenvalues:     0.5737     1.9133    29.0756
     78  Bq   Isotropic =    10.5208   Anisotropy =    27.8321
   XX=     0.7459   YX=     0.0000   ZX=     0.4585
   XY=     0.0000   YY=     1.9133   ZY=     0.0000
   XZ=     3.9592   YZ=     0.0000   ZZ=    28.9033
   Eigenvalues:     0.5737     1.9133    29.0756
     79  Bq   Isotropic =    10.5208   Anisotropy =    27.8321
   XX=     0.7459   YX=     0.0000   ZX=     0.4585
   XY=     0.0000   YY=     1.9133   ZY=     0.0000
   XZ=     3.9592   YZ=     0.0000   ZZ=    28.9033
   Eigenvalues:     0.5737     1.9133    29.0756
     80  Bq   Isotropic =    10.5208   Anisotropy =    27.8321
   XX=     0.7459   YX=     0.0000   ZX=     0.4585
   XY=     0.0000   YY=     1.9133   ZY=     0.0000
   XZ=     3.9592   YZ=     0.0000   ZZ=    28.9033
   Eigenvalues:     0.5737     1.9133    29.0756
     81  Bq   Isotropic =    10.5208   Anisotropy =    27.8321
   XX=     0.7459   YX=     0.0000   ZX=     0.4585
   XY=     0.0000   YY=     1.9133   ZY=     0.0000
   XZ=     3.9592   YZ=     0.0000   ZZ=    28.9033
   Eigenvalues:     0.5737     1.9133    29.0756
     82  Bq   Isotropic =    10.5208   Anisotropy =    27.8321
   XX=     0.7459   YX=     0.0000   ZX=     0.4585
   XY=     0.0000   YY=     1.9133   ZY=     0.0000
   XZ=     3.9592   YZ=     0.0000   ZZ=    28.9033
   Eigenvalues:     0.5737     1.9133    29.0756
     83  Bq   Isotropic =    10.5208   Anisotropy =    27.8321
   XX=     0.7459   YX=     0.0000   ZX=     0.4585
   XY=     0.0000   YY=     1.9133   ZY=     0.0000
   XZ=     3.9592   YZ=     0.0000   ZZ=    28.9033
   Eigenvalues:     0.5737     1.9133    29.0756
     84  Bq   Isotropic =    10.5208   Anisotropy =    27.8321
   XX=     0.7459   YX=     0.0000   ZX=     0.4585
   XY=     0.0000   YY=     1.9133   ZY=     0.0000
   XZ=     3.9592   YZ=     0.0000   ZZ=    28.9033
   Eigenvalues:     0.5737     1.9133    29.0756
     85  Bq   Isotropic =    10.5208   Anisotropy =    27.8321
   XX=     0.7459   YX=     0.0000   ZX=     0.4585
   XY=     0.0000   YY=     1.9133   ZY=     0.0000
   XZ=     3.9592   YZ=     0.0000   ZZ=    28.9033
   Eigenvalues:     0.5737     1.9133    29.0756
     86  Bq   Isotropic =    10.5208   Anisotropy =    27.8321
   XX=     0.7459   YX=     0.0000   ZX=     0.4585
   XY=     0.0000   YY=     1.9133   ZY=     0.0000
   XZ=     3.9592   YZ=     0.0000   ZZ=    28.9033
   Eigenvalues:     0.5737     1.9133    29.0756
     87  Bq   Isotropic =    10.5208   Anisotropy =    27.8321
   XX=     0.7459   YX=     0.0000   ZX=     0.4585
   XY=     0.0000   YY=     1.9133   ZY=     0.0000
   XZ=     3.9592   YZ=     0.0000   ZZ=    28.9033
   Eigenvalues:     0.5737     1.9133    29.0756
     88  Bq   Isotropic =    10.5208   Anisotropy =    27.8321
   XX=     0.7459   YX=     0.0000   ZX=     0.4585
   XY=     0.0000   YY=     1.9133   ZY=     0.0000
   XZ=     3.9592   YZ=     0.0000   ZZ=    28.9033
   Eigenvalues:     0.5737     1.9133    29.0756
     89  Bq   Isotropic =    10.5208   Anisotropy =    27.8321
   XX=     0.7459   YX=     0.0000   ZX=     0.4585
   XY=     0.0000   YY=     1.9133   ZY=     0.0000
   XZ=     3.9592   YZ=     0.0000   ZZ=    28.9033
   Eigenvalues:     0.5737     1.9133    29.0756
     90  Bq   Isotropic =    10.5208   Anisotropy =    27.8321
   XX=     0.7459   YX=     0.0000   ZX=     0.4585
   XY=     0.0000   YY=     1.9133   ZY=     0.0000
   XZ=     3.9592   YZ=     0.0000   ZZ=    28.9033
   Eigenvalues:     0.5737     1.9133    29.0756
     91  Bq   Isotropic =    10.5208   Anisotropy =    27.8321
   XX=     0.7459   YX=     0.0000   ZX=     0.4585
   XY=     0.0000   YY=     1.9133   ZY=     0.0000
   XZ=     3.9592   YZ=     0.0000   ZZ=    28.9033
   Eigenvalues:     0.5737     1.9133    29.0756
     92  Bq   Isotropic =    10.5208   Anisotropy =    27.8321
   XX=     0.7459   YX=     0.0000   ZX=     0.4585
   XY=     0.0000   YY=     1.9133   ZY=     0.0000
   XZ=     3.9592   YZ=     0.0000   ZZ=    28.9033
   Eigenvalues:     0.5737     1.9133    29.0756
     93  Bq   Isotropic =    11.4720   Anisotropy =    28.5685
   XX=     0.8211   YX=     0.0000   ZX=    -0.3275
   XY=     0.0000   YY=     3.1445   ZY=     0.0000
   XZ=     3.1547   YZ=     0.0000   ZZ=    30.4504
   Eigenvalues:     0.7538     3.1445    30.5176
     94  Bq   Isotropic =    11.4688   Anisotropy =    28.5450
   XX=     0.8609   YX=    -0.0297   ZX=    -0.3052
   XY=    -0.0766   YY=     3.1161   ZY=    -0.2568
   XZ=     3.1708   YZ=     0.1504   ZZ=    30.4294
   Eigenvalues:     0.7905     3.1171    30.4988
     95  Bq   Isotropic =    11.4569   Anisotropy =    28.4781
   XX=     0.9763   YX=    -0.0300   ZX=    -0.2418
   XY=    -0.1150   YY=     3.0277   ZY=    -0.4993
   XZ=     3.2194   YZ=     0.2956   ZZ=    30.3666
   Eigenvalues:     0.8990     3.0294    30.4423
     96  Bq   Isotropic =    11.4301   Anisotropy =    28.3773
   XX=     1.1515   YX=     0.0093   ZX=    -0.1422
   XY=    -0.0985   YY=     2.8768   ZY=    -0.7081
   XZ=     3.3040   YZ=     0.4321   ZZ=    30.2620
   Eigenvalues:     1.0651     2.8769    30.3483
     97  Bq   Isotropic =    11.3829   Anisotropy =    28.2565
   XX=     1.3528   YX=     0.0771   ZX=    -0.0063
   XY=    -0.0381   YY=     2.6778   ZY=    -0.8640
   XZ=     3.4322   YZ=     0.5554   ZZ=    30.1180
   Eigenvalues:     1.2506     2.6775    30.2205
     98  Bq   Isotropic =    11.3148   Anisotropy =    28.1327
   XX=     1.5335   YX=     0.1532   ZX=     0.1695
   XY=     0.0404   YY=     2.4670   ZY=    -0.9572
   XZ=     3.6122   YZ=     0.6555   ZZ=    29.9439
   Eigenvalues:     1.3976     2.4769    30.0700
     99  Bq   Isotropic =    11.2331   Anisotropy =    28.0248
   XX=     1.6508   YX=     0.2221   ZX=     0.3809
   XY=     0.1159   YY=     2.2907   ZY=    -0.9887
   XZ=     3.8450   YZ=     0.7178   ZZ=    29.7578
   Eigenvalues:     1.4547     2.3283    29.9163
    100  Bq   Isotropic =    11.1497   Anisotropy =    27.9482
   XX=     1.6860   YX=     0.2758   ZX=     0.6116
   XY=     0.1784   YY=     2.1808   ZY=    -0.9609
   XZ=     4.1190   YZ=     0.7293   ZZ=    29.5824
   Eigenvalues:     1.4142     2.2531    29.7819
    101  Bq   Isotropic =    11.0769   Anisotropy =    27.9107
   XX=     1.6525   YX=     0.3073   ZX=     0.8398
   XY=     0.2219   YY=     2.1401   ZY=    -0.8713
   XZ=     4.4110   YZ=     0.6833   ZZ=    29.4380
   Eigenvalues:     1.3166     2.2299    29.6840
    102  Bq   Isotropic =    11.0221   Anisotropy =    27.9111
   XX=     1.5847   YX=     0.3036   ZX=     1.0467
   XY=     0.2348   YY=     2.1457   ZY=    -0.7179
   XZ=     4.6912   YZ=     0.5797   ZZ=    29.3360
   Eigenvalues:     1.2104     2.2264    29.6295
    103  Bq   Isotropic =    10.9872   Anisotropy =    27.9379
   XX=     1.5174   YX=     0.2500   ZX=     1.2164
   XY=     0.2018   YY=     2.1675   ZY=    -0.5089
   XZ=     4.9264   YZ=     0.4232   ZZ=    29.2767
   Eigenvalues:     1.1309     2.2182    29.6125
    104  Bq   Isotropic =    10.9691   Anisotropy =    27.9698
   XX=     1.4723   YX=     0.1428   ZX=     1.3305
   XY=     0.1180   YY=     2.1849   ZY=    -0.2628
   XZ=     5.0843   YZ=     0.2239   ZZ=    29.2501
   Eigenvalues:     1.0909     2.2008    29.6156
    105  Bq   Isotropic =    10.9637   Anisotropy =    27.9838
   XX=     1.4569   YX=     0.0000   ZX=     1.3711
   XY=     0.0000   YY=     2.1910   ZY=     0.0000
   XZ=     5.1400   YZ=     0.0000   ZZ=    29.2432
   Eigenvalues:     1.0806     2.1910    29.6196
    106  Bq   Isotropic =    10.9691   Anisotropy =    27.9698
   XX=     1.4723   YX=    -0.1428   ZX=     1.3305
   XY=    -0.1180   YY=     2.1849   ZY=     0.2628
   XZ=     5.0843   YZ=    -0.2239   ZZ=    29.2501
   Eigenvalues:     1.0909     2.2008    29.6156
    107  Bq   Isotropic =    10.9872   Anisotropy =    27.9379
   XX=     1.5174   YX=    -0.2500   ZX=     1.2164
   XY=    -0.2018   YY=     2.1675   ZY=     0.5089
   XZ=     4.9264   YZ=    -0.4232   ZZ=    29.2767
   Eigenvalues:     1.1309     2.2182    29.6125
    108  Bq   Isotropic =    11.0221   Anisotropy =    27.9111
   XX=     1.5847   YX=    -0.3036   ZX=     1.0467
   XY=    -0.2348   YY=     2.1457   ZY=     0.7179
   XZ=     4.6912   YZ=    -0.5797   ZZ=    29.3360
   Eigenvalues:     1.2104     2.2264    29.6295
    109  Bq   Isotropic =    11.0769   Anisotropy =    27.9107
   XX=     1.6525   YX=    -0.3073   ZX=     0.8398
   XY=    -0.2219   YY=     2.1401   ZY=     0.8713
   XZ=     4.4110   YZ=    -0.6833   ZZ=    29.4380
   Eigenvalues:     1.3166     2.2299    29.6840
    110  Bq   Isotropic =    11.1497   Anisotropy =    27.9482
   XX=     1.6860   YX=    -0.2758   ZX=     0.6116
   XY=    -0.1784   YY=     2.1808   ZY=     0.9609
   XZ=     4.1190   YZ=    -0.7293   ZZ=    29.5824
   Eigenvalues:     1.4142     2.2531    29.7819
    111  Bq   Isotropic =    11.2331   Anisotropy =    28.0248
   XX=     1.6508   YX=    -0.2221   ZX=     0.3809
   XY=    -0.1159   YY=     2.2907   ZY=     0.9887
   XZ=     3.8450   YZ=    -0.7178   ZZ=    29.7578
   Eigenvalues:     1.4547     2.3283    29.9163
    112  Bq   Isotropic =    11.3148   Anisotropy =    28.1327
   XX=     1.5335   YX=    -0.1532   ZX=     0.1695
   XY=    -0.0404   YY=     2.4670   ZY=     0.9572
   XZ=     3.6122   YZ=    -0.6555   ZZ=    29.9439
   Eigenvalues:     1.3976     2.4769    30.0700
    113  Bq   Isotropic =    11.3829   Anisotropy =    28.2565
   XX=     1.3528   YX=    -0.0771   ZX=    -0.0063
   XY=     0.0381   YY=     2.6778   ZY=     0.8640
   XZ=     3.4322   YZ=    -0.5554   ZZ=    30.1180
   Eigenvalues:     1.2506     2.6775    30.2205
    114  Bq   Isotropic =    11.4301   Anisotropy =    28.3773
   XX=     1.1515   YX=    -0.0093   ZX=    -0.1422
   XY=     0.0985   YY=     2.8768   ZY=     0.7081
   XZ=     3.3040   YZ=    -0.4321   ZZ=    30.2620
   Eigenvalues:     1.0651     2.8769    30.3483
    115  Bq   Isotropic =    11.4569   Anisotropy =    28.4781
   XX=     0.9763   YX=     0.0300   ZX=    -0.2418
   XY=     0.1150   YY=     3.0277   ZY=     0.4993
   XZ=     3.2194   YZ=    -0.2956   ZZ=    30.3666
   Eigenvalues:     0.8990     3.0294    30.4423
    116  Bq   Isotropic =    11.4688   Anisotropy =    28.5450
   XX=     0.8609   YX=     0.0297   ZX=    -0.3052
   XY=     0.0766   YY=     3.1161   ZY=     0.2568
   XZ=     3.1708   YZ=    -0.1504   ZZ=    30.4294
   Eigenvalues:     0.7905     3.1171    30.4988
    117  Bq   Isotropic =    14.1277   Anisotropy =    29.8621
   XX=     2.3774   YX=     0.0000   ZX=    -0.0248
   XY=     0.0000   YY=     6.0058   ZY=     0.0000
   XZ=     2.1567   YZ=     0.0000   ZZ=    33.9998
   Eigenvalues:     2.3415     6.0058    34.0357
    118  Bq   Isotropic =    14.1490   Anisotropy =    29.7817
   XX=     2.4191   YX=    -0.4040   ZX=     0.0463
   XY=    -0.5273   YY=     6.0648   ZY=    -0.1362
   XZ=     2.2150   YZ=     0.1604   ZZ=    33.9630
   Eigenvalues:     2.3207     6.1227    34.0034
    119  Bq   Isotropic =    14.2033   Anisotropy =    29.5786
   XX=     2.6305   YX=    -0.4874   ZX=     0.1468
   XY=    -0.7177   YY=     6.1070   ZY=    -0.4106
   XZ=     2.3436   YZ=     0.2581   ZZ=    33.8724
   Eigenvalues:     2.4819     6.2057    33.9223
    120  Bq   Isotropic =    14.2437   Anisotropy =    29.3070
   XX=     3.1429   YX=    -0.2247   ZX=     0.1106
   XY=    -0.4826   YY=     5.8627   ZY=    -0.7298
   XZ=     2.4755   YZ=     0.3454   ZZ=    33.7256
   Eigenvalues:     3.0460     5.9035    33.7818
    121  Bq   Isotropic =    14.1900   Anisotropy =    28.9809
   XX=     3.9036   YX=     0.1378   ZX=    -0.0163
   XY=    -0.0489   YY=     5.2155   ZY=    -0.8875
   XZ=     2.6462   YZ=     0.5151   ZZ=    33.4510
   Eigenvalues:     3.8431     5.2164    33.5106
    122  Bq   Isotropic =    14.0013   Anisotropy =    28.6342
   XX=     4.6225   YX=     0.3665   ZX=    -0.0158
   XY=     0.2619   YY=     4.3679   ZY=    -0.8582
   XZ=     2.9811   YZ=     0.7528   ZZ=    33.0135
   Eigenvalues:     4.1278     4.7853    33.0908
    123  Bq   Isotropic =    13.7270   Anisotropy =    28.3576
   XX=     4.9618   YX=     0.4369   ZX=     0.2062
   XY=     0.3412   YY=     3.7141   ZY=    -0.8277
   XZ=     3.5406   YZ=     0.9399   ZZ=    32.5050
   Eigenvalues:     3.5947     4.9541    32.6321
    124  Bq   Isotropic =    13.4599   Anisotropy =    28.2065
   XX=     4.7966   YX=     0.4892   ZX=     0.5006
   XY=     0.3572   YY=     3.5235   ZY=    -0.9184
   XZ=     4.2395   YZ=     0.9905   ZZ=    32.0595
   Eigenvalues:     3.3789     4.7365    32.2642
    125  Bq   Isotropic =    13.2617   Anisotropy =    28.1611
   XX=     4.3115   YX=     0.6463   ZX=     0.7030
   XY=     0.5057   YY=     3.7266   ZY=    -1.0050
   XZ=     4.9578   YZ=     0.9307   ZZ=    31.7468
   Eigenvalues:     3.2792     4.4701    32.0357
    126  Bq   Isotropic =    13.1517   Anisotropy =    28.2341
   XX=     3.8377   YX=     0.8605   ZX=     0.8562
   XY=     0.7482   YY=     4.0186   ZY=    -0.8838
   XZ=     5.6452   YZ=     0.8241   ZZ=    31.5987
   Eigenvalues:     2.8910     4.5896    31.9744
    127  Bq   Isotropic =    13.1248   Anisotropy =    28.4760
   XX=     3.5958   YX=     0.9131   ZX=     1.0931
   XY=     0.8344   YY=     4.1455   ZY=    -0.5556
   XZ=     6.2642   YZ=     0.6631   ZZ=    31.6333
   Eigenvalues:     2.6324     4.6332    32.1089
    128  Bq   Isotropic =    13.1468   Anisotropy =    28.7966
   XX=     3.5665   YX=     0.6077   ZX=     1.3800
   XY=     0.5631   YY=     4.0996   ZY=    -0.2228
   XZ=     6.7148   YZ=     0.3869   ZZ=    31.7743
   Eigenvalues:     2.7566     4.3393    32.3445
    129  Bq   Isotropic =    13.1634   Anisotropy =    28.9491
   XX=     3.5869   YX=     0.0000   ZX=     1.5146
   XY=     0.0000   YY=     4.0508   ZY=     0.0000
   XZ=     6.8811   YZ=     0.0000   ZZ=    31.8525
   Eigenvalues:     2.9766     4.0508    32.4628
    130  Bq   Isotropic =    13.1468   Anisotropy =    28.7966
   XX=     3.5665   YX=    -0.6077   ZX=     1.3800
   XY=    -0.5631   YY=     4.0996   ZY=     0.2228
   XZ=     6.7148   YZ=    -0.3869   ZZ=    31.7743
   Eigenvalues:     2.7566     4.3393    32.3445
    131  Bq   Isotropic =    13.1248   Anisotropy =    28.4760
   XX=     3.5958   YX=    -0.9131   ZX=     1.0931
   XY=    -0.8344   YY=     4.1455   ZY=     0.5556
   XZ=     6.2642   YZ=    -0.6631   ZZ=    31.6333
   Eigenvalues:     2.6324     4.6332    32.1089
    132  Bq   Isotropic =    13.1517   Anisotropy =    28.2341
   XX=     3.8377   YX=    -0.8605   ZX=     0.8562
   XY=    -0.7482   YY=     4.0186   ZY=     0.8838
   XZ=     5.6452   YZ=    -0.8241   ZZ=    31.5987
   Eigenvalues:     2.8910     4.5896    31.9744
    133  Bq   Isotropic =    13.2617   Anisotropy =    28.1611
   XX=     4.3115   YX=    -0.6463   ZX=     0.7030
   XY=    -0.5057   YY=     3.7266   ZY=     1.0050
   XZ=     4.9578   YZ=    -0.9307   ZZ=    31.7468
   Eigenvalues:     3.2792     4.4701    32.0357
    134  Bq   Isotropic =    13.4599   Anisotropy =    28.2065
[...]
     6  C   -0.271259
     7  C   -0.271259
     8  C   -0.081784
     9  C    0.204484
    10  C   -0.081784
    11  H    0.128962
    12  H    0.128962
    13  H    0.121839
    14  H    0.121839
    15  H    0.128962
    16  H    0.128962
    17  H    0.121839
    18  H    0.121839
    19  Bq   0.000000
    20  Bq   0.000000
    21  Bq   0.000000
    22  Bq   0.000000
    23  Bq   0.000000
    24  Bq   0.000000
    25  Bq   0.000000
    26  Bq   0.000000
    27  Bq   0.000000
    28  Bq   0.000000
    29  Bq   0.000000
    30  Bq   0.000000
    31  Bq   0.000000
    32  Bq   0.000000
    33  Bq   0.000000
    34  Bq   0.000000
    35  Bq   0.000000
    36  Bq   0.000000
    37  Bq   0.000000
    38  Bq   0.000000
    39  Bq   0.000000
    40  Bq   0.000000
    41  Bq   0.000000
    42  Bq   0.000000
    43  Bq   0.000000
    44  Bq   0.000000
    45  Bq   0.000000
    46  Bq   0.000000
    47  Bq   0.000000
    48  Bq   0.000000
    49  Bq   0.000000
    50  Bq   0.000000
    51  Bq   0.000000
    52  Bq   0.000000
    53  Bq   0.000000
    54  Bq   0.000000
    55  Bq   0.000000
    56  Bq   0.000000
    57  Bq   0.000000
    58  Bq   0.000000
    59  Bq   0.000000
    60  Bq   0.000000
    61  Bq   0.000000
    62  Bq   0.000000
    63  Bq   0.000000
    64  Bq   0.000000
    65  Bq   0.000000
    66  Bq   0.000000
    67  Bq   0.000000
    68  Bq   0.000000
    69  Bq   0.000000
    70  Bq   0.000000
    71  Bq   0.000000
    72  Bq   0.000000
    73  Bq   0.000000
    74  Bq   0.000000
    75  Bq   0.000000
    76  Bq   0.000000
    77  Bq   0.000000
    78  Bq   0.000000
    79  Bq   0.000000
    80  Bq   0.000000
    81  Bq   0.000000
    82  Bq   0.000000
    83  Bq   0.000000
    84  Bq   0.000000
    85  Bq   0.000000
    86  Bq   0.000000
    87  Bq   0.000000
    88  Bq   0.000000
    89  Bq   0.000000
    90  Bq   0.000000
    91  Bq   0.000000
    92  Bq   0.000000
    93  Bq   0.000000
    94  Bq   0.000000
    95  Bq   0.000000
    96  Bq   0.000000
    97  Bq   0.000000
    98  Bq   0.000000
    99  Bq   0.000000
   100  Bq   0.000000
   101  Bq   0.000000
   102  Bq   0.000000
   103  Bq   0.000000
   104  Bq   0.000000
   105  Bq   0.000000
   106  Bq   0.000000
   107  Bq   0.000000
   108  Bq   0.000000
   109  Bq   0.000000
   110  Bq   0.000000
   111  Bq   0.000000
   112  Bq   0.000000
   113  Bq   0.000000
   114  Bq   0.000000
   115  Bq   0.000000
   116  Bq   0.000000
   117  Bq   0.000000
   118  Bq   0.000000
   119  Bq   0.000000
   120  Bq   0.000000
   121  Bq   0.000000
   122  Bq   0.000000
   123  Bq   0.000000
   124  Bq   0.000000
   125  Bq   0.000000
   126  Bq   0.000000
   127  Bq   0.000000
   128  Bq   0.000000
   129  Bq   0.000000
   130  Bq   0.000000
   131  Bq   0.000000
   132  Bq   0.000000
   133  Bq   0.000000
   134  Bq   0.000000
   135  Bq   0.000000
   136  Bq   0.000000
   137  Bq   0.000000
   138  Bq   0.000000
   139  Bq   0.000000
   140  Bq   0.000000
   141  Bq   0.000000
   142  Bq   0.000000
   143  Bq   0.000000
   144  Bq   0.000000
   145  Bq   0.000000
   146  Bq   0.000000
   147  Bq   0.000000
   148  Bq   0.000000
   149  Bq   0.000000
   150  Bq   0.000000
   151  Bq   0.000000
   152  Bq   0.000000
   153  Bq   0.000000
   154  Bq   0.000000
   155  Bq   0.000000
   156  Bq   0.000000
   157  Bq   0.000000
   158  Bq   0.000000
   159  Bq   0.000000
   160  Bq   0.000000
   161  Bq   0.000000
   162  Bq   0.000000
   163  Bq   0.000000
   164  Bq   0.000000
   165  Bq   0.000000
   166  Bq   0.000000
   167  Bq   0.000000
   168  Bq   0.000000
   169  Bq   0.000000
   170  Bq   0.000000
   171  Bq   0.000000
   172  Bq   0.000000
   173  Bq   0.000000
   174  Bq   0.000000
   175  Bq   0.000000
   176  Bq   0.000000
   177  Bq   0.000000
   178  Bq   0.000000
   179  Bq   0.000000
   180  Bq   0.000000
   181  Bq   0.000000
   182  Bq   0.000000
   183  Bq   0.000000
   184  Bq   0.000000
   185  Bq   0.000000
   186  Bq   0.000000
   187  Bq   0.000000
   188  Bq   0.000000
   189  Bq   0.000000
   190  Bq   0.000000
   191  Bq   0.000000
   192  Bq   0.000000
   193  Bq   0.000000
   194  Bq   0.000000
   195  Bq   0.000000
   196  Bq   0.000000
   197  Bq   0.000000
   198  Bq   0.000000
   199  Bq   0.000000
   200  Bq   0.000000
   201  Bq   0.000000
   202  Bq   0.000000
   203  Bq   0.000000
   204  Bq   0.000000
   205  Bq   0.000000
   206  Bq   0.000000
   207  Bq   0.000000
   208  Bq   0.000000
   209  Bq   0.000000
   210  Bq   0.000000
   211  Bq   0.000000
   212  Bq   0.000000
   213  Bq   0.000000
   214  Bq   0.000000
   215  Bq   0.000000
   216  Bq   0.000000
   217  Bq   0.000000
   218  Bq   0.000000
 Sum of Mulliken charges =   0.00000
 Mulliken charges with hydrogens summed into heavy atoms:
               1
     1  C   -0.142297
     2  C   -0.142297
     3  C    0.040055
     4  C    0.204484
     5  C    0.040055
     6  C   -0.142297
     7  C   -0.142297
     8  C    0.040055
     9  C    0.204484
    10  C    0.040055
    19  Bq   0.000000
    20  Bq   0.000000
    21  Bq   0.000000
    22  Bq   0.000000
    23  Bq   0.000000
    24  Bq   0.000000
    25  Bq   0.000000
    26  Bq   0.000000
    27  Bq   0.000000
    28  Bq   0.000000
    29  Bq   0.000000
    30  Bq   0.000000
    31  Bq   0.000000
    32  Bq   0.000000
    33  Bq   0.000000
    34  Bq   0.000000
    35  Bq   0.000000
    36  Bq   0.000000
    37  Bq   0.000000
    38  Bq   0.000000
    39  Bq   0.000000
    40  Bq   0.000000
    41  Bq   0.000000
    42  Bq   0.000000
    43  Bq   0.000000
    44  Bq   0.000000
    45  Bq   0.000000
    46  Bq   0.000000
    47  Bq   0.000000
    48  Bq   0.000000
    49  Bq   0.000000
    50  Bq   0.000000
    51  Bq   0.000000
    52  Bq   0.000000
    53  Bq   0.000000
    54  Bq   0.000000
    55  Bq   0.000000
    56  Bq   0.000000
    57  Bq   0.000000
    58  Bq   0.000000
    59  Bq   0.000000
    60  Bq   0.000000
    61  Bq   0.000000
    62  Bq   0.000000
    63  Bq   0.000000
    64  Bq   0.000000
    65  Bq   0.000000
    66  Bq   0.000000
    67  Bq   0.000000
    68  Bq   0.000000
    69  Bq   0.000000
    70  Bq   0.000000
    71  Bq   0.000000
    72  Bq   0.000000
    73  Bq   0.000000
    74  Bq   0.000000
    75  Bq   0.000000
    76  Bq   0.000000
    77  Bq   0.000000
    78  Bq   0.000000
    79  Bq   0.000000
    80  Bq   0.000000
    81  Bq   0.000000
    82  Bq   0.000000
    83  Bq   0.000000
    84  Bq   0.000000
    85  Bq   0.000000
    86  Bq   0.000000
    87  Bq   0.000000
    88  Bq   0.000000
    89  Bq   0.000000
    90  Bq   0.000000
    91  Bq   0.000000
    92  Bq   0.000000
    93  Bq   0.000000
    94  Bq   0.000000
    95  Bq   0.000000
    96  Bq   0.000000
    97  Bq   0.000000
    98  Bq   0.000000
    99  Bq   0.000000
   100  Bq   0.000000
   101  Bq   0.000000
   102  Bq   0.000000
   103  Bq   0.000000
   104  Bq   0.000000
   105  Bq   0.000000
   106  Bq   0.000000
   107  Bq   0.000000
   108  Bq   0.000000
   109  Bq   0.000000
   110  Bq   0.000000
   111  Bq   0.000000
   112  Bq   0.000000
   113  Bq   0.000000
   114  Bq   0.000000
   115  Bq   0.000000
   116  Bq   0.000000
   117  Bq   0.000000
   118  Bq   0.000000
   119  Bq   0.000000
   120  Bq   0.000000
   121  Bq   0.000000
   122  Bq   0.000000
   123  Bq   0.000000
   124  Bq   0.000000
   125  Bq   0.000000
   126  Bq   0.000000
   127  Bq   0.000000
   128  Bq   0.000000
   129  Bq   0.000000
   130  Bq   0.000000
   131  Bq   0.000000
   132  Bq   0.000000
   133  Bq   0.000000
   134  Bq   0.000000
   135  Bq   0.000000
   136  Bq   0.000000
   137  Bq   0.000000
   138  Bq   0.000000
   139  Bq   0.000000
   140  Bq   0.000000
   141  Bq   0.000000
   142  Bq   0.000000
   143  Bq   0.000000
   144  Bq   0.000000
   145  Bq   0.000000
   146  Bq   0.000000
   147  Bq   0.000000
   148  Bq   0.000000
   149  Bq   0.000000
   150  Bq   0.000000
   151  Bq   0.000000
   152  Bq   0.000000
   153  Bq   0.000000
   154  Bq   0.000000
   155  Bq   0.000000
   156  Bq   0.000000
   157  Bq   0.000000
   158  Bq   0.000000
   159  Bq   0.000000
   160  Bq   0.000000
   161  Bq   0.000000
   162  Bq   0.000000
   163  Bq   0.000000
   164  Bq   0.000000
   165  Bq   0.000000
   166  Bq   0.000000
   167  Bq   0.000000
   168  Bq   0.000000
   169  Bq   0.000000
   170  Bq   0.000000
   171  Bq   0.000000
   172  Bq   0.000000
   173  Bq   0.000000
   174  Bq   0.000000
   175  Bq   0.000000
   176  Bq   0.000000
   177  Bq   0.000000
   178  Bq   0.000000
   179  Bq   0.000000
   180  Bq   0.000000
   181  Bq   0.000000
   182  Bq   0.000000
   183  Bq   0.000000
   184  Bq   0.000000
   185  Bq   0.000000
   186  Bq   0.000000
   187  Bq   0.000000
   188  Bq   0.000000
   189  Bq   0.000000
   190  Bq   0.000000
   191  Bq   0.000000
   192  Bq   0.000000
   193  Bq   0.000000
   194  Bq   0.000000
   195  Bq   0.000000
   196  Bq   0.000000
   197  Bq   0.000000
   198  Bq   0.000000
   199  Bq   0.000000
   200  Bq   0.000000
   201  Bq   0.000000
   202  Bq   0.000000
   203  Bq   0.000000
   204  Bq   0.000000
   205  Bq   0.000000
   206  Bq   0.000000
   207  Bq   0.000000
   208  Bq   0.000000
   209  Bq   0.000000
   210  Bq   0.000000
   211  Bq   0.000000
   212  Bq   0.000000
   213  Bq   0.000000
   214  Bq   0.000000
   215  Bq   0.000000
   216  Bq   0.000000
   217  Bq   0.000000
   218  Bq   0.000000
 Electronic spatial extent (au):  <R**2>=           1312.5323
 Charge=              0.0000 electrons
 Dipole moment (field-independent basis, Debye):
    X=              0.0000    Y=              0.0000    Z=              0.0000  Tot=              0.0000
 Quadrupole moment (field-independent basis, Debye-Ang):
   XX=            -51.9618   YY=            -52.1216   ZZ=            -65.1252
   XY=              0.0000   XZ=              0.0000   YZ=              0.0000
 Traceless Quadrupole moment (field-independent basis, Debye-Ang):
   XX=              4.4411   YY=              4.2812   ZZ=             -8.7224
   XY=              0.0000   XZ=              0.0000   YZ=              0.0000
 Octapole moment (field-independent basis, Debye-Ang**2):
  XXX=              0.0000  YYY=              0.0000  ZZZ=              0.0000  XYY=              0.0000
  XXY=              0.0000  XXZ=              0.0000  XZZ=              0.0000  YZZ=              0.0000
  YYZ=              0.0000  XYZ=              0.0000
 Hexadecapole moment (field-independent basis, Debye-Ang**3):
 XXXX=          -1119.8966 YYYY=           -498.1664 ZZZZ=            -79.6336 XXXY=              0.0000
 XXXZ=              0.0000 YYYX=              0.0000 YYYZ=              0.0000 ZZZX=              0.0000
 ZZZY=              0.0000 XXYY=           -275.3262 XXZZ=           -249.8350 YYZZ=           -117.4791
 XXYZ=              0.0000 YYXZ=              0.0000 ZZXY=              0.0000
 N-N= 4.538675371600D+02 E-N=-1.802310911208D+03  KE= 3.837199947839D+02
 1\1\GINC-CALVANI\SP\RB3LYP\6-311+G(d,p)\C10H8\YANNICK\11-Sep-2020\0\\#
  rb3lyp/6-311+g** NMR geom=connectivity\\Title\\0,1\C,0,2.45076,-0.711
 74,0.\C,0,2.45076,0.71174,0.\C,0,1.25139,1.41137,0.\C,0,0.,0.72289,0.\
 C,0,-1.25139,1.41137,0.\C,0,-2.45076,0.71174,0.\C,0,-2.45076,-0.71174,
 0.\C,0,-1.25139,-1.41137,0.\C,0,0.,-0.72289,0.\C,0,1.25139,-1.41137,0.
 \H,0,3.40873,-1.25791,0.\H,0,3.40873,1.25791,0.\H,0,1.24972,2.51472,0.
 \H,0,-1.24972,2.51472,0.\H,0,-3.40873,1.25791,0.\H,0,-3.40873,-1.25791
 ,0.\H,0,-1.24972,-2.51472,0.\H,0,1.24972,-2.51472,0.\Bq,0,-0.621677564
 3,-0.3535533906,-0.7071067812\Bq,0,-0.5510372981,-0.1830127019,-0.7071
 067812\Bq,0,-0.73405,0.,-0.8660254038\Bq,0,-0.7510870869,0.1294095226,
 -0.8660254038\Bq,0,-0.8010372981,0.25,-0.8660254038\Bq,0,-0.8804966094
 ,0.3535533906,-0.8660254038\Bq,0,-0.98405,0.4330127019,-0.8660254038\B
 q,0,-1.1046404774,0.4829629131,-0.8660254038\Bq,0,-1.23405,0.5,-0.8660
 254038\Bq,0,-1.3634595226,0.4829629131,-0.8660254038\Bq,0,-1.48405,0.4
 330127019,-0.8660254038\Bq,0,-1.5876033906,0.3535533906,-0.8660254038\
 Bq,0,-1.6670627019,0.25,-0.8660254038\Bq,0,-1.7170129131,0.1294095226,
 -0.8660254038\Bq,0,-1.73405,0.,-0.8660254038\Bq,0,-1.7170129131,-0.129
 4095226,-0.8660254038\Bq,0,-1.6670627019,-0.25,-0.8660254038\Bq,0,-1.5
 876033906,-0.3535533906,-0.8660254038\Bq,0,-1.48405,-0.4330127019,-0.8
 660254038\Bq,0,-1.3634595226,-0.4829629131,-0.8660254038\Bq,0,-1.23405
 ,-0.5,-0.8660254038\Bq,0,-1.1046404774,-0.4829629131,-0.8660254038\Bq,
 0,-0.98405,-0.4330127019,-0.8660254038\Bq,0,-0.8804966094,-0.353553390
 6,-0.8660254038\Bq,0,-0.8010372981,-0.25,-0.8660254038\Bq,0,-0.7510870
 869,-0.1294095226,-0.8660254038\Bq,0,-0.9752309549,0.,-0.9659258263\Bq
 ,0,-0.98405,0.0669872981,-0.9659258263\Bq,0,-1.009906132,0.1294095226,
 -0.9659258263\Bq,0,-1.0510372981,0.1830127019,-0.9659258263\Bq,0,-1.10
 46404774,0.224143868,-0.9659258263\Bq,0,-1.1670627019,0.25,-0.96592582
 63\Bq,0,-1.23405,0.2588190451,-0.9659258263\Bq,0,-1.3010372981,0.25,-0
 .9659258263\Bq,0,-1.3634595226,0.224143868,-0.9659258263\Bq,0,-1.41706
 27019,0.1830127019,-0.9659258263\Bq,0,-1.458193868,0.1294095226,-0.965
 9258263\Bq,0,-1.48405,0.0669872981,-0.9659258263\Bq,0,-1.4928690451,0.
 ,-0.9659258263\Bq,0,-1.48405,-0.0669872981,-0.9659258263\Bq,0,-1.45819
 3868,-0.1294095226,-0.9659258263\Bq,0,-1.4170627019,-0.1830127019,-0.9
 659258263\Bq,0,-1.3634595226,-0.224143868,-0.9659258263\Bq,0,-1.301037
 2981,-0.25,-0.9659258263\Bq,0,-1.23405,-0.2588190451,-0.9659258263\Bq,
 0,-1.1670627019,-0.25,-0.9659258263\Bq,0,-1.1046404774,-0.224143868,-0
 .9659258263\Bq,0,-1.0510372981,-0.1830127019,-0.9659258263\Bq,0,-1.009
 906132,-0.1294095226,-0.9659258263\Bq,0,-0.98405,-0.0669872981,-0.9659
 258263\Bq,0,1.23405,0.,1.\Bq,0,1.23405,0.,1.\Bq,0,1.23405,0.,1.\Bq,0,1
 .23405,0.,1.\Bq,0,1.23405,0.,1.\Bq,0,1.23405,0.,1.\Bq,0,1.23405,0.,1.\
 Bq,0,1.23405,0.,1.\Bq,0,1.23405,0.,1.\Bq,0,1.23405,0.,1.\Bq,0,1.23405,
 0.,1.\Bq,0,1.23405,0.,1.\Bq,0,1.23405,0.,1.\Bq,0,1.23405,0.,1.\Bq,0,1.
 23405,0.,1.\Bq,0,1.23405,0.,1.\Bq,0,1.23405,0.,1.\Bq,0,1.23405,0.,1.\B
 q,0,1.23405,0.,1.\Bq,0,1.23405,0.,1.\Bq,0,1.23405,0.,1.\Bq,0,1.23405,0
 .,1.\Bq,0,1.23405,0.,1.\Bq,0,1.23405,0.,1.\Bq,0,1.4928690451,0.,0.9659
 258263\Bq,0,1.48405,0.0669872981,0.9659258263\Bq,0,1.458193868,0.12940
 95226,0.9659258263\Bq,0,1.4170627019,0.1830127019,0.9659258263\Bq,0,1.
 3634595226,0.224143868,0.9659258263\Bq,0,1.3010372981,0.25,0.965925826
 3\Bq,0,1.23405,0.2588190451,0.9659258263\Bq,0,1.1670627019,0.25,0.9659
 258263\Bq,0,1.1046404774,0.224143868,0.9659258263\Bq,0,1.0510372981,0.
 1830127019,0.9659258263\Bq,0,1.009906132,0.1294095226,0.9659258263\Bq,
 0,0.98405,0.0669872981,0.9659258263\Bq,0,0.9752309549,0.,0.9659258263\
 Bq,0,0.98405,-0.0669872981,0.9659258263\Bq,0,1.009906132,-0.1294095226
 ,0.9659258263\Bq,0,1.0510372981,-0.1830127019,0.9659258263\Bq,0,1.1046
 404774,-0.224143868,0.9659258263\Bq,0,1.1670627019,-0.25,0.9659258263\
 Bq,0,1.23405,-0.2588190451,0.9659258263\Bq,0,1.3010372981,-0.25,0.9659
 258263\Bq,0,1.3634595226,-0.224143868,0.9659258263\Bq,0,1.4170627019,-
 0.1830127019,0.9659258263\Bq,0,1.458193868,-0.1294095226,0.9659258263\
 Bq,0,1.48405,-0.0669872981,0.9659258263\Bq,0,1.73405,0.,0.8660254038\B
 q,0,1.7170129131,0.1294095226,0.8660254038\Bq,0,1.6670627019,0.25,0.86
 60254038\Bq,0,1.5876033906,0.3535533906,0.8660254038\Bq,0,1.48405,0.43
 30127019,0.8660254038\Bq,0,1.3634595226,0.4829629131,0.8660254038\Bq,0
 ,1.23405,0.5,0.8660254038\Bq,0,1.1046404774,0.4829629131,0.8660254038\
 Bq,0,0.98405,0.4330127019,0.8660254038\Bq,0,0.8804966094,0.3535533906,
 0.8660254038\Bq,0,0.8010372981,0.25,0.8660254038\Bq,0,0.7510870869,0.1
 294095226,0.8660254038\Bq,0,0.73405,0.,0.8660254038\Bq,0,0.7510870869,
 -0.1294095226,0.8660254038\Bq,0,0.8010372981,-0.25,0.8660254038\Bq,0,0
 .8804966094,-0.3535533906,0.8660254038\Bq,0,0.98405,-0.4330127019,0.86
 60254038\Bq,0,1.1046404774,-0.4829629131,0.8660254038\Bq,0,1.23405,-0.
 5,0.8660254038\Bq,0,1.3634595226,-0.4829629131,0.8660254038\Bq,0,1.484
 05,-0.4330127019,0.8660254038\Bq,0,1.5876033906,-0.3535533906,0.866025
 4038\Bq,0,1.6670627019,-0.25,0.8660254038\Bq,0,1.7170129131,-0.1294095
 226,0.8660254038\Bq,0,1.9411567812,0.,0.7071067812\Bq,0,1.9170627019,0
 .1830127019,0.7071067812\Bq,0,1.73405,0.5,0.7071067812\Bq,0,1.58760339
 06,0.6123724357,0.7071067812\Bq,0,1.4170627019,0.6830127019,0.70710678
 12\Bq,0,1.0510372981,0.6830127019,0.7071067812\Bq,0,0.8804966094,0.612
 3724357,0.7071067812\Bq,0,0.73405,0.5,0.7071067812\Bq,0,0.6216775643,0
 .3535533906,0.7071067812\Bq,0,0.5510372981,0.1830127019,0.7071067812\B
 q,0,0.5269432188,0.,0.7071067812\Bq,0,0.5510372981,-0.1830127019,0.707
 1067812\Bq,0,0.6216775643,-0.3535533906,0.7071067812\Bq,0,0.73405,-0.5
 ,0.7071067812\Bq,0,0.8804966094,-0.6123724357,0.7071067812\Bq,0,1.0510
 372981,-0.6830127019,0.7071067812\Bq,0,1.4170627019,-0.6830127019,0.70
 71067812\Bq,0,1.5876033906,-0.6123724357,0.7071067812\Bq,0,1.73405,-0.
 5,0.7071067812\Bq,0,1.9170627019,-0.1830127019,0.7071067812\Bq,0,1.941
 1567812,0.,-0.7071067812\Bq,0,1.9170627019,0.1830127019,-0.7071067812\
 Bq,0,1.73405,0.5,-0.7071067812\Bq,0,1.5876033906,0.6123724357,-0.70710
 67812\Bq,0,1.4170627019,0.6830127019,-0.7071067812\Bq,0,1.0510372981,0
 .6830127019,-0.7071067812\Bq,0,0.8804966094,0.6123724357,-0.7071067812
 \Bq,0,0.73405,0.5,-0.7071067812\Bq,0,0.6216775643,0.3535533906,-0.7071
 067812\Bq,0,0.5510372981,0.1830127019,-0.7071067812\Bq,0,0.5269432188,
 0.,-0.7071067812\Bq,0,0.5510372981,-0.1830127019,-0.7071067812\Bq,0,0.
 6216775643,-0.3535533906,-0.7071067812\Bq,0,0.73405,-0.5,-0.7071067812
 \Bq,0,0.8804966094,-0.6123724357,-0.7071067812\Bq,0,1.0510372981,-0.68
 30127019,-0.7071067812\Bq,0,1.4170627019,-0.6830127019,-0.7071067812\B
 q,0,1.5876033906,-0.6123724357,-0.7071067812\Bq,0,1.73405,-0.5,-0.7071
 067812\Bq,0,1.9170627019,-0.1830127019,-0.7071067812\Bq,0,1.73405,0.,-
 0.8660254038\Bq,0,1.7170129131,0.1294095226,-0.8660254038\Bq,0,1.66706
 27019,0.25,-0.8660254038\Bq,0,1.5876033906,0.3535533906,-0.8660254038\
 Bq,0,1.48405,0.4330127019,-0.8660254038\Bq,0,1.3634595226,0.4829629131
 ,-0.8660254038\Bq,0,1.23405,0.5,-0.8660254038\Bq,0,1.1046404774,0.4829
 629131,-0.8660254038\Bq,0,0.98405,0.4330127019,-0.8660254038\Bq,0,0.88
 04966094,0.3535533906,-0.8660254038\Bq,0,0.8010372981,0.25,-0.86602540
 38\Bq,0,0.7510870869,0.1294095226,-0.8660254038\Bq,0,0.73405,0.,-0.866
 0254038\Bq,0,0.7510870869,-0.1294095226,-0.8660254038\Bq,0,0.801037298
 1,-0.25,-0.8660254038\Bq,0,0.8804966094,-0.3535533906,-0.8660254038\Bq
 ,0,0.98405,-0.4330127019,-0.8660254038\Bq,0,1.1046404774,-0.4829629131
 ,-0.8660254038\Bq,0,1.23405,-0.5,-0.8660254038\Bq,0,1.3634595226,-0.48
 29629131,-0.8660254038\Bq,0,1.48405,-0.4330127019,-0.8660254038\Bq,0,1
 .5876033906,-0.3535533906,-0.8660254038\Bq,0,1.6670627019,-0.25,-0.866
 0254038\Bq,0,1.7170129131,-0.1294095226,-0.8660254038\Bq,0,1.492869045
 1,0.,-0.9659258263\Bq,0,1.48405,0.0669872981,-0.9659258263\Bq,0,1.4581
 93868,0.1294095226,-0.9659258263\Bq,0,1.4170627019,0.1830127019,-0.965
 9258263\Bq,0,1.3634595226,0.224143868,-0.9659258263\Bq,0,1.3010372981,
 0.25,-0.9659258263\Bq,0,1.23405,0.2588190451,-0.9659258263\Bq,0,1.1670
 627019,0.25,-0.9659258263\Bq,0,1.1046404774,0.224143868,-0.9659258263\
 Bq,0,1.0510372981,0.1830127019,-0.9659258263\Bq,0,1.009906132,0.129409
 5226,-0.9659258263\Bq,0,0.98405,0.0669872981,-0.9659258263\Bq,0,0.9752
 309549,0.,-0.9659258263\Bq,0,0.98405,-0.0669872981,-0.9659258263\\Vers
 ion=ES64L-G09RevD.01\HF=-385.9859319\RMSD=7.836e-09\Dipole=0.,0.,0.\Qu
 adrupole=3.3018588,3.182998,-6.4848568,0.,0.,0.\PG=C01 [X(C10H8)]\\@


 IN THE LONG RUN, DIGGING FOR TRUTH HAS ALWAYS PROVED NOT ONLY 
 MORE INTERESTING BUT MORE PROFITABLE THAN DIGGING FOR GOLD.

                             -- GEORGE R. HARRISON
 Job cpu time:       0 days  0 hours 13 minutes 27.7 seconds.
 File lengths (MBytes):  RWF=     43 Int=      0 D2E=      0 Chk=      5 Scr=      1
 Normal termination of Gaussian 09 at Fri Sep 11 11:31:14 2020.
