 Entering Gaussian System, Link 0=g09
 Input=input_batch_01400.com
 Output=input_batch_01400.log
 Initial command:
 /share/programs/GAUSSIAN/64/g09/l1.exe "/scratch/yannick.36510/Gau-536525.inp" -scrdir="/scratch/yannick.36510/"
 Entering Link 1 = /share/programs/GAUSSIAN/64/g09/l1.exe PID=    536657.
  
 Copyright (c) 1988,1990,1992,1993,1995,1998,2003,2009,2013,
            Gaussian, Inc.  All Rights Reserved.
  
 This is part of the Gaussian(R) 09 program.  It is based on
 the Gaussian(R) 03 system (copyright 2003, Gaussian, Inc.),
 the Gaussian(R) 98 system (copyright 1998, Gaussian, Inc.),
 the Gaussian(R) 94 system (copyright 1995, Gaussian, Inc.),
 the Gaussian 92(TM) system (copyright 1992, Gaussian, Inc.),
 the Gaussian 90(TM) system (copyright 1990, Gaussian, Inc.),
 the Gaussian 88(TM) system (copyright 1988, Gaussian, Inc.),
 the Gaussian 86(TM) system (copyright 1986, Carnegie Mellon
 University), and the Gaussian 82(TM) system (copyright 1983,
 Carnegie Mellon University). Gaussian is a federally registered
 trademark of Gaussian, Inc.
  
 This software contains proprietary and confidential information,
 including trade secrets, belonging to Gaussian, Inc.
  
 This software is provided under written license and may be
 used, copied, transmitted, or stored only in accord with that
 written license.
  
 The following legend is applicable only to US Government
 contracts under FAR:
  
                    RESTRICTED RIGHTS LEGEND
  
 Use, reproduction and disclosure by the US Government is
 subject to restrictions as set forth in subparagraphs (a)
 and (c) of the Commercial Computer Software - Restricted
 Rights clause in FAR 52.227-19.
  
 Gaussian, Inc.
 340 Quinnipiac St., Bldg. 40, Wallingford CT 06492
  
  
 ---------------------------------------------------------------
 Warning -- This program may not be used in any manner that
 competes with the business of Gaussian, Inc. or will provide
 assistance to any competitor of Gaussian, Inc.  The licensee
 of this program is prohibited from giving any competitor of
 Gaussian, Inc. access to this program.  By using this program,
 the user acknowledges that Gaussian, Inc. is engaged in the
 business of creating and licensing software in the field of
 computational chemistry and represents and warrants to the
 licensee that it is not a competitor of Gaussian, Inc. and that
 it will not use this program in any manner prohibited above.
 ---------------------------------------------------------------
  

 Cite this work as:
 Gaussian 09, Revision D.01,
 M. J. Frisch, G. W. Trucks, H. B. Schlegel, G. E. Scuseria, 
 M. A. Robb, J. R. Cheeseman, G. Scalmani, V. Barone, B. Mennucci, 
 G. A. Petersson, H. Nakatsuji, M. Caricato, X. Li, H. P. Hratchian, 
 A. F. Izmaylov, J. Bloino, G. Zheng, J. L. Sonnenberg, M. Hada, 
 M. Ehara, K. Toyota, R. Fukuda, J. Hasegawa, M. Ishida, T. Nakajima, 
 Y. Honda, O. Kitao, H. Nakai, T. Vreven, J. A. Montgomery, Jr., 
 J. E. Peralta, F. Ogliaro, M. Bearpark, J. J. Heyd, E. Brothers, 
 K. N. Kudin, V. N. Staroverov, T. Keith, R. Kobayashi, J. Normand, 
 K. Raghavachari, A. Rendell, J. C. Burant, S. S. Iyengar, J. Tomasi, 
 M. Cossi, N. Rega, J. M. Millam, M. Klene, J. E. Knox, J. B. Cross, 
 V. Bakken, C. Adamo, J. Jaramillo, R. Gomperts, R. E. Stratmann, 
 O. Yazyev, A. J. Austin, R. Cammi, C. Pomelli, J. W. Ochterski, 
 R. L. Martin, K. Morokuma, V. G. Zakrzewski, G. A. Voth, 
 P. Salvador, J. J. Dannenberg, S. Dapprich, A. D. Daniels, 
 O. Farkas, J. B. Foresman, J. V. Ortiz, J. Cioslowski, 
 and D. J. Fox, Gaussian, Inc., Wallingford CT, 2013.
 
 ******************************************
 Gaussian 09:  ES64L-G09RevD.01 24-Apr-2013
                11-Sep-2020 
 ******************************************
 %nproc=8
 Will use up to    8 processors via shared memory.
 %mem=1000MB
 ----------------------------------------
 # rb3lyp/6-311+g** NMR geom=connectivity
 ----------------------------------------
 1/38=1,57=2/1;
 2/12=2,17=6,18=5,40=1/2;
 3/5=4,6=6,7=111,11=2,16=1,25=1,30=1,74=-5,116=1/1,2,8,3;
 4//1;
 5/5=2,38=5/2;
 8/6=1,10=90,11=11/1;
 10/13=100,45=16/2;
 6/7=2,8=2,9=2,10=2,28=1/1;
 99/9=1/99;
 -----
 Title
 -----
 Symbolic Z-matrix:
 Charge =  0 Multiplicity = 1
 C                     2.45076  -0.71174   0. 
 C                     2.45076   0.71174   0. 
 C                     1.25139   1.41137   0. 
 C                     0.        0.72289   0. 
 C                    -1.25139   1.41137   0. 
 C                    -2.45076   0.71174   0. 
 C                    -2.45076  -0.71174   0. 
 C                    -1.25139  -1.41137   0. 
 C                     0.       -0.72289   0. 
 C                     1.25139  -1.41137   0. 
 H                     3.40873  -1.25791   0. 
 H                     3.40873   1.25791   0. 
 H                     1.24972   2.51472   0. 
 H                    -1.24972   2.51472   0. 
 H                    -3.40873   1.25791   0. 
 H                    -3.40873  -1.25791   0. 
 H                    -1.24972  -2.51472   0. 
 H                     1.24972  -2.51472   0. 
 Bq                    0.       -0.72289   1. 
 Bq                    0.       -0.72289   1. 
 Bq                    0.       -0.72289   1. 
 Bq                    0.       -0.72289   1. 
 Bq                    0.       -0.72289   1. 
 Bq                    0.       -0.72289   1. 
 Bq                    0.       -0.72289   1. 
 Bq                    0.       -0.72289   1. 
 Bq                    0.       -0.72289   1. 
 Bq                    0.       -0.72289   1. 
 Bq                    0.       -0.72289   1. 
 Bq                    0.       -0.72289   1. 
 Bq                    0.       -0.72289   1. 
 Bq                    0.       -0.72289   1. 
 Bq                    0.       -0.72289   1. 
 Bq                    0.25882  -0.72289   0.96593 
 Bq                    0.25     -0.6559    0.96593 
 Bq                    0.22414  -0.59348   0.96593 
 Bq                    0.18301  -0.53988   0.96593 
 Bq                    0.12941  -0.49875   0.96593 
 Bq                    0.06699  -0.47289   0.96593 
 Bq                    0.       -0.46407   0.96593 
 Bq                   -0.06699  -0.47289   0.96593 
 Bq                   -0.12941  -0.49875   0.96593 
 Bq                   -0.18301  -0.53988   0.96593 
 Bq                   -0.22414  -0.59348   0.96593 
 Bq                   -0.25     -0.6559    0.96593 
 Bq                   -0.25882  -0.72289   0.96593 
 Bq                   -0.25     -0.78988   0.96593 
 Bq                   -0.22414  -0.8523    0.96593 
 Bq                   -0.18301  -0.9059    0.96593 
 Bq                   -0.12941  -0.94703   0.96593 
 Bq                   -0.06699  -0.97289   0.96593 
 Bq                    0.       -0.98171   0.96593 
 Bq                    0.06699  -0.97289   0.96593 
 Bq                    0.12941  -0.94703   0.96593 
 Bq                    0.18301  -0.9059    0.96593 
 Bq                    0.22414  -0.8523    0.96593 
 Bq                    0.25     -0.78988   0.96593 
 Bq                    0.5      -0.72289   0.86603 
 Bq                    0.48296  -0.59348   0.86603 
 Bq                    0.43301  -0.47289   0.86603 
 Bq                    0.35355  -0.36934   0.86603 
 Bq                    0.25     -0.28988   0.86603 
 Bq                    0.12941  -0.23993   0.86603 
 Bq                    0.       -0.22289   0.86603 
 Bq                   -0.12941  -0.23993   0.86603 
 Bq                   -0.25     -0.28988   0.86603 
 Bq                   -0.35355  -0.36934   0.86603 
 Bq                   -0.43301  -0.47289   0.86603 
 Bq                   -0.48296  -0.59348   0.86603 
 Bq                   -0.5      -0.72289   0.86603 
 Bq                   -0.48296  -0.8523    0.86603 
 Bq                   -0.43301  -0.97289   0.86603 
 Bq                   -0.35355  -1.07644   0.86603 
 Bq                   -0.25     -1.1559    0.86603 
 Bq                   -0.12941  -1.20585   0.86603 
 Bq                    0.       -1.22289   0.86603 
 Bq                    0.12941  -1.20585   0.86603 
 Bq                    0.25     -1.1559    0.86603 
 Bq                    0.35355  -1.07644   0.86603 
 Bq                    0.43301  -0.97289   0.86603 
 Bq                    0.48296  -0.8523    0.86603 
 Bq                    0.70711  -0.72289   0.70711 
 Bq                    0.68301  -0.53988   0.70711 
 Bq                    0.61237  -0.36934   0.70711 
 Bq                    0.5      -0.22289   0.70711 
 Bq                    0.35355  -0.11052   0.70711 
 Bq                    0.18301  -0.03988   0.70711 
 Bq                    0.       -0.01578   0.70711 
 Bq                   -0.18301  -0.03988   0.70711 
 Bq                   -0.35355  -0.11052   0.70711 
 Bq                   -0.5      -0.22289   0.70711 
 Bq                   -0.61237  -0.36934   0.70711 
 Bq                   -0.68301  -0.53988   0.70711 
 Bq                   -0.70711  -0.72289   0.70711 
 Bq                   -0.68301  -0.9059    0.70711 
 Bq                   -0.61237  -1.07644   0.70711 
 Bq                   -0.5      -1.22289   0.70711 
 Bq                   -0.35355  -1.33526   0.70711 
 Bq                   -0.18301  -1.4059    0.70711 
 Bq                    0.       -1.43      0.70711 
 Bq                    0.18301  -1.4059    0.70711 
 Bq                    0.35355  -1.33526   0.70711 
 Bq                    0.5      -1.22289   0.70711 
 Bq                    0.61237  -1.07644   0.70711 
 Bq                    0.68301  -0.9059    0.70711 
 Bq                   -0.22414  -1.55941   0.5 
 Bq                    0.       -1.58892   0.5 
 Bq                    0.22414  -1.55941   0.5 
 Bq                   -0.25     -1.6559    0.25882 
 Bq                    0.       -1.68882   0.25882 
 Bq                    0.25     -1.6559    0.25882 
 Bq                   -0.25882  -1.68882   0. 
 Bq                    0.       -1.72289   0. 
 Bq                    0.25882  -1.68882   0. 
 Bq                   -0.25     -1.6559   -0.25882 
 Bq                    0.       -1.68882  -0.25882 
 Bq                    0.25     -1.6559   -0.25882 
 Bq                   -0.22414  -1.55941  -0.5 
 Bq                    0.       -1.58892  -0.5 
 Bq                    0.22414  -1.55941  -0.5 
 Bq                    0.70711  -0.72289  -0.70711 
 Bq                    0.68301  -0.53988  -0.70711 
 Bq                    0.61237  -0.36934  -0.70711 
 Bq                    0.5      -0.22289  -0.70711 
 Bq                    0.35355  -0.11052  -0.70711 
 Bq                    0.18301  -0.03988  -0.70711 
 Bq                    0.       -0.01578  -0.70711 
 Bq                   -0.18301  -0.03988  -0.70711 
 Bq                   -0.35355  -0.11052  -0.70711 
 Bq                   -0.5      -0.22289  -0.70711 
 Bq                   -0.61237  -0.36934  -0.70711 
 Bq                   -0.68301  -0.53988  -0.70711 
 Bq                   -0.70711  -0.72289  -0.70711 
 Bq                   -0.68301  -0.9059   -0.70711 
 Bq                   -0.61237  -1.07644  -0.70711 
 Bq                   -0.5      -1.22289  -0.70711 
 Bq                   -0.35355  -1.33526  -0.70711 
 Bq                   -0.18301  -1.4059   -0.70711 
 Bq                    0.       -1.43     -0.70711 
 Bq                    0.18301  -1.4059   -0.70711 
 Bq                    0.35355  -1.33526  -0.70711 
 Bq                    0.5      -1.22289  -0.70711 
 Bq                    0.61237  -1.07644  -0.70711 
 Bq                    0.68301  -0.9059   -0.70711 
 Bq                    0.5      -0.72289  -0.86603 
 Bq                    0.48296  -0.59348  -0.86603 
 Bq                    0.43301  -0.47289  -0.86603 
 Bq                    0.35355  -0.36934  -0.86603 
 Bq                    0.25     -0.28988  -0.86603 
 Bq                    0.12941  -0.23993  -0.86603 
 Bq                    0.       -0.22289  -0.86603 
 Bq                   -0.12941  -0.23993  -0.86603 
 Bq                   -0.25     -0.28988  -0.86603 
 Bq                   -0.35355  -0.36934  -0.86603 
 Bq                   -0.43301  -0.47289  -0.86603 
 Bq                   -0.48296  -0.59348  -0.86603 
 Bq                   -0.5      -0.72289  -0.86603 
 Bq                   -0.48296  -0.8523   -0.86603 
 Bq                   -0.43301  -0.97289  -0.86603 
 Bq                   -0.35355  -1.07644  -0.86603 
 Bq                   -0.25     -1.1559   -0.86603 
 Bq                   -0.12941  -1.20585  -0.86603 
 Bq                    0.       -1.22289  -0.86603 
 Bq                    0.12941  -1.20585  -0.86603 
 Bq                    0.25     -1.1559   -0.86603 
 Bq                    0.35355  -1.07644  -0.86603 
 Bq                    0.43301  -0.97289  -0.86603 
 Bq                    0.48296  -0.8523   -0.86603 
 Bq                    0.25882  -0.72289  -0.96593 
 Bq                    0.25     -0.6559   -0.96593 
 Bq                    0.22414  -0.59348  -0.96593 
 Bq                    0.18301  -0.53988  -0.96593 
 Bq                    0.12941  -0.49875  -0.96593 
 Bq                    0.06699  -0.47289  -0.96593 
 Bq                    0.       -0.46407  -0.96593 
 Bq                   -0.06699  -0.47289  -0.96593 
 Bq                   -0.12941  -0.49875  -0.96593 
 Bq                   -0.18301  -0.53988  -0.96593 
 Bq                   -0.22414  -0.59348  -0.96593 
 Bq                   -0.25     -0.6559   -0.96593 
 Bq                   -0.25882  -0.72289  -0.96593 
 Bq                   -0.25     -0.78988  -0.96593 
 Bq                   -0.22414  -0.8523   -0.96593 
 Bq                   -0.18301  -0.9059   -0.96593 
 Bq                   -0.12941  -0.94703  -0.96593 
 Bq                   -0.06699  -0.97289  -0.96593 
 Bq                    0.       -0.98171  -0.96593 
 Bq                    0.06699  -0.97289  -0.96593 
 Bq                    0.12941  -0.94703  -0.96593 
 Bq                    0.18301  -0.9059   -0.96593 
 Bq                    0.22414  -0.8523   -0.96593 
 Bq                    0.25     -0.78988  -0.96593 
 Bq                    1.25139  -1.41137   1. 
 Bq                    1.25139  -1.41137   1. 
 Bq                    1.25139  -1.41137   1. 
 Bq                    1.25139  -1.41137   1. 
 Bq                    1.25139  -1.41137   1. 
 Bq                    1.25139  -1.41137   1. 
 Bq                    1.25139  -1.41137   1. 
 Bq                    1.25139  -1.41137   1. 
 Bq                    1.25139  -1.41137   1. 
 Bq                    1.25139  -1.41137   1. 
 Bq                    1.25139  -1.41137   1. 
 Bq                    1.25139  -1.41137   1. 
 Bq                    1.25139  -1.41137   1. 
 Bq                    1.25139  -1.41137   1. 
 Bq                    1.25139  -1.41137   1. 
 Bq                    1.25139  -1.41137   1. 
 Bq                    1.25139  -1.41137   1. 
 Bq                    1.25139  -1.41137   1. 
 Bq                    1.25139  -1.41137   1. 
 Bq                    1.25139  -1.41137   1. 
 Bq                    1.25139  -1.41137   1. 
 Bq                    1.25139  -1.41137   1. 
 Bq                    1.25139  -1.41137   1. 
 Bq                    1.25139  -1.41137   1. 
 Bq                    1.51021  -1.41137   0.96593 
 Bq                    1.50139  -1.34438   0.96593 
 
 Symmetry turned off:
 Cannot cope with ghost atoms or with translation vectors.
 Stoichiometry    C10H8
 Framework group  C1[X(C10H8)]
 NUMDOF-- NAT=    18 NAtoms=   218
 Deg. of freedom     0
 Full point group                 C1      NOp   1
                          Input orientation:                          
 ---------------------------------------------------------------------
 Center     Atomic      Atomic             Coordinates (Angstroms)
 Number     Number       Type             X           Y           Z
 ---------------------------------------------------------------------
      1          6           0        2.450760   -0.711740    0.000000
      2          6           0        2.450760    0.711740    0.000000
      3          6           0        1.251390    1.411370    0.000000
      4          6           0        0.000000    0.722890    0.000000
      5          6           0       -1.251390    1.411370    0.000000
      6          6           0       -2.450760    0.711740    0.000000
      7          6           0       -2.450760   -0.711740    0.000000
      8          6           0       -1.251390   -1.411370    0.000000
      9          6           0        0.000000   -0.722890    0.000000
     10          6           0        1.251390   -1.411370    0.000000
     11          1           0        3.408730   -1.257910    0.000000
     12          1           0        3.408730    1.257910    0.000000
     13          1           0        1.249720    2.514720    0.000000
     14          1           0       -1.249720    2.514720    0.000000
     15          1           0       -3.408730    1.257910    0.000000
     16          1           0       -3.408730   -1.257910    0.000000
     17          1           0       -1.249720   -2.514720    0.000000
     18          1           0        1.249720   -2.514720    0.000000
     19          0           0        0.000000   -0.722890    1.000000
     20          0           0        0.000000   -0.722890    1.000000
     21          0           0        0.000000   -0.722890    1.000000
     22          0           0        0.000000   -0.722890    1.000000
     23          0           0        0.000000   -0.722890    1.000000
     24          0           0        0.000000   -0.722890    1.000000
     25          0           0        0.000000   -0.722890    1.000000
     26          0           0        0.000000   -0.722890    1.000000
     27          0           0        0.000000   -0.722890    1.000000
     28          0           0        0.000000   -0.722890    1.000000
     29          0           0        0.000000   -0.722890    1.000000
     30          0           0        0.000000   -0.722890    1.000000
     31          0           0        0.000000   -0.722890    1.000000
     32          0           0        0.000000   -0.722890    1.000000
     33          0           0        0.000000   -0.722890    1.000000
     34          0           0        0.258819   -0.722890    0.965926
     35          0           0        0.250000   -0.655903    0.965926
     36          0           0        0.224144   -0.593480    0.965926
     37          0           0        0.183013   -0.539877    0.965926
     38          0           0        0.129410   -0.498746    0.965926
     39          0           0        0.066987   -0.472890    0.965926
     40          0           0        0.000000   -0.464071    0.965926
     41          0           0       -0.066987   -0.472890    0.965926
     42          0           0       -0.129410   -0.498746    0.965926
     43          0           0       -0.183013   -0.539877    0.965926
     44          0           0       -0.224144   -0.593480    0.965926
     45          0           0       -0.250000   -0.655903    0.965926
     46          0           0       -0.258819   -0.722890    0.965926
     47          0           0       -0.250000   -0.789877    0.965926
     48          0           0       -0.224144   -0.852300    0.965926
     49          0           0       -0.183013   -0.905903    0.965926
     50          0           0       -0.129410   -0.947034    0.965926
     51          0           0       -0.066987   -0.972890    0.965926
     52          0           0        0.000000   -0.981709    0.965926
     53          0           0        0.066987   -0.972890    0.965926
     54          0           0        0.129410   -0.947034    0.965926
     55          0           0        0.183013   -0.905903    0.965926
     56          0           0        0.224144   -0.852300    0.965926
     57          0           0        0.250000   -0.789877    0.965926
     58          0           0        0.500000   -0.722890    0.866025
     59          0           0        0.482963   -0.593480    0.866025
     60          0           0        0.433013   -0.472890    0.866025
     61          0           0        0.353553   -0.369337    0.866025
     62          0           0        0.250000   -0.289877    0.866025
     63          0           0        0.129410   -0.239927    0.866025
     64          0           0        0.000000   -0.222890    0.866025
     65          0           0       -0.129410   -0.239927    0.866025
     66          0           0       -0.250000   -0.289877    0.866025
     67          0           0       -0.353553   -0.369337    0.866025
     68          0           0       -0.433013   -0.472890    0.866025
     69          0           0       -0.482963   -0.593480    0.866025
     70          0           0       -0.500000   -0.722890    0.866025
     71          0           0       -0.482963   -0.852300    0.866025
     72          0           0       -0.433013   -0.972890    0.866025
     73          0           0       -0.353553   -1.076443    0.866025
     74          0           0       -0.250000   -1.155903    0.866025
     75          0           0       -0.129410   -1.205853    0.866025
     76          0           0        0.000000   -1.222890    0.866025
     77          0           0        0.129410   -1.205853    0.866025
     78          0           0        0.250000   -1.155903    0.866025
     79          0           0        0.353553   -1.076443    0.866025
     80          0           0        0.433013   -0.972890    0.866025
     81          0           0        0.482963   -0.852300    0.866025
     82          0           0        0.707107   -0.722890    0.707107
     83          0           0        0.683013   -0.539877    0.707107
     84          0           0        0.612372   -0.369337    0.707107
     85          0           0        0.500000   -0.222890    0.707107
     86          0           0        0.353553   -0.110518    0.707107
     87          0           0        0.183013   -0.039877    0.707107
     88          0           0        0.000000   -0.015783    0.707107
     89          0           0       -0.183013   -0.039877    0.707107
     90          0           0       -0.353553   -0.110518    0.707107
     91          0           0       -0.500000   -0.222890    0.707107
     92          0           0       -0.612372   -0.369337    0.707107
     93          0           0       -0.683013   -0.539877    0.707107
     94          0           0       -0.707107   -0.722890    0.707107
     95          0           0       -0.683013   -0.905903    0.707107
     96          0           0       -0.612372   -1.076443    0.707107
     97          0           0       -0.500000   -1.222890    0.707107
     98          0           0       -0.353553   -1.335262    0.707107
     99          0           0       -0.183013   -1.405903    0.707107
    100          0           0        0.000000   -1.429997    0.707107
    101          0           0        0.183013   -1.405903    0.707107
    102          0           0        0.353553   -1.335262    0.707107
    103          0           0        0.500000   -1.222890    0.707107
    104          0           0        0.612372   -1.076443    0.707107
    105          0           0        0.683013   -0.905903    0.707107
    106          0           0       -0.224144   -1.559406    0.500000
    107          0           0        0.000000   -1.588915    0.500000
    108          0           0        0.224144   -1.559406    0.500000
    109          0           0       -0.250000   -1.655903    0.258819
    110          0           0        0.000000   -1.688816    0.258819
    111          0           0        0.250000   -1.655903    0.258819
    112          0           0       -0.258819   -1.688816    0.000000
    113          0           0        0.000000   -1.722890    0.000000
    114          0           0        0.258819   -1.688816    0.000000
    115          0           0       -0.250000   -1.655903   -0.258819
    116          0           0        0.000000   -1.688816   -0.258819
    117          0           0        0.250000   -1.655903   -0.258819
    118          0           0       -0.224144   -1.559406   -0.500000
    119          0           0        0.000000   -1.588915   -0.500000
    120          0           0        0.224144   -1.559406   -0.500000
    121          0           0        0.707107   -0.722890   -0.707107
    122          0           0        0.683013   -0.539877   -0.707107
    123          0           0        0.612372   -0.369337   -0.707107
    124          0           0        0.500000   -0.222890   -0.707107
    125          0           0        0.353553   -0.110518   -0.707107
    126          0           0        0.183013   -0.039877   -0.707107
    127          0           0        0.000000   -0.015783   -0.707107
    128          0           0       -0.183013   -0.039877   -0.707107
    129          0           0       -0.353553   -0.110518   -0.707107
    130          0           0       -0.500000   -0.222890   -0.707107
    131          0           0       -0.612372   -0.369337   -0.707107
    132          0           0       -0.683013   -0.539877   -0.707107
    133          0           0       -0.707107   -0.722890   -0.707107
    134          0           0       -0.683013   -0.905903   -0.707107
    135          0           0       -0.612372   -1.076443   -0.707107
    136          0           0       -0.500000   -1.222890   -0.707107
    137          0           0       -0.353553   -1.335262   -0.707107
    138          0           0       -0.183013   -1.405903   -0.707107
    139          0           0        0.000000   -1.429997   -0.707107
    140          0           0        0.183013   -1.405903   -0.707107
    141          0           0        0.353553   -1.335262   -0.707107
    142          0           0        0.500000   -1.222890   -0.707107
    143          0           0        0.612372   -1.076443   -0.707107
    144          0           0        0.683013   -0.905903   -0.707107
    145          0           0        0.500000   -0.722890   -0.866025
    146          0           0        0.482963   -0.593480   -0.866025
    147          0           0        0.433013   -0.472890   -0.866025
    148          0           0        0.353553   -0.369337   -0.866025
    149          0           0        0.250000   -0.289877   -0.866025
    150          0           0        0.129410   -0.239927   -0.866025
    151          0           0        0.000000   -0.222890   -0.866025
    152          0           0       -0.129410   -0.239927   -0.866025
    153          0           0       -0.250000   -0.289877   -0.866025
    154          0           0       -0.353553   -0.369337   -0.866025
    155          0           0       -0.433013   -0.472890   -0.866025
    156          0           0       -0.482963   -0.593480   -0.866025
    157          0           0       -0.500000   -0.722890   -0.866025
    158          0           0       -0.482963   -0.852300   -0.866025
    159          0           0       -0.433013   -0.972890   -0.866025
    160          0           0       -0.353553   -1.076443   -0.866025
    161          0           0       -0.250000   -1.155903   -0.866025
    162          0           0       -0.129410   -1.205853   -0.866025
    163          0           0        0.000000   -1.222890   -0.866025
    164          0           0        0.129410   -1.205853   -0.866025
    165          0           0        0.250000   -1.155903   -0.866025
    166          0           0        0.353553   -1.076443   -0.866025
    167          0           0        0.433013   -0.972890   -0.866025
    168          0           0        0.482963   -0.852300   -0.866025
    169          0           0        0.258819   -0.722890   -0.965926
    170          0           0        0.250000   -0.655903   -0.965926
    171          0           0        0.224144   -0.593480   -0.965926
    172          0           0        0.183013   -0.539877   -0.965926
    173          0           0        0.129410   -0.498746   -0.965926
    174          0           0        0.066987   -0.472890   -0.965926
    175          0           0        0.000000   -0.464071   -0.965926
    176          0           0       -0.066987   -0.472890   -0.965926
    177          0           0       -0.129410   -0.498746   -0.965926
    178          0           0       -0.183013   -0.539877   -0.965926
    179          0           0       -0.224144   -0.593480   -0.965926
    180          0           0       -0.250000   -0.655903   -0.965926
    181          0           0       -0.258819   -0.722890   -0.965926
    182          0           0       -0.250000   -0.789877   -0.965926
    183          0           0       -0.224144   -0.852300   -0.965926
    184          0           0       -0.183013   -0.905903   -0.965926
    185          0           0       -0.129410   -0.947034   -0.965926
    186          0           0       -0.066987   -0.972890   -0.965926
    187          0           0        0.000000   -0.981709   -0.965926
    188          0           0        0.066987   -0.972890   -0.965926
    189          0           0        0.129410   -0.947034   -0.965926
    190          0           0        0.183013   -0.905903   -0.965926
    191          0           0        0.224144   -0.852300   -0.965926
    192          0           0        0.250000   -0.789877   -0.965926
    193          0           0        1.251390   -1.411370    1.000000
    194          0           0        1.251390   -1.411370    1.000000
    195          0           0        1.251390   -1.411370    1.000000
    196          0           0        1.251390   -1.411370    1.000000
    197          0           0        1.251390   -1.411370    1.000000
    198          0           0        1.251390   -1.411370    1.000000
    199          0           0        1.251390   -1.411370    1.000000
    200          0           0        1.251390   -1.411370    1.000000
    201          0           0        1.251390   -1.411370    1.000000
    202          0           0        1.251390   -1.411370    1.000000
    203          0           0        1.251390   -1.411370    1.000000
    204          0           0        1.251390   -1.411370    1.000000
    205          0           0        1.251390   -1.411370    1.000000
    206          0           0        1.251390   -1.411370    1.000000
    207          0           0        1.251390   -1.411370    1.000000
    208          0           0        1.251390   -1.411370    1.000000
    209          0           0        1.251390   -1.411370    1.000000
    210          0           0        1.251390   -1.411370    1.000000
    211          0           0        1.251390   -1.411370    1.000000
    212          0           0        1.251390   -1.411370    1.000000
    213          0           0        1.251390   -1.411370    1.000000
    214          0           0        1.251390   -1.411370    1.000000
    215          0           0        1.251390   -1.411370    1.000000
    216          0           0        1.251390   -1.411370    1.000000
    217          0           0        1.510209   -1.411370    0.965926
    218          0           0        1.501390   -1.344383    0.965926
 ---------------------------------------------------------------------
 Rotational constants (GHZ):      3.0751358      1.2130944      0.8699230
 Standard basis: 6-311+G(d,p) (5D, 7F)
 Warning:  center  19 has no basis functions!
 Warning:  center  20 has no basis functions!
 Warning:  center  21 has no basis functions!
 Warning:  center  22 has no basis functions!
 Warning:  center  23 has no basis functions!
 Warning:  center  24 has no basis functions!
 Warning:  center  25 has no basis functions!
 Warning:  center  26 has no basis functions!
 Warning:  center  27 has no basis functions!
 Warning:  center  28 has no basis functions!
 Warning:  center  29 has no basis functions!
 Warning:  center  30 has no basis functions!
 Warning:  center  31 has no basis functions!
 Warning:  center  32 has no basis functions!
 Warning:  center  33 has no basis functions!
 Warning:  center  34 has no basis functions!
 Warning:  center  35 has no basis functions!
 Warning:  center  36 has no basis functions!
 Warning:  center  37 has no basis functions!
 Warning:  center  38 has no basis functions!
 Warning:  center  39 has no basis functions!
 Warning:  center  40 has no basis functions!
 Warning:  center  41 has no basis functions!
 Warning:  center  42 has no basis functions!
 Warning:  center  43 has no basis functions!
 Warning:  center  44 has no basis functions!
 Warning:  center  45 has no basis functions!
 Warning:  center  46 has no basis functions!
 Warning:  center  47 has no basis functions!
 Warning:  center  48 has no basis functions!
 Warning:  center  49 has no basis functions!
 Warning:  center  50 has no basis functions!
 Warning:  center  51 has no basis functions!
 Warning:  center  52 has no basis functions!
 Warning:  center  53 has no basis functions!
 Warning:  center  54 has no basis functions!
 Warning:  center  55 has no basis functions!
 Warning:  center  56 has no basis functions!
 Warning:  center  57 has no basis functions!
 Warning:  center  58 has no basis functions!
 Warning:  center  59 has no basis functions!
 Warning:  center  60 has no basis functions!
 Warning:  center  61 has no basis functions!
 Warning:  center  62 has no basis functions!
 Warning:  center  63 has no basis functions!
 Warning:  center  64 has no basis functions!
 Warning:  center  65 has no basis functions!
 Warning:  center  66 has no basis functions!
 Warning:  center  67 has no basis functions!
 Warning:  center  68 has no basis functions!
 Warning:  center  69 has no basis functions!
 Warning:  center  70 has no basis functions!
 Warning:  center  71 has no basis functions!
 Warning:  center  72 has no basis functions!
 Warning:  center  73 has no basis functions!
 Warning:  center  74 has no basis functions!
 Warning:  center  75 has no basis functions!
 Warning:  center  76 has no basis functions!
 Warning:  center  77 has no basis functions!
 Warning:  center  78 has no basis functions!
 Warning:  center  79 has no basis functions!
 Warning:  center  80 has no basis functions!
 Warning:  center  81 has no basis functions!
 Warning:  center  82 has no basis functions!
 Warning:  center  83 has no basis functions!
 Warning:  center  84 has no basis functions!
 Warning:  center  85 has no basis functions!
 Warning:  center  86 has no basis functions!
 Warning:  center  87 has no basis functions!
 Warning:  center  88 has no basis functions!
 Warning:  center  89 has no basis functions!
 Warning:  center  90 has no basis functions!
 Warning:  center  91 has no basis functions!
 Warning:  center  92 has no basis functions!
 Warning:  center  93 has no basis functions!
 Warning:  center  94 has no basis functions!
 Warning:  center  95 has no basis functions!
 Warning:  center  96 has no basis functions!
 Warning:  center  97 has no basis functions!
 Warning:  center  98 has no basis functions!
 Warning:  center  99 has no basis functions!
 Warning:  center 100 has no basis functions!
 Warning:  center 101 has no basis functions!
 Warning:  center 102 has no basis functions!
 Warning:  center 103 has no basis functions!
 Warning:  center 104 has no basis functions!
 Warning:  center 105 has no basis functions!
 Warning:  center 106 has no basis functions!
 Warning:  center 107 has no basis functions!
 Warning:  center 108 has no basis functions!
 Warning:  center 109 has no basis functions!
 Warning:  center 110 has no basis functions!
 Warning:  center 111 has no basis functions!
 Warning:  center 112 has no basis functions!
 Warning:  center 113 has no basis functions!
 Warning:  center 114 has no basis functions!
 Warning:  center 115 has no basis functions!
 Warning:  center 116 has no basis functions!
 Warning:  center 117 has no basis functions!
 Warning:  center 118 has no basis functions!
 Warning:  center 119 has no basis functions!
 Warning:  center 120 has no basis functions!
 Warning:  center 121 has no basis functions!
 Warning:  center 122 has no basis functions!
 Warning:  center 123 has no basis functions!
 Warning:  center 124 has no basis functions!
 Warning:  center 125 has no basis functions!
 Warning:  center 126 has no basis functions!
 Warning:  center 127 has no basis functions!
 Warning:  center 128 has no basis functions!
 Warning:  center 129 has no basis functions!
 Warning:  center 130 has no basis functions!
 Warning:  center 131 has no basis functions!
 Warning:  center 132 has no basis functions!
 Warning:  center 133 has no basis functions!
 Warning:  center 134 has no basis functions!
 Warning:  center 135 has no basis functions!
 Warning:  center 136 has no basis functions!
 Warning:  center 137 has no basis functions!
 Warning:  center 138 has no basis functions!
 Warning:  center 139 has no basis functions!
 Warning:  center 140 has no basis functions!
 Warning:  center 141 has no basis functions!
 Warning:  center 142 has no basis functions!
 Warning:  center 143 has no basis functions!
 Warning:  center 144 has no basis functions!
 Warning:  center 145 has no basis functions!
 Warning:  center 146 has no basis functions!
 Warning:  center 147 has no basis functions!
 Warning:  center 148 has no basis functions!
 Warning:  center 149 has no basis functions!
 Warning:  center 150 has no basis functions!
 Warning:  center 151 has no basis functions!
 Warning:  center 152 has no basis functions!
 Warning:  center 153 has no basis functions!
 Warning:  center 154 has no basis functions!
 Warning:  center 155 has no basis functions!
 Warning:  center 156 has no basis functions!
 Warning:  center 157 has no basis functions!
 Warning:  center 158 has no basis functions!
 Warning:  center 159 has no basis functions!
 Warning:  center 160 has no basis functions!
 Warning:  center 161 has no basis functions!
 Warning:  center 162 has no basis functions!
 Warning:  center 163 has no basis functions!
 Warning:  center 164 has no basis functions!
 Warning:  center 165 has no basis functions!
 Warning:  center 166 has no basis functions!
 Warning:  center 167 has no basis functions!
 Warning:  center 168 has no basis functions!
 Warning:  center 169 has no basis functions!
 Warning:  center 170 has no basis functions!
 Warning:  center 171 has no basis functions!
 Warning:  center 172 has no basis functions!
 Warning:  center 173 has no basis functions!
 Warning:  center 174 has no basis functions!
 Warning:  center 175 has no basis functions!
 Warning:  center 176 has no basis functions!
 Warning:  center 177 has no basis functions!
 Warning:  center 178 has no basis functions!
 Warning:  center 179 has no basis functions!
 Warning:  center 180 has no basis functions!
 Warning:  center 181 has no basis functions!
 Warning:  center 182 has no basis functions!
 Warning:  center 183 has no basis functions!
 Warning:  center 184 has no basis functions!
 Warning:  center 185 has no basis functions!
 Warning:  center 186 has no basis functions!
 Warning:  center 187 has no basis functions!
 Warning:  center 188 has no basis functions!
 Warning:  center 189 has no basis functions!
 Warning:  center 190 has no basis functions!
 Warning:  center 191 has no basis functions!
 Warning:  center 192 has no basis functions!
 Warning:  center 193 has no basis functions!
 Warning:  center 194 has no basis functions!
 Warning:  center 195 has no basis functions!
 Warning:  center 196 has no basis functions!
 Warning:  center 197 has no basis functions!
 Warning:  center 198 has no basis functions!
 Warning:  center 199 has no basis functions!
 Warning:  center 200 has no basis functions!
 Warning:  center 201 has no basis functions!
 Warning:  center 202 has no basis functions!
 Warning:  center 203 has no basis functions!
 Warning:  center 204 has no basis functions!
 Warning:  center 205 has no basis functions!
 Warning:  center 206 has no basis functions!
 Warning:  center 207 has no basis functions!
 Warning:  center 208 has no basis functions!
 Warning:  center 209 has no basis functions!
 Warning:  center 210 has no basis functions!
 Warning:  center 211 has no basis functions!
 Warning:  center 212 has no basis functions!
 Warning:  center 213 has no basis functions!
 Warning:  center 214 has no basis functions!
 Warning:  center 215 has no basis functions!
 Warning:  center 216 has no basis functions!
 Warning:  center 217 has no basis functions!
 Warning:  center 218 has no basis functions!
   268 basis functions,   424 primitive gaussians,   278 cartesian basis functions
    34 alpha electrons       34 beta electrons
       nuclear repulsion energy       453.8675371600 Hartrees.
 NAtoms=  218 NActive=  218 NUniq=  218 SFac= 1.00D+00 NAtFMM=   60 NAOKFM=T Big=T
 Integral buffers will be    131072 words long.
 Raffenetti 2 integral format.
 Two-electron integral symmetry is turned off.
 One-electron integrals computed using PRISM.
 NBasis=   268 RedAO= T EigKep=  1.12D-06  NBF=   268
 NBsUse=   267 1.00D-06 EigRej=  6.14D-07 NBFU=   267
 ExpMin= 4.38D-02 ExpMax= 4.56D+03 ExpMxC= 6.82D+02 IAcc=2 IRadAn=         4 AccDes= 0.00D+00
 Harris functional with IExCor=  402 and IRadAn=       4 diagonalized for initial guess.
 HarFok:  IExCor=  402 AccDes= 0.00D+00 IRadAn=         4 IDoV= 1 UseB2=F ITyADJ=14
 ICtDFT=  3500011 ScaDFX=  1.000000  1.000000  1.000000  1.000000
 FoFCou: FMM=F IPFlag=           0 FMFlag=      100000 FMFlg1=        2001
         NFxFlg=           0 DoJE=T BraDBF=F KetDBF=T FulRan=T
         wScrn=  0.000000 ICntrl=     500 IOpCl=  0 I1Cent=   200000004 NGrid=           0
         NMat0=    1 NMatS0=      1 NMatT0=    0 NMatD0=    1 NMtDS0=    0 NMtDT0=    0
 Symmetry not used in FoFCou.
 Requested convergence on RMS density matrix=1.00D-08 within 128 cycles.
 Requested convergence on MAX density matrix=1.00D-06.
 Requested convergence on             energy=1.00D-06.
 No special actions if energy rises.
 SCF Done:  E(RB3LYP) =  -385.985931946     A.U. after   11 cycles
            NFock= 11  Conv=0.78D-08     -V/T= 2.0059
 DoSCS=F DFT=T ScalE2(SS,OS)=  1.000000  1.000000
 Range of M.O.s used for correlation:     1   267
 NBasis=   268 NAE=    34 NBE=    34 NFC=     0 NFV=     0
 NROrb=    267 NOA=    34 NOB=    34 NVA=   233 NVB=   233

 **** Warning!!: The largest alpha MO coefficient is  0.20992189D+03

          Differentiating once with respect to magnetic field using GIAOs.
          Electric field/nuclear overlap derivatives assumed to be zero.
 FoFCou: FMM=F IPFlag=           0 FMFlag=      100000 FMFlg1=        2001
         NFxFlg=           0 DoJE=F BraDBF=F KetDBF=T FulRan=T
         wScrn=  0.000000 ICntrl=    6100 IOpCl=  0 I1Cent=           7 NGrid=         218
         NMat0=    1 NMatS0=      1 NMatT0=    0 NMatD0=    1 NMtDS0=    0 NMtDT0=    0
 Symmetry not used in FoFCou.
 FoFJK:  IHMeth= 1 ICntrl=    6127 DoSepK=F KAlg= 0 I1Cent=   0 FoldK=F
 IRaf=         1 NMat=   1 IRICut=       1 DoRegI=T DoRafI=F ISym2E= 0.
          There are     3 degrees of freedom in the 1st order CPHF.  IDoFFX=0 NUNeed=     3.
      3 vectors produced by pass  0 Test12= 2.64D-13 3.33D-08 XBig12= 1.44D+02 6.48D+00.
 AX will form     3 AO Fock derivatives at one time.
      3 vectors produced by pass  1 Test12= 2.64D-13 3.33D-08 XBig12= 2.28D-01 1.79D-01.
      3 vectors produced by pass  2 Test12= 2.64D-13 3.33D-08 XBig12= 7.58D-04 1.41D-02.
      3 vectors produced by pass  3 Test12= 2.64D-13 3.33D-08 XBig12= 2.19D-06 6.12D-04.
      3 vectors produced by pass  4 Test12= 2.64D-13 3.33D-08 XBig12= 2.99D-09 2.39D-05.
      3 vectors produced by pass  5 Test12= 2.64D-13 3.33D-08 XBig12= 6.15D-12 9.51D-07.
      1 vectors produced by pass  6 Test12= 2.64D-13 3.33D-08 XBig12= 9.29D-15 3.79D-08.
 InvSVY:  IOpt=1 It=  1 EMax= 1.78D-15
 Solved reduced A of dimension    19 with     3 vectors.
 Calculating GIAO nuclear magnetic shielding tensors.
 SCF GIAO Magnetic shielding tensor (ppm):
      1  C    Isotropic =    48.8814   Anisotropy =   178.3631
   XX=   -26.3877   YX=    47.3635   ZX=     0.0000
   XY=    49.5434   YY=     5.2417   ZY=     0.0000
   XZ=     0.0000   YZ=     0.0000   ZZ=   167.7901
   Eigenvalues:   -61.5420    40.3960   167.7901
      2  C    Isotropic =    48.8814   Anisotropy =   178.3631
   XX=   -26.3877   YX=   -47.3635   ZX=     0.0000
   XY=   -49.5434   YY=     5.2417   ZY=     0.0000
   XZ=     0.0000   YZ=     0.0000   ZZ=   167.7901
   Eigenvalues:   -61.5420    40.3960   167.7901
      3  C    Isotropic =    47.0315   Anisotropy =   159.6105
   XX=    39.7012   YX=   -14.9645   ZX=     0.0000
   XY=   -12.8373   YY=   -52.0452   ZY=     0.0000
   XZ=     0.0000   YZ=     0.0000   ZZ=   153.4385
   Eigenvalues:   -54.1051    41.7611   153.4385
      4  C    Isotropic =    40.3220   Anisotropy =   214.7654
   XX=   -33.3511   YX=     0.0000   ZX=     0.0000
   XY=     0.0000   YY=   -29.1819   ZY=     0.0000
   XZ=     0.0000   YZ=     0.0000   ZZ=   183.4989
   Eigenvalues:   -33.3511   -29.1819   183.4989
      5  C    Isotropic =    47.0315   Anisotropy =   159.6105
   XX=    39.7012   YX=    14.9645   ZX=     0.0000
   XY=    12.8373   YY=   -52.0452   ZY=     0.0000
   XZ=     0.0000   YZ=     0.0000   ZZ=   153.4385
   Eigenvalues:   -54.1051    41.7611   153.4385
      6  C    Isotropic =    48.8814   Anisotropy =   178.3631
   XX=   -26.3877   YX=    47.3635   ZX=     0.0000
   XY=    49.5434   YY=     5.2417   ZY=     0.0000
   XZ=     0.0000   YZ=     0.0000   ZZ=   167.7901
   Eigenvalues:   -61.5420    40.3960   167.7901
      7  C    Isotropic =    48.8814   Anisotropy =   178.3631
   XX=   -26.3877   YX=   -47.3635   ZX=     0.0000
   XY=   -49.5434   YY=     5.2417   ZY=     0.0000
   XZ=     0.0000   YZ=     0.0000   ZZ=   167.7901
   Eigenvalues:   -61.5420    40.3960   167.7901
      8  C    Isotropic =    47.0315   Anisotropy =   159.6105
   XX=    39.7012   YX=   -14.9645   ZX=     0.0000
   XY=   -12.8373   YY=   -52.0452   ZY=     0.0000
   XZ=     0.0000   YZ=     0.0000   ZZ=   153.4385
   Eigenvalues:   -54.1051    41.7611   153.4385
      9  C    Isotropic =    40.3220   Anisotropy =   214.7654
   XX=   -33.3511   YX=     0.0000   ZX=     0.0000
   XY=     0.0000   YY=   -29.1819   ZY=     0.0000
   XZ=     0.0000   YZ=     0.0000   ZZ=   183.4989
   Eigenvalues:   -33.3511   -29.1819   183.4989
     10  C    Isotropic =    47.0315   Anisotropy =   159.6105
   XX=    39.7012   YX=    14.9645   ZX=     0.0000
   XY=    12.8373   YY=   -52.0452   ZY=     0.0000
   XZ=     0.0000   YZ=     0.0000   ZZ=   153.4385
   Eigenvalues:   -54.1051    41.7611   153.4385
     11  H    Isotropic =    23.8865   Anisotropy =     5.6622
   XX=    25.3494   YX=     1.7328   ZX=     0.0000
   XY=     1.7216   YY=    26.3711   ZY=     0.0000
   XZ=     0.0000   YZ=     0.0000   ZZ=    19.9391
   Eigenvalues:    19.9391    24.0591    27.6614
     12  H    Isotropic =    23.8865   Anisotropy =     5.6622
   XX=    25.3494   YX=    -1.7328   ZX=     0.0000
   XY=    -1.7216   YY=    26.3711   ZY=     0.0000
   XZ=     0.0000   YZ=     0.0000   ZZ=    19.9391
   Eigenvalues:    19.9391    24.0591    27.6614
     13  H    Isotropic =    23.5289   Anisotropy =     7.4859
   XX=    28.4698   YX=    -0.2957   ZX=     0.0000
   XY=    -0.7473   YY=    23.0511   ZY=     0.0000
   XZ=     0.0000   YZ=     0.0000   ZZ=    19.0659
   Eigenvalues:    19.0659    23.0014    28.5196
     14  H    Isotropic =    23.5289   Anisotropy =     7.4859
   XX=    28.4698   YX=     0.2957   ZX=     0.0000
   XY=     0.7473   YY=    23.0511   ZY=     0.0000
   XZ=     0.0000   YZ=     0.0000   ZZ=    19.0659
   Eigenvalues:    19.0659    23.0014    28.5196
     15  H    Isotropic =    23.8865   Anisotropy =     5.6622
   XX=    25.3494   YX=     1.7328   ZX=     0.0000
   XY=     1.7216   YY=    26.3711   ZY=     0.0000
   XZ=     0.0000   YZ=     0.0000   ZZ=    19.9391
   Eigenvalues:    19.9391    24.0591    27.6614
     16  H    Isotropic =    23.8865   Anisotropy =     5.6622
   XX=    25.3494   YX=    -1.7328   ZX=     0.0000
   XY=    -1.7216   YY=    26.3711   ZY=     0.0000
   XZ=     0.0000   YZ=     0.0000   ZZ=    19.9391
   Eigenvalues:    19.9391    24.0591    27.6614
     17  H    Isotropic =    23.5289   Anisotropy =     7.4859
   XX=    28.4698   YX=    -0.2957   ZX=     0.0000
   XY=    -0.7473   YY=    23.0511   ZY=     0.0000
   XZ=     0.0000   YZ=     0.0000   ZZ=    19.0659
   Eigenvalues:    19.0659    23.0014    28.5196
     18  H    Isotropic =    23.5289   Anisotropy =     7.4859
   XX=    28.4698   YX=     0.2957   ZX=     0.0000
   XY=     0.7473   YY=    23.0511   ZY=     0.0000
   XZ=     0.0000   YZ=     0.0000   ZZ=    19.0659
   Eigenvalues:    19.0659    23.0014    28.5196
     19  Bq   Isotropic =    16.4896   Anisotropy =    27.6489
   XX=     9.4604   YX=     0.0000   ZX=     0.0000
   XY=     0.0000   YY=     7.1291   ZY=    -0.4118
   XZ=     0.0000   YZ=   -14.6584   ZZ=    32.8793
   Eigenvalues:     5.0863     9.4604    34.9222
     20  Bq   Isotropic =    16.4896   Anisotropy =    27.6489
   XX=     9.4604   YX=     0.0000   ZX=     0.0000
   XY=     0.0000   YY=     7.1291   ZY=    -0.4118
   XZ=     0.0000   YZ=   -14.6584   ZZ=    32.8793
   Eigenvalues:     5.0863     9.4604    34.9222
     21  Bq   Isotropic =    16.4896   Anisotropy =    27.6489
   XX=     9.4604   YX=     0.0000   ZX=     0.0000
   XY=     0.0000   YY=     7.1291   ZY=    -0.4118
   XZ=     0.0000   YZ=   -14.6584   ZZ=    32.8793
   Eigenvalues:     5.0863     9.4604    34.9222
     22  Bq   Isotropic =    16.4896   Anisotropy =    27.6489
   XX=     9.4604   YX=     0.0000   ZX=     0.0000
   XY=     0.0000   YY=     7.1291   ZY=    -0.4118
   XZ=     0.0000   YZ=   -14.6584   ZZ=    32.8793
   Eigenvalues:     5.0863     9.4604    34.9222
     23  Bq   Isotropic =    16.4896   Anisotropy =    27.6489
   XX=     9.4604   YX=     0.0000   ZX=     0.0000
   XY=     0.0000   YY=     7.1291   ZY=    -0.4118
   XZ=     0.0000   YZ=   -14.6584   ZZ=    32.8793
   Eigenvalues:     5.0863     9.4604    34.9222
     24  Bq   Isotropic =    16.4896   Anisotropy =    27.6489
   XX=     9.4604   YX=     0.0000   ZX=     0.0000
   XY=     0.0000   YY=     7.1291   ZY=    -0.4118
   XZ=     0.0000   YZ=   -14.6584   ZZ=    32.8793
   Eigenvalues:     5.0863     9.4604    34.9222
     25  Bq   Isotropic =    16.4896   Anisotropy =    27.6489
   XX=     9.4604   YX=     0.0000   ZX=     0.0000
   XY=     0.0000   YY=     7.1291   ZY=    -0.4118
   XZ=     0.0000   YZ=   -14.6584   ZZ=    32.8793
   Eigenvalues:     5.0863     9.4604    34.9222
     26  Bq   Isotropic =    16.4896   Anisotropy =    27.6489
   XX=     9.4604   YX=     0.0000   ZX=     0.0000
   XY=     0.0000   YY=     7.1291   ZY=    -0.4118
   XZ=     0.0000   YZ=   -14.6584   ZZ=    32.8793
   Eigenvalues:     5.0863     9.4604    34.9222
     27  Bq   Isotropic =    16.4896   Anisotropy =    27.6489
   XX=     9.4604   YX=     0.0000   ZX=     0.0000
   XY=     0.0000   YY=     7.1291   ZY=    -0.4118
   XZ=     0.0000   YZ=   -14.6584   ZZ=    32.8793
   Eigenvalues:     5.0863     9.4604    34.9222
     28  Bq   Isotropic =    16.4896   Anisotropy =    27.6489
   XX=     9.4604   YX=     0.0000   ZX=     0.0000
   XY=     0.0000   YY=     7.1291   ZY=    -0.4118
   XZ=     0.0000   YZ=   -14.6584   ZZ=    32.8793
   Eigenvalues:     5.0863     9.4604    34.9222
     29  Bq   Isotropic =    16.4896   Anisotropy =    27.6489
   XX=     9.4604   YX=     0.0000   ZX=     0.0000
   XY=     0.0000   YY=     7.1291   ZY=    -0.4118
   XZ=     0.0000   YZ=   -14.6584   ZZ=    32.8793
   Eigenvalues:     5.0863     9.4604    34.9222
     30  Bq   Isotropic =    16.4896   Anisotropy =    27.6489
   XX=     9.4604   YX=     0.0000   ZX=     0.0000
   XY=     0.0000   YY=     7.1291   ZY=    -0.4118
   XZ=     0.0000   YZ=   -14.6584   ZZ=    32.8793
   Eigenvalues:     5.0863     9.4604    34.9222
     31  Bq   Isotropic =    16.4896   Anisotropy =    27.6489
   XX=     9.4604   YX=     0.0000   ZX=     0.0000
   XY=     0.0000   YY=     7.1291   ZY=    -0.4118
   XZ=     0.0000   YZ=   -14.6584   ZZ=    32.8793
   Eigenvalues:     5.0863     9.4604    34.9222
     32  Bq   Isotropic =    16.4896   Anisotropy =    27.6489
   XX=     9.4604   YX=     0.0000   ZX=     0.0000
   XY=     0.0000   YY=     7.1291   ZY=    -0.4118
   XZ=     0.0000   YZ=   -14.6584   ZZ=    32.8793
   Eigenvalues:     5.0863     9.4604    34.9222
     33  Bq   Isotropic =    16.4896   Anisotropy =    27.6489
   XX=     9.4604   YX=     0.0000   ZX=     0.0000
   XY=     0.0000   YY=     7.1291   ZY=    -0.4118
   XZ=     0.0000   YZ=   -14.6584   ZZ=    32.8793
   Eigenvalues:     5.0863     9.4604    34.9222
     34  Bq   Isotropic =    16.9291   Anisotropy =    27.8493
   XX=     9.3353   YX=    -0.7629   ZX=    -1.6551
   XY=    -0.4702   YY=     7.5714   ZY=    -0.1924
   XZ=     0.9507   YZ=   -13.2304   ZZ=    33.8807
   Eigenvalues:     5.8258     9.4663    35.4953
     35  Bq   Isotropic =    17.3316   Anisotropy =    29.1969
   XX=     8.8981   YX=    -0.9224   ZX=    -1.4383
   XY=    -0.6705   YY=     7.6307   ZY=    -0.5048
   XZ=     1.3654   YZ=   -11.9491   ZZ=    35.4661
   Eigenvalues:     6.0815     9.1172    36.7962
     36  Bq   Isotropic =    17.6971   Anisotropy =    30.4102
   XX=     8.6254   YX=    -0.9807   ZX=    -1.1513
   XY=    -0.7728   YY=     7.6452   ZY=    -0.8693
   XZ=     1.6022   YZ=   -10.9132   ZZ=    36.8208
   Eigenvalues:     6.2218     8.8989    37.9706
     37  Bq   Isotropic =    18.0515   Anisotropy =    31.4771
   XX=     8.5213   YX=    -0.9055   ZX=    -0.8376
   XY=    -0.7430   YY=     7.6368   ZY=    -1.2343
   XZ=     1.5832   YZ=   -10.1440   ZZ=    37.9965
   Eigenvalues:     6.3495     8.7688    39.0363
     38  Bq   Isotropic =    18.3759   Anisotropy =    32.3440
   XX=     8.5374   YX=    -0.6946   ZX=    -0.5334
   XY=    -0.5812   YY=     7.6233   ZY=    -1.5405
   XZ=     1.2762   YZ=    -9.6232   ZZ=    38.9671
   Eigenvalues:     6.5015     8.6878    39.9386
     39  Bq   Isotropic =    18.6129   Anisotropy =    32.9218
   XX=     8.5954   YX=    -0.3764   ZX=    -0.2560
   XY=    -0.3176   YY=     7.6141   ZY=    -1.7411
   XZ=     0.7139   YZ=    -9.3232   ZZ=    39.6293
   Eigenvalues:     6.6377     8.6402    40.5608
     40  Bq   Isotropic =    18.7007   Anisotropy =    33.1260
   XX=     8.6242   YX=     0.0000   ZX=     0.0000
   XY=     0.0000   YY=     7.6110   ZY=    -1.8105
   XZ=     0.0000   YZ=    -9.2253   ZZ=    39.8669
   Eigenvalues:     6.6932     8.6242    40.7847
     41  Bq   Isotropic =    18.6129   Anisotropy =    32.9218
   XX=     8.5954   YX=     0.3764   ZX=     0.2560
   XY=     0.3176   YY=     7.6141   ZY=    -1.7411
   XZ=    -0.7139   YZ=    -9.3232   ZZ=    39.6293
   Eigenvalues:     6.6377     8.6402    40.5608
     42  Bq   Isotropic =    18.3759   Anisotropy =    32.3440
   XX=     8.5374   YX=     0.6946   ZX=     0.5334
   XY=     0.5812   YY=     7.6233   ZY=    -1.5405
   XZ=    -1.2762   YZ=    -9.6232   ZZ=    38.9671
   Eigenvalues:     6.5015     8.6878    39.9386
     43  Bq   Isotropic =    18.0515   Anisotropy =    31.4771
   XX=     8.5213   YX=     0.9055   ZX=     0.8376
   XY=     0.7430   YY=     7.6368   ZY=    -1.2343
   XZ=    -1.5832   YZ=   -10.1440   ZZ=    37.9965
   Eigenvalues:     6.3495     8.7688    39.0363
     44  Bq   Isotropic =    17.6971   Anisotropy =    30.4102
   XX=     8.6254   YX=     0.9807   ZX=     1.1513
   XY=     0.7728   YY=     7.6452   ZY=    -0.8693
   XZ=    -1.6022   YZ=   -10.9132   ZZ=    36.8208
   Eigenvalues:     6.2218     8.8989    37.9706
     45  Bq   Isotropic =    17.3316   Anisotropy =    29.1969
   XX=     8.8981   YX=     0.9224   ZX=     1.4383
   XY=     0.6705   YY=     7.6307   ZY=    -0.5048
   XZ=    -1.3654   YZ=   -11.9491   ZZ=    35.4661
   Eigenvalues:     6.0815     9.1172    36.7962
     46  Bq   Isotropic =    16.9291   Anisotropy =    27.8493
   XX=     9.3353   YX=     0.7629   ZX=     1.6551
   XY=     0.4702   YY=     7.5714   ZY=    -0.1924
   XZ=    -0.9507   YZ=   -13.2304   ZZ=    33.8807
   Eigenvalues:     5.8258     9.4663    35.4953
     47  Bq   Isotropic =    16.4445   Anisotropy =    26.3739
   XX=     9.8820   YX=     0.5528   ZX=     1.7609
   XY=     0.2316   YY=     7.4493   ZY=     0.0432
   XZ=    -0.4639   YZ=   -14.6714   ZZ=    32.0022
   Eigenvalues:     5.3684     9.9380    34.0271
     48  Bq   Isotropic =    15.8578   Anisotropy =    24.8218
   XX=    10.4565   YX=     0.3443   ZX=     1.7213
   XY=     0.0198   YY=     7.2593   ZY=     0.2072
   XZ=    -0.0219   YZ=   -16.1267   ZZ=    29.8575
   Eigenvalues:     4.7049    10.4628    32.4057
     49  Bq   Isotropic =    15.2096   Anisotropy =    23.3143
   XX=    10.9789   YX=     0.1765   ZX=     1.5134
   XY=    -0.1153   YY=     7.0199   ZY=     0.3206
   XZ=     0.2712   YZ=   -17.4288   ZZ=    27.6300
   Eigenvalues:     3.9165    10.9598    30.7525
     50  Bq   Isotropic =    14.6027   Anisotropy =    22.0273
   XX=    11.3889   YX=     0.0686   ZX=     1.1336
   XY=    -0.1525   YY=     6.7769   ZY=     0.4007
   XZ=     0.3554   YZ=   -18.4371   ZZ=    25.6424
   Eigenvalues:     3.1527    11.3680    29.2876
     51  Bq   Isotropic =    14.1672   Anisotropy =    21.1506
   XX=    11.6486   YX=     0.0173   ZX=     0.6088
   XY=    -0.1020   YY=     6.5935   ZY=     0.4520
   XZ=     0.2388   YZ=   -19.0657   ZZ=    24.2595
   Eigenvalues:     2.5935    11.6405    28.2676
     52  Bq   Isotropic =    14.0085   Anisotropy =    20.8380
   XX=    11.7373   YX=     0.0000   ZX=     0.0000
   XY=     0.0000   YY=     6.5250   ZY=     0.4701
   XZ=     0.0000   YZ=   -19.2780   ZZ=    23.7634
   Eigenvalues:     2.3878    11.7373    27.9006
     53  Bq   Isotropic =    14.1672   Anisotropy =    21.1506
   XX=    11.6486   YX=    -0.0173   ZX=    -0.6088
   XY=     0.1020   YY=     6.5935   ZY=     0.4520
   XZ=    -0.2388   YZ=   -19.0657   ZZ=    24.2595
   Eigenvalues:     2.5935    11.6405    28.2676
     54  Bq   Isotropic =    14.6027   Anisotropy =    22.0273
   XX=    11.3889   YX=    -0.0686   ZX=    -1.1336
   XY=     0.1525   YY=     6.7769   ZY=     0.4007
   XZ=    -0.3554   YZ=   -18.4371   ZZ=    25.6424
   Eigenvalues:     3.1527    11.3680    29.2876
     55  Bq   Isotropic =    15.2096   Anisotropy =    23.3143
   XX=    10.9789   YX=    -0.1765   ZX=    -1.5134
   XY=     0.1153   YY=     7.0199   ZY=     0.3206
   XZ=    -0.2712   YZ=   -17.4288   ZZ=    27.6300
   Eigenvalues:     3.9165    10.9598    30.7525
     56  Bq   Isotropic =    15.8578   Anisotropy =    24.8218
   XX=    10.4565   YX=    -0.3443   ZX=    -1.7213
   XY=    -0.0198   YY=     7.2593   ZY=     0.2072
   XZ=     0.0219   YZ=   -16.1267   ZZ=    29.8575
   Eigenvalues:     4.7049    10.4628    32.4057
     57  Bq   Isotropic =    16.4445   Anisotropy =    26.3739
   XX=     9.8820   YX=    -0.5528   ZX=    -1.7609
   XY=    -0.2316   YY=     7.4493   ZY=     0.0432
   XZ=     0.4639   YZ=   -14.6714   ZZ=    32.0022
   Eigenvalues:     5.3684     9.9380    34.0271
     58  Bq   Isotropic =    18.3886   Anisotropy =    28.3788
   XX=     9.4363   YX=    -0.8546   ZX=    -2.5852
   XY=    -0.4049   YY=     9.1086   ZY=     0.1594
   XZ=     2.5522   YZ=    -8.9605   ZZ=    36.6208
   Eigenvalues:     8.1244     9.7336    37.3078
     59  Bq   Isotropic =    18.2856   Anisotropy =    29.8766
   XX=     8.3467   YX=    -1.5668   ZX=    -2.1364
   XY=    -1.2574   YY=     8.7623   ZY=    -0.2340
   XZ=     3.7894   YZ=    -6.8175   ZZ=    37.7478
   Eigenvalues:     7.0237     9.6298    38.2033
     60  Bq   Isotropic =    18.4208   Anisotropy =    31.3061
   XX=     8.0070   YX=    -1.9921   ZX=    -1.5504
   XY=    -1.7550   YY=     8.4005   ZY=    -0.9234
   XZ=     4.6002   YZ=    -5.5725   ZZ=    38.8549
   Eigenvalues:     6.2832     9.6877    39.2915
     61  Bq   Isotropic =    19.0961   Anisotropy =    33.0603
   XX=     8.4819   YX=    -1.9629   ZX=    -0.9491
   XY=    -1.7570   YY=     8.1357   ZY=    -1.6638
   XZ=     4.7783   YZ=    -4.9381   ZZ=    40.6705
   Eigenvalues:     6.3978     9.7541    41.1363
     62  Bq   Isotropic =    20.2024   Anisotropy =    35.0101
   XX=     9.4692   YX=    -1.4982   ZX=    -0.4753
   XY=    -1.3341   YY=     8.0288   ZY=    -2.1969
   XZ=     4.0707   YZ=    -4.5799   ZZ=    43.1094
   Eigenvalues:     7.0443    10.0206    43.5425
     63  Bq   Isotropic =    21.2652   Anisotropy =    36.6060
   XX=    10.4316   YX=    -0.7831   ZX=    -0.1810
   XY=    -0.6919   YY=     8.0389   ZY=    -2.4452
   XZ=     2.3773   YZ=    -4.3373   ZZ=    45.3250
   Eigenvalues:     7.5890    10.5374    45.6691
     64  Bq   Isotropic =    21.7077   Anisotropy =    37.2295
   XX=    10.8305   YX=     0.0000   ZX=     0.0000
   XY=     0.0000   YY=     8.0608   ZY=    -2.5034
   XZ=     0.0000   YZ=    -4.2400   ZZ=    46.2319
   Eigenvalues:     7.7653    10.8305    46.5274
     65  Bq   Isotropic =    21.2652   Anisotropy =    36.6060
   XX=    10.4316   YX=     0.7831   ZX=     0.1810
   XY=     0.6919   YY=     8.0389   ZY=    -2.4452
   XZ=    -2.3773   YZ=    -4.3373   ZZ=    45.3250
   Eigenvalues:     7.5890    10.5374    45.6691
     66  Bq   Isotropic =    20.2024   Anisotropy =    35.0101
   XX=     9.4692   YX=     1.4982   ZX=     0.4753
   XY=     1.3341   YY=     8.0288   ZY=    -2.1969
   XZ=    -4.0707   YZ=    -4.5799   ZZ=    43.1094
   Eigenvalues:     7.0443    10.0206    43.5425
     67  Bq   Isotropic =    19.0961   Anisotropy =    33.0603
   XX=     8.4819   YX=     1.9629   ZX=     0.9491
   XY=     1.7570   YY=     8.1357   ZY=    -1.6638
   XZ=    -4.7783   YZ=    -4.9381   ZZ=    40.6705
   Eigenvalues:     6.3978     9.7541    41.1363
     68  Bq   Isotropic =    18.4208   Anisotropy =    31.3061
   XX=     8.0070   YX=     1.9921   ZX=     1.5504
   XY=     1.7550   YY=     8.4005   ZY=    -0.9234
   XZ=    -4.6002   YZ=    -5.5725   ZZ=    38.8549
   Eigenvalues:     6.2832     9.6877    39.2915
     69  Bq   Isotropic =    18.2856   Anisotropy =    29.8766
   XX=     8.3467   YX=     1.5668   ZX=     2.1364
   XY=     1.2574   YY=     8.7623   ZY=    -0.2340
   XZ=    -3.7894   YZ=    -6.8175   ZZ=    37.7478
   Eigenvalues:     7.0237     9.6298    38.2033
     70  Bq   Isotropic =    18.3886   Anisotropy =    28.3788
   XX=     9.4363   YX=     0.8546   ZX=     2.5852
   XY=     0.4049   YY=     9.1086   ZY=     0.1594
   XZ=    -2.5522   YZ=    -8.9605   ZZ=    36.6208
   Eigenvalues:     8.1244     9.7336    37.3078
     71  Bq   Isotropic =    18.1628   Anisotropy =    26.2290
   XX=    10.8786   YX=     0.1060   ZX=     2.8554
   XY=    -0.5019   YY=     9.2945   ZY=     0.2387
   XZ=    -1.0582   YZ=   -11.9346   ZZ=    34.3153
   Eigenvalues:     7.9952    10.8444    35.6488
     72  Bq   Isotropic =    17.1272   Anisotropy =    23.2448
   XX=    12.2073   YX=    -0.4649   ZX=     2.9414
   XY=    -1.1499   YY=     9.1250   ZY=     0.2059
   XZ=     0.4217   YZ=   -15.1942   ZZ=    30.0493
   Eigenvalues:     6.7058    12.0521    32.6237
     73  Bq   Isotropic =    15.2814   Anisotropy =    19.9085
   XX=    13.1840   YX=    -0.7481   ZX=     2.7812
   XY=    -1.3758   YY=     8.4699   ZY=     0.2546
   XZ=     1.4713   YZ=   -18.0082   ZZ=    24.1904
   Eigenvalues:     4.4724    12.8181    28.5538
     74  Bq   Isotropic =    13.1692   Anisotropy =    16.8948
   XX=    13.8205   YX=    -0.7271   ZX=     2.2460
   XY=    -1.1907   YY=     7.4815   ZY=     0.4144
   XZ=     1.7252   YZ=   -19.9296   ZZ=    18.2057
   Eigenvalues:     1.7069    13.3684    24.4325
     75  Bq   Isotropic =    11.5321   Anisotropy =    14.5691
   XX=    14.1896   YX=    -0.4435   ZX=     1.2738
   XY=    -0.6869   YY=     6.5908   ZY=     0.5916
   XZ=     1.1295   YZ=   -20.9453   ZZ=    13.8159
   Eigenvalues:    -0.5993    13.9508    21.2448
     76  Bq   Isotropic =    10.9221   Anisotropy =    13.5307
   XX=    14.3137   YX=     0.0000   ZX=     0.0000
   XY=     0.0000   YY=     6.2347   ZY=     0.6684
   XZ=     0.0000   YZ=   -21.2488   ZZ=    12.2179
   Eigenvalues:    -1.4899    14.3137    19.9426
     77  Bq   Isotropic =    11.5321   Anisotropy =    14.5691
   XX=    14.1896   YX=     0.4435   ZX=    -1.2738
   XY=     0.6869   YY=     6.5908   ZY=     0.5916
   XZ=    -1.1295   YZ=   -20.9453   ZZ=    13.8159
   Eigenvalues:    -0.5993    13.9508    21.2448
     78  Bq   Isotropic =    13.1692   Anisotropy =    16.8948
   XX=    13.8205   YX=     0.7271   ZX=    -2.2460
   XY=     1.1907   YY=     7.4815   ZY=     0.4144
   XZ=    -1.7252   YZ=   -19.9296   ZZ=    18.2057
   Eigenvalues:     1.7069    13.3684    24.4325
     79  Bq   Isotropic =    15.2814   Anisotropy =    19.9085
   XX=    13.1840   YX=     0.7481   ZX=    -2.7812
   XY=     1.3758   YY=     8.4699   ZY=     0.2546
   XZ=    -1.4713   YZ=   -18.0082   ZZ=    24.1904
   Eigenvalues:     4.4724    12.8181    28.5538
     80  Bq   Isotropic =    17.1272   Anisotropy =    23.2448
   XX=    12.2073   YX=     0.4649   ZX=    -2.9414
   XY=     1.1499   YY=     9.1250   ZY=     0.2059
   XZ=    -0.4217   YZ=   -15.1942   ZZ=    30.0493
   Eigenvalues:     6.7058    12.0521    32.6237
     81  Bq   Isotropic =    18.1628   Anisotropy =    26.2290
   XX=    10.8786   YX=    -0.1060   ZX=    -2.8554
   XY=     0.5019   YY=     9.2945   ZY=     0.2387
   XZ=     1.0582   YZ=   -11.9346   ZZ=    34.3153
   Eigenvalues:     7.9952    10.8444    35.6488
     82  Bq   Isotropic =    20.8850   Anisotropy =    28.6760
   XX=    11.0103   YX=     0.0951   ZX=    -2.2987
   XY=     0.7414   YY=    11.7695   ZY=    -0.4090
   XZ=     5.0749   YZ=    -2.2504   ZZ=    39.8751
   Eigenvalues:    10.7117    11.9409    40.0023
     83  Bq   Isotropic =    18.7079   Anisotropy =    28.4114
   XX=     8.3003   YX=    -1.6143   ZX=    -2.1499
   XY=    -1.3474   YY=    10.3337   ZY=    -0.1567
   XZ=     6.4081   YZ=    -0.3413   ZZ=    37.4897
   Eigenvalues:     7.4154    11.0595    37.6488
     84  Bq   Isotropic =    17.8348   Anisotropy =    28.6983
   XX=     7.6510   YX=    -2.6645   ZX=    -1.6060
   XY=    -2.4844   YY=     9.2045   ZY=    -0.7889
   XZ=     7.4991   YZ=    -0.2478   ZZ=    36.6489
   Eigenvalues:     5.5987    10.9388    36.9670
     85  Bq   Isotropic =    19.0390   Anisotropy =    30.8856
   XX=     9.3809   YX=    -2.5599   ZX=    -0.9818
   XY=    -2.3513   YY=     8.5983   ZY=    -1.5301
   XZ=     8.1423   YZ=    -0.7809   ZZ=    39.1378
   Eigenvalues:     6.4341    11.0535    39.6294
     86  Bq   Isotropic =    22.0279   Anisotropy =    34.6732
   XX=    12.7046   YX=    -1.4747   ZX=    -0.6428
   XY=    -1.3168   YY=     8.6526   ZY=    -1.5578
   XZ=     7.4943   YZ=    -0.9814   ZZ=    44.7265
   Eigenvalues:     8.2172    12.7231    45.1434
     87  Bq   Isotropic =    25.3639   Anisotropy =    38.5644
   XX=    16.1267   YX=    -0.3820   ZX=    -0.4543
   XY=    -0.3338   YY=     9.0327   ZY=    -0.8590
   XZ=     4.6814   YZ=    -0.5990   ZZ=    50.9322
   Eigenvalues:     9.0053    16.0128    51.0734
     88  Bq   Isotropic =    26.8652   Anisotropy =    40.2974
   XX=    17.6431   YX=     0.0000   ZX=     0.0000
   XY=     0.0000   YY=     9.2250   ZY=    -0.3928
   XZ=     0.0000   YZ=    -0.2829   ZZ=    53.7276
   Eigenvalues:     9.2224    17.6431    53.7302
     89  Bq   Isotropic =    25.3639   Anisotropy =    38.5644
   XX=    16.1267   YX=     0.3820   ZX=     0.4543
   XY=     0.3338   YY=     9.0327   ZY=    -0.8590
   XZ=    -4.6814   YZ=    -0.5990   ZZ=    50.9322
   Eigenvalues:     9.0053    16.0128    51.0734
     90  Bq   Isotropic =    22.0279   Anisotropy =    34.6732
   XX=    12.7046   YX=     1.4747   ZX=     0.6428
   XY=     1.3168   YY=     8.6526   ZY=    -1.5578
   XZ=    -7.4943   YZ=    -0.9814   ZZ=    44.7265
   Eigenvalues:     8.2172    12.7231    45.1434
     91  Bq   Isotropic =    19.0390   Anisotropy =    30.8856
   XX=     9.3809   YX=     2.5599   ZX=     0.9818
   XY=     2.3513   YY=     8.5983   ZY=    -1.5301
   XZ=    -8.1423   YZ=    -0.7809   ZZ=    39.1378
   Eigenvalues:     6.4341    11.0535    39.6294
     92  Bq   Isotropic =    17.8348   Anisotropy =    28.6983
   XX=     7.6510   YX=     2.6645   ZX=     1.6060
   XY=     2.4844   YY=     9.2045   ZY=    -0.7889
   XZ=    -7.4991   YZ=    -0.2478   ZZ=    36.6489
   Eigenvalues:     5.5987    10.9388    36.9670
     93  Bq   Isotropic =    18.7079   Anisotropy =    28.4114
   XX=     8.3003   YX=     1.6143   ZX=     2.1499
   XY=     1.3474   YY=    10.3337   ZY=    -0.1567
   XZ=    -6.4081   YZ=    -0.3413   ZZ=    37.4897
   Eigenvalues:     7.4154    11.0595    37.6488
     94  Bq   Isotropic =    20.8850   Anisotropy =    28.6760
   XX=    11.0103   YX=    -0.0951   ZX=     2.2987
   XY=    -0.7414   YY=    11.7695   ZY=    -0.4090
   XZ=    -5.0749   YZ=    -2.2504   ZZ=    39.8751
   Eigenvalues:    10.7117    11.9409    40.0023
     95  Bq   Isotropic =    22.5383   Anisotropy =    27.1491
   XX=    14.1389   YX=    -1.7150   ZX=     2.0942
   XY=    -2.8629   YY=    13.3861   ZY=    -1.2586
   XZ=    -3.1743   YZ=    -6.4555   ZZ=    40.0900
   Eigenvalues:    11.0585    15.9188    40.6377
     96  Bq   Isotropic =    21.5980   Anisotropy =    22.4708
   XX=    15.9533   YX=    -2.5810   ZX=     1.9732
   XY=    -3.8564   YY=    14.3604   ZY=    -1.5071
   XZ=    -0.5437   YZ=   -11.6901   ZZ=    34.4803
   Eigenvalues:    10.7610    17.4545    36.5785
     97  Bq   Isotropic =    17.6995   Anisotropy =    16.9757
   XX=    16.3796   YX=    -2.6014   ZX=     2.2361
   XY=    -3.5085   YY=    13.3019   ZY=    -0.8699
   XZ=     1.9446   YZ=   -15.8601   ZZ=    23.4170
   Eigenvalues:     8.2327    15.8492    29.0166
     98  Bq   Isotropic =    12.7250   Anisotropy =    14.1459
   XX=    16.3965   YX=    -2.1134   ZX=     2.3170
   XY=    -2.5808   YY=    10.4070   ZY=    -0.0779
   XZ=     2.9286   YZ=   -18.1304   ZZ=    11.3715
   Eigenvalues:     1.7716    14.2478    22.1556
     99  Bq   Isotropic =     8.9161   Anisotropy =    13.4818
   XX=    16.4684   YX=    -1.2232   ZX=     1.5301
   XY=    -1.4123   YY=     7.5419   ZY=     0.4854
   XZ=     2.0380   YZ=   -18.9830   ZZ=     2.7380
   Eigenvalues:    -4.4334    13.2777    17.9039
    100  Bq   Isotropic =     7.5317   Anisotropy =    13.4853
   XX=    16.5219   YX=     0.0000   ZX=     0.0000
   XY=     0.0000   YY=     6.3873   ZY=     0.6983
   XZ=     0.0000   YZ=   -19.1595   ZZ=    -0.3142
   Eigenvalues:    -6.7834    12.8565    16.5219
    101  Bq   Isotropic =     8.9161   Anisotropy =    13.4818
   XX=    16.4684   YX=     1.2232   ZX=    -1.5301
   XY=     1.4123   YY=     7.5419   ZY=     0.4854
   XZ=    -2.0380   YZ=   -18.9830   ZZ=     2.7380
   Eigenvalues:    -4.4334    13.2777    17.9039
    102  Bq   Isotropic =    12.7250   Anisotropy =    14.1459
   XX=    16.3965   YX=     2.1134   ZX=    -2.3170
   XY=     2.5808   YY=    10.4070   ZY=    -0.0779
   XZ=    -2.9286   YZ=   -18.1304   ZZ=    11.3715
   Eigenvalues:     1.7716    14.2478    22.1556
    103  Bq   Isotropic =    17.6995   Anisotropy =    16.9757
   XX=    16.3796   YX=     2.6014   ZX=    -2.2361
   XY=     3.5085   YY=    13.3019   ZY=    -0.8699
   XZ=    -1.9446   YZ=   -15.8601   ZZ=    23.4170
   Eigenvalues:     8.2327    15.8492    29.0166
    104  Bq   Isotropic =    21.5980   Anisotropy =    22.4708
   XX=    15.9533   YX=     2.5810   ZX=    -1.9732
   XY=     3.8564   YY=    14.3604   ZY=    -1.5071
   XZ=     0.5437   YZ=   -11.6901   ZZ=    34.4803
   Eigenvalues:    10.7610    17.4545    36.5785
    105  Bq   Isotropic =    22.5383   Anisotropy =    27.1491
   XX=    14.1389   YX=     1.7150   ZX=    -2.0942
   XY=     2.8629   YY=    13.3861   ZY=    -1.2586
   XZ=     3.1743   YZ=    -6.4555   ZZ=    40.0900
   Eigenvalues:    11.0585    15.9188    40.6377
    106  Bq   Isotropic =     6.7174   Anisotropy =    17.8968
   XX=    18.0234   YX=    -1.6955   ZX=     1.1134
   XY=    -1.5273   YY=     8.9866   ZY=     0.6826
   XZ=     2.3008   YZ=   -13.3156   ZZ=    -6.8578
   Eigenvalues:    -9.1109    10.6145    18.6486
    107  Bq   Isotropic =     4.4951   Anisotropy =    20.4209
   XX=    18.1090   YX=     0.0000   ZX=     0.0000
   XY=     0.0000   YY=     6.5211   ZY=     0.8619
   XZ=     0.0000   YZ=   -13.4409   ZZ=   -11.1448
   Eigenvalues:   -13.1552     8.5315    18.1090
    108  Bq   Isotropic =     6.7174   Anisotropy =    17.8968
   XX=    18.0234   YX=     1.6955   ZX=    -1.1134
   XY=     1.5273   YY=     8.9866   ZY=     0.6826
   XZ=    -2.3008   YZ=   -13.3156   ZZ=    -6.8578
   Eigenvalues:    -9.1109    10.6145    18.6486
    109  Bq   Isotropic =     5.1956   Anisotropy =    20.4794
   XX=    18.6729   YX=    -1.3697   ZX=     0.4203
   XY=    -0.7040   YY=     9.8893   ZY=     0.7713
   XZ=     1.5732   YZ=    -6.2407   ZZ=   -12.9755
   Eigenvalues:   -13.3216    10.0598    18.8485
    110  Bq   Isotropic =     2.4463   Anisotropy =    24.9387
   XX=    19.0721   YX=     0.0000   ZX=     0.0000
   XY=     0.0000   YY=     6.2845   ZY=     0.7376
   XZ=     0.0000   YZ=    -6.4478   ZZ=   -18.0176
   Eigenvalues:   -18.3485     6.6154    19.0721
    111  Bq   Isotropic =     5.1956   Anisotropy =    20.4794
   XX=    18.6729   YX=     1.3697   ZX=    -0.4203
   XY=     0.7040   YY=     9.8893   ZY=     0.7713
   XZ=    -1.5732   YZ=    -6.2407   ZZ=   -12.9755
   Eigenvalues:   -13.3216    10.0598    18.8485
    112  Bq   Isotropic =     4.6267   Anisotropy =    21.2791
   XX=    18.7803   YX=    -0.9861   ZX=     0.0000
   XY=    -0.0793   YY=    10.0661   ZY=     0.0000
   XZ=     0.0000   YZ=     0.0000   ZZ=   -14.9662
   Eigenvalues:   -14.9662    10.0336    18.8128
    113  Bq   Isotropic =     1.7347   Anisotropy =    26.5084
   XX=    19.4070   YX=     0.0000   ZX=     0.0000
   XY=     0.0000   YY=     6.0730   ZY=     0.0000
   XZ=     0.0000   YZ=     0.0000   ZZ=   -20.2758
   Eigenvalues:   -20.2758     6.0730    19.4070
    114  Bq   Isotropic =     4.6267   Anisotropy =    21.2791
   XX=    18.7803   YX=     0.9861   ZX=     0.0000
   XY=     0.0793   YY=    10.0661   ZY=     0.0000
   XZ=     0.0000   YZ=     0.0000   ZZ=   -14.9662
   Eigenvalues:   -14.9662    10.0336    18.8128
    115  Bq   Isotropic =     5.1956   Anisotropy =    20.4794
   XX=    18.6729   YX=    -1.3697   ZX=    -0.4203
   XY=    -0.7040   YY=     9.8893   ZY=    -0.7713
   XZ=    -1.5732   YZ=     6.2407   ZZ=   -12.9755
   Eigenvalues:   -13.3216    10.0598    18.8485
    116  Bq   Isotropic =     2.4463   Anisotropy =    24.9387
   XX=    19.0721   YX=     0.0000   ZX=     0.0000
   XY=     0.0000   YY=     6.2845   ZY=    -0.7376
   XZ=     0.0000   YZ=     6.4478   ZZ=   -18.0176
   Eigenvalues:   -18.3485     6.6154    19.0721
    117  Bq   Isotropic =     5.1956   Anisotropy =    20.4794
   XX=    18.6729   YX=     1.3697   ZX=     0.4203
   XY=     0.7040   YY=     9.8893   ZY=    -0.7713
   XZ=     1.5732   YZ=     6.2407   ZZ=   -12.9755
   Eigenvalues:   -13.3216    10.0598    18.8485
    118  Bq   Isotropic =     6.7174   Anisotropy =    17.8968
   XX=    18.0234   YX=    -1.6955   ZX=    -1.1134
   XY=    -1.5273   YY=     8.9866   ZY=    -0.6826
   XZ=    -2.3008   YZ=    13.3156   ZZ=    -6.8578
   Eigenvalues:    -9.1109    10.6145    18.6486
    119  Bq   Isotropic =     4.4951   Anisotropy =    20.4209
   XX=    18.1090   YX=     0.0000   ZX=     0.0000
   XY=     0.0000   YY=     6.5211   ZY=    -0.8619
   XZ=     0.0000   YZ=    13.4409   ZZ=   -11.1448
   Eigenvalues:   -13.1552     8.5315    18.1090
    120  Bq   Isotropic =     6.7174   Anisotropy =    17.8968
   XX=    18.0234   YX=     1.6955   ZX=     1.1134
   XY=     1.5273   YY=     8.9866   ZY=    -0.6826
   XZ=     2.3008   YZ=    13.3156   ZZ=    -6.8578
   Eigenvalues:    -9.1109    10.6145    18.6486
    121  Bq   Isotropic =    20.8850   Anisotropy =    28.6760
   XX=    11.0103   YX=     0.0951   ZX=     2.2987
   XY=     0.7414   YY=    11.7695   ZY=     0.4090
   XZ=    -5.0749   YZ=     2.2504   ZZ=    39.8751
   Eigenvalues:    10.7117    11.9409    40.0023
    122  Bq   Isotropic =    18.7079   Anisotropy =    28.4114
   XX=     8.3003   YX=    -1.6143   ZX=     2.1499
   XY=    -1.3474   YY=    10.3337   ZY=     0.1567
   XZ=    -6.4081   YZ=     0.3413   ZZ=    37.4897
   Eigenvalues:     7.4154    11.0595    37.6488
    123  Bq   Isotropic =    17.8348   Anisotropy =    28.6983
   XX=     7.6510   YX=    -2.6645   ZX=     1.6060
   XY=    -2.4844   YY=     9.2045   ZY=     0.7889
   XZ=    -7.4991   YZ=     0.2478   ZZ=    36.6489
   Eigenvalues:     5.5987    10.9388    36.9670
    124  Bq   Isotropic =    19.0390   Anisotropy =    30.8856
   XX=     9.3809   YX=    -2.5599   ZX=     0.9818
   XY=    -2.3513   YY=     8.5983   ZY=     1.5301
   XZ=    -8.1423   YZ=     0.7809   ZZ=    39.1378
   Eigenvalues:     6.4341    11.0535    39.6294
    125  Bq   Isotropic =    22.0279   Anisotropy =    34.6732
   XX=    12.7046   YX=    -1.4747   ZX=     0.6428
   XY=    -1.3168   YY=     8.6526   ZY=     1.5578
   XZ=    -7.4943   YZ=     0.9814   ZZ=    44.7265
   Eigenvalues:     8.2172    12.7231    45.1434
    126  Bq   Isotropic =    25.3639   Anisotropy =    38.5644
   XX=    16.1267   YX=    -0.3820   ZX=     0.4543
   XY=    -0.3338   YY=     9.0327   ZY=     0.8590
   XZ=    -4.6814   YZ=     0.5990   ZZ=    50.9322
   Eigenvalues:     9.0053    16.0128    51.0734
    127  Bq   Isotropic =    26.8652   Anisotropy =    40.2974
   XX=    17.6431   YX=     0.0000   ZX=     0.0000
   XY=     0.0000   YY=     9.2250   ZY=     0.3928
   XZ=     0.0000   YZ=     0.2829   ZZ=    53.7276
   Eigenvalues:     9.2224    17.6431    53.7302
    128  Bq   Isotropic =    25.3639   Anisotropy =    38.5644
   XX=    16.1267   YX=     0.3820   ZX=    -0.4543
   XY=     0.3338   YY=     9.0327   ZY=     0.8590
   XZ=     4.6814   YZ=     0.5990   ZZ=    50.9322
   Eigenvalues:     9.0053    16.0128    51.0734
    129  Bq   Isotropic =    22.0279   Anisotropy =    34.6732
   XX=    12.7046   YX=     1.4747   ZX=    -0.6428
   XY=     1.3168   YY=     8.6526   ZY=     1.5578
   XZ=     7.4943   YZ=     0.9814   ZZ=    44.7265
   Eigenvalues:     8.2172    12.7231    45.1434
    130  Bq   Isotropic =    19.0390   Anisotropy =    30.8856
   XX=     9.3809   YX=     2.5599   ZX=    -0.9818
   XY=     2.3513   YY=     8.5983   ZY=     1.5301
   XZ=     8.1423   YZ=     0.7809   ZZ=    39.1378
   Eigenvalues:     6.4341    11.0535    39.6294
    131  Bq   Isotropic =    17.8348   Anisotropy =    28.6983
   XX=     7.6510   YX=     2.6645   ZX=    -1.6060
   XY=     2.4844   YY=     9.2045   ZY=     0.7889
   XZ=     7.4991   YZ=     0.2478   ZZ=    36.6489
   Eigenvalues:     5.5987    10.9388    36.9670
    132  Bq   Isotropic =    18.7079   Anisotropy =    28.4114
   XX=     8.3003   YX=     1.6143   ZX=    -2.1499
   XY=     1.3474   YY=    10.3337   ZY=     0.1567
   XZ=     6.4081   YZ=     0.3413   ZZ=    37.4897
   Eigenvalues:     7.4154    11.0595    37.6488
    133  Bq   Isotropic =    20.8850   Anisotropy =    28.6760
   XX=    11.0103   YX=    -0.0951   ZX=    -2.2987
   XY=    -0.7414   YY=    11.7695   ZY=     0.4090
   XZ=     5.0749   YZ=     2.2504   ZZ=    39.8751
   Eigenvalues:    10.7117    11.9409    40.0023
    134  Bq   Isotropic =    22.5383   Anisotropy =    27.1491
   XX=    14.1389   YX=    -1.7150   ZX=    -2.0942
   XY=    -2.8629   YY=    13.3861   ZY=     1.2586
[...]
 Alpha virt. eigenvalues --   24.06824  24.13369  24.13691
          Condensed to atoms (all electrons):
 Mulliken charges:
               1
     1  C   -0.271259
     2  C   -0.271259
     3  C   -0.081784
     4  C    0.204484
     5  C   -0.081784
     6  C   -0.271259
     7  C   -0.271259
     8  C   -0.081784
     9  C    0.204484
    10  C   -0.081784
    11  H    0.128962
    12  H    0.128962
    13  H    0.121839
    14  H    0.121839
    15  H    0.128962
    16  H    0.128962
    17  H    0.121839
    18  H    0.121839
    19  Bq   0.000000
    20  Bq   0.000000
    21  Bq   0.000000
    22  Bq   0.000000
    23  Bq   0.000000
    24  Bq   0.000000
    25  Bq   0.000000
    26  Bq   0.000000
    27  Bq   0.000000
    28  Bq   0.000000
    29  Bq   0.000000
    30  Bq   0.000000
    31  Bq   0.000000
    32  Bq   0.000000
    33  Bq   0.000000
    34  Bq   0.000000
    35  Bq   0.000000
    36  Bq   0.000000
    37  Bq   0.000000
    38  Bq   0.000000
    39  Bq   0.000000
    40  Bq   0.000000
    41  Bq   0.000000
    42  Bq   0.000000
    43  Bq   0.000000
    44  Bq   0.000000
    45  Bq   0.000000
    46  Bq   0.000000
    47  Bq   0.000000
    48  Bq   0.000000
    49  Bq   0.000000
    50  Bq   0.000000
    51  Bq   0.000000
    52  Bq   0.000000
    53  Bq   0.000000
    54  Bq   0.000000
    55  Bq   0.000000
    56  Bq   0.000000
    57  Bq   0.000000
    58  Bq   0.000000
    59  Bq   0.000000
    60  Bq   0.000000
    61  Bq   0.000000
    62  Bq   0.000000
    63  Bq   0.000000
    64  Bq   0.000000
    65  Bq   0.000000
    66  Bq   0.000000
    67  Bq   0.000000
    68  Bq   0.000000
    69  Bq   0.000000
    70  Bq   0.000000
    71  Bq   0.000000
    72  Bq   0.000000
    73  Bq   0.000000
    74  Bq   0.000000
    75  Bq   0.000000
    76  Bq   0.000000
    77  Bq   0.000000
    78  Bq   0.000000
    79  Bq   0.000000
    80  Bq   0.000000
    81  Bq   0.000000
    82  Bq   0.000000
    83  Bq   0.000000
    84  Bq   0.000000
    85  Bq   0.000000
    86  Bq   0.000000
    87  Bq   0.000000
    88  Bq   0.000000
    89  Bq   0.000000
    90  Bq   0.000000
    91  Bq   0.000000
    92  Bq   0.000000
    93  Bq   0.000000
    94  Bq   0.000000
    95  Bq   0.000000
    96  Bq   0.000000
    97  Bq   0.000000
    98  Bq   0.000000
    99  Bq   0.000000
   100  Bq   0.000000
   101  Bq   0.000000
   102  Bq   0.000000
   103  Bq   0.000000
   104  Bq   0.000000
   105  Bq   0.000000
   106  Bq   0.000000
   107  Bq   0.000000
   108  Bq   0.000000
   109  Bq   0.000000
   110  Bq   0.000000
   111  Bq   0.000000
   112  Bq   0.000000
   113  Bq   0.000000
   114  Bq   0.000000
   115  Bq   0.000000
   116  Bq   0.000000
   117  Bq   0.000000
   118  Bq   0.000000
   119  Bq   0.000000
   120  Bq   0.000000
   121  Bq   0.000000
   122  Bq   0.000000
   123  Bq   0.000000
   124  Bq   0.000000
   125  Bq   0.000000
   126  Bq   0.000000
   127  Bq   0.000000
   128  Bq   0.000000
   129  Bq   0.000000
   130  Bq   0.000000
   131  Bq   0.000000
   132  Bq   0.000000
   133  Bq   0.000000
   134  Bq   0.000000
   135  Bq   0.000000
   136  Bq   0.000000
   137  Bq   0.000000
   138  Bq   0.000000
   139  Bq   0.000000
   140  Bq   0.000000
   141  Bq   0.000000
   142  Bq   0.000000
   143  Bq   0.000000
   144  Bq   0.000000
   145  Bq   0.000000
   146  Bq   0.000000
   147  Bq   0.000000
   148  Bq   0.000000
   149  Bq   0.000000
   150  Bq   0.000000
   151  Bq   0.000000
   152  Bq   0.000000
   153  Bq   0.000000
   154  Bq   0.000000
   155  Bq   0.000000
   156  Bq   0.000000
   157  Bq   0.000000
   158  Bq   0.000000
   159  Bq   0.000000
   160  Bq   0.000000
   161  Bq   0.000000
   162  Bq   0.000000
   163  Bq   0.000000
   164  Bq   0.000000
   165  Bq   0.000000
   166  Bq   0.000000
   167  Bq   0.000000
   168  Bq   0.000000
   169  Bq   0.000000
   170  Bq   0.000000
   171  Bq   0.000000
   172  Bq   0.000000
   173  Bq   0.000000
   174  Bq   0.000000
   175  Bq   0.000000
   176  Bq   0.000000
   177  Bq   0.000000
   178  Bq   0.000000
   179  Bq   0.000000
   180  Bq   0.000000
   181  Bq   0.000000
   182  Bq   0.000000
   183  Bq   0.000000
   184  Bq   0.000000
   185  Bq   0.000000
   186  Bq   0.000000
   187  Bq   0.000000
   188  Bq   0.000000
   189  Bq   0.000000
   190  Bq   0.000000
   191  Bq   0.000000
   192  Bq   0.000000
   193  Bq   0.000000
   194  Bq   0.000000
   195  Bq   0.000000
   196  Bq   0.000000
   197  Bq   0.000000
   198  Bq   0.000000
   199  Bq   0.000000
   200  Bq   0.000000
   201  Bq   0.000000
   202  Bq   0.000000
   203  Bq   0.000000
   204  Bq   0.000000
   205  Bq   0.000000
   206  Bq   0.000000
   207  Bq   0.000000
   208  Bq   0.000000
   209  Bq   0.000000
   210  Bq   0.000000
   211  Bq   0.000000
   212  Bq   0.000000
   213  Bq   0.000000
   214  Bq   0.000000
   215  Bq   0.000000
   216  Bq   0.000000
   217  Bq   0.000000
   218  Bq   0.000000
 Sum of Mulliken charges =   0.00000
 Mulliken charges with hydrogens summed into heavy atoms:
               1
     1  C   -0.142297
     2  C   -0.142297
     3  C    0.040055
     4  C    0.204484
     5  C    0.040055
     6  C   -0.142297
     7  C   -0.142297
     8  C    0.040055
     9  C    0.204484
    10  C    0.040055
    19  Bq   0.000000
    20  Bq   0.000000
    21  Bq   0.000000
    22  Bq   0.000000
    23  Bq   0.000000
    24  Bq   0.000000
    25  Bq   0.000000
    26  Bq   0.000000
    27  Bq   0.000000
    28  Bq   0.000000
    29  Bq   0.000000
    30  Bq   0.000000
    31  Bq   0.000000
    32  Bq   0.000000
    33  Bq   0.000000
    34  Bq   0.000000
    35  Bq   0.000000
    36  Bq   0.000000
    37  Bq   0.000000
    38  Bq   0.000000
    39  Bq   0.000000
    40  Bq   0.000000
    41  Bq   0.000000
    42  Bq   0.000000
    43  Bq   0.000000
    44  Bq   0.000000
    45  Bq   0.000000
    46  Bq   0.000000
    47  Bq   0.000000
    48  Bq   0.000000
    49  Bq   0.000000
    50  Bq   0.000000
    51  Bq   0.000000
    52  Bq   0.000000
    53  Bq   0.000000
    54  Bq   0.000000
    55  Bq   0.000000
    56  Bq   0.000000
    57  Bq   0.000000
    58  Bq   0.000000
    59  Bq   0.000000
    60  Bq   0.000000
    61  Bq   0.000000
    62  Bq   0.000000
    63  Bq   0.000000
    64  Bq   0.000000
    65  Bq   0.000000
    66  Bq   0.000000
    67  Bq   0.000000
    68  Bq   0.000000
    69  Bq   0.000000
    70  Bq   0.000000
    71  Bq   0.000000
    72  Bq   0.000000
    73  Bq   0.000000
    74  Bq   0.000000
    75  Bq   0.000000
    76  Bq   0.000000
    77  Bq   0.000000
    78  Bq   0.000000
    79  Bq   0.000000
    80  Bq   0.000000
    81  Bq   0.000000
    82  Bq   0.000000
    83  Bq   0.000000
    84  Bq   0.000000
    85  Bq   0.000000
    86  Bq   0.000000
    87  Bq   0.000000
    88  Bq   0.000000
    89  Bq   0.000000
    90  Bq   0.000000
    91  Bq   0.000000
    92  Bq   0.000000
    93  Bq   0.000000
    94  Bq   0.000000
    95  Bq   0.000000
    96  Bq   0.000000
    97  Bq   0.000000
    98  Bq   0.000000
    99  Bq   0.000000
   100  Bq   0.000000
   101  Bq   0.000000
   102  Bq   0.000000
   103  Bq   0.000000
   104  Bq   0.000000
   105  Bq   0.000000
   106  Bq   0.000000
   107  Bq   0.000000
   108  Bq   0.000000
   109  Bq   0.000000
   110  Bq   0.000000
   111  Bq   0.000000
   112  Bq   0.000000
   113  Bq   0.000000
   114  Bq   0.000000
   115  Bq   0.000000
   116  Bq   0.000000
   117  Bq   0.000000
   118  Bq   0.000000
   119  Bq   0.000000
   120  Bq   0.000000
   121  Bq   0.000000
   122  Bq   0.000000
   123  Bq   0.000000
   124  Bq   0.000000
   125  Bq   0.000000
   126  Bq   0.000000
   127  Bq   0.000000
   128  Bq   0.000000
   129  Bq   0.000000
   130  Bq   0.000000
   131  Bq   0.000000
   132  Bq   0.000000
   133  Bq   0.000000
   134  Bq   0.000000
   135  Bq   0.000000
   136  Bq   0.000000
   137  Bq   0.000000
   138  Bq   0.000000
   139  Bq   0.000000
   140  Bq   0.000000
   141  Bq   0.000000
   142  Bq   0.000000
   143  Bq   0.000000
   144  Bq   0.000000
   145  Bq   0.000000
   146  Bq   0.000000
   147  Bq   0.000000
   148  Bq   0.000000
   149  Bq   0.000000
   150  Bq   0.000000
   151  Bq   0.000000
   152  Bq   0.000000
   153  Bq   0.000000
   154  Bq   0.000000
   155  Bq   0.000000
   156  Bq   0.000000
   157  Bq   0.000000
   158  Bq   0.000000
   159  Bq   0.000000
   160  Bq   0.000000
   161  Bq   0.000000
   162  Bq   0.000000
   163  Bq   0.000000
   164  Bq   0.000000
   165  Bq   0.000000
   166  Bq   0.000000
   167  Bq   0.000000
   168  Bq   0.000000
   169  Bq   0.000000
   170  Bq   0.000000
   171  Bq   0.000000
   172  Bq   0.000000
   173  Bq   0.000000
   174  Bq   0.000000
   175  Bq   0.000000
   176  Bq   0.000000
   177  Bq   0.000000
   178  Bq   0.000000
   179  Bq   0.000000
   180  Bq   0.000000
   181  Bq   0.000000
   182  Bq   0.000000
   183  Bq   0.000000
   184  Bq   0.000000
   185  Bq   0.000000
   186  Bq   0.000000
   187  Bq   0.000000
   188  Bq   0.000000
   189  Bq   0.000000
   190  Bq   0.000000
   191  Bq   0.000000
   192  Bq   0.000000
   193  Bq   0.000000
   194  Bq   0.000000
   195  Bq   0.000000
   196  Bq   0.000000
   197  Bq   0.000000
   198  Bq   0.000000
   199  Bq   0.000000
   200  Bq   0.000000
   201  Bq   0.000000
   202  Bq   0.000000
   203  Bq   0.000000
   204  Bq   0.000000
   205  Bq   0.000000
   206  Bq   0.000000
   207  Bq   0.000000
   208  Bq   0.000000
   209  Bq   0.000000
   210  Bq   0.000000
   211  Bq   0.000000
   212  Bq   0.000000
   213  Bq   0.000000
   214  Bq   0.000000
   215  Bq   0.000000
   216  Bq   0.000000
   217  Bq   0.000000
   218  Bq   0.000000
 Electronic spatial extent (au):  <R**2>=           1312.5323
 Charge=              0.0000 electrons
 Dipole moment (field-independent basis, Debye):
    X=              0.0000    Y=              0.0000    Z=              0.0000  Tot=              0.0000
 Quadrupole moment (field-independent basis, Debye-Ang):
   XX=            -51.9618   YY=            -52.1216   ZZ=            -65.1252
   XY=              0.0000   XZ=              0.0000   YZ=              0.0000
 Traceless Quadrupole moment (field-independent basis, Debye-Ang):
   XX=              4.4411   YY=              4.2812   ZZ=             -8.7224
   XY=              0.0000   XZ=              0.0000   YZ=              0.0000
 Octapole moment (field-independent basis, Debye-Ang**2):
  XXX=              0.0000  YYY=              0.0000  ZZZ=              0.0000  XYY=              0.0000
  XXY=              0.0000  XXZ=              0.0000  XZZ=              0.0000  YZZ=              0.0000
  YYZ=              0.0000  XYZ=              0.0000
 Hexadecapole moment (field-independent basis, Debye-Ang**3):
 XXXX=          -1119.8966 YYYY=           -498.1664 ZZZZ=            -79.6336 XXXY=              0.0000
 XXXZ=              0.0000 YYYX=              0.0000 YYYZ=              0.0000 ZZZX=              0.0000
 ZZZY=              0.0000 XXYY=           -275.3262 XXZZ=           -249.8350 YYZZ=           -117.4791
 XXYZ=              0.0000 YYXZ=              0.0000 ZZXY=              0.0000
 N-N= 4.538675371600D+02 E-N=-1.802310911208D+03  KE= 3.837199947839D+02
 1\1\GINC-PLANA\SP\RB3LYP\6-311+G(d,p)\C10H8\YANNICK\11-Sep-2020\0\\# r
 b3lyp/6-311+g** NMR geom=connectivity\\Title\\0,1\C,0,2.45076,-0.71174
 ,0.\C,0,2.45076,0.71174,0.\C,0,1.25139,1.41137,0.\C,0,0.,0.72289,0.\C,
 0,-1.25139,1.41137,0.\C,0,-2.45076,0.71174,0.\C,0,-2.45076,-0.71174,0.
 \C,0,-1.25139,-1.41137,0.\C,0,0.,-0.72289,0.\C,0,1.25139,-1.41137,0.\H
 ,0,3.40873,-1.25791,0.\H,0,3.40873,1.25791,0.\H,0,1.24972,2.51472,0.\H
 ,0,-1.24972,2.51472,0.\H,0,-3.40873,1.25791,0.\H,0,-3.40873,-1.25791,0
 .\H,0,-1.24972,-2.51472,0.\H,0,1.24972,-2.51472,0.\Bq,0,0.,-0.72289,1.
 \Bq,0,0.,-0.72289,1.\Bq,0,0.,-0.72289,1.\Bq,0,0.,-0.72289,1.\Bq,0,0.,-
 0.72289,1.\Bq,0,0.,-0.72289,1.\Bq,0,0.,-0.72289,1.\Bq,0,0.,-0.72289,1.
 \Bq,0,0.,-0.72289,1.\Bq,0,0.,-0.72289,1.\Bq,0,0.,-0.72289,1.\Bq,0,0.,-
 0.72289,1.\Bq,0,0.,-0.72289,1.\Bq,0,0.,-0.72289,1.\Bq,0,0.,-0.72289,1.
 \Bq,0,0.2588190451,-0.72289,0.9659258263\Bq,0,0.25,-0.6559027019,0.965
 9258263\Bq,0,0.224143868,-0.5934804774,0.9659258263\Bq,0,0.1830127019,
 -0.5398772981,0.9659258263\Bq,0,0.1294095226,-0.498746132,0.9659258263
 \Bq,0,0.0669872981,-0.47289,0.9659258263\Bq,0,0.,-0.4640709549,0.96592
 58263\Bq,0,-0.0669872981,-0.47289,0.9659258263\Bq,0,-0.1294095226,-0.4
 98746132,0.9659258263\Bq,0,-0.1830127019,-0.5398772981,0.9659258263\Bq
 ,0,-0.224143868,-0.5934804774,0.9659258263\Bq,0,-0.25,-0.6559027019,0.
 9659258263\Bq,0,-0.2588190451,-0.72289,0.9659258263\Bq,0,-0.25,-0.7898
 772981,0.9659258263\Bq,0,-0.224143868,-0.8522995226,0.9659258263\Bq,0,
 -0.1830127019,-0.9059027019,0.9659258263\Bq,0,-0.1294095226,-0.9470338
 68,0.9659258263\Bq,0,-0.0669872981,-0.97289,0.9659258263\Bq,0,0.,-0.98
 17090451,0.9659258263\Bq,0,0.0669872981,-0.97289,0.9659258263\Bq,0,0.1
 294095226,-0.947033868,0.9659258263\Bq,0,0.1830127019,-0.9059027019,0.
 9659258263\Bq,0,0.224143868,-0.8522995226,0.9659258263\Bq,0,0.25,-0.78
 98772981,0.9659258263\Bq,0,0.5,-0.72289,0.8660254038\Bq,0,0.4829629131
 ,-0.5934804774,0.8660254038\Bq,0,0.4330127019,-0.47289,0.8660254038\Bq
 ,0,0.3535533906,-0.3693366094,0.8660254038\Bq,0,0.25,-0.2898772981,0.8
 660254038\Bq,0,0.1294095226,-0.2399270869,0.8660254038\Bq,0,0.,-0.2228
 9,0.8660254038\Bq,0,-0.1294095226,-0.2399270869,0.8660254038\Bq,0,-0.2
 5,-0.2898772981,0.8660254038\Bq,0,-0.3535533906,-0.3693366094,0.866025
 4038\Bq,0,-0.4330127019,-0.47289,0.8660254038\Bq,0,-0.4829629131,-0.59
 34804774,0.8660254038\Bq,0,-0.5,-0.72289,0.8660254038\Bq,0,-0.48296291
 31,-0.8522995226,0.8660254038\Bq,0,-0.4330127019,-0.97289,0.8660254038
 \Bq,0,-0.3535533906,-1.0764433906,0.8660254038\Bq,0,-0.25,-1.155902701
 9,0.8660254038\Bq,0,-0.1294095226,-1.2058529131,0.8660254038\Bq,0,0.,-
 1.22289,0.8660254038\Bq,0,0.1294095226,-1.2058529131,0.8660254038\Bq,0
 ,0.25,-1.1559027019,0.8660254038\Bq,0,0.3535533906,-1.0764433906,0.866
 0254038\Bq,0,0.4330127019,-0.97289,0.8660254038\Bq,0,0.4829629131,-0.8
 522995226,0.8660254038\Bq,0,0.7071067812,-0.72289,0.7071067812\Bq,0,0.
 6830127019,-0.5398772981,0.7071067812\Bq,0,0.6123724357,-0.3693366094,
 0.7071067812\Bq,0,0.5,-0.22289,0.7071067812\Bq,0,0.3535533906,-0.11051
 75643,0.7071067812\Bq,0,0.1830127019,-0.0398772981,0.7071067812\Bq,0,0
 .,-0.0157832188,0.7071067812\Bq,0,-0.1830127019,-0.0398772981,0.707106
 7812\Bq,0,-0.3535533906,-0.1105175643,0.7071067812\Bq,0,-0.5,-0.22289,
 0.7071067812\Bq,0,-0.6123724357,-0.3693366094,0.7071067812\Bq,0,-0.683
 0127019,-0.5398772981,0.7071067812\Bq,0,-0.7071067812,-0.72289,0.70710
 67812\Bq,0,-0.6830127019,-0.9059027019,0.7071067812\Bq,0,-0.6123724357
 ,-1.0764433906,0.7071067812\Bq,0,-0.5,-1.22289,0.7071067812\Bq,0,-0.35
 35533906,-1.3352624357,0.7071067812\Bq,0,-0.1830127019,-1.4059027019,0
 .7071067812\Bq,0,0.,-1.4299967812,0.7071067812\Bq,0,0.1830127019,-1.40
 59027019,0.7071067812\Bq,0,0.3535533906,-1.3352624357,0.7071067812\Bq,
 0,0.5,-1.22289,0.7071067812\Bq,0,0.6123724357,-1.0764433906,0.70710678
 12\Bq,0,0.6830127019,-0.9059027019,0.7071067812\Bq,0,-0.224143868,-1.5
 594063037,0.5\Bq,0,0.,-1.5889154038,0.5\Bq,0,0.224143868,-1.5594063037
 ,0.5\Bq,0,-0.25,-1.6559027019,0.2588190451\Bq,0,0.,-1.6888158263,0.258
 8190451\Bq,0,0.25,-1.6559027019,0.2588190451\Bq,0,-0.2588190451,-1.688
 8158263,0.\Bq,0,0.,-1.72289,0.\Bq,0,0.2588190451,-1.6888158263,0.\Bq,0
 ,-0.25,-1.6559027019,-0.2588190451\Bq,0,0.,-1.6888158263,-0.2588190451
 \Bq,0,0.25,-1.6559027019,-0.2588190451\Bq,0,-0.224143868,-1.5594063037
 ,-0.5\Bq,0,0.,-1.5889154038,-0.5\Bq,0,0.224143868,-1.5594063037,-0.5\B
 q,0,0.7071067812,-0.72289,-0.7071067812\Bq,0,0.6830127019,-0.539877298
 1,-0.7071067812\Bq,0,0.6123724357,-0.3693366094,-0.7071067812\Bq,0,0.5
 ,-0.22289,-0.7071067812\Bq,0,0.3535533906,-0.1105175643,-0.7071067812\
 Bq,0,0.1830127019,-0.0398772981,-0.7071067812\Bq,0,0.,-0.0157832188,-0
 .7071067812\Bq,0,-0.1830127019,-0.0398772981,-0.7071067812\Bq,0,-0.353
 5533906,-0.1105175643,-0.7071067812\Bq,0,-0.5,-0.22289,-0.7071067812\B
 q,0,-0.6123724357,-0.3693366094,-0.7071067812\Bq,0,-0.6830127019,-0.53
 98772981,-0.7071067812\Bq,0,-0.7071067812,-0.72289,-0.7071067812\Bq,0,
 -0.6830127019,-0.9059027019,-0.7071067812\Bq,0,-0.6123724357,-1.076443
 3906,-0.7071067812\Bq,0,-0.5,-1.22289,-0.7071067812\Bq,0,-0.3535533906
 ,-1.3352624357,-0.7071067812\Bq,0,-0.1830127019,-1.4059027019,-0.70710
 67812\Bq,0,0.,-1.4299967812,-0.7071067812\Bq,0,0.1830127019,-1.4059027
 019,-0.7071067812\Bq,0,0.3535533906,-1.3352624357,-0.7071067812\Bq,0,0
 .5,-1.22289,-0.7071067812\Bq,0,0.6123724357,-1.0764433906,-0.707106781
 2\Bq,0,0.6830127019,-0.9059027019,-0.7071067812\Bq,0,0.5,-0.72289,-0.8
 660254038\Bq,0,0.4829629131,-0.5934804774,-0.8660254038\Bq,0,0.4330127
 019,-0.47289,-0.8660254038\Bq,0,0.3535533906,-0.3693366094,-0.86602540
 38\Bq,0,0.25,-0.2898772981,-0.8660254038\Bq,0,0.1294095226,-0.23992708
 69,-0.8660254038\Bq,0,0.,-0.22289,-0.8660254038\Bq,0,-0.1294095226,-0.
 2399270869,-0.8660254038\Bq,0,-0.25,-0.2898772981,-0.8660254038\Bq,0,-
 0.3535533906,-0.3693366094,-0.8660254038\Bq,0,-0.4330127019,-0.47289,-
 0.8660254038\Bq,0,-0.4829629131,-0.5934804774,-0.8660254038\Bq,0,-0.5,
 -0.72289,-0.8660254038\Bq,0,-0.4829629131,-0.8522995226,-0.8660254038\
 Bq,0,-0.4330127019,-0.97289,-0.8660254038\Bq,0,-0.3535533906,-1.076443
 3906,-0.8660254038\Bq,0,-0.25,-1.1559027019,-0.8660254038\Bq,0,-0.1294
 095226,-1.2058529131,-0.8660254038\Bq,0,0.,-1.22289,-0.8660254038\Bq,0
 ,0.1294095226,-1.2058529131,-0.8660254038\Bq,0,0.25,-1.1559027019,-0.8
 660254038\Bq,0,0.3535533906,-1.0764433906,-0.8660254038\Bq,0,0.4330127
 019,-0.97289,-0.8660254038\Bq,0,0.4829629131,-0.8522995226,-0.86602540
 38\Bq,0,0.2588190451,-0.72289,-0.9659258263\Bq,0,0.25,-0.6559027019,-0
 .9659258263\Bq,0,0.224143868,-0.5934804774,-0.9659258263\Bq,0,0.183012
 7019,-0.5398772981,-0.9659258263\Bq,0,0.1294095226,-0.498746132,-0.965
 9258263\Bq,0,0.0669872981,-0.47289,-0.9659258263\Bq,0,0.,-0.4640709549
 ,-0.9659258263\Bq,0,-0.0669872981,-0.47289,-0.9659258263\Bq,0,-0.12940
 95226,-0.498746132,-0.9659258263\Bq,0,-0.1830127019,-0.5398772981,-0.9
 659258263\Bq,0,-0.224143868,-0.5934804774,-0.9659258263\Bq,0,-0.25,-0.
 6559027019,-0.9659258263\Bq,0,-0.2588190451,-0.72289,-0.9659258263\Bq,
 0,-0.25,-0.7898772981,-0.9659258263\Bq,0,-0.224143868,-0.8522995226,-0
 .9659258263\Bq,0,-0.1830127019,-0.9059027019,-0.9659258263\Bq,0,-0.129
 4095226,-0.947033868,-0.9659258263\Bq,0,-0.0669872981,-0.97289,-0.9659
 258263\Bq,0,0.,-0.9817090451,-0.9659258263\Bq,0,0.0669872981,-0.97289,
 -0.9659258263\Bq,0,0.1294095226,-0.947033868,-0.9659258263\Bq,0,0.1830
 127019,-0.9059027019,-0.9659258263\Bq,0,0.224143868,-0.8522995226,-0.9
 659258263\Bq,0,0.25,-0.7898772981,-0.9659258263\Bq,0,1.25139,-1.41137,
 1.\Bq,0,1.25139,-1.41137,1.\Bq,0,1.25139,-1.41137,1.\Bq,0,1.25139,-1.4
 1137,1.\Bq,0,1.25139,-1.41137,1.\Bq,0,1.25139,-1.41137,1.\Bq,0,1.25139
 ,-1.41137,1.\Bq,0,1.25139,-1.41137,1.\Bq,0,1.25139,-1.41137,1.\Bq,0,1.
 25139,-1.41137,1.\Bq,0,1.25139,-1.41137,1.\Bq,0,1.25139,-1.41137,1.\Bq
 ,0,1.25139,-1.41137,1.\Bq,0,1.25139,-1.41137,1.\Bq,0,1.25139,-1.41137,
 1.\Bq,0,1.25139,-1.41137,1.\Bq,0,1.25139,-1.41137,1.\Bq,0,1.25139,-1.4
 1137,1.\Bq,0,1.25139,-1.41137,1.\Bq,0,1.25139,-1.41137,1.\Bq,0,1.25139
 ,-1.41137,1.\Bq,0,1.25139,-1.41137,1.\Bq,0,1.25139,-1.41137,1.\Bq,0,1.
 25139,-1.41137,1.\Bq,0,1.5102090451,-1.41137,0.9659258263\Bq,0,1.50139
 ,-1.3443827019,0.9659258263\\Version=ES64L-G09RevD.01\HF=-385.9859319\
 RMSD=7.796e-09\Dipole=0.,0.,0.\Quadrupole=3.3018588,3.182998,-6.484856
 8,0.,0.,0.\PG=C01 [X(C10H8)]\\@


 REPARTEE - WHAT YOU THINK OF AFTER YOU BECOME A DEPARTEE.
 Job cpu time:       0 days  0 hours 14 minutes 10.3 seconds.
 File lengths (MBytes):  RWF=     43 Int=      0 D2E=      0 Chk=      5 Scr=      1
 Normal termination of Gaussian 09 at Fri Sep 11 11:31:20 2020.
