 Entering Gaussian System, Link 0=g09
 Input=input_batch_04000.com
 Output=input_batch_04000.log
 Initial command:
 /share/programs/GAUSSIAN/64/g09/l1.exe "/scratch/yannick.36502/Gau-3610159.inp" -scrdir="/scratch/yannick.36502/"
 Entering Link 1 = /share/programs/GAUSSIAN/64/g09/l1.exe PID=   3610169.
  
 Copyright (c) 1988,1990,1992,1993,1995,1998,2003,2009,2013,
            Gaussian, Inc.  All Rights Reserved.
  
 This is part of the Gaussian(R) 09 program.  It is based on
 the Gaussian(R) 03 system (copyright 2003, Gaussian, Inc.),
 the Gaussian(R) 98 system (copyright 1998, Gaussian, Inc.),
 the Gaussian(R) 94 system (copyright 1995, Gaussian, Inc.),
 the Gaussian 92(TM) system (copyright 1992, Gaussian, Inc.),
 the Gaussian 90(TM) system (copyright 1990, Gaussian, Inc.),
 the Gaussian 88(TM) system (copyright 1988, Gaussian, Inc.),
 the Gaussian 86(TM) system (copyright 1986, Carnegie Mellon
 University), and the Gaussian 82(TM) system (copyright 1983,
 Carnegie Mellon University). Gaussian is a federally registered
 trademark of Gaussian, Inc.
  
 This software contains proprietary and confidential information,
 including trade secrets, belonging to Gaussian, Inc.
  
 This software is provided under written license and may be
 used, copied, transmitted, or stored only in accord with that
 written license.
  
 The following legend is applicable only to US Government
 contracts under FAR:
  
                    RESTRICTED RIGHTS LEGEND
  
 Use, reproduction and disclosure by the US Government is
 subject to restrictions as set forth in subparagraphs (a)
 and (c) of the Commercial Computer Software - Restricted
 Rights clause in FAR 52.227-19.
  
 Gaussian, Inc.
 340 Quinnipiac St., Bldg. 40, Wallingford CT 06492
  
  
 ---------------------------------------------------------------
 Warning -- This program may not be used in any manner that
 competes with the business of Gaussian, Inc. or will provide
 assistance to any competitor of Gaussian, Inc.  The licensee
 of this program is prohibited from giving any competitor of
 Gaussian, Inc. access to this program.  By using this program,
 the user acknowledges that Gaussian, Inc. is engaged in the
 business of creating and licensing software in the field of
 computational chemistry and represents and warrants to the
 licensee that it is not a competitor of Gaussian, Inc. and that
 it will not use this program in any manner prohibited above.
 ---------------------------------------------------------------
  

 Cite this work as:
 Gaussian 09, Revision D.01,
 M. J. Frisch, G. W. Trucks, H. B. Schlegel, G. E. Scuseria, 
 M. A. Robb, J. R. Cheeseman, G. Scalmani, V. Barone, B. Mennucci, 
 G. A. Petersson, H. Nakatsuji, M. Caricato, X. Li, H. P. Hratchian, 
 A. F. Izmaylov, J. Bloino, G. Zheng, J. L. Sonnenberg, M. Hada, 
 M. Ehara, K. Toyota, R. Fukuda, J. Hasegawa, M. Ishida, T. Nakajima, 
 Y. Honda, O. Kitao, H. Nakai, T. Vreven, J. A. Montgomery, Jr., 
 J. E. Peralta, F. Ogliaro, M. Bearpark, J. J. Heyd, E. Brothers, 
 K. N. Kudin, V. N. Staroverov, T. Keith, R. Kobayashi, J. Normand, 
 K. Raghavachari, A. Rendell, J. C. Burant, S. S. Iyengar, J. Tomasi, 
 M. Cossi, N. Rega, J. M. Millam, M. Klene, J. E. Knox, J. B. Cross, 
 V. Bakken, C. Adamo, J. Jaramillo, R. Gomperts, R. E. Stratmann, 
 O. Yazyev, A. J. Austin, R. Cammi, C. Pomelli, J. W. Ochterski, 
 R. L. Martin, K. Morokuma, V. G. Zakrzewski, G. A. Voth, 
 P. Salvador, J. J. Dannenberg, S. Dapprich, A. D. Daniels, 
 O. Farkas, J. B. Foresman, J. V. Ortiz, J. Cioslowski, 
 and D. J. Fox, Gaussian, Inc., Wallingford CT, 2013.
 
 ******************************************
 Gaussian 09:  ES64L-G09RevD.01 24-Apr-2013
                11-Sep-2020 
 ******************************************
 %nproc=8
 Will use up to    8 processors via shared memory.
 %mem=1000MB
 ----------------------------------------
 # rb3lyp/6-311+g** NMR geom=connectivity
 ----------------------------------------
 1/38=1,57=2/1;
 2/12=2,17=6,18=5,40=1/2;
 3/5=4,6=6,7=111,11=2,16=1,25=1,30=1,74=-5,116=1/1,2,8,3;
 4//1;
 5/5=2,38=5/2;
 8/6=1,10=90,11=11/1;
 10/13=100,45=16/2;
 6/7=2,8=2,9=2,10=2,28=1/1;
 99/9=1/99;
 -----
 Title
 -----
 Symbolic Z-matrix:
 Charge =  0 Multiplicity = 1
 C                     2.45076  -0.71174   0. 
 C                     2.45076   0.71174   0. 
 C                     1.25139   1.41137   0. 
 C                     0.        0.72289   0. 
 C                    -1.25139   1.41137   0. 
 C                    -2.45076   0.71174   0. 
 C                    -2.45076  -0.71174   0. 
 C                    -1.25139  -1.41137   0. 
 C                     0.       -0.72289   0. 
 C                     1.25139  -1.41137   0. 
 H                     3.40873  -1.25791   0. 
 H                     3.40873   1.25791   0. 
 H                     1.24972   2.51472   0. 
 H                    -1.24972   2.51472   0. 
 H                    -3.40873   1.25791   0. 
 H                    -3.40873  -1.25791   0. 
 H                    -1.24972  -2.51472   0. 
 H                     1.24972  -2.51472   0. 
 Bq                    1.00991  -0.12941  -0.96593 
 Bq                    1.05104  -0.18301  -0.96593 
 Bq                    1.10464  -0.22414  -0.96593 
 Bq                    1.16706  -0.25     -0.96593 
 Bq                    1.23405  -0.25882  -0.96593 
 Bq                    1.30104  -0.25     -0.96593 
 Bq                    1.36346  -0.22414  -0.96593 
 Bq                    1.41706  -0.18301  -0.96593 
 Bq                    1.45819  -0.12941  -0.96593 
 Bq                    1.48405  -0.06699  -0.96593 
 
                          Input orientation:                          
 ---------------------------------------------------------------------
 Center     Atomic      Atomic             Coordinates (Angstroms)
 Number     Number       Type             X           Y           Z
 ---------------------------------------------------------------------
      1          6           0        2.450760   -0.711740    0.000000
      2          6           0        2.450760    0.711740    0.000000
      3          6           0        1.251390    1.411370    0.000000
      4          6           0        0.000000    0.722890    0.000000
      5          6           0       -1.251390    1.411370    0.000000
      6          6           0       -2.450760    0.711740    0.000000
      7          6           0       -2.450760   -0.711740    0.000000
      8          6           0       -1.251390   -1.411370    0.000000
      9          6           0        0.000000   -0.722890    0.000000
     10          6           0        1.251390   -1.411370    0.000000
     11          1           0        3.408730   -1.257910    0.000000
     12          1           0        3.408730    1.257910    0.000000
     13          1           0        1.249720    2.514720    0.000000
     14          1           0       -1.249720    2.514720    0.000000
     15          1           0       -3.408730    1.257910    0.000000
     16          1           0       -3.408730   -1.257910    0.000000
     17          1           0       -1.249720   -2.514720    0.000000
     18          1           0        1.249720   -2.514720    0.000000
     19          0           0        1.009906   -0.129410   -0.965926
     20          0           0        1.051037   -0.183013   -0.965926
     21          0           0        1.104640   -0.224144   -0.965926
     22          0           0        1.167063   -0.250000   -0.965926
     23          0           0        1.234050   -0.258819   -0.965926
     24          0           0        1.301037   -0.250000   -0.965926
     25          0           0        1.363460   -0.224144   -0.965926
     26          0           0        1.417063   -0.183013   -0.965926
     27          0           0        1.458194   -0.129410   -0.965926
     28          0           0        1.484050   -0.066987   -0.965926
 ---------------------------------------------------------------------
                    Distance matrix (angstroms):
                    1          2          3          4          5
     1  C    0.000000
     2  C    1.423480   0.000000
     3  C    2.438459   1.388514   0.000000
     4  C    2.839787   2.450785   1.428279   0.000000
     5  C    4.267729   3.767678   2.502780   1.428279   0.000000
     6  C    5.104037   4.901520   3.767678   2.450785   1.388514
     7  C    4.901520   5.104037   4.267729   2.839787   2.438459
     8  C    3.767678   4.267729   3.772502   2.474074   2.822740
     9  C    2.450785   2.839787   2.474074   1.445780   2.474074
    10  C    1.388514   2.438459   2.822740   2.474074   3.772502
    11  H    1.102728   2.190257   3.432080   3.942462   5.370454
    12  H    2.190257   1.102728   2.162791   3.450462   4.662646
    13  H    3.442752   2.166387   1.103351   2.184595   2.733666
    14  H    4.909541   4.116344   2.733666   2.184595   1.103351
    15  H    6.181678   5.884890   4.662646   3.450462   2.162791
    16  H    5.884890   6.181678   5.370454   3.942462   3.432080
    17  H    4.116344   4.909541   4.655076   3.470435   3.926090
    18  H    2.166387   3.442752   3.926090   3.470435   4.655076
    19  Bq   1.829804   1.927850   1.834483   1.636868   2.901805
    20  Bq   1.780952   1.921671   1.874889   1.690666   2.962472
    21  Bq   1.727079   1.902874   1.905113   1.746458   3.026351
    22  Bq   1.671555   1.872388   1.923610   1.800434   3.089025
    23  Bq   1.618188   1.831770   1.929467   1.849228   3.146420
    24  Bq   1.571012   1.783205   1.922402   1.890033   3.195004
    25  Bq   1.533944   1.729484   1.902755   1.920653   3.231928
    26  Bq   1.510330   1.673955   1.871501   1.939520   3.255105
    27  Bq   1.502434   1.620411   1.830241   1.945702   3.263259
    28  Bq   1.511042   1.572882   1.781203   1.938897   3.255946
                    6          7          8          9         10
     6  C    0.000000
     7  C    1.423480   0.000000
     8  C    2.438459   1.388514   0.000000
     9  C    2.839787   2.450785   1.428279   0.000000
    10  C    4.267729   3.767678   2.502780   1.428279   0.000000
    11  H    6.181678   5.884890   4.662646   3.450462   2.162791
    12  H    5.884890   6.181678   5.370454   3.942462   3.432080
    13  H    4.116344   4.909541   4.655076   3.470435   3.926090
    14  H    2.166387   3.442752   3.926090   3.470435   4.655076
    15  H    1.102728   2.190257   3.432080   3.942462   5.370454
    16  H    2.190257   1.102728   2.162791   3.450462   4.662646
    17  H    3.442752   2.166387   1.103351   2.184595   2.733666
    18  H    4.909541   4.116344   2.733666   2.184595   1.103351
    19  Bq   3.690089   3.639826   2.773066   1.518269   1.623191
    20  Bq   3.741147   3.670851   2.782633   1.526158   1.575441
    21  Bq   3.801285   3.716401   2.809519   1.549836   1.537548
    22  Bq   3.866083   3.772911   2.851439   1.587033   1.512912
    23  Bq   3.931008   3.836141   2.904961   1.634397   1.503891
    24  Bq   3.991734   3.901564   2.965919   1.687998   1.511376
    25  Bq   4.044399   3.964724   3.029844   1.743784   1.534626
    26  Bq   4.085786   4.021519   3.092332   1.797929   1.571408
    27  Bq   4.113449   4.068420   3.149330   1.847041   1.618395
    28  Bq   4.125792   4.102615   3.197344   1.888286   1.671678
                   11         12         13         14         15
    11  H    0.000000
    12  H    2.515820   0.000000
    13  H    4.346730   2.498178   0.000000
    14  H    5.994489   4.825011   2.499440   0.000000
    15  H    7.266850   6.817460   4.825011   2.498178   0.000000
    16  H    6.817460   7.266850   5.994489   4.346730   2.515820
    17  H    4.825011   5.994489   5.616268   5.029440   4.346730
    18  H    2.498178   4.346730   5.029440   5.616268   5.994489
    19  Bq   2.821503   2.934625   2.825233   3.609757   4.730963
    20  Bq   2.765345   2.927112   2.872325   3.674814   4.785269
    21  Bq   2.703796   2.904879   2.907823   3.738636   4.847681
    22  Bq   2.640827   2.869125   2.929765   3.797042   4.913724
    23  Bq   2.580781   2.821828   2.936967   3.846381   4.978844
    24  Bq   2.528095   2.765714   2.929048   3.883691   5.038721
    25  Bq   2.486929   2.704187   2.906428   3.906801   5.089527
    26  Bq   2.460723   2.641214   2.870327   3.914397   5.128113
    27  Bq   2.451758   2.581135   2.822746   3.906051   5.152147
    28  Bq   2.460834   2.528391   2.766430   3.882232   5.160200
                   16         17         18         19         20
    16  H    0.000000
    17  H    2.498178   0.000000
    18  H    4.825011   2.499440   0.000000
    19  Bq   4.661638   3.424709   2.584614   0.000000
    20  Bq   4.688064   3.415166   2.531669   0.067565   0.000000
    21  Bq   4.729926   3.423852   2.490141   0.133975   0.067565
    22  Bq   4.784012   3.450045   2.463494   0.198092   0.133975
    23  Bq   4.846298   3.491592   2.454047   0.258819   0.198092
    24  Bq   4.912311   3.545184   2.462641   0.315118   0.258819
    25  Bq   4.977497   3.606724   2.488511   0.366025   0.315118
    26  Bq   5.037528   3.671730   2.529402   0.410670   0.366025
    27  Bq   5.088563   3.735708   2.581895   0.448288   0.410670
    28  Bq   5.127437   3.794457   2.641840   0.478235   0.448288
                   21         22         23         24         25
    21  Bq   0.000000
    22  Bq   0.067565   0.000000
    23  Bq   0.133975   0.067565   0.000000
    24  Bq   0.198092   0.133975   0.067565   0.000000
    25  Bq   0.258819   0.198092   0.133975   0.067565   0.000000
    26  Bq   0.315118   0.258819   0.198092   0.133975   0.067565
    27  Bq   0.366025   0.315118   0.258819   0.198092   0.133975
    28  Bq   0.410670   0.366025   0.315118   0.258819   0.198092
                   26         27         28
    26  Bq   0.000000
    27  Bq   0.067565   0.000000
    28  Bq   0.133975   0.067565   0.000000
 Symmetry turned off:
 Cannot cope with ghost atoms or with translation vectors.
 Stoichiometry    C10H8
 Framework group  C1[X(C10H8)]
 NUMDOF-- NAT=    18 NAtoms=    28
 Deg. of freedom     0
 Full point group                 C1      NOp   1
 Rotational constants (GHZ):      3.0751358      1.2130944      0.8699230
 Standard basis: 6-311+G(d,p) (5D, 7F)
 Warning:  center  19 has no basis functions!
 Warning:  center  20 has no basis functions!
 Warning:  center  21 has no basis functions!
 Warning:  center  22 has no basis functions!
 Warning:  center  23 has no basis functions!
 Warning:  center  24 has no basis functions!
 Warning:  center  25 has no basis functions!
 Warning:  center  26 has no basis functions!
 Warning:  center  27 has no basis functions!
 Warning:  center  28 has no basis functions!
   268 basis functions,   424 primitive gaussians,   278 cartesian basis functions
    34 alpha electrons       34 beta electrons
       nuclear repulsion energy       453.8675371600 Hartrees.
 NAtoms=   28 NActive=   28 NUniq=   28 SFac= 1.00D+00 NAtFMM=   60 NAOKFM=F Big=F
 Integral buffers will be    131072 words long.
 Raffenetti 2 integral format.
 Two-electron integral symmetry is turned off.
 One-electron integrals computed using PRISM.
 NBasis=   268 RedAO= T EigKep=  1.12D-06  NBF=   268
 NBsUse=   267 1.00D-06 EigRej=  6.14D-07 NBFU=   267
 ExpMin= 4.38D-02 ExpMax= 4.56D+03 ExpMxC= 6.82D+02 IAcc=2 IRadAn=         4 AccDes= 0.00D+00
 Harris functional with IExCor=  402 and IRadAn=       4 diagonalized for initial guess.
 HarFok:  IExCor=  402 AccDes= 0.00D+00 IRadAn=         4 IDoV= 1 UseB2=F ITyADJ=14
 ICtDFT=  3500011 ScaDFX=  1.000000  1.000000  1.000000  1.000000
 FoFCou: FMM=F IPFlag=           0 FMFlag=      100000 FMFlg1=           0
         NFxFlg=           0 DoJE=T BraDBF=F KetDBF=T FulRan=T
         wScrn=  0.000000 ICntrl=     500 IOpCl=  0 I1Cent=   200000004 NGrid=           0
         NMat0=    1 NMatS0=      1 NMatT0=    0 NMatD0=    1 NMtDS0=    0 NMtDT0=    0
 Symmetry not used in FoFCou.
 Requested convergence on RMS density matrix=1.00D-08 within 128 cycles.
 Requested convergence on MAX density matrix=1.00D-06.
 Requested convergence on             energy=1.00D-06.
 No special actions if energy rises.
 SCF Done:  E(RB3LYP) =  -385.985931946     A.U. after   11 cycles
            NFock= 11  Conv=0.79D-08     -V/T= 2.0059
 DoSCS=F DFT=T ScalE2(SS,OS)=  1.000000  1.000000
 Range of M.O.s used for correlation:     1   267
 NBasis=   268 NAE=    34 NBE=    34 NFC=     0 NFV=     0
 NROrb=    267 NOA=    34 NOB=    34 NVA=   233 NVB=   233

 **** Warning!!: The largest alpha MO coefficient is  0.20992186D+03

          Differentiating once with respect to magnetic field using GIAOs.
          Electric field/nuclear overlap derivatives assumed to be zero.
 FoFCou: FMM=F IPFlag=           0 FMFlag=      100000 FMFlg1=           0
         NFxFlg=           0 DoJE=F BraDBF=F KetDBF=T FulRan=T
         wScrn=  0.000000 ICntrl=    6100 IOpCl=  0 I1Cent=           7 NGrid=          28
         NMat0=    1 NMatS0=      1 NMatT0=    0 NMatD0=    1 NMtDS0=    0 NMtDT0=    0
 Symmetry not used in FoFCou.
 FoFJK:  IHMeth= 1 ICntrl=    6127 DoSepK=F KAlg= 0 I1Cent=   0 FoldK=F
 IRaf=         1 NMat=   1 IRICut=       1 DoRegI=T DoRafI=F ISym2E= 0.
          There are     3 degrees of freedom in the 1st order CPHF.  IDoFFX=0 NUNeed=     3.
      3 vectors produced by pass  0 Test12= 2.64D-13 3.33D-08 XBig12= 1.44D+02 6.48D+00.
 AX will form     3 AO Fock derivatives at one time.
      3 vectors produced by pass  1 Test12= 2.64D-13 3.33D-08 XBig12= 2.28D-01 1.79D-01.
      3 vectors produced by pass  2 Test12= 2.64D-13 3.33D-08 XBig12= 7.58D-04 1.41D-02.
      3 vectors produced by pass  3 Test12= 2.64D-13 3.33D-08 XBig12= 2.19D-06 6.12D-04.
      3 vectors produced by pass  4 Test12= 2.64D-13 3.33D-08 XBig12= 2.99D-09 2.39D-05.
      3 vectors produced by pass  5 Test12= 2.64D-13 3.33D-08 XBig12= 6.15D-12 9.51D-07.
      1 vectors produced by pass  6 Test12= 2.64D-13 3.33D-08 XBig12= 9.29D-15 3.79D-08.
 InvSVY:  IOpt=1 It=  1 EMax= 1.78D-15
 Solved reduced A of dimension    19 with     3 vectors.
 Calculating GIAO nuclear magnetic shielding tensors.
 SCF GIAO Magnetic shielding tensor (ppm):
      1  C    Isotropic =    48.8814   Anisotropy =   178.3631
   XX=   -26.3877   YX=    47.3635   ZX=     0.0000
   XY=    49.5434   YY=     5.2417   ZY=     0.0000
   XZ=     0.0000   YZ=     0.0000   ZZ=   167.7901
   Eigenvalues:   -61.5420    40.3960   167.7901
      2  C    Isotropic =    48.8814   Anisotropy =   178.3631
   XX=   -26.3877   YX=   -47.3635   ZX=     0.0000
   XY=   -49.5434   YY=     5.2417   ZY=     0.0000
   XZ=     0.0000   YZ=     0.0000   ZZ=   167.7901
   Eigenvalues:   -61.5420    40.3960   167.7901
      3  C    Isotropic =    47.0315   Anisotropy =   159.6105
   XX=    39.7012   YX=   -14.9645   ZX=     0.0000
   XY=   -12.8373   YY=   -52.0452   ZY=     0.0000
   XZ=     0.0000   YZ=     0.0000   ZZ=   153.4385
   Eigenvalues:   -54.1051    41.7611   153.4385
      4  C    Isotropic =    40.3220   Anisotropy =   214.7654
   XX=   -33.3511   YX=     0.0000   ZX=     0.0000
   XY=     0.0000   YY=   -29.1819   ZY=     0.0000
   XZ=     0.0000   YZ=     0.0000   ZZ=   183.4989
   Eigenvalues:   -33.3511   -29.1819   183.4989
      5  C    Isotropic =    47.0315   Anisotropy =   159.6105
   XX=    39.7012   YX=    14.9645   ZX=     0.0000
   XY=    12.8373   YY=   -52.0452   ZY=     0.0000
   XZ=     0.0000   YZ=     0.0000   ZZ=   153.4385
   Eigenvalues:   -54.1051    41.7611   153.4385
      6  C    Isotropic =    48.8814   Anisotropy =   178.3631
   XX=   -26.3877   YX=    47.3635   ZX=     0.0000
   XY=    49.5434   YY=     5.2417   ZY=     0.0000
   XZ=     0.0000   YZ=     0.0000   ZZ=   167.7901
   Eigenvalues:   -61.5420    40.3960   167.7901
      7  C    Isotropic =    48.8814   Anisotropy =   178.3631
   XX=   -26.3877   YX=   -47.3635   ZX=     0.0000
   XY=   -49.5434   YY=     5.2417   ZY=     0.0000
   XZ=     0.0000   YZ=     0.0000   ZZ=   167.7901
   Eigenvalues:   -61.5420    40.3960   167.7901
      8  C    Isotropic =    47.0315   Anisotropy =   159.6105
   XX=    39.7012   YX=   -14.9645   ZX=     0.0000
   XY=   -12.8373   YY=   -52.0452   ZY=     0.0000
   XZ=     0.0000   YZ=     0.0000   ZZ=   153.4385
   Eigenvalues:   -54.1051    41.7611   153.4385
      9  C    Isotropic =    40.3220   Anisotropy =   214.7654
   XX=   -33.3511   YX=     0.0000   ZX=     0.0000
   XY=     0.0000   YY=   -29.1819   ZY=     0.0000
   XZ=     0.0000   YZ=     0.0000   ZZ=   183.4989
   Eigenvalues:   -33.3511   -29.1819   183.4989
     10  C    Isotropic =    47.0315   Anisotropy =   159.6105
   XX=    39.7012   YX=    14.9645   ZX=     0.0000
   XY=    12.8373   YY=   -52.0452   ZY=     0.0000
   XZ=     0.0000   YZ=     0.0000   ZZ=   153.4385
   Eigenvalues:   -54.1051    41.7611   153.4385
     11  H    Isotropic =    23.8865   Anisotropy =     5.6622
   XX=    25.3494   YX=     1.7328   ZX=     0.0000
   XY=     1.7216   YY=    26.3711   ZY=     0.0000
   XZ=     0.0000   YZ=     0.0000   ZZ=    19.9391
   Eigenvalues:    19.9391    24.0591    27.6614
     12  H    Isotropic =    23.8865   Anisotropy =     5.6622
   XX=    25.3494   YX=    -1.7328   ZX=     0.0000
   XY=    -1.7216   YY=    26.3711   ZY=     0.0000
   XZ=     0.0000   YZ=     0.0000   ZZ=    19.9391
   Eigenvalues:    19.9391    24.0591    27.6614
     13  H    Isotropic =    23.5289   Anisotropy =     7.4859
   XX=    28.4698   YX=    -0.2957   ZX=     0.0000
   XY=    -0.7473   YY=    23.0511   ZY=     0.0000
   XZ=     0.0000   YZ=     0.0000   ZZ=    19.0659
   Eigenvalues:    19.0659    23.0014    28.5196
     14  H    Isotropic =    23.5289   Anisotropy =     7.4859
   XX=    28.4698   YX=     0.2957   ZX=     0.0000
   XY=     0.7473   YY=    23.0511   ZY=     0.0000
   XZ=     0.0000   YZ=     0.0000   ZZ=    19.0659
   Eigenvalues:    19.0659    23.0014    28.5196
     15  H    Isotropic =    23.8865   Anisotropy =     5.6622
   XX=    25.3494   YX=     1.7328   ZX=     0.0000
   XY=     1.7216   YY=    26.3711   ZY=     0.0000
   XZ=     0.0000   YZ=     0.0000   ZZ=    19.9391
   Eigenvalues:    19.9391    24.0591    27.6614
     16  H    Isotropic =    23.8865   Anisotropy =     5.6622
   XX=    25.3494   YX=    -1.7328   ZX=     0.0000
   XY=    -1.7216   YY=    26.3711   ZY=     0.0000
   XZ=     0.0000   YZ=     0.0000   ZZ=    19.9391
   Eigenvalues:    19.9391    24.0591    27.6614
     17  H    Isotropic =    23.5289   Anisotropy =     7.4859
   XX=    28.4698   YX=    -0.2957   ZX=     0.0000
   XY=    -0.7473   YY=    23.0511   ZY=     0.0000
   XZ=     0.0000   YZ=     0.0000   ZZ=    19.0659
   Eigenvalues:    19.0659    23.0014    28.5196
     18  H    Isotropic =    23.5289   Anisotropy =     7.4859
   XX=    28.4698   YX=     0.2957   ZX=     0.0000
   XY=     0.7473   YY=    23.0511   ZY=     0.0000
   XZ=     0.0000   YZ=     0.0000   ZZ=    19.0659
   Eigenvalues:    19.0659    23.0014    28.5196
     19  Bq   Isotropic =    10.9872   Anisotropy =    27.9379
   XX=     1.5174   YX=    -0.2500   ZX=    -1.2164
   XY=    -0.2018   YY=     2.1675   ZY=    -0.5089
   XZ=    -4.9264   YZ=     0.4232   ZZ=    29.2767
   Eigenvalues:     1.1309     2.2182    29.6125
     20  Bq   Isotropic =    11.0221   Anisotropy =    27.9111
   XX=     1.5847   YX=    -0.3036   ZX=    -1.0467
   XY=    -0.2348   YY=     2.1457   ZY=    -0.7179
   XZ=    -4.6912   YZ=     0.5797   ZZ=    29.3360
   Eigenvalues:     1.2104     2.2264    29.6295
     21  Bq   Isotropic =    11.0769   Anisotropy =    27.9107
   XX=     1.6525   YX=    -0.3073   ZX=    -0.8398
   XY=    -0.2219   YY=     2.1401   ZY=    -0.8713
   XZ=    -4.4110   YZ=     0.6833   ZZ=    29.4380
   Eigenvalues:     1.3166     2.2299    29.6840
     22  Bq   Isotropic =    11.1497   Anisotropy =    27.9482
   XX=     1.6860   YX=    -0.2758   ZX=    -0.6116
   XY=    -0.1784   YY=     2.1808   ZY=    -0.9609
   XZ=    -4.1190   YZ=     0.7293   ZZ=    29.5824
   Eigenvalues:     1.4142     2.2531    29.7819
     23  Bq   Isotropic =    11.2331   Anisotropy =    28.0248
   XX=     1.6508   YX=    -0.2221   ZX=    -0.3809
   XY=    -0.1159   YY=     2.2907   ZY=    -0.9887
   XZ=    -3.8450   YZ=     0.7178   ZZ=    29.7578
   Eigenvalues:     1.4547     2.3283    29.9163
     24  Bq   Isotropic =    11.3148   Anisotropy =    28.1327
   XX=     1.5335   YX=    -0.1532   ZX=    -0.1695
   XY=    -0.0404   YY=     2.4670   ZY=    -0.9572
   XZ=    -3.6122   YZ=     0.6555   ZZ=    29.9439
   Eigenvalues:     1.3976     2.4769    30.0700
     25  Bq   Isotropic =    11.3829   Anisotropy =    28.2565
   XX=     1.3528   YX=    -0.0771   ZX=     0.0063
   XY=     0.0381   YY=     2.6778   ZY=    -0.8640
   XZ=    -3.4322   YZ=     0.5554   ZZ=    30.1180
   Eigenvalues:     1.2506     2.6775    30.2205
     26  Bq   Isotropic =    11.4301   Anisotropy =    28.3773
   XX=     1.1515   YX=    -0.0093   ZX=     0.1422
   XY=     0.0985   YY=     2.8768   ZY=    -0.7081
   XZ=    -3.3040   YZ=     0.4321   ZZ=    30.2620
   Eigenvalues:     1.0651     2.8769    30.3483
     27  Bq   Isotropic =    11.4569   Anisotropy =    28.4781
   XX=     0.9763   YX=     0.0300   ZX=     0.2418
   XY=     0.1150   YY=     3.0277   ZY=    -0.4993
   XZ=    -3.2194   YZ=     0.2956   ZZ=    30.3666
   Eigenvalues:     0.8990     3.0294    30.4423
     28  Bq   Isotropic =    11.4688   Anisotropy =    28.5450
   XX=     0.8609   YX=     0.0297   ZX=     0.3052
   XY=     0.0766   YY=     3.1161   ZY=    -0.2568
   XZ=    -3.1708   YZ=     0.1504   ZZ=    30.4294
   Eigenvalues:     0.7905     3.1171    30.4988
 End of Minotr F.D. properties file   721 does not exist.
 End of Minotr F.D. properties file   722 does not exist.
 End of Minotr F.D. properties file   788 does not exist.

 **********************************************************************

            Population analysis using the SCF density.

 **********************************************************************

 Alpha  occ. eigenvalues --  -10.19431 -10.19392 -10.18644 -10.18642 -10.18630
 Alpha  occ. eigenvalues --  -10.18629 -10.18587 -10.18586 -10.18558 -10.18557
 Alpha  occ. eigenvalues --   -0.87642  -0.82396  -0.77723  -0.74528  -0.72264
 Alpha  occ. eigenvalues --   -0.63036  -0.61582  -0.59896  -0.51712  -0.51517
 Alpha  occ. eigenvalues --   -0.49821  -0.45248  -0.44631  -0.42336  -0.42227
 Alpha  occ. eigenvalues --   -0.40585  -0.39514  -0.37600  -0.34706  -0.33848
 Alpha  occ. eigenvalues --   -0.33373  -0.29305  -0.25287  -0.22507
 Alpha virt. eigenvalues --   -0.05458  -0.02654   0.00197   0.00335   0.01199
 Alpha virt. eigenvalues --    0.01293   0.03468   0.03498   0.05319   0.05517
 Alpha virt. eigenvalues --    0.05641   0.05827   0.06828   0.07191   0.07956
 Alpha virt. eigenvalues --    0.09348   0.09892   0.10093   0.11427   0.11855
 Alpha virt. eigenvalues --    0.12207   0.12946   0.13884   0.14689   0.14822
 Alpha virt. eigenvalues --    0.14853   0.16256   0.16626   0.16628   0.16890
 Alpha virt. eigenvalues --    0.17055   0.18789   0.19594   0.20119   0.20255
 Alpha virt. eigenvalues --    0.20498   0.20566   0.21035   0.21677   0.22004
 Alpha virt. eigenvalues --    0.22652   0.23299   0.23335   0.24311   0.24746
 Alpha virt. eigenvalues --    0.26146   0.27232   0.27309   0.27656   0.27937
 Alpha virt. eigenvalues --    0.28717   0.30000   0.31132   0.32030   0.32227
 Alpha virt. eigenvalues --    0.34047   0.34078   0.35943   0.37141   0.44638
 Alpha virt. eigenvalues --    0.45764   0.46333   0.48447   0.52332   0.52639
 Alpha virt. eigenvalues --    0.53200   0.53480   0.54028   0.54501   0.54774
 Alpha virt. eigenvalues --    0.56326   0.57344   0.57368   0.58096   0.59521
 Alpha virt. eigenvalues --    0.60458   0.62606   0.62913   0.63847   0.63994
 Alpha virt. eigenvalues --    0.64428   0.68946   0.69102   0.69403   0.69798
 Alpha virt. eigenvalues --    0.71158   0.72833   0.73012   0.73424   0.75070
 Alpha virt. eigenvalues --    0.78497   0.78870   0.80483   0.82011   0.83681
 Alpha virt. eigenvalues --    0.83901   0.85659   0.86603   0.86813   0.91213
 Alpha virt. eigenvalues --    0.91288   0.92235   0.92849   0.93312   0.96868
 Alpha virt. eigenvalues --    0.97245   0.98620   1.02647   1.04449   1.05026
 Alpha virt. eigenvalues --    1.05663   1.06748   1.09268   1.09794   1.11073
 Alpha virt. eigenvalues --    1.13808   1.15153   1.17304   1.31948   1.33048
 Alpha virt. eigenvalues --    1.34358   1.45859   1.45972   1.47655   1.48866
 Alpha virt. eigenvalues --    1.49051   1.50546   1.50691   1.54190   1.55179
 Alpha virt. eigenvalues --    1.55717   1.57978   1.58733   1.62733   1.62828
 Alpha virt. eigenvalues --    1.64267   1.69101   1.71951   1.72366   1.72847
 Alpha virt. eigenvalues --    1.73252   1.74702   1.75563   1.80467   1.80820
 Alpha virt. eigenvalues --    1.87643   1.87849   1.88506   1.89073   1.89115
 Alpha virt. eigenvalues --    1.90958   1.91855   1.94430   1.95188   1.95914
 Alpha virt. eigenvalues --    1.96251   1.98809   2.01793   2.06026   2.08381
 Alpha virt. eigenvalues --    2.09024   2.11238   2.17351   2.18044   2.20518
 Alpha virt. eigenvalues --    2.22184   2.34758   2.35978   2.36395   2.36771
 Alpha virt. eigenvalues --    2.39016   2.40896   2.43872   2.45405   2.53194
 Alpha virt. eigenvalues --    2.61452   2.63330   2.63398   2.67685   2.67839
 Alpha virt. eigenvalues --    2.69456   2.69813   2.70019   2.72426   2.74112
 Alpha virt. eigenvalues --    2.75113   2.76103   2.76989   2.77408   2.78021
 Alpha virt. eigenvalues --    2.80239   2.80714   2.81436   2.82166   2.88855
 Alpha virt. eigenvalues --    2.89258   2.91138   2.91762   2.93299   3.04934
 Alpha virt. eigenvalues --    3.07834   3.15865   3.18270   3.30039   3.32224
 Alpha virt. eigenvalues --    3.35541   3.38258   3.42848   3.46651   3.48398
 Alpha virt. eigenvalues --    3.51504   3.59153   3.60119   3.68724   3.99526
 Alpha virt. eigenvalues --    3.99680   4.00288   4.03257   4.15420   4.16869
 Alpha virt. eigenvalues --    4.35849   4.79780   4.81025  23.50350  23.77573
 Alpha virt. eigenvalues --   23.88100  23.91822  23.94306  23.96766  24.06311
 Alpha virt. eigenvalues --   24.06824  24.13369  24.13691
          Condensed to atoms (all electrons):
               1          2          3          4          5          6
     1  C    6.359486  -0.305604   0.644489  -0.166277   0.653018  -0.079250
     2  C   -0.305604   6.359486  -0.537234   0.294815  -0.927976  -0.031827
     3  C    0.644489  -0.537234   9.311896  -3.234700   2.600373  -0.927976
     4  C   -0.166277   0.294815  -3.234700  13.480279  -3.234700   0.294815
     5  C    0.653018  -0.927976   2.600373  -3.234700   9.311896  -0.537234
     6  C   -0.079250  -0.031827  -0.927976   0.294815  -0.537234   6.359486
     7  C   -0.031827  -0.079250   0.653018  -0.166277   0.644489  -0.305604
     8  C   -0.927976   0.653018  -1.220703  -1.035326  -0.581497   0.644489
     9  C    0.294815  -0.166277  -1.035326   0.800061  -1.035326  -0.166277
    10  C   -0.537234   0.644489  -0.581497  -1.035326  -1.220703   0.653018
    11  H    0.353175   0.029990  -0.027780  -0.017014  -0.005973   0.000332
    12  H    0.029990   0.353175  -0.011406  -0.002230   0.025022  -0.000306
    13  H   -0.006319  -0.030532   0.378083  -0.064486   0.047809   0.020225
    14  H    0.001055   0.020225   0.047809  -0.064486   0.378083  -0.030532
    15  H    0.000332  -0.000306   0.025022  -0.002230  -0.011406   0.353175
    16  H   -0.000306   0.000332  -0.005973  -0.017014  -0.027780   0.029990
    17  H    0.020225   0.001055   0.006626  -0.017195  -0.002935  -0.006319
    18  H   -0.030532  -0.006319  -0.002935  -0.017195   0.006626   0.001055
    19  Bq   0.000000   0.000000   0.000000   0.000000   0.000000   0.000000
    20  Bq   0.000000   0.000000   0.000000   0.000000   0.000000   0.000000
    21  Bq   0.000000   0.000000   0.000000   0.000000   0.000000   0.000000
    22  Bq   0.000000   0.000000   0.000000   0.000000   0.000000   0.000000
    23  Bq   0.000000   0.000000   0.000000   0.000000   0.000000   0.000000
    24  Bq   0.000000   0.000000   0.000000   0.000000   0.000000   0.000000
    25  Bq   0.000000   0.000000   0.000000   0.000000   0.000000   0.000000
    26  Bq   0.000000   0.000000   0.000000   0.000000   0.000000   0.000000
    27  Bq   0.000000   0.000000   0.000000   0.000000   0.000000   0.000000
    28  Bq   0.000000   0.000000   0.000000   0.000000   0.000000   0.000000
               7          8          9         10         11         12
     1  C   -0.031827  -0.927976   0.294815  -0.537234   0.353175   0.029990
     2  C   -0.079250   0.653018  -0.166277   0.644489   0.029990   0.353175
     3  C    0.653018  -1.220703  -1.035326  -0.581497  -0.027780  -0.011406
     4  C   -0.166277  -1.035326   0.800061  -1.035326  -0.017014  -0.002230
     5  C    0.644489  -0.581497  -1.035326  -1.220703  -0.005973   0.025022
     6  C   -0.305604   0.644489  -0.166277   0.653018   0.000332  -0.000306
     7  C    6.359486  -0.537234   0.294815  -0.927976  -0.000306   0.000332
     8  C   -0.537234   9.311896  -3.234700   2.600373   0.025022  -0.005973
     9  C    0.294815  -3.234700  13.480279  -3.234700  -0.002230  -0.017014
    10  C   -0.927976   2.600373  -3.234700   9.311896  -0.011406  -0.027780
    11  H   -0.000306   0.025022  -0.002230  -0.011406   0.542822  -0.007431
    12  H    0.000332  -0.005973  -0.017014  -0.027780  -0.007431   0.542822
    13  H    0.001055   0.006626  -0.017195  -0.002935  -0.000260  -0.007887
    14  H   -0.006319  -0.002935  -0.017195   0.006626  -0.000001  -0.000015
    15  H    0.029990  -0.027780  -0.017014  -0.005973   0.000000   0.000000
    16  H    0.353175  -0.011406  -0.002230   0.025022   0.000000   0.000000
    17  H   -0.030532   0.378083  -0.064486   0.047809  -0.000015  -0.000001
    18  H    0.020225   0.047809  -0.064486   0.378083  -0.007887  -0.000260
    19  Bq   0.000000   0.000000   0.000000   0.000000   0.000000   0.000000
    20  Bq   0.000000   0.000000   0.000000   0.000000   0.000000   0.000000
    21  Bq   0.000000   0.000000   0.000000   0.000000   0.000000   0.000000
    22  Bq   0.000000   0.000000   0.000000   0.000000   0.000000   0.000000
    23  Bq   0.000000   0.000000   0.000000   0.000000   0.000000   0.000000
    24  Bq   0.000000   0.000000   0.000000   0.000000   0.000000   0.000000
    25  Bq   0.000000   0.000000   0.000000   0.000000   0.000000   0.000000
    26  Bq   0.000000   0.000000   0.000000   0.000000   0.000000   0.000000
    27  Bq   0.000000   0.000000   0.000000   0.000000   0.000000   0.000000
    28  Bq   0.000000   0.000000   0.000000   0.000000   0.000000   0.000000
              13         14         15         16         17         18
     1  C   -0.006319   0.001055   0.000332  -0.000306   0.020225  -0.030532
     2  C   -0.030532   0.020225  -0.000306   0.000332   0.001055  -0.006319
     3  C    0.378083   0.047809   0.025022  -0.005973   0.006626  -0.002935
     4  C   -0.064486  -0.064486  -0.002230  -0.017014  -0.017195  -0.017195
     5  C    0.047809   0.378083  -0.011406  -0.027780  -0.002935   0.006626
     6  C    0.020225  -0.030532   0.353175   0.029990  -0.006319   0.001055
     7  C    0.001055  -0.006319   0.029990   0.353175  -0.030532   0.020225
     8  C    0.006626  -0.002935  -0.027780  -0.011406   0.378083   0.047809
     9  C   -0.017195  -0.017195  -0.017014  -0.002230  -0.064486  -0.064486
    10  C   -0.002935   0.006626  -0.005973   0.025022   0.047809   0.378083
    11  H   -0.000260  -0.000001   0.000000   0.000000  -0.000015  -0.007887
    12  H   -0.007887  -0.000015   0.000000   0.000000  -0.000001  -0.000260
    13  H    0.551055   0.002861  -0.000015  -0.000001   0.000010   0.000066
    14  H    0.002861   0.551055  -0.007887  -0.000260   0.000066   0.000010
    15  H   -0.000015  -0.007887   0.542822  -0.007431  -0.000260  -0.000001
    16  H   -0.000001  -0.000260  -0.007431   0.542822  -0.007887  -0.000015
    17  H    0.000010   0.000066  -0.000260  -0.007887   0.551055   0.002861
    18  H    0.000066   0.000010  -0.000001  -0.000015   0.002861   0.551055
    19  Bq   0.000000   0.000000   0.000000   0.000000   0.000000   0.000000
    20  Bq   0.000000   0.000000   0.000000   0.000000   0.000000   0.000000
    21  Bq   0.000000   0.000000   0.000000   0.000000   0.000000   0.000000
    22  Bq   0.000000   0.000000   0.000000   0.000000   0.000000   0.000000
    23  Bq   0.000000   0.000000   0.000000   0.000000   0.000000   0.000000
    24  Bq   0.000000   0.000000   0.000000   0.000000   0.000000   0.000000
    25  Bq   0.000000   0.000000   0.000000   0.000000   0.000000   0.000000
    26  Bq   0.000000   0.000000   0.000000   0.000000   0.000000   0.000000
    27  Bq   0.000000   0.000000   0.000000   0.000000   0.000000   0.000000
    28  Bq   0.000000   0.000000   0.000000   0.000000   0.000000   0.000000
              19         20         21         22         23         24
     1  C    0.000000   0.000000   0.000000   0.000000   0.000000   0.000000
     2  C    0.000000   0.000000   0.000000   0.000000   0.000000   0.000000
     3  C    0.000000   0.000000   0.000000   0.000000   0.000000   0.000000
     4  C    0.000000   0.000000   0.000000   0.000000   0.000000   0.000000
     5  C    0.000000   0.000000   0.000000   0.000000   0.000000   0.000000
     6  C    0.000000   0.000000   0.000000   0.000000   0.000000   0.000000
     7  C    0.000000   0.000000   0.000000   0.000000   0.000000   0.000000
     8  C    0.000000   0.000000   0.000000   0.000000   0.000000   0.000000
     9  C    0.000000   0.000000   0.000000   0.000000   0.000000   0.000000
    10  C    0.000000   0.000000   0.000000   0.000000   0.000000   0.000000
    11  H    0.000000   0.000000   0.000000   0.000000   0.000000   0.000000
    12  H    0.000000   0.000000   0.000000   0.000000   0.000000   0.000000
    13  H    0.000000   0.000000   0.000000   0.000000   0.000000   0.000000
    14  H    0.000000   0.000000   0.000000   0.000000   0.000000   0.000000
    15  H    0.000000   0.000000   0.000000   0.000000   0.000000   0.000000
    16  H    0.000000   0.000000   0.000000   0.000000   0.000000   0.000000
    17  H    0.000000   0.000000   0.000000   0.000000   0.000000   0.000000
    18  H    0.000000   0.000000   0.000000   0.000000   0.000000   0.000000
    19  Bq   0.000000   0.000000   0.000000   0.000000   0.000000   0.000000
    20  Bq   0.000000   0.000000   0.000000   0.000000   0.000000   0.000000
    21  Bq   0.000000   0.000000   0.000000   0.000000   0.000000   0.000000
    22  Bq   0.000000   0.000000   0.000000   0.000000   0.000000   0.000000
    23  Bq   0.000000   0.000000   0.000000   0.000000   0.000000   0.000000
    24  Bq   0.000000   0.000000   0.000000   0.000000   0.000000   0.000000
    25  Bq   0.000000   0.000000   0.000000   0.000000   0.000000   0.000000
    26  Bq   0.000000   0.000000   0.000000   0.000000   0.000000   0.000000
    27  Bq   0.000000   0.000000   0.000000   0.000000   0.000000   0.000000
    28  Bq   0.000000   0.000000   0.000000   0.000000   0.000000   0.000000
              25         26         27         28
     1  C    0.000000   0.000000   0.000000   0.000000
     2  C    0.000000   0.000000   0.000000   0.000000
     3  C    0.000000   0.000000   0.000000   0.000000
     4  C    0.000000   0.000000   0.000000   0.000000
     5  C    0.000000   0.000000   0.000000   0.000000
     6  C    0.000000   0.000000   0.000000   0.000000
     7  C    0.000000   0.000000   0.000000   0.000000
     8  C    0.000000   0.000000   0.000000   0.000000
     9  C    0.000000   0.000000   0.000000   0.000000
    10  C    0.000000   0.000000   0.000000   0.000000
    11  H    0.000000   0.000000   0.000000   0.000000
    12  H    0.000000   0.000000   0.000000   0.000000
    13  H    0.000000   0.000000   0.000000   0.000000
    14  H    0.000000   0.000000   0.000000   0.000000
    15  H    0.000000   0.000000   0.000000   0.000000
    16  H    0.000000   0.000000   0.000000   0.000000
    17  H    0.000000   0.000000   0.000000   0.000000
    18  H    0.000000   0.000000   0.000000   0.000000
    19  Bq   0.000000   0.000000   0.000000   0.000000
    20  Bq   0.000000   0.000000   0.000000   0.000000
    21  Bq   0.000000   0.000000   0.000000   0.000000
    22  Bq   0.000000   0.000000   0.000000   0.000000
    23  Bq   0.000000   0.000000   0.000000   0.000000
    24  Bq   0.000000   0.000000   0.000000   0.000000
    25  Bq   0.000000   0.000000   0.000000   0.000000
    26  Bq   0.000000   0.000000   0.000000   0.000000
    27  Bq   0.000000   0.000000   0.000000   0.000000
    28  Bq   0.000000   0.000000   0.000000   0.000000
 Mulliken charges:
               1
     1  C   -0.271259
     2  C   -0.271259
     3  C   -0.081784
     4  C    0.204485
     5  C   -0.081784
     6  C   -0.271259
     7  C   -0.271259
     8  C   -0.081784
     9  C    0.204485
    10  C   -0.081784
    11  H    0.128962
    12  H    0.128962
    13  H    0.121839
    14  H    0.121839
    15  H    0.128962
    16  H    0.128962
    17  H    0.121839
    18  H    0.121839
    19  Bq   0.000000
    20  Bq   0.000000
    21  Bq   0.000000
    22  Bq   0.000000
    23  Bq   0.000000
    24  Bq   0.000000
    25  Bq   0.000000
    26  Bq   0.000000
    27  Bq   0.000000
    28  Bq   0.000000
 Sum of Mulliken charges =   0.00000
 Mulliken charges with hydrogens summed into heavy atoms:
               1
     1  C   -0.142297
     2  C   -0.142297
     3  C    0.040055
     4  C    0.204485
     5  C    0.040055
     6  C   -0.142297
     7  C   -0.142297
     8  C    0.040055
     9  C    0.204485
    10  C    0.040055
    19  Bq   0.000000
    20  Bq   0.000000
    21  Bq   0.000000
    22  Bq   0.000000
    23  Bq   0.000000
    24  Bq   0.000000
    25  Bq   0.000000
    26  Bq   0.000000
    27  Bq   0.000000
    28  Bq   0.000000
 Electronic spatial extent (au):  <R**2>=           1312.5323
 Charge=              0.0000 electrons
 Dipole moment (field-independent basis, Debye):
    X=              0.0000    Y=              0.0000    Z=              0.0000  Tot=              0.0000
 Quadrupole moment (field-independent basis, Debye-Ang):
   XX=            -51.9618   YY=            -52.1216   ZZ=            -65.1252
   XY=              0.0000   XZ=              0.0000   YZ=              0.0000
 Traceless Quadrupole moment (field-independent basis, Debye-Ang):
   XX=              4.4411   YY=              4.2812   ZZ=             -8.7224
   XY=              0.0000   XZ=              0.0000   YZ=              0.0000
 Octapole moment (field-independent basis, Debye-Ang**2):
  XXX=              0.0000  YYY=              0.0000  ZZZ=              0.0000  XYY=              0.0000
  XXY=              0.0000  XXZ=              0.0000  XZZ=              0.0000  YZZ=              0.0000
  YYZ=              0.0000  XYZ=              0.0000
 Hexadecapole moment (field-independent basis, Debye-Ang**3):
 XXXX=          -1119.8966 YYYY=           -498.1664 ZZZZ=            -79.6336 XXXY=              0.0000
 XXXZ=              0.0000 YYYX=              0.0000 YYYZ=              0.0000 ZZZX=              0.0000
 ZZZY=              0.0000 XXYY=           -275.3262 XXZZ=           -249.8350 YYZZ=           -117.4791
 XXYZ=              0.0000 YYXZ=              0.0000 ZZXY=              0.0000
 N-N= 4.538675371600D+02 E-N=-1.802310911203D+03  KE= 3.837199947805D+02
 1\1\GINC-BRUSEL\SP\RB3LYP\6-311+G(d,p)\C10H8\YANNICK\11-Sep-2020\0\\# 
 rb3lyp/6-311+g** NMR geom=connectivity\\Title\\0,1\C,0,2.45076,-0.7117
 4,0.\C,0,2.45076,0.71174,0.\C,0,1.25139,1.41137,0.\C,0,0.,0.72289,0.\C
 ,0,-1.25139,1.41137,0.\C,0,-2.45076,0.71174,0.\C,0,-2.45076,-0.71174,0
 .\C,0,-1.25139,-1.41137,0.\C,0,0.,-0.72289,0.\C,0,1.25139,-1.41137,0.\
 H,0,3.40873,-1.25791,0.\H,0,3.40873,1.25791,0.\H,0,1.24972,2.51472,0.\
 H,0,-1.24972,2.51472,0.\H,0,-3.40873,1.25791,0.\H,0,-3.40873,-1.25791,
 0.\H,0,-1.24972,-2.51472,0.\H,0,1.24972,-2.51472,0.\Bq,0,1.009906132,-
 0.1294095226,-0.9659258263\Bq,0,1.0510372981,-0.1830127019,-0.96592582
 63\Bq,0,1.1046404774,-0.224143868,-0.9659258263\Bq,0,1.1670627019,-0.2
 5,-0.9659258263\Bq,0,1.23405,-0.2588190451,-0.9659258263\Bq,0,1.301037
 2981,-0.25,-0.9659258263\Bq,0,1.3634595226,-0.224143868,-0.9659258263\
 Bq,0,1.4170627019,-0.1830127019,-0.9659258263\Bq,0,1.458193868,-0.1294
 095226,-0.9659258263\Bq,0,1.48405,-0.0669872981,-0.9659258263\\Version
 =ES64L-G09RevD.01\HF=-385.9859319\RMSD=7.890e-09\Dipole=0.,0.,0.\Quadr
 upole=3.3018588,3.182998,-6.4848567,0.,0.,0.\PG=C01 [X(C10H8)]\\@


 I DON'T EXACTLY UNDERSTAND WHAT YOU ARE SAYING,
 BUT YOU ARE ABSOLUTELY RIGHT.
     M.S.GORDON, IN A NDSU FACULTY MEETING
 Job cpu time:       0 days  0 hours  6 minutes 44.6 seconds.
 File lengths (MBytes):  RWF=     43 Int=      0 D2E=      0 Chk=      5 Scr=      1
 Normal termination of Gaussian 09 at Fri Sep 11 11:30:24 2020.
