 Entering Gaussian System, Link 0=g09
 Input=input_batch_03600.com
 Output=input_batch_03600.log
 Initial command:
 /share/programs/GAUSSIAN/64/g09/l1.exe "/scratch/yannick.36521/Gau-3424900.inp" -scrdir="/scratch/yannick.36521/"
 Entering Link 1 = /share/programs/GAUSSIAN/64/g09/l1.exe PID=   3424915.
  
 Copyright (c) 1988,1990,1992,1993,1995,1998,2003,2009,2013,
            Gaussian, Inc.  All Rights Reserved.
  
 This is part of the Gaussian(R) 09 program.  It is based on
 the Gaussian(R) 03 system (copyright 2003, Gaussian, Inc.),
 the Gaussian(R) 98 system (copyright 1998, Gaussian, Inc.),
 the Gaussian(R) 94 system (copyright 1995, Gaussian, Inc.),
 the Gaussian 92(TM) system (copyright 1992, Gaussian, Inc.),
 the Gaussian 90(TM) system (copyright 1990, Gaussian, Inc.),
 the Gaussian 88(TM) system (copyright 1988, Gaussian, Inc.),
 the Gaussian 86(TM) system (copyright 1986, Carnegie Mellon
 University), and the Gaussian 82(TM) system (copyright 1983,
 Carnegie Mellon University). Gaussian is a federally registered
 trademark of Gaussian, Inc.
  
 This software contains proprietary and confidential information,
 including trade secrets, belonging to Gaussian, Inc.
  
 This software is provided under written license and may be
 used, copied, transmitted, or stored only in accord with that
 written license.
  
 The following legend is applicable only to US Government
 contracts under FAR:
  
                    RESTRICTED RIGHTS LEGEND
  
 Use, reproduction and disclosure by the US Government is
 subject to restrictions as set forth in subparagraphs (a)
 and (c) of the Commercial Computer Software - Restricted
 Rights clause in FAR 52.227-19.
  
 Gaussian, Inc.
 340 Quinnipiac St., Bldg. 40, Wallingford CT 06492
  
  
 ---------------------------------------------------------------
 Warning -- This program may not be used in any manner that
 competes with the business of Gaussian, Inc. or will provide
 assistance to any competitor of Gaussian, Inc.  The licensee
 of this program is prohibited from giving any competitor of
 Gaussian, Inc. access to this program.  By using this program,
 the user acknowledges that Gaussian, Inc. is engaged in the
 business of creating and licensing software in the field of
 computational chemistry and represents and warrants to the
 licensee that it is not a competitor of Gaussian, Inc. and that
 it will not use this program in any manner prohibited above.
 ---------------------------------------------------------------
  

 Cite this work as:
 Gaussian 09, Revision D.01,
 M. J. Frisch, G. W. Trucks, H. B. Schlegel, G. E. Scuseria, 
 M. A. Robb, J. R. Cheeseman, G. Scalmani, V. Barone, B. Mennucci, 
 G. A. Petersson, H. Nakatsuji, M. Caricato, X. Li, H. P. Hratchian, 
 A. F. Izmaylov, J. Bloino, G. Zheng, J. L. Sonnenberg, M. Hada, 
 M. Ehara, K. Toyota, R. Fukuda, J. Hasegawa, M. Ishida, T. Nakajima, 
 Y. Honda, O. Kitao, H. Nakai, T. Vreven, J. A. Montgomery, Jr., 
 J. E. Peralta, F. Ogliaro, M. Bearpark, J. J. Heyd, E. Brothers, 
 K. N. Kudin, V. N. Staroverov, T. Keith, R. Kobayashi, J. Normand, 
 K. Raghavachari, A. Rendell, J. C. Burant, S. S. Iyengar, J. Tomasi, 
 M. Cossi, N. Rega, J. M. Millam, M. Klene, J. E. Knox, J. B. Cross, 
 V. Bakken, C. Adamo, J. Jaramillo, R. Gomperts, R. E. Stratmann, 
 O. Yazyev, A. J. Austin, R. Cammi, C. Pomelli, J. W. Ochterski, 
 R. L. Martin, K. Morokuma, V. G. Zakrzewski, G. A. Voth, 
 P. Salvador, J. J. Dannenberg, S. Dapprich, A. D. Daniels, 
 O. Farkas, J. B. Foresman, J. V. Ortiz, J. Cioslowski, 
 and D. J. Fox, Gaussian, Inc., Wallingford CT, 2013.
 
 ******************************************
 Gaussian 09:  ES64L-G09RevD.01 24-Apr-2013
                11-Sep-2020 
 ******************************************
 %nproc=8
 Will use up to    8 processors via shared memory.
 %mem=1000MB
 ----------------------------------------
 # rb3lyp/6-311+g** NMR geom=connectivity
 ----------------------------------------
 1/38=1,57=2/1;
 2/12=2,17=6,18=5,40=1/2;
 3/5=4,6=6,7=111,11=2,16=1,25=1,30=1,74=-5,116=1/1,2,8,3;
 4//1;
 5/5=2,38=5/2;
 8/6=1,10=90,11=11/1;
 10/13=100,45=16/2;
 6/7=2,8=2,9=2,10=2,28=1/1;
 99/9=1/99;
 -----
 Title
 -----
 Symbolic Z-matrix:
 Charge =  0 Multiplicity = 1
 C                     2.45076  -0.71174   0. 
 C                     2.45076   0.71174   0. 
 C                     1.25139   1.41137   0. 
 C                     0.        0.72289   0. 
 C                    -1.25139   1.41137   0. 
 C                    -2.45076   0.71174   0. 
 C                    -2.45076  -0.71174   0. 
 C                    -1.25139  -1.41137   0. 
 C                     0.       -0.72289   0. 
 C                     1.25139  -1.41137   0. 
 H                     3.40873  -1.25791   0. 
 H                     3.40873   1.25791   0. 
 H                     1.24972   2.51472   0. 
 H                    -1.24972   2.51472   0. 
 H                    -3.40873   1.25791   0. 
 H                    -3.40873  -1.25791   0. 
 H                    -1.24972  -2.51472   0. 
 H                     1.24972  -2.51472   0. 
 Bq                    1.24972  -3.48065  -0.25882 
 Bq                    1.49972  -3.44773  -0.25882 
 Bq                    1.73268  -3.35124  -0.25882 
 Bq                    1.93273  -3.19773  -0.25882 
 Bq                    2.08624  -2.99768  -0.25882 
 Bq                    2.18273  -2.76472  -0.25882 
 Bq                    2.11575  -2.51472  -0.5 
 Bq                    2.08624  -2.29058  -0.5 
 Bq                    1.99972  -2.08171  -0.5 
 Bq                    0.49972  -2.08171  -0.5 
 Bq                    0.4132   -2.29058  -0.5 
 Bq                    0.38369  -2.51472  -0.5 
 Bq                    0.4132   -2.73886  -0.5 
 Bq                    0.49972  -2.94773  -0.5 
 Bq                    0.63735  -3.12709  -0.5 
 Bq                    0.81671  -3.26472  -0.5 
 Bq                    1.02558  -3.35124  -0.5 
 Bq                    1.24972  -3.38075  -0.5 
 Bq                    1.47386  -3.35124  -0.5 
 Bq                    1.68273  -3.26472  -0.5 
 Bq                    1.86209  -3.12709  -0.5 
 Bq                    1.99972  -2.94773  -0.5 
 Bq                    2.08624  -2.73886  -0.5 
 Bq                    1.95683  -2.51472  -0.70711 
 Bq                    1.93273  -2.33171  -0.70711 
 Bq                    1.86209  -2.16117  -0.70711 
 Bq                    1.74972  -2.01472  -0.70711 
 Bq                    0.74972  -2.01472  -0.70711 
 Bq                    0.63735  -2.16117  -0.70711 
 Bq                    0.56671  -2.33171  -0.70711 
 Bq                    0.54261  -2.51472  -0.70711 
 Bq                    0.56671  -2.69773  -0.70711 
 Bq                    0.63735  -2.86827  -0.70711 
 Bq                    0.74972  -3.01472  -0.70711 
 Bq                    0.89617  -3.12709  -0.70711 
 Bq                    1.06671  -3.19773  -0.70711 
 Bq                    1.24972  -3.22183  -0.70711 
 Bq                    1.43273  -3.19773  -0.70711 
 Bq                    1.60327  -3.12709  -0.70711 
 Bq                    1.74972  -3.01472  -0.70711 
 Bq                    1.86209  -2.86827  -0.70711 
 Bq                    1.93273  -2.69773  -0.70711 
 Bq                    1.74972  -2.51472  -0.86603 
 Bq                    1.73268  -2.38531  -0.86603 
 Bq                    1.68273  -2.26472  -0.86603 
 Bq                    1.60327  -2.16117  -0.86603 
 Bq                    1.49972  -2.08171  -0.86603 
 Bq                    1.37913  -2.03176  -0.86603 
 Bq                    1.24972  -2.01472  -0.86603 
 Bq                    1.12031  -2.03176  -0.86603 
 Bq                    0.99972  -2.08171  -0.86603 
 Bq                    0.89617  -2.16117  -0.86603 
 Bq                    0.81671  -2.26472  -0.86603 
 Bq                    0.76676  -2.38531  -0.86603 
 Bq                    0.74972  -2.51472  -0.86603 
 Bq                    0.76676  -2.64413  -0.86603 
 Bq                    0.81671  -2.76472  -0.86603 
 Bq                    0.89617  -2.86827  -0.86603 
 Bq                    0.99972  -2.94773  -0.86603 
 Bq                    1.12031  -2.99768  -0.86603 
 Bq                    1.24972  -3.01472  -0.86603 
 Bq                    1.37913  -2.99768  -0.86603 
 Bq                    1.49972  -2.94773  -0.86603 
 Bq                    1.60327  -2.86827  -0.86603 
 Bq                    1.68273  -2.76472  -0.86603 
 Bq                    1.73268  -2.64413  -0.86603 
 Bq                    1.50854  -2.51472  -0.96593 
 Bq                    1.49972  -2.44773  -0.96593 
 Bq                    1.47386  -2.38531  -0.96593 
 Bq                    1.43273  -2.33171  -0.96593 
 Bq                    1.37913  -2.29058  -0.96593 
 Bq                    1.31671  -2.26472  -0.96593 
 Bq                    1.24972  -2.2559   -0.96593 
 Bq                    1.18273  -2.26472  -0.96593 
 Bq                    1.12031  -2.29058  -0.96593 
 Bq                    1.06671  -2.33171  -0.96593 
 Bq                    1.02558  -2.38531  -0.96593 
 Bq                    0.99972  -2.44773  -0.96593 
 Bq                    0.9909   -2.51472  -0.96593 
 Bq                    0.99972  -2.58171  -0.96593 
 Bq                    1.02558  -2.64413  -0.96593 
 Bq                    1.06671  -2.69773  -0.96593 
 Bq                    1.12031  -2.73886  -0.96593 
 Bq                    1.18273  -2.76472  -0.96593 
 Bq                    1.24972  -2.77354  -0.96593 
 Bq                    1.31671  -2.76472  -0.96593 
 Bq                    1.37913  -2.73886  -0.96593 
 Bq                    1.43273  -2.69773  -0.96593 
 Bq                    1.47386  -2.64413  -0.96593 
 Bq                    1.49972  -2.58171  -0.96593 
 Bq                   -1.23405   0.        1. 
 Bq                   -1.23405   0.        1. 
 Bq                   -1.23405   0.        1. 
 Bq                   -1.23405   0.        1. 
 Bq                   -1.23405   0.        1. 
 Bq                   -1.23405   0.        1. 
 Bq                   -1.23405   0.        1. 
 Bq                   -1.23405   0.        1. 
 Bq                   -1.23405   0.        1. 
 Bq                   -1.23405   0.        1. 
 Bq                   -1.23405   0.        1. 
 Bq                   -1.23405   0.        1. 
 Bq                   -1.23405   0.        1. 
 Bq                   -1.23405   0.        1. 
 Bq                   -1.23405   0.        1. 
 Bq                   -1.23405   0.        1. 
 Bq                   -1.23405   0.        1. 
 Bq                   -1.23405   0.        1. 
 Bq                   -1.23405   0.        1. 
 Bq                   -1.23405   0.        1. 
 Bq                   -1.23405   0.        1. 
 Bq                   -1.23405   0.        1. 
 Bq                   -1.23405   0.        1. 
 Bq                   -1.23405   0.        1. 
 Bq                   -0.97523   0.        0.96593 
 Bq                   -0.98405   0.06699   0.96593 
 Bq                   -1.00991   0.12941   0.96593 
 Bq                   -1.05104   0.18301   0.96593 
 Bq                   -1.10464   0.22414   0.96593 
 Bq                   -1.16706   0.25      0.96593 
 Bq                   -1.23405   0.25882   0.96593 
 Bq                   -1.30104   0.25      0.96593 
 Bq                   -1.36346   0.22414   0.96593 
 Bq                   -1.41706   0.18301   0.96593 
 Bq                   -1.45819   0.12941   0.96593 
 Bq                   -1.48405   0.06699   0.96593 
 Bq                   -1.49287   0.        0.96593 
 Bq                   -1.48405  -0.06699   0.96593 
 Bq                   -1.45819  -0.12941   0.96593 
 Bq                   -1.41706  -0.18301   0.96593 
 Bq                   -1.36346  -0.22414   0.96593 
 Bq                   -1.30104  -0.25      0.96593 
 Bq                   -1.23405  -0.25882   0.96593 
 Bq                   -1.16706  -0.25      0.96593 
 Bq                   -1.10464  -0.22414   0.96593 
 Bq                   -1.05104  -0.18301   0.96593 
 Bq                   -1.00991  -0.12941   0.96593 
 Bq                   -0.98405  -0.06699   0.96593 
 Bq                   -0.73405   0.        0.86603 
 Bq                   -0.75109   0.12941   0.86603 
 Bq                   -0.80104   0.25      0.86603 
 Bq                   -0.8805    0.35355   0.86603 
 Bq                   -0.98405   0.43301   0.86603 
 Bq                   -1.10464   0.48296   0.86603 
 Bq                   -1.23405   0.5       0.86603 
 Bq                   -1.36346   0.48296   0.86603 
 Bq                   -1.48405   0.43301   0.86603 
 Bq                   -1.5876    0.35355   0.86603 
 Bq                   -1.66706   0.25      0.86603 
 Bq                   -1.71701   0.12941   0.86603 
 Bq                   -1.73405   0.        0.86603 
 Bq                   -1.71701  -0.12941   0.86603 
 Bq                   -1.66706  -0.25      0.86603 
 Bq                   -1.5876   -0.35355   0.86603 
 Bq                   -1.48405  -0.43301   0.86603 
 Bq                   -1.36346  -0.48296   0.86603 
 Bq                   -1.23405  -0.5       0.86603 
 Bq                   -1.10464  -0.48296   0.86603 
 Bq                   -0.98405  -0.43301   0.86603 
 Bq                   -0.8805   -0.35355   0.86603 
 Bq                   -0.80104  -0.25      0.86603 
 Bq                   -0.75109  -0.12941   0.86603 
 Bq                   -0.52694   0.        0.70711 
 Bq                   -0.55104   0.18301   0.70711 
 Bq                   -0.62168   0.35355   0.70711 
 Bq                   -0.73405   0.5       0.70711 
 Bq                   -0.8805    0.61237   0.70711 
 Bq                   -1.05104   0.68301   0.70711 
 Bq                   -1.41706   0.68301   0.70711 
 Bq                   -1.5876    0.61237   0.70711 
 Bq                   -1.73405   0.5       0.70711 
 Bq                   -1.91706   0.18301   0.70711 
 Bq                   -1.94116   0.        0.70711 
 Bq                   -1.91706  -0.18301   0.70711 
 Bq                   -1.73405  -0.5       0.70711 
 Bq                   -1.5876   -0.61237   0.70711 
 Bq                   -1.41706  -0.68301   0.70711 
 Bq                   -1.05104  -0.68301   0.70711 
 Bq                   -0.8805   -0.61237   0.70711 
 Bq                   -0.73405  -0.5       0.70711 
 Bq                   -0.62168  -0.35355   0.70711 
 Bq                   -0.55104  -0.18301   0.70711 
 Bq                   -0.52694   0.       -0.70711 
 Bq                   -0.55104   0.18301  -0.70711 
 Bq                   -0.62168   0.35355  -0.70711 
 Bq                   -0.73405   0.5      -0.70711 
 Bq                   -0.8805    0.61237  -0.70711 
 Bq                   -1.05104   0.68301  -0.70711 
 Bq                   -1.41706   0.68301  -0.70711 
 Bq                   -1.5876    0.61237  -0.70711 
 Bq                   -1.73405   0.5      -0.70711 
 Bq                   -1.91706   0.18301  -0.70711 
 Bq                   -1.94116   0.       -0.70711 
 Bq                   -1.91706  -0.18301  -0.70711 
 Bq                   -1.73405  -0.5      -0.70711 
 Bq                   -1.5876   -0.61237  -0.70711 
 Bq                   -1.41706  -0.68301  -0.70711 
 Bq                   -1.05104  -0.68301  -0.70711 
 Bq                   -0.8805   -0.61237  -0.70711 
 Bq                   -0.73405  -0.5      -0.70711 
 
 Symmetry turned off:
 Cannot cope with ghost atoms or with translation vectors.
 Stoichiometry    C10H8
 Framework group  C1[X(C10H8)]
 NUMDOF-- NAT=    18 NAtoms=   218
 Deg. of freedom     0
 Full point group                 C1      NOp   1
                          Input orientation:                          
 ---------------------------------------------------------------------
 Center     Atomic      Atomic             Coordinates (Angstroms)
 Number     Number       Type             X           Y           Z
 ---------------------------------------------------------------------
      1          6           0        2.450760   -0.711740    0.000000
      2          6           0        2.450760    0.711740    0.000000
      3          6           0        1.251390    1.411370    0.000000
      4          6           0        0.000000    0.722890    0.000000
      5          6           0       -1.251390    1.411370    0.000000
      6          6           0       -2.450760    0.711740    0.000000
      7          6           0       -2.450760   -0.711740    0.000000
      8          6           0       -1.251390   -1.411370    0.000000
      9          6           0        0.000000   -0.722890    0.000000
     10          6           0        1.251390   -1.411370    0.000000
     11          1           0        3.408730   -1.257910    0.000000
     12          1           0        3.408730    1.257910    0.000000
     13          1           0        1.249720    2.514720    0.000000
     14          1           0       -1.249720    2.514720    0.000000
     15          1           0       -3.408730    1.257910    0.000000
     16          1           0       -3.408730   -1.257910    0.000000
     17          1           0       -1.249720   -2.514720    0.000000
     18          1           0        1.249720   -2.514720    0.000000
     19          0           0        1.249720   -3.480646   -0.258819
     20          0           0        1.499720   -3.447733   -0.258819
     21          0           0        1.732683   -3.351236   -0.258819
     22          0           0        1.932733   -3.197733   -0.258819
     23          0           0        2.086236   -2.997683   -0.258819
     24          0           0        2.182733   -2.764720   -0.258819
     25          0           0        2.115745   -2.514720   -0.500000
     26          0           0        2.086236   -2.290576   -0.500000
     27          0           0        1.999720   -2.081707   -0.500000
     28          0           0        0.499720   -2.081707   -0.500000
     29          0           0        0.413204   -2.290576   -0.500000
     30          0           0        0.383695   -2.514720   -0.500000
     31          0           0        0.413204   -2.738864   -0.500000
     32          0           0        0.499720   -2.947733   -0.500000
     33          0           0        0.637348   -3.127092   -0.500000
     34          0           0        0.816707   -3.264720   -0.500000
     35          0           0        1.025576   -3.351236   -0.500000
     36          0           0        1.249720   -3.380745   -0.500000
     37          0           0        1.473864   -3.351236   -0.500000
     38          0           0        1.682733   -3.264720   -0.500000
     39          0           0        1.862092   -3.127092   -0.500000
     40          0           0        1.999720   -2.947733   -0.500000
     41          0           0        2.086236   -2.738864   -0.500000
     42          0           0        1.956827   -2.514720   -0.707107
     43          0           0        1.932733   -2.331707   -0.707107
     44          0           0        1.862092   -2.161167   -0.707107
     45          0           0        1.749720   -2.014720   -0.707107
     46          0           0        0.749720   -2.014720   -0.707107
     47          0           0        0.637348   -2.161167   -0.707107
     48          0           0        0.566707   -2.331707   -0.707107
     49          0           0        0.542613   -2.514720   -0.707107
     50          0           0        0.566707   -2.697733   -0.707107
     51          0           0        0.637348   -2.868273   -0.707107
     52          0           0        0.749720   -3.014720   -0.707107
     53          0           0        0.896167   -3.127092   -0.707107
     54          0           0        1.066707   -3.197733   -0.707107
     55          0           0        1.249720   -3.221827   -0.707107
     56          0           0        1.432733   -3.197733   -0.707107
     57          0           0        1.603273   -3.127092   -0.707107
     58          0           0        1.749720   -3.014720   -0.707107
     59          0           0        1.862092   -2.868273   -0.707107
     60          0           0        1.932733   -2.697733   -0.707107
     61          0           0        1.749720   -2.514720   -0.866025
     62          0           0        1.732683   -2.385310   -0.866025
     63          0           0        1.682733   -2.264720   -0.866025
     64          0           0        1.603273   -2.161167   -0.866025
     65          0           0        1.499720   -2.081707   -0.866025
     66          0           0        1.379130   -2.031757   -0.866025
     67          0           0        1.249720   -2.014720   -0.866025
     68          0           0        1.120310   -2.031757   -0.866025
     69          0           0        0.999720   -2.081707   -0.866025
     70          0           0        0.896167   -2.161167   -0.866025
     71          0           0        0.816707   -2.264720   -0.866025
     72          0           0        0.766757   -2.385310   -0.866025
     73          0           0        0.749720   -2.514720   -0.866025
     74          0           0        0.766757   -2.644130   -0.866025
     75          0           0        0.816707   -2.764720   -0.866025
     76          0           0        0.896167   -2.868273   -0.866025
     77          0           0        0.999720   -2.947733   -0.866025
     78          0           0        1.120310   -2.997683   -0.866025
     79          0           0        1.249720   -3.014720   -0.866025
     80          0           0        1.379130   -2.997683   -0.866025
     81          0           0        1.499720   -2.947733   -0.866025
     82          0           0        1.603273   -2.868273   -0.866025
     83          0           0        1.682733   -2.764720   -0.866025
     84          0           0        1.732683   -2.644130   -0.866025
     85          0           0        1.508539   -2.514720   -0.965926
     86          0           0        1.499720   -2.447733   -0.965926
     87          0           0        1.473864   -2.385310   -0.965926
     88          0           0        1.432733   -2.331707   -0.965926
     89          0           0        1.379130   -2.290576   -0.965926
     90          0           0        1.316707   -2.264720   -0.965926
     91          0           0        1.249720   -2.255901   -0.965926
     92          0           0        1.182733   -2.264720   -0.965926
     93          0           0        1.120310   -2.290576   -0.965926
     94          0           0        1.066707   -2.331707   -0.965926
     95          0           0        1.025576   -2.385310   -0.965926
     96          0           0        0.999720   -2.447733   -0.965926
     97          0           0        0.990901   -2.514720   -0.965926
     98          0           0        0.999720   -2.581707   -0.965926
     99          0           0        1.025576   -2.644130   -0.965926
    100          0           0        1.066707   -2.697733   -0.965926
    101          0           0        1.120310   -2.738864   -0.965926
    102          0           0        1.182733   -2.764720   -0.965926
    103          0           0        1.249720   -2.773539   -0.965926
    104          0           0        1.316707   -2.764720   -0.965926
    105          0           0        1.379130   -2.738864   -0.965926
    106          0           0        1.432733   -2.697733   -0.965926
    107          0           0        1.473864   -2.644130   -0.965926
    108          0           0        1.499720   -2.581707   -0.965926
    109          0           0       -1.234050    0.000000    1.000000
    110          0           0       -1.234050    0.000000    1.000000
    111          0           0       -1.234050    0.000000    1.000000
    112          0           0       -1.234050    0.000000    1.000000
    113          0           0       -1.234050    0.000000    1.000000
    114          0           0       -1.234050    0.000000    1.000000
    115          0           0       -1.234050    0.000000    1.000000
    116          0           0       -1.234050    0.000000    1.000000
    117          0           0       -1.234050    0.000000    1.000000
    118          0           0       -1.234050    0.000000    1.000000
    119          0           0       -1.234050    0.000000    1.000000
    120          0           0       -1.234050    0.000000    1.000000
    121          0           0       -1.234050    0.000000    1.000000
    122          0           0       -1.234050    0.000000    1.000000
    123          0           0       -1.234050    0.000000    1.000000
    124          0           0       -1.234050    0.000000    1.000000
    125          0           0       -1.234050    0.000000    1.000000
    126          0           0       -1.234050    0.000000    1.000000
    127          0           0       -1.234050    0.000000    1.000000
    128          0           0       -1.234050    0.000000    1.000000
    129          0           0       -1.234050    0.000000    1.000000
    130          0           0       -1.234050    0.000000    1.000000
    131          0           0       -1.234050    0.000000    1.000000
    132          0           0       -1.234050    0.000000    1.000000
    133          0           0       -0.975231    0.000000    0.965926
    134          0           0       -0.984050    0.066987    0.965926
    135          0           0       -1.009906    0.129410    0.965926
    136          0           0       -1.051037    0.183013    0.965926
    137          0           0       -1.104640    0.224144    0.965926
    138          0           0       -1.167063    0.250000    0.965926
    139          0           0       -1.234050    0.258819    0.965926
    140          0           0       -1.301037    0.250000    0.965926
    141          0           0       -1.363460    0.224144    0.965926
    142          0           0       -1.417063    0.183013    0.965926
    143          0           0       -1.458194    0.129410    0.965926
    144          0           0       -1.484050    0.066987    0.965926
    145          0           0       -1.492869    0.000000    0.965926
    146          0           0       -1.484050   -0.066987    0.965926
    147          0           0       -1.458194   -0.129410    0.965926
    148          0           0       -1.417063   -0.183013    0.965926
    149          0           0       -1.363460   -0.224144    0.965926
    150          0           0       -1.301037   -0.250000    0.965926
    151          0           0       -1.234050   -0.258819    0.965926
    152          0           0       -1.167063   -0.250000    0.965926
    153          0           0       -1.104640   -0.224144    0.965926
    154          0           0       -1.051037   -0.183013    0.965926
    155          0           0       -1.009906   -0.129410    0.965926
    156          0           0       -0.984050   -0.066987    0.965926
    157          0           0       -0.734050    0.000000    0.866025
    158          0           0       -0.751087    0.129410    0.866025
    159          0           0       -0.801037    0.250000    0.866025
    160          0           0       -0.880497    0.353553    0.866025
    161          0           0       -0.984050    0.433013    0.866025
    162          0           0       -1.104640    0.482963    0.866025
    163          0           0       -1.234050    0.500000    0.866025
    164          0           0       -1.363460    0.482963    0.866025
    165          0           0       -1.484050    0.433013    0.866025
    166          0           0       -1.587603    0.353553    0.866025
    167          0           0       -1.667063    0.250000    0.866025
    168          0           0       -1.717013    0.129410    0.866025
    169          0           0       -1.734050    0.000000    0.866025
    170          0           0       -1.717013   -0.129410    0.866025
    171          0           0       -1.667063   -0.250000    0.866025
    172          0           0       -1.587603   -0.353553    0.866025
    173          0           0       -1.484050   -0.433013    0.866025
    174          0           0       -1.363460   -0.482963    0.866025
    175          0           0       -1.234050   -0.500000    0.866025
    176          0           0       -1.104640   -0.482963    0.866025
    177          0           0       -0.984050   -0.433013    0.866025
    178          0           0       -0.880497   -0.353553    0.866025
    179          0           0       -0.801037   -0.250000    0.866025
    180          0           0       -0.751087   -0.129410    0.866025
    181          0           0       -0.526943    0.000000    0.707107
    182          0           0       -0.551037    0.183013    0.707107
    183          0           0       -0.621678    0.353553    0.707107
    184          0           0       -0.734050    0.500000    0.707107
    185          0           0       -0.880497    0.612372    0.707107
    186          0           0       -1.051037    0.683013    0.707107
    187          0           0       -1.417063    0.683013    0.707107
    188          0           0       -1.587603    0.612372    0.707107
    189          0           0       -1.734050    0.500000    0.707107
    190          0           0       -1.917063    0.183013    0.707107
    191          0           0       -1.941157    0.000000    0.707107
    192          0           0       -1.917063   -0.183013    0.707107
    193          0           0       -1.734050   -0.500000    0.707107
    194          0           0       -1.587603   -0.612372    0.707107
    195          0           0       -1.417063   -0.683013    0.707107
    196          0           0       -1.051037   -0.683013    0.707107
    197          0           0       -0.880497   -0.612372    0.707107
    198          0           0       -0.734050   -0.500000    0.707107
    199          0           0       -0.621678   -0.353553    0.707107
    200          0           0       -0.551037   -0.183013    0.707107
    201          0           0       -0.526943    0.000000   -0.707107
    202          0           0       -0.551037    0.183013   -0.707107
    203          0           0       -0.621678    0.353553   -0.707107
    204          0           0       -0.734050    0.500000   -0.707107
    205          0           0       -0.880497    0.612372   -0.707107
    206          0           0       -1.051037    0.683013   -0.707107
    207          0           0       -1.417063    0.683013   -0.707107
    208          0           0       -1.587603    0.612372   -0.707107
    209          0           0       -1.734050    0.500000   -0.707107
    210          0           0       -1.917063    0.183013   -0.707107
    211          0           0       -1.941157    0.000000   -0.707107
    212          0           0       -1.917063   -0.183013   -0.707107
    213          0           0       -1.734050   -0.500000   -0.707107
    214          0           0       -1.587603   -0.612372   -0.707107
    215          0           0       -1.417063   -0.683013   -0.707107
    216          0           0       -1.051037   -0.683013   -0.707107
    217          0           0       -0.880497   -0.612372   -0.707107
    218          0           0       -0.734050   -0.500000   -0.707107
 ---------------------------------------------------------------------
 Rotational constants (GHZ):      3.0751358      1.2130944      0.8699230
 Standard basis: 6-311+G(d,p) (5D, 7F)
 Warning:  center  19 has no basis functions!
 Warning:  center  20 has no basis functions!
 Warning:  center  21 has no basis functions!
 Warning:  center  22 has no basis functions!
 Warning:  center  23 has no basis functions!
 Warning:  center  24 has no basis functions!
 Warning:  center  25 has no basis functions!
 Warning:  center  26 has no basis functions!
 Warning:  center  27 has no basis functions!
 Warning:  center  28 has no basis functions!
 Warning:  center  29 has no basis functions!
 Warning:  center  30 has no basis functions!
 Warning:  center  31 has no basis functions!
 Warning:  center  32 has no basis functions!
 Warning:  center  33 has no basis functions!
 Warning:  center  34 has no basis functions!
 Warning:  center  35 has no basis functions!
 Warning:  center  36 has no basis functions!
 Warning:  center  37 has no basis functions!
 Warning:  center  38 has no basis functions!
 Warning:  center  39 has no basis functions!
 Warning:  center  40 has no basis functions!
 Warning:  center  41 has no basis functions!
 Warning:  center  42 has no basis functions!
 Warning:  center  43 has no basis functions!
 Warning:  center  44 has no basis functions!
 Warning:  center  45 has no basis functions!
 Warning:  center  46 has no basis functions!
 Warning:  center  47 has no basis functions!
 Warning:  center  48 has no basis functions!
 Warning:  center  49 has no basis functions!
 Warning:  center  50 has no basis functions!
 Warning:  center  51 has no basis functions!
 Warning:  center  52 has no basis functions!
 Warning:  center  53 has no basis functions!
 Warning:  center  54 has no basis functions!
 Warning:  center  55 has no basis functions!
 Warning:  center  56 has no basis functions!
 Warning:  center  57 has no basis functions!
 Warning:  center  58 has no basis functions!
 Warning:  center  59 has no basis functions!
 Warning:  center  60 has no basis functions!
 Warning:  center  61 has no basis functions!
 Warning:  center  62 has no basis functions!
 Warning:  center  63 has no basis functions!
 Warning:  center  64 has no basis functions!
 Warning:  center  65 has no basis functions!
 Warning:  center  66 has no basis functions!
 Warning:  center  67 has no basis functions!
 Warning:  center  68 has no basis functions!
 Warning:  center  69 has no basis functions!
 Warning:  center  70 has no basis functions!
 Warning:  center  71 has no basis functions!
 Warning:  center  72 has no basis functions!
 Warning:  center  73 has no basis functions!
 Warning:  center  74 has no basis functions!
 Warning:  center  75 has no basis functions!
 Warning:  center  76 has no basis functions!
 Warning:  center  77 has no basis functions!
 Warning:  center  78 has no basis functions!
 Warning:  center  79 has no basis functions!
 Warning:  center  80 has no basis functions!
 Warning:  center  81 has no basis functions!
 Warning:  center  82 has no basis functions!
 Warning:  center  83 has no basis functions!
 Warning:  center  84 has no basis functions!
 Warning:  center  85 has no basis functions!
 Warning:  center  86 has no basis functions!
 Warning:  center  87 has no basis functions!
 Warning:  center  88 has no basis functions!
 Warning:  center  89 has no basis functions!
 Warning:  center  90 has no basis functions!
 Warning:  center  91 has no basis functions!
 Warning:  center  92 has no basis functions!
 Warning:  center  93 has no basis functions!
 Warning:  center  94 has no basis functions!
 Warning:  center  95 has no basis functions!
 Warning:  center  96 has no basis functions!
 Warning:  center  97 has no basis functions!
 Warning:  center  98 has no basis functions!
 Warning:  center  99 has no basis functions!
 Warning:  center 100 has no basis functions!
 Warning:  center 101 has no basis functions!
 Warning:  center 102 has no basis functions!
 Warning:  center 103 has no basis functions!
 Warning:  center 104 has no basis functions!
 Warning:  center 105 has no basis functions!
 Warning:  center 106 has no basis functions!
 Warning:  center 107 has no basis functions!
 Warning:  center 108 has no basis functions!
 Warning:  center 109 has no basis functions!
 Warning:  center 110 has no basis functions!
 Warning:  center 111 has no basis functions!
 Warning:  center 112 has no basis functions!
 Warning:  center 113 has no basis functions!
 Warning:  center 114 has no basis functions!
 Warning:  center 115 has no basis functions!
 Warning:  center 116 has no basis functions!
 Warning:  center 117 has no basis functions!
 Warning:  center 118 has no basis functions!
 Warning:  center 119 has no basis functions!
 Warning:  center 120 has no basis functions!
 Warning:  center 121 has no basis functions!
 Warning:  center 122 has no basis functions!
 Warning:  center 123 has no basis functions!
 Warning:  center 124 has no basis functions!
 Warning:  center 125 has no basis functions!
 Warning:  center 126 has no basis functions!
 Warning:  center 127 has no basis functions!
 Warning:  center 128 has no basis functions!
 Warning:  center 129 has no basis functions!
 Warning:  center 130 has no basis functions!
 Warning:  center 131 has no basis functions!
 Warning:  center 132 has no basis functions!
 Warning:  center 133 has no basis functions!
 Warning:  center 134 has no basis functions!
 Warning:  center 135 has no basis functions!
 Warning:  center 136 has no basis functions!
 Warning:  center 137 has no basis functions!
 Warning:  center 138 has no basis functions!
 Warning:  center 139 has no basis functions!
 Warning:  center 140 has no basis functions!
 Warning:  center 141 has no basis functions!
 Warning:  center 142 has no basis functions!
 Warning:  center 143 has no basis functions!
 Warning:  center 144 has no basis functions!
 Warning:  center 145 has no basis functions!
 Warning:  center 146 has no basis functions!
 Warning:  center 147 has no basis functions!
 Warning:  center 148 has no basis functions!
 Warning:  center 149 has no basis functions!
 Warning:  center 150 has no basis functions!
 Warning:  center 151 has no basis functions!
 Warning:  center 152 has no basis functions!
 Warning:  center 153 has no basis functions!
 Warning:  center 154 has no basis functions!
 Warning:  center 155 has no basis functions!
 Warning:  center 156 has no basis functions!
 Warning:  center 157 has no basis functions!
 Warning:  center 158 has no basis functions!
 Warning:  center 159 has no basis functions!
 Warning:  center 160 has no basis functions!
 Warning:  center 161 has no basis functions!
 Warning:  center 162 has no basis functions!
 Warning:  center 163 has no basis functions!
 Warning:  center 164 has no basis functions!
 Warning:  center 165 has no basis functions!
 Warning:  center 166 has no basis functions!
 Warning:  center 167 has no basis functions!
 Warning:  center 168 has no basis functions!
 Warning:  center 169 has no basis functions!
 Warning:  center 170 has no basis functions!
 Warning:  center 171 has no basis functions!
 Warning:  center 172 has no basis functions!
 Warning:  center 173 has no basis functions!
 Warning:  center 174 has no basis functions!
 Warning:  center 175 has no basis functions!
 Warning:  center 176 has no basis functions!
 Warning:  center 177 has no basis functions!
 Warning:  center 178 has no basis functions!
 Warning:  center 179 has no basis functions!
 Warning:  center 180 has no basis functions!
 Warning:  center 181 has no basis functions!
 Warning:  center 182 has no basis functions!
 Warning:  center 183 has no basis functions!
 Warning:  center 184 has no basis functions!
 Warning:  center 185 has no basis functions!
 Warning:  center 186 has no basis functions!
 Warning:  center 187 has no basis functions!
 Warning:  center 188 has no basis functions!
 Warning:  center 189 has no basis functions!
 Warning:  center 190 has no basis functions!
 Warning:  center 191 has no basis functions!
 Warning:  center 192 has no basis functions!
 Warning:  center 193 has no basis functions!
 Warning:  center 194 has no basis functions!
 Warning:  center 195 has no basis functions!
 Warning:  center 196 has no basis functions!
 Warning:  center 197 has no basis functions!
 Warning:  center 198 has no basis functions!
 Warning:  center 199 has no basis functions!
 Warning:  center 200 has no basis functions!
 Warning:  center 201 has no basis functions!
 Warning:  center 202 has no basis functions!
 Warning:  center 203 has no basis functions!
 Warning:  center 204 has no basis functions!
 Warning:  center 205 has no basis functions!
 Warning:  center 206 has no basis functions!
 Warning:  center 207 has no basis functions!
 Warning:  center 208 has no basis functions!
 Warning:  center 209 has no basis functions!
 Warning:  center 210 has no basis functions!
 Warning:  center 211 has no basis functions!
 Warning:  center 212 has no basis functions!
 Warning:  center 213 has no basis functions!
 Warning:  center 214 has no basis functions!
 Warning:  center 215 has no basis functions!
 Warning:  center 216 has no basis functions!
 Warning:  center 217 has no basis functions!
 Warning:  center 218 has no basis functions!
   268 basis functions,   424 primitive gaussians,   278 cartesian basis functions
    34 alpha electrons       34 beta electrons
       nuclear repulsion energy       453.8675371600 Hartrees.
 NAtoms=  218 NActive=  218 NUniq=  218 SFac= 1.00D+00 NAtFMM=   60 NAOKFM=T Big=T
 Integral buffers will be    131072 words long.
 Raffenetti 2 integral format.
 Two-electron integral symmetry is turned off.
 One-electron integrals computed using PRISM.
 NBasis=   268 RedAO= T EigKep=  1.12D-06  NBF=   268
 NBsUse=   267 1.00D-06 EigRej=  6.14D-07 NBFU=   267
 ExpMin= 4.38D-02 ExpMax= 4.56D+03 ExpMxC= 6.82D+02 IAcc=2 IRadAn=         4 AccDes= 0.00D+00
 Harris functional with IExCor=  402 and IRadAn=       4 diagonalized for initial guess.
 HarFok:  IExCor=  402 AccDes= 0.00D+00 IRadAn=         4 IDoV= 1 UseB2=F ITyADJ=14
 ICtDFT=  3500011 ScaDFX=  1.000000  1.000000  1.000000  1.000000
 FoFCou: FMM=F IPFlag=           0 FMFlag=      100000 FMFlg1=        2001
         NFxFlg=           0 DoJE=T BraDBF=F KetDBF=T FulRan=T
         wScrn=  0.000000 ICntrl=     500 IOpCl=  0 I1Cent=   200000004 NGrid=           0
         NMat0=    1 NMatS0=      1 NMatT0=    0 NMatD0=    1 NMtDS0=    0 NMtDT0=    0
 Symmetry not used in FoFCou.
 Requested convergence on RMS density matrix=1.00D-08 within 128 cycles.
 Requested convergence on MAX density matrix=1.00D-06.
 Requested convergence on             energy=1.00D-06.
 No special actions if energy rises.
 SCF Done:  E(RB3LYP) =  -385.985931946     A.U. after   11 cycles
            NFock= 11  Conv=0.78D-08     -V/T= 2.0059
 DoSCS=F DFT=T ScalE2(SS,OS)=  1.000000  1.000000
 Range of M.O.s used for correlation:     1   267
 NBasis=   268 NAE=    34 NBE=    34 NFC=     0 NFV=     0
 NROrb=    267 NOA=    34 NOB=    34 NVA=   233 NVB=   233

 **** Warning!!: The largest alpha MO coefficient is  0.20992189D+03

          Differentiating once with respect to magnetic field using GIAOs.
          Electric field/nuclear overlap derivatives assumed to be zero.
 FoFCou: FMM=F IPFlag=           0 FMFlag=      100000 FMFlg1=        2001
         NFxFlg=           0 DoJE=F BraDBF=F KetDBF=T FulRan=T
         wScrn=  0.000000 ICntrl=    6100 IOpCl=  0 I1Cent=           7 NGrid=         218
         NMat0=    1 NMatS0=      1 NMatT0=    0 NMatD0=    1 NMtDS0=    0 NMtDT0=    0
 Symmetry not used in FoFCou.
 FoFJK:  IHMeth= 1 ICntrl=    6127 DoSepK=F KAlg= 0 I1Cent=   0 FoldK=F
 IRaf=         1 NMat=   1 IRICut=       1 DoRegI=T DoRafI=F ISym2E= 0.
          There are     3 degrees of freedom in the 1st order CPHF.  IDoFFX=0 NUNeed=     3.
      3 vectors produced by pass  0 Test12= 2.64D-13 3.33D-08 XBig12= 1.44D+02 6.48D+00.
 AX will form     3 AO Fock derivatives at one time.
      3 vectors produced by pass  1 Test12= 2.64D-13 3.33D-08 XBig12= 2.28D-01 1.79D-01.
      3 vectors produced by pass  2 Test12= 2.64D-13 3.33D-08 XBig12= 7.58D-04 1.41D-02.
      3 vectors produced by pass  3 Test12= 2.64D-13 3.33D-08 XBig12= 2.19D-06 6.12D-04.
      3 vectors produced by pass  4 Test12= 2.64D-13 3.33D-08 XBig12= 2.99D-09 2.39D-05.
      3 vectors produced by pass  5 Test12= 2.64D-13 3.33D-08 XBig12= 6.15D-12 9.51D-07.
      1 vectors produced by pass  6 Test12= 2.64D-13 3.33D-08 XBig12= 9.29D-15 3.79D-08.
 InvSVY:  IOpt=1 It=  1 EMax= 1.78D-15
 Solved reduced A of dimension    19 with     3 vectors.
 Calculating GIAO nuclear magnetic shielding tensors.
 SCF GIAO Magnetic shielding tensor (ppm):
      1  C    Isotropic =    48.8814   Anisotropy =   178.3631
   XX=   -26.3877   YX=    47.3635   ZX=     0.0000
   XY=    49.5434   YY=     5.2417   ZY=     0.0000
   XZ=     0.0000   YZ=     0.0000   ZZ=   167.7901
   Eigenvalues:   -61.5420    40.3960   167.7901
      2  C    Isotropic =    48.8814   Anisotropy =   178.3631
   XX=   -26.3877   YX=   -47.3635   ZX=     0.0000
   XY=   -49.5434   YY=     5.2417   ZY=     0.0000
   XZ=     0.0000   YZ=     0.0000   ZZ=   167.7901
   Eigenvalues:   -61.5420    40.3960   167.7901
      3  C    Isotropic =    47.0315   Anisotropy =   159.6105
   XX=    39.7012   YX=   -14.9645   ZX=     0.0000
   XY=   -12.8373   YY=   -52.0452   ZY=     0.0000
   XZ=     0.0000   YZ=     0.0000   ZZ=   153.4385
   Eigenvalues:   -54.1051    41.7611   153.4385
      4  C    Isotropic =    40.3220   Anisotropy =   214.7654
   XX=   -33.3511   YX=     0.0000   ZX=     0.0000
   XY=     0.0000   YY=   -29.1819   ZY=     0.0000
   XZ=     0.0000   YZ=     0.0000   ZZ=   183.4989
   Eigenvalues:   -33.3511   -29.1819   183.4989
      5  C    Isotropic =    47.0315   Anisotropy =   159.6105
   XX=    39.7012   YX=    14.9645   ZX=     0.0000
   XY=    12.8373   YY=   -52.0452   ZY=     0.0000
   XZ=     0.0000   YZ=     0.0000   ZZ=   153.4385
   Eigenvalues:   -54.1051    41.7611   153.4385
      6  C    Isotropic =    48.8814   Anisotropy =   178.3631
   XX=   -26.3877   YX=    47.3635   ZX=     0.0000
   XY=    49.5434   YY=     5.2417   ZY=     0.0000
   XZ=     0.0000   YZ=     0.0000   ZZ=   167.7901
   Eigenvalues:   -61.5420    40.3960   167.7901
      7  C    Isotropic =    48.8814   Anisotropy =   178.3631
   XX=   -26.3877   YX=   -47.3635   ZX=     0.0000
   XY=   -49.5434   YY=     5.2417   ZY=     0.0000
   XZ=     0.0000   YZ=     0.0000   ZZ=   167.7901
   Eigenvalues:   -61.5420    40.3960   167.7901
      8  C    Isotropic =    47.0315   Anisotropy =   159.6105
   XX=    39.7012   YX=   -14.9645   ZX=     0.0000
   XY=   -12.8373   YY=   -52.0452   ZY=     0.0000
   XZ=     0.0000   YZ=     0.0000   ZZ=   153.4385
   Eigenvalues:   -54.1051    41.7611   153.4385
      9  C    Isotropic =    40.3220   Anisotropy =   214.7654
   XX=   -33.3511   YX=     0.0000   ZX=     0.0000
   XY=     0.0000   YY=   -29.1819   ZY=     0.0000
   XZ=     0.0000   YZ=     0.0000   ZZ=   183.4989
   Eigenvalues:   -33.3511   -29.1819   183.4989
     10  C    Isotropic =    47.0315   Anisotropy =   159.6105
   XX=    39.7012   YX=    14.9645   ZX=     0.0000
   XY=    12.8373   YY=   -52.0452   ZY=     0.0000
   XZ=     0.0000   YZ=     0.0000   ZZ=   153.4385
   Eigenvalues:   -54.1051    41.7611   153.4385
     11  H    Isotropic =    23.8865   Anisotropy =     5.6622
   XX=    25.3494   YX=     1.7328   ZX=     0.0000
   XY=     1.7216   YY=    26.3711   ZY=     0.0000
   XZ=     0.0000   YZ=     0.0000   ZZ=    19.9391
   Eigenvalues:    19.9391    24.0591    27.6614
     12  H    Isotropic =    23.8865   Anisotropy =     5.6622
   XX=    25.3494   YX=    -1.7328   ZX=     0.0000
   XY=    -1.7216   YY=    26.3711   ZY=     0.0000
   XZ=     0.0000   YZ=     0.0000   ZZ=    19.9391
   Eigenvalues:    19.9391    24.0591    27.6614
     13  H    Isotropic =    23.5289   Anisotropy =     7.4859
   XX=    28.4698   YX=    -0.2957   ZX=     0.0000
   XY=    -0.7473   YY=    23.0511   ZY=     0.0000
   XZ=     0.0000   YZ=     0.0000   ZZ=    19.0659
   Eigenvalues:    19.0659    23.0014    28.5196
     14  H    Isotropic =    23.5289   Anisotropy =     7.4859
   XX=    28.4698   YX=     0.2957   ZX=     0.0000
   XY=     0.7473   YY=    23.0511   ZY=     0.0000
   XZ=     0.0000   YZ=     0.0000   ZZ=    19.0659
   Eigenvalues:    19.0659    23.0014    28.5196
     15  H    Isotropic =    23.8865   Anisotropy =     5.6622
   XX=    25.3494   YX=     1.7328   ZX=     0.0000
   XY=     1.7216   YY=    26.3711   ZY=     0.0000
   XZ=     0.0000   YZ=     0.0000   ZZ=    19.9391
   Eigenvalues:    19.9391    24.0591    27.6614
     16  H    Isotropic =    23.8865   Anisotropy =     5.6622
   XX=    25.3494   YX=    -1.7328   ZX=     0.0000
   XY=    -1.7216   YY=    26.3711   ZY=     0.0000
   XZ=     0.0000   YZ=     0.0000   ZZ=    19.9391
   Eigenvalues:    19.9391    24.0591    27.6614
     17  H    Isotropic =    23.5289   Anisotropy =     7.4859
   XX=    28.4698   YX=    -0.2957   ZX=     0.0000
   XY=    -0.7473   YY=    23.0511   ZY=     0.0000
   XZ=     0.0000   YZ=     0.0000   ZZ=    19.0659
   Eigenvalues:    19.0659    23.0014    28.5196
     18  H    Isotropic =    23.5289   Anisotropy =     7.4859
   XX=    28.4698   YX=     0.2957   ZX=     0.0000
   XY=     0.7473   YY=    23.0511   ZY=     0.0000
   XZ=     0.0000   YZ=     0.0000   ZZ=    19.0659
   Eigenvalues:    19.0659    23.0014    28.5196
     19  Bq   Isotropic =    -0.5336   Anisotropy =     8.8779
   XX=    -0.6917   YX=    -0.4392   ZX=    -0.0392
   XY=    -0.0299   YY=     5.1096   ZY=     1.0836
   XZ=    -0.3093   YZ=     2.3881   ZZ=    -6.0186
   Eigenvalues:    -6.2864    -0.6994     5.3851
     20  Bq   Isotropic =    -0.4683   Anisotropy =     9.0499
   XX=    -0.4927   YX=    -1.5586   ZX=    -0.2921
   XY=    -0.8562   YY=     5.0477   ZY=     1.0611
   XZ=    -0.6290   YZ=     2.3211   ZZ=    -5.9599
   Eigenvalues:    -6.2274    -0.7424     5.5650
     21  Bq   Isotropic =    -0.3963   Anisotropy =     9.3463
   XX=     0.2005   YX=    -2.5419   ZX=    -0.5549
   XY=    -1.5628   YY=     4.7727   ZY=     1.0326
   XZ=    -0.9707   YZ=     2.2780   ZZ=    -6.1621
   Eigenvalues:    -6.4402    -0.5833     5.8345
     22  Bq   Isotropic =    -0.3200   Anisotropy =     9.7741
   XX=     1.3134   YX=    -3.2266   ZX=    -0.8239
   XY=    -2.0047   YY=     4.4065   ZY=     1.0022
   XZ=    -1.3434   YZ=     2.2668   ZZ=    -6.6800
   Eigenvalues:    -6.9798    -0.1763     6.1960
     23  Bq   Isotropic =    -0.2373   Anisotropy =    10.3050
   XX=     2.7489   YX=    -3.4785   ZX=    -1.0922
   XY=    -2.0618   YY=     4.1410   ZY=     0.9721
   XZ=    -1.7633   YZ=     2.3100   ZZ=    -7.6018
   Eigenvalues:    -7.9348     0.5902     6.6328
     24  Bq   Isotropic =    -0.1221   Anisotropy =    10.8854
   XX=     4.4236   YX=    -3.2032   ZX=    -1.3428
   XY=    -1.6387   YY=     4.2438   ZY=     0.9405
   XZ=    -2.2577   YZ=     2.4531   ZZ=    -9.0339
   Eigenvalues:    -9.4124     1.9112     7.1348
     25  Bq   Isotropic =     0.5498   Anisotropy =    11.3593
   XX=     5.2028   YX=    -2.2312   ZX=    -2.7502
   XY=    -0.4889   YY=     4.8445   ZY=     1.6362
   XZ=    -5.2322   YZ=     5.4648   ZZ=    -8.3977
   Eigenvalues:   -10.1251     3.6519     8.1227
     26  Bq   Isotropic =     1.5078   Anisotropy =    11.2381
   XX=     6.9155   YX=    -1.1984   ZX=    -2.8469
   XY=     0.8673   YY=     6.5567   ZY=     1.3243
   XZ=    -6.5334   YZ=     6.4087   ZZ=    -8.9490
   Eigenvalues:   -11.0085     6.5319     8.9998
     27  Bq   Isotropic =     3.7227   Anisotropy =    10.7742
   XX=     8.7393   YX=     0.1847   ZX=    -2.3156
   XY=     2.9151   YY=     9.7740   ZY=     0.4896
   XZ=    -7.9945   YZ=     7.6225   ZZ=    -7.3451
   Eigenvalues:    -9.8122    10.0749    10.9055
     28  Bq   Isotropic =     2.3844   Anisotropy =    13.9166
   XX=    10.7259   YX=    -1.1093   ZX=     2.1068
   XY=    -2.9595   YY=     5.8958   ZY=    -0.1993
   XZ=     4.9610   YZ=     9.0805   ZZ=    -9.4685
   Eigenvalues:   -11.3644     6.8554    11.6621
     29  Bq   Isotropic =     0.4757   Anisotropy =    13.0749
   XX=     8.7411   YX=     0.2031   ZX=     2.2410
   XY=    -1.1123   YY=     3.5273   ZY=     0.6651
   XZ=     3.7237   YZ=     7.9272   ZZ=   -10.8414
   Eigenvalues:   -12.4515     4.6863     9.1923
     30  Bq   Isotropic =    -0.2172   Anisotropy =    11.4272
   XX=     6.7415   YX=     1.0723   ZX=     2.0046
   XY=     0.1270   YY=     2.5234   ZY=     1.1616
   XZ=     2.7110   YZ=     6.9592   ZZ=    -9.9166
   Eigenvalues:   -11.3670     3.3144     7.4009
     31  Bq   Isotropic =    -0.4251   Anisotropy =     9.8826
   XX=     4.7914   YX=     1.6079   ZX=     1.7209
   XY=     0.8980   YY=     2.4488   ZY=     1.5200
   XZ=     2.0030   YZ=     6.2568   ZZ=    -8.5153
   Eigenvalues:    -9.8887     2.4502     6.1634
     32  Bq   Isotropic =    -0.4830   Anisotropy =     9.1426
   XX=     2.9997   YX=     1.8457   ZX=     1.4391
   XY=     1.3236   YY=     2.8787   ZY=     1.7755
   XZ=     1.4636   YZ=     5.7378   ZZ=    -7.3273
   Eigenvalues:    -8.6300     1.5690     5.6121
     33  Bq   Isotropic =    -0.4934   Anisotropy =     9.0089
   XX=     1.4891   YX=     1.7421   ZX=     1.1272
   XY=     1.4203   YY=     3.4856   ZY=     1.9366
   XZ=     0.9694   YZ=     5.3478   ZZ=    -6.4549
   Eigenvalues:    -7.6751     0.6824     5.5125
     34  Bq   Isotropic =    -0.4817   Anisotropy =     9.0496
   XX=     0.3405   YX=     1.2795   ZX=     0.7675
   XY=     1.1891   YY=     4.0596   ZY=     2.0216
   XZ=     0.4649   YZ=     5.0572   ZZ=    -5.8451
   Eigenvalues:    -6.9860    -0.0104     5.5514
     35  Bq   Isotropic =    -0.4523   Anisotropy =     9.1100
   XX=    -0.3936   YX=     0.5182   ZX=     0.3643
   XY=     0.6864   YY=     4.4777   ZY=     2.0499
   XZ=    -0.0646   YZ=     4.8415   ZZ=    -5.4410
   Eigenvalues:    -6.5208    -0.4572     5.6210
     36  Bq   Isotropic =    -0.4058   Anisotropy =     9.1970
   XX=    -0.6805   YX=    -0.4212   ZX=    -0.0714
   XY=     0.0201   YY=     4.6788   ZY=     2.0389
   XZ=    -0.6216   YZ=     4.6817   ZZ=    -5.2156
   Eigenvalues:    -6.2622    -0.6806     5.7255
     37  Bq   Isotropic =    -0.3433   Anisotropy =     9.3577
   XX=    -0.5156   YX=    -1.3916   ZX=    -0.5298
   XY=    -0.6768   YY=     4.6561   ZY=     2.0031
   XZ=    -1.2095   YZ=     4.5685   ZZ=    -5.1704
   Eigenvalues:    -6.2186    -0.7064     5.8951
     38  Bq   Isotropic =    -0.2662   Anisotropy =     9.6275
   XX=     0.0705   YX=    -2.2428   ZX=    -1.0035
   XY=    -1.2689   YY=     4.4573   ZY=     1.9536
   XZ=    -1.8362   YZ=     4.5043   ZZ=    -5.3263
   Eigenvalues:    -6.4154    -0.5353     6.1521
     39  Bq   Isotropic =    -0.1723   Anisotropy =    10.0115
   XX=     1.0137   YX=    -2.8390   ZX=    -1.4848
   XY=    -1.6340   YY=     4.1863   ZY=     1.8969
   XZ=    -2.5174   YZ=     4.5060   ZZ=    -5.7170
   Eigenvalues:    -6.8887    -0.1303     6.5020
     40  Bq   Isotropic =    -0.0494   Anisotropy =    10.4825
   XX=     2.2294   YX=    -3.0718   ZX=    -1.9609
   XY=    -1.6727   YY=     4.0035   ZY=     1.8354
   XZ=    -3.2795   YZ=     4.6127   ZZ=    -6.3810
   Eigenvalues:    -7.6804     0.5933     6.9390
     41  Bq   Isotropic =     0.1469   Anisotropy =    10.9775
   XX=     3.6394   YX=    -2.8734   ZX=    -2.4041
   XY=    -1.3108   YY=     4.1270   ZY=     1.7617
   XZ=    -4.1648   YZ=     4.8967   ZZ=    -7.3257
   Eigenvalues:    -8.8055     1.7810     7.4653
     42  Bq   Isotropic =     1.0870   Anisotropy =    11.5298
   XX=     3.6594   YX=    -1.8643   ZX=    -3.2867
   XY=    -0.2277   YY=     4.4455   ZY=     2.1849
   XZ=    -6.4897   YZ=     7.9483   ZZ=    -4.8438
   Eigenvalues:    -8.4906     2.9781     8.7735
     43  Bq   Isotropic =     2.0545   Anisotropy =    11.5443
   XX=     4.8464   YX=    -1.1409   ZX=    -3.4154
   XY=     0.7001   YY=     5.5519   ZY=     1.8204
   XZ=    -7.7468   YZ=     8.9879   ZZ=    -4.2348
   Eigenvalues:    -8.5589     4.9717     9.7507
     44  Bq   Isotropic =     3.7874   Anisotropy =    10.9633
   XX=     6.1242   YX=    -0.1861   ZX=    -3.0463
   XY=     1.9385   YY=     7.3595   ZY=     1.0873
   XZ=    -8.8954   YZ=    10.3261   ZZ=    -2.1214
   Eigenvalues:    -7.3161     7.5820    11.0963
     45  Bq   Isotropic =     6.4902   Anisotropy =     9.7586
   XX=     7.6155   YX=     0.9212   ZX=    -1.8787
   XY=     3.3108   YY=     9.6656   ZY=    -0.2860
   XZ=    -9.4251   YZ=    11.7069   ZZ=     2.1895
   Eigenvalues:    -3.9883    10.4631    12.9959
     46  Bq   Isotropic =     5.4799   Anisotropy =     7.9211
   XX=     9.0292   YX=    -1.2896   ZX=     2.2536
   XY=    -2.5859   YY=     6.4762   ZY=    -0.9114
   XZ=     5.3513   YZ=    12.9566   ZZ=     0.9344
   Eigenvalues:    -4.2806     9.9597    10.7607
     47  Bq   Isotropic =     2.8800   Anisotropy =     9.5209
   XX=     7.4850   YX=    -0.3954   ZX=     2.8429
   XY=    -1.5860   YY=     4.4866   ZY=     0.4017
   XZ=     5.0746   YZ=    11.8173   ZZ=    -3.3316
   Eigenvalues:    -7.7064     7.1191     9.2273
     48  Bq   Isotropic =     1.3034   Anisotropy =    10.0610
   XX=     6.0567   YX=     0.4163   ZX=     2.8877
   XY=    -0.5590   YY=     3.1484   ZY=     1.2005
   XZ=     4.2282   YZ=    10.5795   ZZ=    -5.2948
   Eigenvalues:    -9.0060     4.9055     8.0107
     49  Bq   Isotropic =     0.4925   Anisotropy =     9.9385
   XX=     4.6714   YX=     1.0145   ZX=     2.6374
   XY=     0.2558   YY=     2.5160   ZY=     1.7251
   XZ=     3.3118   YZ=     9.5171   ZZ=    -5.7101
   Eigenvalues:    -8.9798     3.3391     7.1181
     50  Bq   Isotropic =     0.1059   Anisotropy =     9.6936
   XX=     3.3275   YX=     1.3756   ZX=     2.2808
   XY=     0.8081   YY=     2.4379   ZY=     2.1102
   XZ=     2.5042   YZ=     8.6979   ZZ=    -5.4476
   Eigenvalues:    -8.4288     2.1783     6.5683
     51  Bq   Isotropic =    -0.0782   Anisotropy =     9.5742
   XX=     2.0756   YX=     1.4899   ZX=     1.8843
   XY=     1.1043   YY=     2.7061   ZY=     2.3953
   XZ=     1.7965   YZ=     8.0812   ZZ=    -5.0163
   Eigenvalues:    -7.7797     1.2405     6.3046
     52  Bq   Isotropic =    -0.1661   Anisotropy =     9.5652
   XX=     0.9909   YX=     1.3435   ZX=     1.4509
   XY=     1.1504   YY=     3.1262   ZY=     2.5896
   XZ=     1.1309   YZ=     7.6156   ZZ=    -4.6153
   Eigenvalues:    -7.1946     0.4857     6.2107
     53  Bq   Isotropic =    -0.2010   Anisotropy =     9.5954
   XX=     0.1448   YX=     0.9434   ZX=     0.9749
   XY=     0.9619   YY=     3.5494   ZY=     2.7037
   XZ=     0.4648   YZ=     7.2642   ZZ=    -4.2972
   Eigenvalues:    -6.7247    -0.0742     6.1959
     54  Bq   Isotropic =    -0.1994   Anisotropy =     9.6407
   XX=    -0.4065   YX=     0.3374   ZX=     0.4583
   XY=     0.5846   YY=     3.8776   ZY=     2.7526
   XZ=    -0.2222   YZ=     7.0011   ZZ=    -4.0694
   Eigenvalues:    -6.3879    -0.4380     6.2277
     55  Bq   Isotropic =    -0.1680   Anisotropy =     9.7197
   XX=    -0.6287   YX=    -0.3899   ZX=    -0.0906
   XY=     0.0952   YY=     4.0589   ZY=     2.7524
   XZ=    -0.9388   YZ=     6.8103   ZZ=    -3.9343
   Eigenvalues:    -6.1987    -0.6172     6.3118
     56  Bq   Isotropic =    -0.1096   Anisotropy =     9.8642
   XX=    -0.5140   YX=    -1.1330   ZX=    -0.6618
   XY=    -0.4110   YY=     4.0847   ZY=     2.7178
   XZ=    -1.6911   YZ=     6.6862   ZZ=    -3.8995
   Eigenvalues:    -6.1751    -0.6202     6.4665
     57  Bq   Isotropic =    -0.0234   Anisotropy =    10.0967
   XX=    -0.0846   YX=    -1.7826   ZX=    -1.2451
   XY=    -0.8357   YY=     3.9895   ZY=     2.6601
   XZ=    -2.4880   YZ=     6.6360   ZZ=    -3.9749
   Eigenvalues:    -6.3354    -0.4424     6.7078
     58  Bq   Isotropic =     0.0983   Anisotropy =    10.4197
   XX=     0.6111   YX=    -2.2399   ZX=    -1.8282
   XY=    -1.0898   YY=     3.8485   ZY=     2.5860
   XZ=    -3.3437   YZ=     6.6822   ZZ=    -4.1646
   Eigenvalues:    -6.6906    -0.0593     7.0448
     59  Bq   Isotropic =     0.2776   Anisotropy =    10.8108
   XX=     1.5077   YX=    -2.4284   ZX=    -2.3918
   XY=    -1.1022   YY=     3.7753   ZY=     2.4956
   XZ=    -4.2794   YZ=     6.8683   ZZ=    -4.4501
   Eigenvalues:    -7.2317     0.5797     7.4849
     60  Bq   Isotropic =     0.5683   Anisotropy =    11.2165
   XX=     2.5399   YX=    -2.3046   ZX=    -2.9008
   XY=    -0.8243   YY=     3.9162   ZY=     2.3759
   XZ=    -5.3220   YZ=     7.2621   ZZ=    -4.7513
   Eigenvalues:    -7.8965     1.5554     8.0460
     61  Bq   Isotropic =     1.5973   Anisotropy =    11.8957
   XX=     2.1240   YX=    -1.3067   ZX=    -2.9018
   XY=     0.0552   YY=     3.9119   ZY=     2.5156
   XZ=    -6.2211   YZ=    10.0233   ZZ=    -1.2441
   Eigenvalues:    -6.8612     2.1254     9.5277
     62  Bq   Isotropic =     2.3638   Anisotropy =    12.0927
   XX=     2.8366   YX=    -0.8924   ZX=    -2.9614
   XY=     0.5389   YY=     4.4401   ZY=     2.1848
   XZ=    -6.9621   YZ=    10.8601   ZZ=    -0.1851
   Eigenvalues:    -6.5624     3.2283    10.4256
     63  Bq   Isotropic =     3.4456   Anisotropy =    12.1405
   XX=     3.5876   YX=    -0.3778   ZX=    -2.7134
   XY=     1.0889   YY=     5.1648   ZY=     1.6800
   XZ=    -7.4071   YZ=    11.8603   ZZ=     1.5842
   Eigenvalues:    -5.6666     4.4641    11.5392
     64  Bq   Isotropic =     4.8073   Anisotropy =    12.0363
   XX=     4.4038   YX=     0.1328   ZX=    -2.1051
   XY=     1.5586   YY=     5.9570   ZY=     0.9660
   XZ=    -7.2915   YZ=    12.9021   ZZ=     4.0611
   Eigenvalues:    -4.0628     5.6531    12.8315
     65  Bq   Isotropic =     6.2290   Anisotropy =    11.8526
   XX=     5.2829   YX=     0.4804   ZX=    -1.2140
   XY=     1.7293   YY=     6.5838   ZY=     0.1074
   XZ=    -6.3617   YZ=    13.8230   ZZ=     6.8203
   Eigenvalues:    -1.9574     6.5136    14.1307
     66  Bq   Isotropic =     7.3087   Anisotropy =    11.6626
   XX=     6.0938   YX=     0.5061   ZX=    -0.2704
   XY=     1.4192   YY=     6.8210   ZY=    -0.6674
   XZ=    -4.5676   YZ=    14.4879   ZZ=     9.0113
   Eigenvalues:     0.0304     6.8119    15.0838
     67  Bq   Isotropic =     7.6398   Anisotropy =    11.4440
   XX=     6.5589   YX=     0.2091   ZX=     0.5245
   XY=     0.6881   YY=     6.5973   ZY=    -1.0419
   XZ=    -2.2061   YZ=    14.8278   ZZ=     9.7632
   Eigenvalues:     0.9707     6.6795    15.2691
     68  Bq   Isotropic =     7.0718   Anisotropy =    11.1576
   XX=     6.4794   YX=    -0.1696   ZX=     1.1893
   XY=    -0.1125   YY=     5.9956   ZY=    -0.8523
   XZ=     0.1664   YZ=    14.8226   ZZ=     8.7403
   Eigenvalues:     0.2028     6.5023    14.5102
     69  Bq   Isotropic =     5.8208   Anisotropy =    10.8830
   XX=     5.9459   YX=    -0.3418   ZX=     1.8129
   XY=    -0.6051   YY=     5.1542   ZY=    -0.2329
   XZ=     2.0123   YZ=    14.4766   ZZ=     6.3623
   Eigenvalues:    -1.7438     6.1300    13.0761
     70  Bq   Isotropic =     4.3183   Anisotropy =    10.7231
   XX=     5.1971   YX=    -0.2185   ZX=     2.3363
   XY=    -0.6645   YY=     4.2348   ZY=     0.5275
   XZ=     3.0615   YZ=    13.8298   ZZ=     3.5229
   Eigenvalues:    -3.8810     5.3688    11.4670
     71  Bq   Isotropic =     2.9513   Anisotropy =    10.6593
   XX=     4.3910   YX=     0.0968   ZX=     2.6376
   XY=    -0.4059   YY=     3.4134   ZY=     1.2147
   XZ=     3.3657   YZ=    12.9852   ZZ=     1.0496
   Eigenvalues:    -5.5537     4.3501    10.0575
     72  Bq   Isotropic =     1.9111   Anisotropy =    10.6040
   XX=     3.5767   YX=     0.4560   ZX=     2.6824
   XY=    -0.0152   YY=     2.8227   ZY=     1.7608
   XZ=     3.1604   YZ=    12.0868   ZZ=    -0.6662
   Eigenvalues:    -6.5393     3.2921     8.9804
     73  Bq   Isotropic =     1.2070   Anisotropy =    10.5212
   XX=     2.7631   YX=     0.7521   ZX=     2.5237
   XY=     0.3636   YY=     2.5109   ZY=     2.1821
   XZ=     2.6878   YZ=    11.2551   ZZ=    -1.6529
   Eigenvalues:    -6.9360     2.3359     8.2212
     74  Bq   Isotropic =     0.7622   Anisotropy =    10.4353
   XX=     1.9642   YX=     0.9259   ZX=     2.2333
   XY=     0.6489   YY=     2.4517   ZY=     2.5092
   XZ=     2.1046   YZ=    10.5495   ZZ=    -2.1294
   Eigenvalues:    -6.9576     1.5251     7.7190
     75  Bq   Isotropic =     0.4911   Anisotropy =    10.3734
   XX=     1.2115   YX=     0.9489   ZX=     1.8606
   XY=     0.8034   YY=     2.5757   ZY=     2.7598
   XZ=     1.4804   YZ=     9.9791   ZZ=    -2.3139
   Eigenvalues:    -6.7910     0.8576     7.4067
     76  Bq   Isotropic =     0.3317   Anisotropy =    10.3417
   XX=     0.5491   YX=     0.8124   ZX=     1.4305
   XY=     0.8161   YY=     2.7993   ZY=     2.9413
   XZ=     0.8337   YZ=     9.5301   ZZ=    -2.3534
   Eigenvalues:    -6.5582     0.3271     7.2261
     77  Bq   Isotropic =     0.2465   Anisotropy =    10.3370
   XX=     0.0235   YX=     0.5274   ZX=     0.9554
   XY=     0.6958   YY=     3.0456   ZY=     3.0594
   XZ=     0.1639   YZ=     9.1841   ZZ=    -2.3296
   Eigenvalues:    -6.3306    -0.0677     7.1378
     78  Bq   Isotropic =     0.2153   Anisotropy =    10.3623
   XX=    -0.3261   YX=     0.1261   ZX=     0.4446
   XY=     0.4707   YY=     3.2562   ZY=     3.1217
   XZ=    -0.5329   YZ=     8.9265   ZZ=    -2.2842
   Eigenvalues:    -6.1512    -0.3263     7.1235
     79  Bq   Isotropic =     0.2281   Anisotropy =    10.4288
   XX=    -0.4746   YX=    -0.3407   ZX=    -0.0918
   XY=     0.1856   YY=     3.3969   ZY=     3.1373
   XZ=    -1.2593   YZ=     8.7493   ZZ=    -2.2381
   Eigenvalues:    -6.0484    -0.4480     7.1806
     80  Bq   Isotropic =     0.2812   Anisotropy =    10.5506
   XX=    -0.4149   YX=    -0.8107   ZX=    -0.6421
   XY=    -0.1045   YY=     3.4595   ZY=     3.1156
   XZ=    -2.0170   YZ=     8.6524   ZZ=    -2.2011
   Eigenvalues:    -6.0407    -0.4307     7.3149
     81  Bq   Isotropic =     0.3769   Anisotropy =    10.7369
   XX=    -0.1596   YX=    -1.2186   ZX=    -1.1925
   XY=    -0.3422   YY=     3.4619   ZY=     3.0639
   XZ=    -2.8075   YZ=     8.6448   ZZ=    -2.1715
   Eigenvalues:    -6.1355    -0.2686     7.5349
     82  Bq   Isotropic =     0.5254   Anisotropy =    10.9871
   XX=     0.2624   YX=    -1.5058   ZX=    -1.7253
   XY=    -0.4756   YY=     3.4451   ZY=     2.9859
   XZ=    -3.6320   YZ=     8.7459   ZZ=    -2.1312
   Eigenvalues:    -6.3232     0.0493     7.8502
     83  Bq   Isotropic =     0.7483   Anisotropy =    11.2868
   XX=     0.8107   YX=    -1.6279   ZX=    -2.2157
   XY=    -0.4653   YY=     3.4685   ZY=     2.8791
   XZ=    -4.4887   YZ=     8.9856   ZZ=    -2.0342
   Eigenvalues:    -6.5684     0.5405     8.2729
     84  Bq   Isotropic =     1.0850   Anisotropy =    11.6058
   XX=     1.4428   YX=    -1.5612   ZX=    -2.6267
   XY=    -0.2887   YY=     3.6019   ZY=     2.7315
   XZ=    -5.3650   YZ=     9.4005   ZZ=    -1.7897
   Eigenvalues:    -6.7940     1.2268     8.8222
     85  Bq   Isotropic =     1.9360   Anisotropy =    12.1991
   XX=     1.0544   YX=    -0.7008   ZX=    -1.6759
   XY=     0.2712   YY=     3.3473   ZY=     2.6551
   XZ=    -4.4913   YZ=    11.4940   ZZ=     1.4064
   Eigenvalues:    -5.5249     1.2642    10.0688
     86  Bq   Isotropic =     2.3388   Anisotropy =    12.3750
   XX=     1.3854   YX=    -0.5588   ZX=    -1.6565
   XY=     0.4134   YY=     3.5043   ZY=     2.4582
   XZ=    -4.6877   YZ=    11.9415   ZZ=     2.1268
   Eigenvalues:    -5.2524     1.6801    10.5888
     87  Bq   Isotropic =     2.7937   Anisotropy =    12.5182
   XX=     1.7180   YX=    -0.3884   ZX=    -1.5012
   XY=     0.5526   YY=     3.6756   ZY=     2.2251
   XZ=    -4.6738   YZ=    12.4279   ZZ=     2.9875
   Eigenvalues:    -4.8385     2.0804    11.1392
     88  Bq   Isotropic =     3.2580   Anisotropy =    12.6163
   XX=     2.0380   YX=    -0.2220   ZX=    -1.2112
   XY=     0.6525   YY=     3.8290   ZY=     1.9707
   XZ=    -4.3992   YZ=    12.9077   ZZ=     3.9072
   Eigenvalues:    -4.3116     2.4168    11.6689
     89  Bq   Isotropic =     3.6648   Anisotropy =    12.6603
   XX=     2.3237   YX=    -0.0903   ZX=    -0.8097
   XY=     0.6817   YY=     3.9258   ZY=     1.7265
   XZ=    -3.8452   YZ=    13.3285   ZZ=     4.7450
   Eigenvalues:    -3.7579     2.6474    12.1050
     90  Bq   Isotropic =     3.9362   Anisotropy =    12.6429
   XX=     2.5447   YX=    -0.0108   ZX=    -0.3387
   XY=     0.6290   YY=     3.9340   ZY=     1.5364
   XZ=    -3.0472   YZ=    13.6412   ZZ=     5.3298
   Eigenvalues:    -3.3129     2.7567    12.3648
     91  Bq   Isotropic =     4.0097   Anisotropy =    12.5606
   XX=     2.6681   YX=     0.0220   ZX=     0.1522
   XY=     0.5138   YY=     3.8409   ZY=     1.4418
   XZ=    -2.0997   YZ=    13.8102   ZZ=     5.5200
   Eigenvalues:    -3.1168     2.7624    12.3834
     92  Bq   Isotropic =     3.8648   Anisotropy =    12.4196
   XX=     2.6726   YX=     0.0344   ZX=     0.6172
   XY=     0.3808   YY=     3.6572   ZY=     1.4635
   XZ=    -1.1373   YZ=    13.8188   ZZ=     5.2646
   Eigenvalues:    -3.2407     2.6905    12.1445
     93  Bq   Isotropic =     3.5329   Anisotropy =    12.2378
   XX=     2.5587   YX=     0.0578   ZX=     1.0187
   XY=     0.2791   YY=     3.4133   ZY=     1.5919
   XZ=    -0.2936   YZ=    13.6711   ZZ=     4.6267
   Eigenvalues:    -3.6380     2.5452    11.6914
     94  Bq   Isotropic =     3.0837   Anisotropy =    12.0397
   XX=     2.3459   YX=     0.1106   ZX=     1.3266
   XY=     0.2391   YY=     3.1499   ZY=     1.7938
   XZ=     0.3365   YZ=    13.3906   ZZ=     3.7553
   Eigenvalues:    -4.1769     2.3177    11.1102
     95  Bq   Isotropic =     2.5972   Anisotropy =    11.8465
   XX=     2.0614   YX=     0.1896   ZX=     1.5213
   XY=     0.2630   YY=     2.9082   ZY=     2.0298
   XZ=     0.7153   YZ=    13.0153   ZZ=     2.8220
   Eigenvalues:    -4.7173     2.0141    10.4949
     96  Bq   Isotropic =     2.1386   Anisotropy =    11.6717
   XX=     1.7312   YX=     0.2755   ZX=     1.5965
   XY=     0.3305   YY=     2.7207   ZY=     2.2679
   XZ=     0.8554   YZ=    12.5900   ZZ=     1.9640
   Eigenvalues:    -5.1641     1.6602     9.9197
     97  Bq   Isotropic =     1.7464   Anisotropy =    11.5222
   XX=     1.3775   YX=     0.3433   ZX=     1.5599
   XY=     0.4124   YY=     2.6051   ZY=     2.4881
   XZ=     0.7979   YZ=    12.1566   ZZ=     1.2567
   Eigenvalues:    -5.4785     1.2899     9.4279
     98  Bq   Isotropic =     1.4347   Anisotropy =    11.4016
   XX=     1.0209   YX=     0.3711   ZX=     1.4274
   XY=     0.4812   YY=     2.5635   ZY=     2.6802
   XZ=     0.5908   YZ=    11.7474   ZZ=     0.7197
   Eigenvalues:    -5.6651     0.9334     9.0357
     99  Bq   Isotropic =     1.2016   Anisotropy =    11.3117
   XX=     0.6823   YX=     0.3447   ZX=     1.2176
   XY=     0.5173   YY=     2.5846   ZY=     2.8392
   XZ=     0.2753   YZ=    11.3834   ZZ=     0.3380
   Eigenvalues:    -5.7511     0.6132     8.7428
    100  Bq   Isotropic =     1.0386   Anisotropy =    11.2534
   XX=     0.3831   YX=     0.2591   ZX=     0.9483
   XY=     0.5112   YY=     2.6490   ZY=     2.9633
   XZ=    -0.1176   YZ=    11.0759   ZZ=     0.0836
   Eigenvalues:    -5.7704     0.3453     8.5408
    101  Bq   Isotropic =     0.9357   Anisotropy =    11.2274
   XX=     0.1437   YX=     0.1191   ZX=     0.6349
   XY=     0.4631   YY=     2.7353   ZY=     3.0521
   XZ=    -0.5666   YZ=    10.8300   ZZ=    -0.0718
   Eigenvalues:    -5.7540     0.1405     8.4206
    102  Bq   Isotropic =     0.8851   Anisotropy =    11.2353
   XX=    -0.0193   YX=    -0.0619   ZX=     0.2914
   XY=     0.3818   YY=     2.8243   ZY=     3.1068
   XZ=    -1.0566   YZ=    10.6482   ZZ=    -0.1498
   Eigenvalues:    -5.7270     0.0069     8.3753
    103  Bq   Isotropic =     0.8815   Anisotropy =    11.2792
   XX=    -0.0946   YX=    -0.2639   ZX=    -0.0689
   XY=     0.2828   YY=     2.9031   ZY=     3.1295
   XZ=    -1.5756   YZ=    10.5327   ZZ=    -0.1640
   Eigenvalues:    -5.7066    -0.0498     8.4010
    104  Bq   Isotropic =     0.9229   Anisotropy =    11.3607
   XX=    -0.0785   YX=    -0.4626   ZX=    -0.4320
   XY=     0.1854   YY=     2.9668   ZY=     3.1224
   XZ=    -2.1127   YZ=    10.4871   ZZ=    -0.1195
   Eigenvalues:    -5.7019    -0.0260     8.4968
    105  Bq   Isotropic =     1.0104   Anisotropy =    11.4797
   XX=     0.0253   YX=    -0.6331   ZX=    -0.7828
   XY=     0.1098   YY=     3.0187   ZY=     3.0875
   XZ=    -2.6561   YZ=    10.5165   ZZ=    -0.0127
   Eigenvalues:    -5.7126     0.0803     8.6636
    106  Bq   Isotropic =     1.1482   Anisotropy =    11.6327
   XX=     0.2063   YX=    -0.7534   ZX=    -1.1040
   XY=     0.0734   YY=     3.0692   ZY=     3.0254
   XZ=    -3.1908   YZ=    10.6276   ZZ=     0.1690
   Eigenvalues:    -5.7276     0.2689     8.9033
    107  Bq   Isotropic =     1.3431   Anisotropy =    11.8120
   XX=     0.4495   YX=    -0.8076   ZX=    -1.3756
   XY=     0.0878   YY=     3.1324   ZY=     2.9349
   XZ=    -3.6962   YZ=    10.8267   ZZ=     0.4474
   Eigenvalues:    -5.7246     0.5362     9.2178
    108  Bq   Isotropic =     1.6036   Anisotropy =    12.0059
   XX=     0.7377   YX=    -0.7888   ZX=    -1.5745
   XY=     0.1562   YY=     3.2224   ZY=     2.8130
   XZ=    -4.1433   YZ=    11.1169   ZZ=     0.8507
   Eigenvalues:    -5.6703     0.8735     9.6075
    109  Bq   Isotropic =    10.5208   Anisotropy =    27.8321
   XX=     0.7459   YX=     0.0000   ZX=    -0.4585
   XY=     0.0000   YY=     1.9133   ZY=     0.0000
   XZ=    -3.9592   YZ=     0.0000   ZZ=    28.9033
   Eigenvalues:     0.5737     1.9133    29.0756
    110  Bq   Isotropic =    10.5208   Anisotropy =    27.8321
   XX=     0.7459   YX=     0.0000   ZX=    -0.4585
   XY=     0.0000   YY=     1.9133   ZY=     0.0000
   XZ=    -3.9592   YZ=     0.0000   ZZ=    28.9033
   Eigenvalues:     0.5737     1.9133    29.0756
    111  Bq   Isotropic =    10.5208   Anisotropy =    27.8321
   XX=     0.7459   YX=     0.0000   ZX=    -0.4585
   XY=     0.0000   YY=     1.9133   ZY=     0.0000
   XZ=    -3.9592   YZ=     0.0000   ZZ=    28.9033
   Eigenvalues:     0.5737     1.9133    29.0756
    112  Bq   Isotropic =    10.5208   Anisotropy =    27.8321
   XX=     0.7459   YX=     0.0000   ZX=    -0.4585
   XY=     0.0000   YY=     1.9133   ZY=     0.0000
   XZ=    -3.9592   YZ=     0.0000   ZZ=    28.9033
   Eigenvalues:     0.5737     1.9133    29.0756
    113  Bq   Isotropic =    10.5208   Anisotropy =    27.8321
   XX=     0.7459   YX=     0.0000   ZX=    -0.4585
   XY=     0.0000   YY=     1.9133   ZY=     0.0000
   XZ=    -3.9592   YZ=     0.0000   ZZ=    28.9033
   Eigenvalues:     0.5737     1.9133    29.0756
    114  Bq   Isotropic =    10.5208   Anisotropy =    27.8321
   XX=     0.7459   YX=     0.0000   ZX=    -0.4585
   XY=     0.0000   YY=     1.9133   ZY=     0.0000
   XZ=    -3.9592   YZ=     0.0000   ZZ=    28.9033
   Eigenvalues:     0.5737     1.9133    29.0756
    115  Bq   Isotropic =    10.5208   Anisotropy =    27.8321
   XX=     0.7459   YX=     0.0000   ZX=    -0.4585
   XY=     0.0000   YY=     1.9133   ZY=     0.0000
   XZ=    -3.9592   YZ=     0.0000   ZZ=    28.9033
   Eigenvalues:     0.5737     1.9133    29.0756
    116  Bq   Isotropic =    10.5208   Anisotropy =    27.8321
   XX=     0.7459   YX=     0.0000   ZX=    -0.4585
   XY=     0.0000   YY=     1.9133   ZY=     0.0000
   XZ=    -3.9592   YZ=     0.0000   ZZ=    28.9033
   Eigenvalues:     0.5737     1.9133    29.0756
    117  Bq   Isotropic =    10.5208   Anisotropy =    27.8321
   XX=     0.7459   YX=     0.0000   ZX=    -0.4585
   XY=     0.0000   YY=     1.9133   ZY=     0.0000
   XZ=    -3.9592   YZ=     0.0000   ZZ=    28.9033
   Eigenvalues:     0.5737     1.9133    29.0756
    118  Bq   Isotropic =    10.5208   Anisotropy =    27.8321
   XX=     0.7459   YX=     0.0000   ZX=    -0.4585
   XY=     0.0000   YY=     1.9133   ZY=     0.0000
   XZ=    -3.9592   YZ=     0.0000   ZZ=    28.9033
   Eigenvalues:     0.5737     1.9133    29.0756
    119  Bq   Isotropic =    10.5208   Anisotropy =    27.8321
   XX=     0.7459   YX=     0.0000   ZX=    -0.4585
   XY=     0.0000   YY=     1.9133   ZY=     0.0000
   XZ=    -3.9592   YZ=     0.0000   ZZ=    28.9033
   Eigenvalues:     0.5737     1.9133    29.0756
    120  Bq   Isotropic =    10.5208   Anisotropy =    27.8321
   XX=     0.7459   YX=     0.0000   ZX=    -0.4585
   XY=     0.0000   YY=     1.9133   ZY=     0.0000
   XZ=    -3.9592   YZ=     0.0000   ZZ=    28.9033
   Eigenvalues:     0.5737     1.9133    29.0756
    121  Bq   Isotropic =    10.5208   Anisotropy =    27.8321
   XX=     0.7459   YX=     0.0000   ZX=    -0.4585
   XY=     0.0000   YY=     1.9133   ZY=     0.0000
   XZ=    -3.9592   YZ=     0.0000   ZZ=    28.9033
   Eigenvalues:     0.5737     1.9133    29.0756
    122  Bq   Isotropic =    10.5208   Anisotropy =    27.8321
   XX=     0.7459   YX=     0.0000   ZX=    -0.4585
   XY=     0.0000   YY=     1.9133   ZY=     0.0000
   XZ=    -3.9592   YZ=     0.0000   ZZ=    28.9033
   Eigenvalues:     0.5737     1.9133    29.0756
    123  Bq   Isotropic =    10.5208   Anisotropy =    27.8321
   XX=     0.7459   YX=     0.0000   ZX=    -0.4585
   XY=     0.0000   YY=     1.9133   ZY=     0.0000
   XZ=    -3.9592   YZ=     0.0000   ZZ=    28.9033
   Eigenvalues:     0.5737     1.9133    29.0756
    124  Bq   Isotropic =    10.5208   Anisotropy =    27.8321
   XX=     0.7459   YX=     0.0000   ZX=    -0.4585
   XY=     0.0000   YY=     1.9133   ZY=     0.0000
   XZ=    -3.9592   YZ=     0.0000   ZZ=    28.9033
   Eigenvalues:     0.5737     1.9133    29.0756
    125  Bq   Isotropic =    10.5208   Anisotropy =    27.8321
   XX=     0.7459   YX=     0.0000   ZX=    -0.4585
   XY=     0.0000   YY=     1.9133   ZY=     0.0000
   XZ=    -3.9592   YZ=     0.0000   ZZ=    28.9033
   Eigenvalues:     0.5737     1.9133    29.0756
    126  Bq   Isotropic =    10.5208   Anisotropy =    27.8321
   XX=     0.7459   YX=     0.0000   ZX=    -0.4585
   XY=     0.0000   YY=     1.9133   ZY=     0.0000
   XZ=    -3.9592   YZ=     0.0000   ZZ=    28.9033
   Eigenvalues:     0.5737     1.9133    29.0756
    127  Bq   Isotropic =    10.5208   Anisotropy =    27.8321
   XX=     0.7459   YX=     0.0000   ZX=    -0.4585
   XY=     0.0000   YY=     1.9133   ZY=     0.0000
   XZ=    -3.9592   YZ=     0.0000   ZZ=    28.9033
   Eigenvalues:     0.5737     1.9133    29.0756
    128  Bq   Isotropic =    10.5208   Anisotropy =    27.8321
   XX=     0.7459   YX=     0.0000   ZX=    -0.4585
   XY=     0.0000   YY=     1.9133   ZY=     0.0000
   XZ=    -3.9592   YZ=     0.0000   ZZ=    28.9033
   Eigenvalues:     0.5737     1.9133    29.0756
    129  Bq   Isotropic =    10.5208   Anisotropy =    27.8321
   XX=     0.7459   YX=     0.0000   ZX=    -0.4585
   XY=     0.0000   YY=     1.9133   ZY=     0.0000
   XZ=    -3.9592   YZ=     0.0000   ZZ=    28.9033
   Eigenvalues:     0.5737     1.9133    29.0756
    130  Bq   Isotropic =    10.5208   Anisotropy =    27.8321
   XX=     0.7459   YX=     0.0000   ZX=    -0.4585
   XY=     0.0000   YY=     1.9133   ZY=     0.0000
   XZ=    -3.9592   YZ=     0.0000   ZZ=    28.9033
   Eigenvalues:     0.5737     1.9133    29.0756
    131  Bq   Isotropic =    10.5208   Anisotropy =    27.8321
   XX=     0.7459   YX=     0.0000   ZX=    -0.4585
   XY=     0.0000   YY=     1.9133   ZY=     0.0000
   XZ=    -3.9592   YZ=     0.0000   ZZ=    28.9033
   Eigenvalues:     0.5737     1.9133    29.0756
    132  Bq   Isotropic =    10.5208   Anisotropy =    27.8321
   XX=     0.7459   YX=     0.0000   ZX=    -0.4585
   XY=     0.0000   YY=     1.9133   ZY=     0.0000
   XZ=    -3.9592   YZ=     0.0000   ZZ=    28.9033
   Eigenvalues:     0.5737     1.9133    29.0756
    133  Bq   Isotropic =    10.9637   Anisotropy =    27.9838
   XX=     1.4569   YX=     0.0000   ZX=    -1.3711
   XY=     0.0000   YY=     2.1910   ZY=     0.0000
   XZ=    -5.1400   YZ=     0.0000   ZZ=    29.2432
   Eigenvalues:     1.0806     2.1910    29.6196
    134  Bq   Isotropic =    10.9691   Anisotropy =    27.9698
   XX=     1.4723   YX=    -0.1428   ZX=    -1.3305
[...]
     8  C   -0.081784
     9  C    0.204484
    10  C   -0.081784
    11  H    0.128962
    12  H    0.128962
    13  H    0.121839
    14  H    0.121839
    15  H    0.128962
    16  H    0.128962
    17  H    0.121839
    18  H    0.121839
    19  Bq   0.000000
    20  Bq   0.000000
    21  Bq   0.000000
    22  Bq   0.000000
    23  Bq   0.000000
    24  Bq   0.000000
    25  Bq   0.000000
    26  Bq   0.000000
    27  Bq   0.000000
    28  Bq   0.000000
    29  Bq   0.000000
    30  Bq   0.000000
    31  Bq   0.000000
    32  Bq   0.000000
    33  Bq   0.000000
    34  Bq   0.000000
    35  Bq   0.000000
    36  Bq   0.000000
    37  Bq   0.000000
    38  Bq   0.000000
    39  Bq   0.000000
    40  Bq   0.000000
    41  Bq   0.000000
    42  Bq   0.000000
    43  Bq   0.000000
    44  Bq   0.000000
    45  Bq   0.000000
    46  Bq   0.000000
    47  Bq   0.000000
    48  Bq   0.000000
    49  Bq   0.000000
    50  Bq   0.000000
    51  Bq   0.000000
    52  Bq   0.000000
    53  Bq   0.000000
    54  Bq   0.000000
    55  Bq   0.000000
    56  Bq   0.000000
    57  Bq   0.000000
    58  Bq   0.000000
    59  Bq   0.000000
    60  Bq   0.000000
    61  Bq   0.000000
    62  Bq   0.000000
    63  Bq   0.000000
    64  Bq   0.000000
    65  Bq   0.000000
    66  Bq   0.000000
    67  Bq   0.000000
    68  Bq   0.000000
    69  Bq   0.000000
    70  Bq   0.000000
    71  Bq   0.000000
    72  Bq   0.000000
    73  Bq   0.000000
    74  Bq   0.000000
    75  Bq   0.000000
    76  Bq   0.000000
    77  Bq   0.000000
    78  Bq   0.000000
    79  Bq   0.000000
    80  Bq   0.000000
    81  Bq   0.000000
    82  Bq   0.000000
    83  Bq   0.000000
    84  Bq   0.000000
    85  Bq   0.000000
    86  Bq   0.000000
    87  Bq   0.000000
    88  Bq   0.000000
    89  Bq   0.000000
    90  Bq   0.000000
    91  Bq   0.000000
    92  Bq   0.000000
    93  Bq   0.000000
    94  Bq   0.000000
    95  Bq   0.000000
    96  Bq   0.000000
    97  Bq   0.000000
    98  Bq   0.000000
    99  Bq   0.000000
   100  Bq   0.000000
   101  Bq   0.000000
   102  Bq   0.000000
   103  Bq   0.000000
   104  Bq   0.000000
   105  Bq   0.000000
   106  Bq   0.000000
   107  Bq   0.000000
   108  Bq   0.000000
   109  Bq   0.000000
   110  Bq   0.000000
   111  Bq   0.000000
   112  Bq   0.000000
   113  Bq   0.000000
   114  Bq   0.000000
   115  Bq   0.000000
   116  Bq   0.000000
   117  Bq   0.000000
   118  Bq   0.000000
   119  Bq   0.000000
   120  Bq   0.000000
   121  Bq   0.000000
   122  Bq   0.000000
   123  Bq   0.000000
   124  Bq   0.000000
   125  Bq   0.000000
   126  Bq   0.000000
   127  Bq   0.000000
   128  Bq   0.000000
   129  Bq   0.000000
   130  Bq   0.000000
   131  Bq   0.000000
   132  Bq   0.000000
   133  Bq   0.000000
   134  Bq   0.000000
   135  Bq   0.000000
   136  Bq   0.000000
   137  Bq   0.000000
   138  Bq   0.000000
   139  Bq   0.000000
   140  Bq   0.000000
   141  Bq   0.000000
   142  Bq   0.000000
   143  Bq   0.000000
   144  Bq   0.000000
   145  Bq   0.000000
   146  Bq   0.000000
   147  Bq   0.000000
   148  Bq   0.000000
   149  Bq   0.000000
   150  Bq   0.000000
   151  Bq   0.000000
   152  Bq   0.000000
   153  Bq   0.000000
   154  Bq   0.000000
   155  Bq   0.000000
   156  Bq   0.000000
   157  Bq   0.000000
   158  Bq   0.000000
   159  Bq   0.000000
   160  Bq   0.000000
   161  Bq   0.000000
   162  Bq   0.000000
   163  Bq   0.000000
   164  Bq   0.000000
   165  Bq   0.000000
   166  Bq   0.000000
   167  Bq   0.000000
   168  Bq   0.000000
   169  Bq   0.000000
   170  Bq   0.000000
   171  Bq   0.000000
   172  Bq   0.000000
   173  Bq   0.000000
   174  Bq   0.000000
   175  Bq   0.000000
   176  Bq   0.000000
   177  Bq   0.000000
   178  Bq   0.000000
   179  Bq   0.000000
   180  Bq   0.000000
   181  Bq   0.000000
   182  Bq   0.000000
   183  Bq   0.000000
   184  Bq   0.000000
   185  Bq   0.000000
   186  Bq   0.000000
   187  Bq   0.000000
   188  Bq   0.000000
   189  Bq   0.000000
   190  Bq   0.000000
   191  Bq   0.000000
   192  Bq   0.000000
   193  Bq   0.000000
   194  Bq   0.000000
   195  Bq   0.000000
   196  Bq   0.000000
   197  Bq   0.000000
   198  Bq   0.000000
   199  Bq   0.000000
   200  Bq   0.000000
   201  Bq   0.000000
   202  Bq   0.000000
   203  Bq   0.000000
   204  Bq   0.000000
   205  Bq   0.000000
   206  Bq   0.000000
   207  Bq   0.000000
   208  Bq   0.000000
   209  Bq   0.000000
   210  Bq   0.000000
   211  Bq   0.000000
   212  Bq   0.000000
   213  Bq   0.000000
   214  Bq   0.000000
   215  Bq   0.000000
   216  Bq   0.000000
   217  Bq   0.000000
   218  Bq   0.000000
 Sum of Mulliken charges =   0.00000
 Mulliken charges with hydrogens summed into heavy atoms:
               1
     1  C   -0.142297
     2  C   -0.142297
     3  C    0.040055
     4  C    0.204484
     5  C    0.040055
     6  C   -0.142297
     7  C   -0.142297
     8  C    0.040055
     9  C    0.204484
    10  C   -0.081784
    19  Bq   0.000000
    20  Bq   0.000000
    21  Bq   0.121839
    22  Bq   0.000000
    23  Bq   0.000000
    24  Bq   0.000000
    25  Bq   0.000000
    26  Bq   0.000000
    27  Bq   0.000000
    28  Bq   0.000000
    29  Bq   0.000000
    30  Bq   0.000000
    31  Bq   0.000000
    32  Bq   0.000000
    33  Bq   0.000000
    34  Bq   0.000000
    35  Bq   0.000000
    36  Bq   0.000000
    37  Bq   0.000000
    38  Bq   0.000000
    39  Bq   0.000000
    40  Bq   0.000000
    41  Bq   0.000000
    42  Bq   0.000000
    43  Bq   0.000000
    44  Bq   0.000000
    45  Bq   0.000000
    46  Bq   0.000000
    47  Bq   0.000000
    48  Bq   0.000000
    49  Bq   0.000000
    50  Bq   0.000000
    51  Bq   0.000000
    52  Bq   0.000000
    53  Bq   0.000000
    54  Bq   0.000000
    55  Bq   0.000000
    56  Bq   0.000000
    57  Bq   0.000000
    58  Bq   0.000000
    59  Bq   0.000000
    60  Bq   0.000000
    61  Bq   0.000000
    62  Bq   0.000000
    63  Bq   0.000000
    64  Bq   0.000000
    65  Bq   0.000000
    66  Bq   0.000000
    67  Bq   0.000000
    68  Bq   0.000000
    69  Bq   0.000000
    70  Bq   0.000000
    71  Bq   0.000000
    72  Bq   0.000000
    73  Bq   0.000000
    74  Bq   0.000000
    75  Bq   0.000000
    76  Bq   0.000000
    77  Bq   0.000000
    78  Bq   0.000000
    79  Bq   0.000000
    80  Bq   0.000000
    81  Bq   0.000000
    82  Bq   0.000000
    83  Bq   0.000000
    84  Bq   0.000000
    85  Bq   0.000000
    86  Bq   0.000000
    87  Bq   0.000000
    88  Bq   0.000000
    89  Bq   0.000000
    90  Bq   0.000000
    91  Bq   0.000000
    92  Bq   0.000000
    93  Bq   0.000000
    94  Bq   0.000000
    95  Bq   0.000000
    96  Bq   0.000000
    97  Bq   0.000000
    98  Bq   0.000000
    99  Bq   0.000000
   100  Bq   0.000000
   101  Bq   0.000000
   102  Bq   0.000000
   103  Bq   0.000000
   104  Bq   0.000000
   105  Bq   0.000000
   106  Bq   0.000000
   107  Bq   0.000000
   108  Bq   0.000000
   109  Bq   0.000000
   110  Bq   0.000000
   111  Bq   0.000000
   112  Bq   0.000000
   113  Bq   0.000000
   114  Bq   0.000000
   115  Bq   0.000000
   116  Bq   0.000000
   117  Bq   0.000000
   118  Bq   0.000000
   119  Bq   0.000000
   120  Bq   0.000000
   121  Bq   0.000000
   122  Bq   0.000000
   123  Bq   0.000000
   124  Bq   0.000000
   125  Bq   0.000000
   126  Bq   0.000000
   127  Bq   0.000000
   128  Bq   0.000000
   129  Bq   0.000000
   130  Bq   0.000000
   131  Bq   0.000000
   132  Bq   0.000000
   133  Bq   0.000000
   134  Bq   0.000000
   135  Bq   0.000000
   136  Bq   0.000000
   137  Bq   0.000000
   138  Bq   0.000000
   139  Bq   0.000000
   140  Bq   0.000000
   141  Bq   0.000000
   142  Bq   0.000000
   143  Bq   0.000000
   144  Bq   0.000000
   145  Bq   0.000000
   146  Bq   0.000000
   147  Bq   0.000000
   148  Bq   0.000000
   149  Bq   0.000000
   150  Bq   0.000000
   151  Bq   0.000000
   152  Bq   0.000000
   153  Bq   0.000000
   154  Bq   0.000000
   155  Bq   0.000000
   156  Bq   0.000000
   157  Bq   0.000000
   158  Bq   0.000000
   159  Bq   0.000000
   160  Bq   0.000000
   161  Bq   0.000000
   162  Bq   0.000000
   163  Bq   0.000000
   164  Bq   0.000000
   165  Bq   0.000000
   166  Bq   0.000000
   167  Bq   0.000000
   168  Bq   0.000000
   169  Bq   0.000000
   170  Bq   0.000000
   171  Bq   0.000000
   172  Bq   0.000000
   173  Bq   0.000000
   174  Bq   0.000000
   175  Bq   0.000000
   176  Bq   0.000000
   177  Bq   0.000000
   178  Bq   0.000000
   179  Bq   0.000000
   180  Bq   0.000000
   181  Bq   0.000000
   182  Bq   0.000000
   183  Bq   0.000000
   184  Bq   0.000000
   185  Bq   0.000000
   186  Bq   0.000000
   187  Bq   0.000000
   188  Bq   0.000000
   189  Bq   0.000000
   190  Bq   0.000000
   191  Bq   0.000000
   192  Bq   0.000000
   193  Bq   0.000000
   194  Bq   0.000000
   195  Bq   0.000000
   196  Bq   0.000000
   197  Bq   0.000000
   198  Bq   0.000000
   199  Bq   0.000000
   200  Bq   0.000000
   201  Bq   0.000000
   202  Bq   0.000000
   203  Bq   0.000000
   204  Bq   0.000000
   205  Bq   0.000000
   206  Bq   0.000000
   207  Bq   0.000000
   208  Bq   0.000000
   209  Bq   0.000000
   210  Bq   0.000000
   211  Bq   0.000000
   212  Bq   0.000000
   213  Bq   0.000000
   214  Bq   0.000000
   215  Bq   0.000000
   216  Bq   0.000000
   217  Bq   0.000000
   218  Bq   0.000000
 Electronic spatial extent (au):  <R**2>=           1312.5323
 Charge=              0.0000 electrons
 Dipole moment (field-independent basis, Debye):
    X=              0.0000    Y=              0.0000    Z=              0.0000  Tot=              0.0000
 Quadrupole moment (field-independent basis, Debye-Ang):
   XX=            -51.9618   YY=            -52.1216   ZZ=            -65.1252
   XY=              0.0000   XZ=              0.0000   YZ=              0.0000
 Traceless Quadrupole moment (field-independent basis, Debye-Ang):
   XX=              4.4411   YY=              4.2812   ZZ=             -8.7224
   XY=              0.0000   XZ=              0.0000   YZ=              0.0000
 Octapole moment (field-independent basis, Debye-Ang**2):
  XXX=              0.0000  YYY=              0.0000  ZZZ=              0.0000  XYY=              0.0000
  XXY=              0.0000  XXZ=              0.0000  XZZ=              0.0000  YZZ=              0.0000
  YYZ=              0.0000  XYZ=              0.0000
 Hexadecapole moment (field-independent basis, Debye-Ang**3):
 XXXX=          -1119.8966 YYYY=           -498.1664 ZZZZ=            -79.6336 XXXY=              0.0000
 XXXZ=              0.0000 YYYX=              0.0000 YYYZ=              0.0000 ZZZX=              0.0000
 ZZZY=              0.0000 XXYY=           -275.3262 XXZZ=           -249.8350 YYZZ=           -117.4791
 XXYZ=              0.0000 YYXZ=              0.0000 ZZXY=              0.0000
 N-N= 4.538675371600D+02 E-N=-1.802310911208D+03  KE= 3.837199947839D+02
 1\1\GINC-CALVANI\SP\RB3LYP\6-311+G(d,p)\C10H8\YANNICK\11-Sep-2020\0\\#
  rb3lyp/6-311+g** NMR geom=connectivity\\Title\\0,1\C,0,2.45076,-0.711
 74,0.\C,0,2.45076,0.71174,0.\C,0,1.25139,1.41137,0.\C,0,0.,0.72289,0.\
 C,0,-1.25139,1.41137,0.\C,0,-2.45076,0.71174,0.\C,0,-2.45076,-0.71174,
 0.\C,0,-1.25139,-1.41137,0.\C,0,0.,-0.72289,0.\C,0,1.25139,-1.41137,0.
 \H,0,3.40873,-1.25791,0.\H,0,3.40873,1.25791,0.\H,0,1.24972,2.51472,0.
 \H,0,-1.24972,2.51472,0.\H,0,-3.40873,1.25791,0.\H,0,-3.40873,-1.25791
 ,0.\H,0,-1.24972,-2.51472,0.\H,0,1.24972,-2.51472,0.\Bq,0,1.24972,-3.4
 806458263,-0.2588190451\Bq,0,1.49972,-3.4477327019,-0.2588190451\Bq,0,
 1.7326829131,-3.3512363037,-0.2588190451\Bq,0,1.9327327019,-3.19773270
 19,-0.2588190451\Bq,0,2.0862363037,-2.9976829131,-0.2588190451\Bq,0,2.
 1827327019,-2.76472,-0.2588190451\Bq,0,2.1157454038,-2.51472,-0.5\Bq,0
 ,2.0862363037,-2.290576132,-0.5\Bq,0,1.99972,-2.0817072981,-0.5\Bq,0,0
 .49972,-2.0817072981,-0.5\Bq,0,0.4132036963,-2.290576132,-0.5\Bq,0,0.3
 836945962,-2.51472,-0.5\Bq,0,0.4132036963,-2.738863868,-0.5\Bq,0,0.499
 72,-2.9477327019,-0.5\Bq,0,0.6373475643,-3.1270924357,-0.5\Bq,0,0.8167
 072981,-3.26472,-0.5\Bq,0,1.025576132,-3.3512363037,-0.5\Bq,0,1.24972,
 -3.3807454038,-0.5\Bq,0,1.473863868,-3.3512363037,-0.5\Bq,0,1.68273270
 19,-3.26472,-0.5\Bq,0,1.8620924357,-3.1270924357,-0.5\Bq,0,1.99972,-2.
 9477327019,-0.5\Bq,0,2.0862363037,-2.738863868,-0.5\Bq,0,1.9568267812,
 -2.51472,-0.7071067812\Bq,0,1.9327327019,-2.3317072981,-0.7071067812\B
 q,0,1.8620924357,-2.1611666094,-0.7071067812\Bq,0,1.74972,-2.01472,-0.
 7071067812\Bq,0,0.74972,-2.01472,-0.7071067812\Bq,0,0.6373475643,-2.16
 11666094,-0.7071067812\Bq,0,0.5667072981,-2.3317072981,-0.7071067812\B
 q,0,0.5426132188,-2.51472,-0.7071067812\Bq,0,0.5667072981,-2.697732701
 9,-0.7071067812\Bq,0,0.6373475643,-2.8682733906,-0.7071067812\Bq,0,0.7
 4972,-3.01472,-0.7071067812\Bq,0,0.8961666094,-3.1270924357,-0.7071067
 812\Bq,0,1.0667072981,-3.1977327019,-0.7071067812\Bq,0,1.24972,-3.2218
 267812,-0.7071067812\Bq,0,1.4327327019,-3.1977327019,-0.7071067812\Bq,
 0,1.6032733906,-3.1270924357,-0.7071067812\Bq,0,1.74972,-3.01472,-0.70
 71067812\Bq,0,1.8620924357,-2.8682733906,-0.7071067812\Bq,0,1.93273270
 19,-2.6977327019,-0.7071067812\Bq,0,1.74972,-2.51472,-0.8660254038\Bq,
 0,1.7326829131,-2.3853104774,-0.8660254038\Bq,0,1.6827327019,-2.26472,
 -0.8660254038\Bq,0,1.6032733906,-2.1611666094,-0.8660254038\Bq,0,1.499
 72,-2.0817072981,-0.8660254038\Bq,0,1.3791295226,-2.0317570869,-0.8660
 254038\Bq,0,1.24972,-2.01472,-0.8660254038\Bq,0,1.1203104774,-2.031757
 0869,-0.8660254038\Bq,0,0.99972,-2.0817072981,-0.8660254038\Bq,0,0.896
 1666094,-2.1611666094,-0.8660254038\Bq,0,0.8167072981,-2.26472,-0.8660
 254038\Bq,0,0.7667570869,-2.3853104774,-0.8660254038\Bq,0,0.74972,-2.5
 1472,-0.8660254038\Bq,0,0.7667570869,-2.6441295226,-0.8660254038\Bq,0,
 0.8167072981,-2.76472,-0.8660254038\Bq,0,0.8961666094,-2.8682733906,-0
 .8660254038\Bq,0,0.99972,-2.9477327019,-0.8660254038\Bq,0,1.1203104774
 ,-2.9976829131,-0.8660254038\Bq,0,1.24972,-3.01472,-0.8660254038\Bq,0,
 1.3791295226,-2.9976829131,-0.8660254038\Bq,0,1.49972,-2.9477327019,-0
 .8660254038\Bq,0,1.6032733906,-2.8682733906,-0.8660254038\Bq,0,1.68273
 27019,-2.76472,-0.8660254038\Bq,0,1.7326829131,-2.6441295226,-0.866025
 4038\Bq,0,1.5085390451,-2.51472,-0.9659258263\Bq,0,1.49972,-2.44773270
 19,-0.9659258263\Bq,0,1.473863868,-2.3853104774,-0.9659258263\Bq,0,1.4
 327327019,-2.3317072981,-0.9659258263\Bq,0,1.3791295226,-2.290576132,-
 0.9659258263\Bq,0,1.3167072981,-2.26472,-0.9659258263\Bq,0,1.24972,-2.
 2559009549,-0.9659258263\Bq,0,1.1827327019,-2.26472,-0.9659258263\Bq,0
 ,1.1203104774,-2.290576132,-0.9659258263\Bq,0,1.0667072981,-2.33170729
 81,-0.9659258263\Bq,0,1.025576132,-2.3853104774,-0.9659258263\Bq,0,0.9
 9972,-2.4477327019,-0.9659258263\Bq,0,0.9909009549,-2.51472,-0.9659258
 263\Bq,0,0.99972,-2.5817072981,-0.9659258263\Bq,0,1.025576132,-2.64412
 95226,-0.9659258263\Bq,0,1.0667072981,-2.6977327019,-0.9659258263\Bq,0
 ,1.1203104774,-2.738863868,-0.9659258263\Bq,0,1.1827327019,-2.76472,-0
 .9659258263\Bq,0,1.24972,-2.7735390451,-0.9659258263\Bq,0,1.3167072981
 ,-2.76472,-0.9659258263\Bq,0,1.3791295226,-2.738863868,-0.9659258263\B
 q,0,1.4327327019,-2.6977327019,-0.9659258263\Bq,0,1.473863868,-2.64412
 95226,-0.9659258263\Bq,0,1.49972,-2.5817072981,-0.9659258263\Bq,0,-1.2
 3405,0.,1.\Bq,0,-1.23405,0.,1.\Bq,0,-1.23405,0.,1.\Bq,0,-1.23405,0.,1.
 \Bq,0,-1.23405,0.,1.\Bq,0,-1.23405,0.,1.\Bq,0,-1.23405,0.,1.\Bq,0,-1.2
 3405,0.,1.\Bq,0,-1.23405,0.,1.\Bq,0,-1.23405,0.,1.\Bq,0,-1.23405,0.,1.
 \Bq,0,-1.23405,0.,1.\Bq,0,-1.23405,0.,1.\Bq,0,-1.23405,0.,1.\Bq,0,-1.2
 3405,0.,1.\Bq,0,-1.23405,0.,1.\Bq,0,-1.23405,0.,1.\Bq,0,-1.23405,0.,1.
 \Bq,0,-1.23405,0.,1.\Bq,0,-1.23405,0.,1.\Bq,0,-1.23405,0.,1.\Bq,0,-1.2
 3405,0.,1.\Bq,0,-1.23405,0.,1.\Bq,0,-1.23405,0.,1.\Bq,0,-0.9752309549,
 0.,0.9659258263\Bq,0,-0.98405,0.0669872981,0.9659258263\Bq,0,-1.009906
 132,0.1294095226,0.9659258263\Bq,0,-1.0510372981,0.1830127019,0.965925
 8263\Bq,0,-1.1046404774,0.224143868,0.9659258263\Bq,0,-1.1670627019,0.
 25,0.9659258263\Bq,0,-1.23405,0.2588190451,0.9659258263\Bq,0,-1.301037
 2981,0.25,0.9659258263\Bq,0,-1.3634595226,0.224143868,0.9659258263\Bq,
 0,-1.4170627019,0.1830127019,0.9659258263\Bq,0,-1.458193868,0.12940952
 26,0.9659258263\Bq,0,-1.48405,0.0669872981,0.9659258263\Bq,0,-1.492869
 0451,0.,0.9659258263\Bq,0,-1.48405,-0.0669872981,0.9659258263\Bq,0,-1.
 458193868,-0.1294095226,0.9659258263\Bq,0,-1.4170627019,-0.1830127019,
 0.9659258263\Bq,0,-1.3634595226,-0.224143868,0.9659258263\Bq,0,-1.3010
 372981,-0.25,0.9659258263\Bq,0,-1.23405,-0.2588190451,0.9659258263\Bq,
 0,-1.1670627019,-0.25,0.9659258263\Bq,0,-1.1046404774,-0.224143868,0.9
 659258263\Bq,0,-1.0510372981,-0.1830127019,0.9659258263\Bq,0,-1.009906
 132,-0.1294095226,0.9659258263\Bq,0,-0.98405,-0.0669872981,0.965925826
 3\Bq,0,-0.73405,0.,0.8660254038\Bq,0,-0.7510870869,0.1294095226,0.8660
 254038\Bq,0,-0.8010372981,0.25,0.8660254038\Bq,0,-0.8804966094,0.35355
 33906,0.8660254038\Bq,0,-0.98405,0.4330127019,0.8660254038\Bq,0,-1.104
 6404774,0.4829629131,0.8660254038\Bq,0,-1.23405,0.5,0.8660254038\Bq,0,
 -1.3634595226,0.4829629131,0.8660254038\Bq,0,-1.48405,0.4330127019,0.8
 660254038\Bq,0,-1.5876033906,0.3535533906,0.8660254038\Bq,0,-1.6670627
 019,0.25,0.8660254038\Bq,0,-1.7170129131,0.1294095226,0.8660254038\Bq,
 0,-1.73405,0.,0.8660254038\Bq,0,-1.7170129131,-0.1294095226,0.86602540
 38\Bq,0,-1.6670627019,-0.25,0.8660254038\Bq,0,-1.5876033906,-0.3535533
 906,0.8660254038\Bq,0,-1.48405,-0.4330127019,0.8660254038\Bq,0,-1.3634
 595226,-0.4829629131,0.8660254038\Bq,0,-1.23405,-0.5,0.8660254038\Bq,0
 ,-1.1046404774,-0.4829629131,0.8660254038\Bq,0,-0.98405,-0.4330127019,
 0.8660254038\Bq,0,-0.8804966094,-0.3535533906,0.8660254038\Bq,0,-0.801
 0372981,-0.25,0.8660254038\Bq,0,-0.7510870869,-0.1294095226,0.86602540
 38\Bq,0,-0.5269432188,0.,0.7071067812\Bq,0,-0.5510372981,0.1830127019,
 0.7071067812\Bq,0,-0.6216775643,0.3535533906,0.7071067812\Bq,0,-0.7340
 5,0.5,0.7071067812\Bq,0,-0.8804966094,0.6123724357,0.7071067812\Bq,0,-
 1.0510372981,0.6830127019,0.7071067812\Bq,0,-1.4170627019,0.6830127019
 ,0.7071067812\Bq,0,-1.5876033906,0.6123724357,0.7071067812\Bq,0,-1.734
 05,0.5,0.7071067812\Bq,0,-1.9170627019,0.1830127019,0.7071067812\Bq,0,
 -1.9411567812,0.,0.7071067812\Bq,0,-1.9170627019,-0.1830127019,0.70710
 67812\Bq,0,-1.73405,-0.5,0.7071067812\Bq,0,-1.5876033906,-0.6123724357
 ,0.7071067812\Bq,0,-1.4170627019,-0.6830127019,0.7071067812\Bq,0,-1.05
 10372981,-0.6830127019,0.7071067812\Bq,0,-0.8804966094,-0.6123724357,0
 .7071067812\Bq,0,-0.73405,-0.5,0.7071067812\Bq,0,-0.6216775643,-0.3535
 533906,0.7071067812\Bq,0,-0.5510372981,-0.1830127019,0.7071067812\Bq,0
 ,-0.5269432188,0.,-0.7071067812\Bq,0,-0.5510372981,0.1830127019,-0.707
 1067812\Bq,0,-0.6216775643,0.3535533906,-0.7071067812\Bq,0,-0.73405,0.
 5,-0.7071067812\Bq,0,-0.8804966094,0.6123724357,-0.7071067812\Bq,0,-1.
 0510372981,0.6830127019,-0.7071067812\Bq,0,-1.4170627019,0.6830127019,
 -0.7071067812\Bq,0,-1.5876033906,0.6123724357,-0.7071067812\Bq,0,-1.73
 405,0.5,-0.7071067812\Bq,0,-1.9170627019,0.1830127019,-0.7071067812\Bq
 ,0,-1.9411567812,0.,-0.7071067812\Bq,0,-1.9170627019,-0.1830127019,-0.
 7071067812\Bq,0,-1.73405,-0.5,-0.7071067812\Bq,0,-1.5876033906,-0.6123
 724357,-0.7071067812\Bq,0,-1.4170627019,-0.6830127019,-0.7071067812\Bq
 ,0,-1.0510372981,-0.6830127019,-0.7071067812\Bq,0,-0.8804966094,-0.612
 3724357,-0.7071067812\Bq,0,-0.73405,-0.5,-0.7071067812\\Version=ES64L-
 G09RevD.01\HF=-385.9859319\RMSD=7.812e-09\Dipole=0.,0.,0.\Quadrupole=3
 .3018588,3.182998,-6.4848568,0.,0.,0.\PG=C01 [X(C10H8)]\\@


 MICHAEL FARADAY, ASKED BY A POLITICIAN WHAT GOOD
 HIS ELECTRICAL DISCOVERIES WERE, REPLIED 
 "AT PRESENT I DO NOT KNOW, BUT ONE DAY YOU WILL BE
 ABLE TO TAX THEM."
 Job cpu time:       0 days  0 hours 13 minutes  3.2 seconds.
 File lengths (MBytes):  RWF=     43 Int=      0 D2E=      0 Chk=      5 Scr=      1
 Normal termination of Gaussian 09 at Fri Sep 11 11:31:12 2020.
