 Entering Gaussian System, Link 0=g09
 Input=input_batch_02000.com
 Output=input_batch_02000.log
 Initial command:
 /share/programs/GAUSSIAN/64/g09/l1.exe "/scratch/yannick.36513/Gau-536656.inp" -scrdir="/scratch/yannick.36513/"
 Entering Link 1 = /share/programs/GAUSSIAN/64/g09/l1.exe PID=    536724.
  
 Copyright (c) 1988,1990,1992,1993,1995,1998,2003,2009,2013,
            Gaussian, Inc.  All Rights Reserved.
  
 This is part of the Gaussian(R) 09 program.  It is based on
 the Gaussian(R) 03 system (copyright 2003, Gaussian, Inc.),
 the Gaussian(R) 98 system (copyright 1998, Gaussian, Inc.),
 the Gaussian(R) 94 system (copyright 1995, Gaussian, Inc.),
 the Gaussian 92(TM) system (copyright 1992, Gaussian, Inc.),
 the Gaussian 90(TM) system (copyright 1990, Gaussian, Inc.),
 the Gaussian 88(TM) system (copyright 1988, Gaussian, Inc.),
 the Gaussian 86(TM) system (copyright 1986, Carnegie Mellon
 University), and the Gaussian 82(TM) system (copyright 1983,
 Carnegie Mellon University). Gaussian is a federally registered
 trademark of Gaussian, Inc.
  
 This software contains proprietary and confidential information,
 including trade secrets, belonging to Gaussian, Inc.
  
 This software is provided under written license and may be
 used, copied, transmitted, or stored only in accord with that
 written license.
  
 The following legend is applicable only to US Government
 contracts under FAR:
  
                    RESTRICTED RIGHTS LEGEND
  
 Use, reproduction and disclosure by the US Government is
 subject to restrictions as set forth in subparagraphs (a)
 and (c) of the Commercial Computer Software - Restricted
 Rights clause in FAR 52.227-19.
  
 Gaussian, Inc.
 340 Quinnipiac St., Bldg. 40, Wallingford CT 06492
  
  
 ---------------------------------------------------------------
 Warning -- This program may not be used in any manner that
 competes with the business of Gaussian, Inc. or will provide
 assistance to any competitor of Gaussian, Inc.  The licensee
 of this program is prohibited from giving any competitor of
 Gaussian, Inc. access to this program.  By using this program,
 the user acknowledges that Gaussian, Inc. is engaged in the
 business of creating and licensing software in the field of
 computational chemistry and represents and warrants to the
 licensee that it is not a competitor of Gaussian, Inc. and that
 it will not use this program in any manner prohibited above.
 ---------------------------------------------------------------
  

 Cite this work as:
 Gaussian 09, Revision D.01,
 M. J. Frisch, G. W. Trucks, H. B. Schlegel, G. E. Scuseria, 
 M. A. Robb, J. R. Cheeseman, G. Scalmani, V. Barone, B. Mennucci, 
 G. A. Petersson, H. Nakatsuji, M. Caricato, X. Li, H. P. Hratchian, 
 A. F. Izmaylov, J. Bloino, G. Zheng, J. L. Sonnenberg, M. Hada, 
 M. Ehara, K. Toyota, R. Fukuda, J. Hasegawa, M. Ishida, T. Nakajima, 
 Y. Honda, O. Kitao, H. Nakai, T. Vreven, J. A. Montgomery, Jr., 
 J. E. Peralta, F. Ogliaro, M. Bearpark, J. J. Heyd, E. Brothers, 
 K. N. Kudin, V. N. Staroverov, T. Keith, R. Kobayashi, J. Normand, 
 K. Raghavachari, A. Rendell, J. C. Burant, S. S. Iyengar, J. Tomasi, 
 M. Cossi, N. Rega, J. M. Millam, M. Klene, J. E. Knox, J. B. Cross, 
 V. Bakken, C. Adamo, J. Jaramillo, R. Gomperts, R. E. Stratmann, 
 O. Yazyev, A. J. Austin, R. Cammi, C. Pomelli, J. W. Ochterski, 
 R. L. Martin, K. Morokuma, V. G. Zakrzewski, G. A. Voth, 
 P. Salvador, J. J. Dannenberg, S. Dapprich, A. D. Daniels, 
 O. Farkas, J. B. Foresman, J. V. Ortiz, J. Cioslowski, 
 and D. J. Fox, Gaussian, Inc., Wallingford CT, 2013.
 
 ******************************************
 Gaussian 09:  ES64L-G09RevD.01 24-Apr-2013
                11-Sep-2020 
 ******************************************
 %nproc=8
 Will use up to    8 processors via shared memory.
 %mem=1000MB
 ----------------------------------------
 # rb3lyp/6-311+g** NMR geom=connectivity
 ----------------------------------------
 1/38=1,57=2/1;
 2/12=2,17=6,18=5,40=1/2;
 3/5=4,6=6,7=111,11=2,16=1,25=1,30=1,74=-5,116=1/1,2,8,3;
 4//1;
 5/5=2,38=5/2;
 8/6=1,10=90,11=11/1;
 10/13=100,45=16/2;
 6/7=2,8=2,9=2,10=2,28=1/1;
 99/9=1/99;
 -----
 Title
 -----
 Symbolic Z-matrix:
 Charge =  0 Multiplicity = 1
 C                     2.45076  -0.71174   0. 
 C                     2.45076   0.71174   0. 
 C                     1.25139   1.41137   0. 
 C                     0.        0.72289   0. 
 C                    -1.25139   1.41137   0. 
 C                    -2.45076   0.71174   0. 
 C                    -2.45076  -0.71174   0. 
 C                    -1.25139  -1.41137   0. 
 C                     0.       -0.72289   0. 
 C                     1.25139  -1.41137   0. 
 H                     3.40873  -1.25791   0. 
 H                     3.40873   1.25791   0. 
 H                     1.24972   2.51472   0. 
 H                    -1.24972   2.51472   0. 
 H                    -3.40873   1.25791   0. 
 H                    -3.40873  -1.25791   0. 
 H                    -1.24972  -2.51472   0. 
 H                     1.24972  -2.51472   0. 
 Bq                    3.40873   1.25791   1. 
 Bq                    3.40873   1.25791   1. 
 Bq                    3.40873   1.25791   1. 
 Bq                    3.40873   1.25791   1. 
 Bq                    3.40873   1.25791   1. 
 Bq                    3.40873   1.25791   1. 
 Bq                    3.40873   1.25791   1. 
 Bq                    3.40873   1.25791   1. 
 Bq                    3.40873   1.25791   1. 
 Bq                    3.40873   1.25791   1. 
 Bq                    3.40873   1.25791   1. 
 Bq                    3.40873   1.25791   1. 
 Bq                    3.40873   1.25791   1. 
 Bq                    3.66755   1.25791   0.96593 
 Bq                    3.65873   1.3249    0.96593 
 Bq                    3.63287   1.38732   0.96593 
 Bq                    3.59174   1.44092   0.96593 
 Bq                    3.53814   1.48205   0.96593 
 Bq                    3.47572   1.50791   0.96593 
 Bq                    3.40873   1.51673   0.96593 
 Bq                    3.34174   1.50791   0.96593 
 Bq                    3.27932   1.48205   0.96593 
 Bq                    3.22572   1.44092   0.96593 
 Bq                    3.18459   1.38732   0.96593 
 Bq                    3.15873   1.3249    0.96593 
 Bq                    3.14991   1.25791   0.96593 
 Bq                    3.15873   1.19092   0.96593 
 Bq                    3.18459   1.1285    0.96593 
 Bq                    3.22572   1.0749    0.96593 
 Bq                    3.27932   1.03377   0.96593 
 Bq                    3.34174   1.00791   0.96593 
 Bq                    3.40873   0.99909   0.96593 
 Bq                    3.47572   1.00791   0.96593 
 Bq                    3.53814   1.03377   0.96593 
 Bq                    3.59174   1.0749    0.96593 
 Bq                    3.63287   1.1285    0.96593 
 Bq                    3.65873   1.19092   0.96593 
 Bq                    3.90873   1.25791   0.86603 
 Bq                    3.89169   1.38732   0.86603 
 Bq                    3.84174   1.50791   0.86603 
 Bq                    3.76228   1.61146   0.86603 
 Bq                    3.65873   1.69092   0.86603 
 Bq                    3.53814   1.74087   0.86603 
 Bq                    3.40873   1.75791   0.86603 
 Bq                    3.27932   1.74087   0.86603 
 Bq                    3.15873   1.69092   0.86603 
 Bq                    3.05518   1.61146   0.86603 
 Bq                    2.97572   1.50791   0.86603 
 Bq                    2.92577   1.38732   0.86603 
 Bq                    2.90873   1.25791   0.86603 
 Bq                    2.92577   1.1285    0.86603 
 Bq                    2.97572   1.00791   0.86603 
 Bq                    3.05518   0.90436   0.86603 
 Bq                    3.15873   0.8249    0.86603 
 Bq                    3.27932   0.77495   0.86603 
 Bq                    3.40873   0.75791   0.86603 
 Bq                    3.53814   0.77495   0.86603 
 Bq                    3.65873   0.8249    0.86603 
 Bq                    3.76228   0.90436   0.86603 
 Bq                    3.84174   1.00791   0.86603 
 Bq                    3.89169   1.1285    0.86603 
 Bq                    4.11584   1.25791   0.70711 
 Bq                    4.09174   1.44092   0.70711 
 Bq                    4.0211    1.61146   0.70711 
 Bq                    3.90873   1.75791   0.70711 
 Bq                    3.76228   1.87028   0.70711 
 Bq                    3.59174   1.94092   0.70711 
 Bq                    3.40873   1.96502   0.70711 
 Bq                    3.22572   1.94092   0.70711 
 Bq                    3.05518   1.87028   0.70711 
 Bq                    2.90873   1.75791   0.70711 
 Bq                    2.79636   1.61146   0.70711 
 Bq                    2.72572   1.44092   0.70711 
 Bq                    3.22572   0.5749    0.70711 
 Bq                    3.40873   0.5508    0.70711 
 Bq                    3.59174   0.5749    0.70711 
 Bq                    3.76228   0.64554   0.70711 
 Bq                    3.90873   0.75791   0.70711 
 Bq                    4.0211    0.90436   0.70711 
 Bq                    4.09174   1.0749    0.70711 
 Bq                    4.27476   1.25791   0.5 
 Bq                    4.24525   1.48205   0.5 
 Bq                    4.15873   1.69092   0.5 
 Bq                    4.0211    1.87028   0.5 
 Bq                    3.84174   2.00791   0.5 
 Bq                    3.63287   2.09443   0.5 
 Bq                    3.40873   2.12394   0.5 
 Bq                    3.18459   2.09443   0.5 
 Bq                    2.97572   2.00791   0.5 
 Bq                    2.79636   1.87028   0.5 
 Bq                    2.65873   1.69092   0.5 
 Bq                    3.40873   0.39188   0.5 
 Bq                    3.63287   0.42139   0.5 
 Bq                    3.84174   0.50791   0.5 
 Bq                    4.0211    0.64554   0.5 
 Bq                    4.15873   0.8249    0.5 
 Bq                    4.24525   1.03377   0.5 
 Bq                    4.37466   1.25791   0.25882 
 Bq                    4.34174   1.50791   0.25882 
 Bq                    4.24525   1.74087   0.25882 
 Bq                    4.09174   1.94092   0.25882 
 Bq                    3.89169   2.09443   0.25882 
 Bq                    3.65873   2.19092   0.25882 
 Bq                    3.40873   2.22384   0.25882 
 Bq                    3.15873   2.19092   0.25882 
 Bq                    2.92577   2.09443   0.25882 
 Bq                    2.72572   1.94092   0.25882 
 Bq                    2.57221   1.74087   0.25882 
 Bq                    3.40873   0.29198   0.25882 
 Bq                    3.65873   0.3249    0.25882 
 Bq                    3.89169   0.42139   0.25882 
 Bq                    4.09174   0.5749    0.25882 
 Bq                    4.24525   0.77495   0.25882 
 Bq                    4.34174   1.00791   0.25882 
 Bq                    4.40873   1.25791   0. 
 Bq                    4.37466   1.51673   0. 
 Bq                    4.27476   1.75791   0. 
 Bq                    4.11584   1.96502   0. 
 Bq                    3.90873   2.12394   0. 
 Bq                    3.66755   2.22384   0. 
 Bq                    3.40873   2.25791   0. 
 Bq                    3.14991   2.22384   0. 
 Bq                    2.90873   2.12394   0. 
 Bq                    2.70162   1.96502   0. 
 Bq                    2.5427    1.75791   0. 
 Bq                    3.40873   0.25791   0. 
 Bq                    3.66755   0.29198   0. 
 Bq                    3.90873   0.39188   0. 
 Bq                    4.11584   0.5508    0. 
 Bq                    4.27476   0.75791   0. 
 Bq                    4.37466   0.99909   0. 
 Bq                    4.37466   1.25791  -0.25882 
 Bq                    4.34174   1.50791  -0.25882 
 Bq                    4.24525   1.74087  -0.25882 
 Bq                    4.09174   1.94092  -0.25882 
 Bq                    3.89169   2.09443  -0.25882 
 Bq                    3.65873   2.19092  -0.25882 
 Bq                    3.40873   2.22384  -0.25882 
 Bq                    3.15873   2.19092  -0.25882 
 Bq                    2.92577   2.09443  -0.25882 
 Bq                    2.72572   1.94092  -0.25882 
 Bq                    2.57221   1.74087  -0.25882 
 Bq                    3.40873   0.29198  -0.25882 
 Bq                    3.65873   0.3249   -0.25882 
 Bq                    3.89169   0.42139  -0.25882 
 Bq                    4.09174   0.5749   -0.25882 
 Bq                    4.24525   0.77495  -0.25882 
 Bq                    4.34174   1.00791  -0.25882 
 Bq                    4.27476   1.25791  -0.5 
 Bq                    4.24525   1.48205  -0.5 
 Bq                    4.15873   1.69092  -0.5 
 Bq                    4.0211    1.87028  -0.5 
 Bq                    3.84174   2.00791  -0.5 
 Bq                    3.63287   2.09443  -0.5 
 Bq                    3.40873   2.12394  -0.5 
 Bq                    3.18459   2.09443  -0.5 
 Bq                    2.97572   2.00791  -0.5 
 Bq                    2.79636   1.87028  -0.5 
 Bq                    2.65873   1.69092  -0.5 
 Bq                    3.40873   0.39188  -0.5 
 Bq                    3.63287   0.42139  -0.5 
 Bq                    3.84174   0.50791  -0.5 
 Bq                    4.0211    0.64554  -0.5 
 Bq                    4.15873   0.8249   -0.5 
 Bq                    4.24525   1.03377  -0.5 
 Bq                    4.11584   1.25791  -0.70711 
 Bq                    4.09174   1.44092  -0.70711 
 Bq                    4.0211    1.61146  -0.70711 
 Bq                    3.90873   1.75791  -0.70711 
 Bq                    3.76228   1.87028  -0.70711 
 Bq                    3.59174   1.94092  -0.70711 
 Bq                    3.40873   1.96502  -0.70711 
 Bq                    3.22572   1.94092  -0.70711 
 Bq                    3.05518   1.87028  -0.70711 
 Bq                    2.90873   1.75791  -0.70711 
 Bq                    2.79636   1.61146  -0.70711 
 Bq                    2.72572   1.44092  -0.70711 
 Bq                    3.22572   0.5749   -0.70711 
 Bq                    3.40873   0.5508   -0.70711 
 Bq                    3.59174   0.5749   -0.70711 
 Bq                    3.76228   0.64554  -0.70711 
 Bq                    3.90873   0.75791  -0.70711 
 Bq                    4.0211    0.90436  -0.70711 
 Bq                    4.09174   1.0749   -0.70711 
 Bq                    3.90873   1.25791  -0.86603 
 Bq                    3.89169   1.38732  -0.86603 
 Bq                    3.84174   1.50791  -0.86603 
 Bq                    3.76228   1.61146  -0.86603 
 Bq                    3.65873   1.69092  -0.86603 
 Bq                    3.53814   1.74087  -0.86603 
 Bq                    3.40873   1.75791  -0.86603 
 Bq                    3.27932   1.74087  -0.86603 
 Bq                    3.15873   1.69092  -0.86603 
 Bq                    3.05518   1.61146  -0.86603 
 Bq                    2.97572   1.50791  -0.86603 
 Bq                    2.92577   1.38732  -0.86603 
 Bq                    2.90873   1.25791  -0.86603 
 Bq                    2.92577   1.1285   -0.86603 
 Bq                    2.97572   1.00791  -0.86603 
 Bq                    3.05518   0.90436  -0.86603 
 
 Symmetry turned off:
 Cannot cope with ghost atoms or with translation vectors.
 Stoichiometry    C10H8
 Framework group  C1[X(C10H8)]
 NUMDOF-- NAT=    18 NAtoms=   218
 Deg. of freedom     0
 Full point group                 C1      NOp   1
                          Input orientation:                          
 ---------------------------------------------------------------------
 Center     Atomic      Atomic             Coordinates (Angstroms)
 Number     Number       Type             X           Y           Z
 ---------------------------------------------------------------------
      1          6           0        2.450760   -0.711740    0.000000
      2          6           0        2.450760    0.711740    0.000000
      3          6           0        1.251390    1.411370    0.000000
      4          6           0        0.000000    0.722890    0.000000
      5          6           0       -1.251390    1.411370    0.000000
      6          6           0       -2.450760    0.711740    0.000000
      7          6           0       -2.450760   -0.711740    0.000000
      8          6           0       -1.251390   -1.411370    0.000000
      9          6           0        0.000000   -0.722890    0.000000
     10          6           0        1.251390   -1.411370    0.000000
     11          1           0        3.408730   -1.257910    0.000000
     12          1           0        3.408730    1.257910    0.000000
     13          1           0        1.249720    2.514720    0.000000
     14          1           0       -1.249720    2.514720    0.000000
     15          1           0       -3.408730    1.257910    0.000000
     16          1           0       -3.408730   -1.257910    0.000000
     17          1           0       -1.249720   -2.514720    0.000000
     18          1           0        1.249720   -2.514720    0.000000
     19          0           0        3.408730    1.257910    1.000000
     20          0           0        3.408730    1.257910    1.000000
     21          0           0        3.408730    1.257910    1.000000
     22          0           0        3.408730    1.257910    1.000000
     23          0           0        3.408730    1.257910    1.000000
     24          0           0        3.408730    1.257910    1.000000
     25          0           0        3.408730    1.257910    1.000000
     26          0           0        3.408730    1.257910    1.000000
     27          0           0        3.408730    1.257910    1.000000
     28          0           0        3.408730    1.257910    1.000000
     29          0           0        3.408730    1.257910    1.000000
     30          0           0        3.408730    1.257910    1.000000
     31          0           0        3.408730    1.257910    1.000000
     32          0           0        3.667549    1.257910    0.965926
     33          0           0        3.658730    1.324897    0.965926
     34          0           0        3.632874    1.387320    0.965926
     35          0           0        3.591743    1.440923    0.965926
     36          0           0        3.538140    1.482054    0.965926
     37          0           0        3.475717    1.507910    0.965926
     38          0           0        3.408730    1.516729    0.965926
     39          0           0        3.341743    1.507910    0.965926
     40          0           0        3.279320    1.482054    0.965926
     41          0           0        3.225717    1.440923    0.965926
     42          0           0        3.184586    1.387320    0.965926
     43          0           0        3.158730    1.324897    0.965926
     44          0           0        3.149911    1.257910    0.965926
     45          0           0        3.158730    1.190923    0.965926
     46          0           0        3.184586    1.128500    0.965926
     47          0           0        3.225717    1.074897    0.965926
     48          0           0        3.279320    1.033766    0.965926
     49          0           0        3.341743    1.007910    0.965926
     50          0           0        3.408730    0.999091    0.965926
     51          0           0        3.475717    1.007910    0.965926
     52          0           0        3.538140    1.033766    0.965926
     53          0           0        3.591743    1.074897    0.965926
     54          0           0        3.632874    1.128500    0.965926
     55          0           0        3.658730    1.190923    0.965926
     56          0           0        3.908730    1.257910    0.866025
     57          0           0        3.891693    1.387320    0.866025
     58          0           0        3.841743    1.507910    0.866025
     59          0           0        3.762283    1.611463    0.866025
     60          0           0        3.658730    1.690923    0.866025
     61          0           0        3.538140    1.740873    0.866025
     62          0           0        3.408730    1.757910    0.866025
     63          0           0        3.279320    1.740873    0.866025
     64          0           0        3.158730    1.690923    0.866025
     65          0           0        3.055177    1.611463    0.866025
     66          0           0        2.975717    1.507910    0.866025
     67          0           0        2.925767    1.387320    0.866025
     68          0           0        2.908730    1.257910    0.866025
     69          0           0        2.925767    1.128500    0.866025
     70          0           0        2.975717    1.007910    0.866025
     71          0           0        3.055177    0.904357    0.866025
     72          0           0        3.158730    0.824897    0.866025
     73          0           0        3.279320    0.774947    0.866025
     74          0           0        3.408730    0.757910    0.866025
     75          0           0        3.538140    0.774947    0.866025
     76          0           0        3.658730    0.824897    0.866025
     77          0           0        3.762283    0.904357    0.866025
     78          0           0        3.841743    1.007910    0.866025
     79          0           0        3.891693    1.128500    0.866025
     80          0           0        4.115837    1.257910    0.707107
     81          0           0        4.091743    1.440923    0.707107
     82          0           0        4.021102    1.611463    0.707107
     83          0           0        3.908730    1.757910    0.707107
     84          0           0        3.762283    1.870282    0.707107
     85          0           0        3.591743    1.940923    0.707107
     86          0           0        3.408730    1.965017    0.707107
     87          0           0        3.225717    1.940923    0.707107
     88          0           0        3.055177    1.870282    0.707107
     89          0           0        2.908730    1.757910    0.707107
     90          0           0        2.796358    1.611463    0.707107
     91          0           0        2.725717    1.440923    0.707107
     92          0           0        3.225717    0.574897    0.707107
     93          0           0        3.408730    0.550803    0.707107
     94          0           0        3.591743    0.574897    0.707107
     95          0           0        3.762283    0.645538    0.707107
     96          0           0        3.908730    0.757910    0.707107
     97          0           0        4.021102    0.904357    0.707107
     98          0           0        4.091743    1.074897    0.707107
     99          0           0        4.274755    1.257910    0.500000
    100          0           0        4.245246    1.482054    0.500000
    101          0           0        4.158730    1.690923    0.500000
    102          0           0        4.021102    1.870282    0.500000
    103          0           0        3.841743    2.007910    0.500000
    104          0           0        3.632874    2.094426    0.500000
    105          0           0        3.408730    2.123935    0.500000
    106          0           0        3.184586    2.094426    0.500000
    107          0           0        2.975717    2.007910    0.500000
    108          0           0        2.796358    1.870282    0.500000
    109          0           0        2.658730    1.690923    0.500000
    110          0           0        3.408730    0.391885    0.500000
    111          0           0        3.632874    0.421394    0.500000
    112          0           0        3.841743    0.507910    0.500000
    113          0           0        4.021102    0.645538    0.500000
    114          0           0        4.158730    0.824897    0.500000
    115          0           0        4.245246    1.033766    0.500000
    116          0           0        4.374656    1.257910    0.258819
    117          0           0        4.341743    1.507910    0.258819
    118          0           0        4.245246    1.740873    0.258819
    119          0           0        4.091743    1.940923    0.258819
    120          0           0        3.891693    2.094426    0.258819
    121          0           0        3.658730    2.190923    0.258819
    122          0           0        3.408730    2.223836    0.258819
    123          0           0        3.158730    2.190923    0.258819
    124          0           0        2.925767    2.094426    0.258819
    125          0           0        2.725717    1.940923    0.258819
    126          0           0        2.572214    1.740873    0.258819
    127          0           0        3.408730    0.291984    0.258819
    128          0           0        3.658730    0.324897    0.258819
    129          0           0        3.891693    0.421394    0.258819
    130          0           0        4.091743    0.574897    0.258819
    131          0           0        4.245246    0.774947    0.258819
    132          0           0        4.341743    1.007910    0.258819
    133          0           0        4.408730    1.257910    0.000000
    134          0           0        4.374656    1.516729    0.000000
    135          0           0        4.274755    1.757910    0.000000
    136          0           0        4.115837    1.965017    0.000000
    137          0           0        3.908730    2.123935    0.000000
    138          0           0        3.667549    2.223836    0.000000
    139          0           0        3.408730    2.257910    0.000000
    140          0           0        3.149911    2.223836    0.000000
    141          0           0        2.908730    2.123935    0.000000
    142          0           0        2.701623    1.965017    0.000000
    143          0           0        2.542705    1.757910    0.000000
    144          0           0        3.408730    0.257910    0.000000
    145          0           0        3.667549    0.291984    0.000000
    146          0           0        3.908730    0.391885    0.000000
    147          0           0        4.115837    0.550803    0.000000
    148          0           0        4.274755    0.757910    0.000000
    149          0           0        4.374656    0.999091    0.000000
    150          0           0        4.374656    1.257910   -0.258819
    151          0           0        4.341743    1.507910   -0.258819
    152          0           0        4.245246    1.740873   -0.258819
    153          0           0        4.091743    1.940923   -0.258819
    154          0           0        3.891693    2.094426   -0.258819
    155          0           0        3.658730    2.190923   -0.258819
    156          0           0        3.408730    2.223836   -0.258819
    157          0           0        3.158730    2.190923   -0.258819
    158          0           0        2.925767    2.094426   -0.258819
    159          0           0        2.725717    1.940923   -0.258819
    160          0           0        2.572214    1.740873   -0.258819
    161          0           0        3.408730    0.291984   -0.258819
    162          0           0        3.658730    0.324897   -0.258819
    163          0           0        3.891693    0.421394   -0.258819
    164          0           0        4.091743    0.574897   -0.258819
    165          0           0        4.245246    0.774947   -0.258819
    166          0           0        4.341743    1.007910   -0.258819
    167          0           0        4.274755    1.257910   -0.500000
    168          0           0        4.245246    1.482054   -0.500000
    169          0           0        4.158730    1.690923   -0.500000
    170          0           0        4.021102    1.870282   -0.500000
    171          0           0        3.841743    2.007910   -0.500000
    172          0           0        3.632874    2.094426   -0.500000
    173          0           0        3.408730    2.123935   -0.500000
    174          0           0        3.184586    2.094426   -0.500000
    175          0           0        2.975717    2.007910   -0.500000
    176          0           0        2.796358    1.870282   -0.500000
    177          0           0        2.658730    1.690923   -0.500000
    178          0           0        3.408730    0.391885   -0.500000
    179          0           0        3.632874    0.421394   -0.500000
    180          0           0        3.841743    0.507910   -0.500000
    181          0           0        4.021102    0.645538   -0.500000
    182          0           0        4.158730    0.824897   -0.500000
    183          0           0        4.245246    1.033766   -0.500000
    184          0           0        4.115837    1.257910   -0.707107
    185          0           0        4.091743    1.440923   -0.707107
    186          0           0        4.021102    1.611463   -0.707107
    187          0           0        3.908730    1.757910   -0.707107
    188          0           0        3.762283    1.870282   -0.707107
    189          0           0        3.591743    1.940923   -0.707107
    190          0           0        3.408730    1.965017   -0.707107
    191          0           0        3.225717    1.940923   -0.707107
    192          0           0        3.055177    1.870282   -0.707107
    193          0           0        2.908730    1.757910   -0.707107
    194          0           0        2.796358    1.611463   -0.707107
    195          0           0        2.725717    1.440923   -0.707107
    196          0           0        3.225717    0.574897   -0.707107
    197          0           0        3.408730    0.550803   -0.707107
    198          0           0        3.591743    0.574897   -0.707107
    199          0           0        3.762283    0.645538   -0.707107
    200          0           0        3.908730    0.757910   -0.707107
    201          0           0        4.021102    0.904357   -0.707107
    202          0           0        4.091743    1.074897   -0.707107
    203          0           0        3.908730    1.257910   -0.866025
    204          0           0        3.891693    1.387320   -0.866025
    205          0           0        3.841743    1.507910   -0.866025
    206          0           0        3.762283    1.611463   -0.866025
    207          0           0        3.658730    1.690923   -0.866025
    208          0           0        3.538140    1.740873   -0.866025
    209          0           0        3.408730    1.757910   -0.866025
    210          0           0        3.279320    1.740873   -0.866025
    211          0           0        3.158730    1.690923   -0.866025
    212          0           0        3.055177    1.611463   -0.866025
    213          0           0        2.975717    1.507910   -0.866025
    214          0           0        2.925767    1.387320   -0.866025
    215          0           0        2.908730    1.257910   -0.866025
    216          0           0        2.925767    1.128500   -0.866025
    217          0           0        2.975717    1.007910   -0.866025
    218          0           0        3.055177    0.904357   -0.866025
 ---------------------------------------------------------------------
 Rotational constants (GHZ):      3.0751358      1.2130944      0.8699230
 Standard basis: 6-311+G(d,p) (5D, 7F)
 Warning:  center  19 has no basis functions!
 Warning:  center  20 has no basis functions!
 Warning:  center  21 has no basis functions!
 Warning:  center  22 has no basis functions!
 Warning:  center  23 has no basis functions!
 Warning:  center  24 has no basis functions!
 Warning:  center  25 has no basis functions!
 Warning:  center  26 has no basis functions!
 Warning:  center  27 has no basis functions!
 Warning:  center  28 has no basis functions!
 Warning:  center  29 has no basis functions!
 Warning:  center  30 has no basis functions!
 Warning:  center  31 has no basis functions!
 Warning:  center  32 has no basis functions!
 Warning:  center  33 has no basis functions!
 Warning:  center  34 has no basis functions!
 Warning:  center  35 has no basis functions!
 Warning:  center  36 has no basis functions!
 Warning:  center  37 has no basis functions!
 Warning:  center  38 has no basis functions!
 Warning:  center  39 has no basis functions!
 Warning:  center  40 has no basis functions!
 Warning:  center  41 has no basis functions!
 Warning:  center  42 has no basis functions!
 Warning:  center  43 has no basis functions!
 Warning:  center  44 has no basis functions!
 Warning:  center  45 has no basis functions!
 Warning:  center  46 has no basis functions!
 Warning:  center  47 has no basis functions!
 Warning:  center  48 has no basis functions!
 Warning:  center  49 has no basis functions!
 Warning:  center  50 has no basis functions!
 Warning:  center  51 has no basis functions!
 Warning:  center  52 has no basis functions!
 Warning:  center  53 has no basis functions!
 Warning:  center  54 has no basis functions!
 Warning:  center  55 has no basis functions!
 Warning:  center  56 has no basis functions!
 Warning:  center  57 has no basis functions!
 Warning:  center  58 has no basis functions!
 Warning:  center  59 has no basis functions!
 Warning:  center  60 has no basis functions!
 Warning:  center  61 has no basis functions!
 Warning:  center  62 has no basis functions!
 Warning:  center  63 has no basis functions!
 Warning:  center  64 has no basis functions!
 Warning:  center  65 has no basis functions!
 Warning:  center  66 has no basis functions!
 Warning:  center  67 has no basis functions!
 Warning:  center  68 has no basis functions!
 Warning:  center  69 has no basis functions!
 Warning:  center  70 has no basis functions!
 Warning:  center  71 has no basis functions!
 Warning:  center  72 has no basis functions!
 Warning:  center  73 has no basis functions!
 Warning:  center  74 has no basis functions!
 Warning:  center  75 has no basis functions!
 Warning:  center  76 has no basis functions!
 Warning:  center  77 has no basis functions!
 Warning:  center  78 has no basis functions!
 Warning:  center  79 has no basis functions!
 Warning:  center  80 has no basis functions!
 Warning:  center  81 has no basis functions!
 Warning:  center  82 has no basis functions!
 Warning:  center  83 has no basis functions!
 Warning:  center  84 has no basis functions!
 Warning:  center  85 has no basis functions!
 Warning:  center  86 has no basis functions!
 Warning:  center  87 has no basis functions!
 Warning:  center  88 has no basis functions!
 Warning:  center  89 has no basis functions!
 Warning:  center  90 has no basis functions!
 Warning:  center  91 has no basis functions!
 Warning:  center  92 has no basis functions!
 Warning:  center  93 has no basis functions!
 Warning:  center  94 has no basis functions!
 Warning:  center  95 has no basis functions!
 Warning:  center  96 has no basis functions!
 Warning:  center  97 has no basis functions!
 Warning:  center  98 has no basis functions!
 Warning:  center  99 has no basis functions!
 Warning:  center 100 has no basis functions!
 Warning:  center 101 has no basis functions!
 Warning:  center 102 has no basis functions!
 Warning:  center 103 has no basis functions!
 Warning:  center 104 has no basis functions!
 Warning:  center 105 has no basis functions!
 Warning:  center 106 has no basis functions!
 Warning:  center 107 has no basis functions!
 Warning:  center 108 has no basis functions!
 Warning:  center 109 has no basis functions!
 Warning:  center 110 has no basis functions!
 Warning:  center 111 has no basis functions!
 Warning:  center 112 has no basis functions!
 Warning:  center 113 has no basis functions!
 Warning:  center 114 has no basis functions!
 Warning:  center 115 has no basis functions!
 Warning:  center 116 has no basis functions!
 Warning:  center 117 has no basis functions!
 Warning:  center 118 has no basis functions!
 Warning:  center 119 has no basis functions!
 Warning:  center 120 has no basis functions!
 Warning:  center 121 has no basis functions!
 Warning:  center 122 has no basis functions!
 Warning:  center 123 has no basis functions!
 Warning:  center 124 has no basis functions!
 Warning:  center 125 has no basis functions!
 Warning:  center 126 has no basis functions!
 Warning:  center 127 has no basis functions!
 Warning:  center 128 has no basis functions!
 Warning:  center 129 has no basis functions!
 Warning:  center 130 has no basis functions!
 Warning:  center 131 has no basis functions!
 Warning:  center 132 has no basis functions!
 Warning:  center 133 has no basis functions!
 Warning:  center 134 has no basis functions!
 Warning:  center 135 has no basis functions!
 Warning:  center 136 has no basis functions!
 Warning:  center 137 has no basis functions!
 Warning:  center 138 has no basis functions!
 Warning:  center 139 has no basis functions!
 Warning:  center 140 has no basis functions!
 Warning:  center 141 has no basis functions!
 Warning:  center 142 has no basis functions!
 Warning:  center 143 has no basis functions!
 Warning:  center 144 has no basis functions!
 Warning:  center 145 has no basis functions!
 Warning:  center 146 has no basis functions!
 Warning:  center 147 has no basis functions!
 Warning:  center 148 has no basis functions!
 Warning:  center 149 has no basis functions!
 Warning:  center 150 has no basis functions!
 Warning:  center 151 has no basis functions!
 Warning:  center 152 has no basis functions!
 Warning:  center 153 has no basis functions!
 Warning:  center 154 has no basis functions!
 Warning:  center 155 has no basis functions!
 Warning:  center 156 has no basis functions!
 Warning:  center 157 has no basis functions!
 Warning:  center 158 has no basis functions!
 Warning:  center 159 has no basis functions!
 Warning:  center 160 has no basis functions!
 Warning:  center 161 has no basis functions!
 Warning:  center 162 has no basis functions!
 Warning:  center 163 has no basis functions!
 Warning:  center 164 has no basis functions!
 Warning:  center 165 has no basis functions!
 Warning:  center 166 has no basis functions!
 Warning:  center 167 has no basis functions!
 Warning:  center 168 has no basis functions!
 Warning:  center 169 has no basis functions!
 Warning:  center 170 has no basis functions!
 Warning:  center 171 has no basis functions!
 Warning:  center 172 has no basis functions!
 Warning:  center 173 has no basis functions!
 Warning:  center 174 has no basis functions!
 Warning:  center 175 has no basis functions!
 Warning:  center 176 has no basis functions!
 Warning:  center 177 has no basis functions!
 Warning:  center 178 has no basis functions!
 Warning:  center 179 has no basis functions!
 Warning:  center 180 has no basis functions!
 Warning:  center 181 has no basis functions!
 Warning:  center 182 has no basis functions!
 Warning:  center 183 has no basis functions!
 Warning:  center 184 has no basis functions!
 Warning:  center 185 has no basis functions!
 Warning:  center 186 has no basis functions!
 Warning:  center 187 has no basis functions!
 Warning:  center 188 has no basis functions!
 Warning:  center 189 has no basis functions!
 Warning:  center 190 has no basis functions!
 Warning:  center 191 has no basis functions!
 Warning:  center 192 has no basis functions!
 Warning:  center 193 has no basis functions!
 Warning:  center 194 has no basis functions!
 Warning:  center 195 has no basis functions!
 Warning:  center 196 has no basis functions!
 Warning:  center 197 has no basis functions!
 Warning:  center 198 has no basis functions!
 Warning:  center 199 has no basis functions!
 Warning:  center 200 has no basis functions!
 Warning:  center 201 has no basis functions!
 Warning:  center 202 has no basis functions!
 Warning:  center 203 has no basis functions!
 Warning:  center 204 has no basis functions!
 Warning:  center 205 has no basis functions!
 Warning:  center 206 has no basis functions!
 Warning:  center 207 has no basis functions!
 Warning:  center 208 has no basis functions!
 Warning:  center 209 has no basis functions!
 Warning:  center 210 has no basis functions!
 Warning:  center 211 has no basis functions!
 Warning:  center 212 has no basis functions!
 Warning:  center 213 has no basis functions!
 Warning:  center 214 has no basis functions!
 Warning:  center 215 has no basis functions!
 Warning:  center 216 has no basis functions!
 Warning:  center 217 has no basis functions!
 Warning:  center 218 has no basis functions!
   268 basis functions,   424 primitive gaussians,   278 cartesian basis functions
    34 alpha electrons       34 beta electrons
       nuclear repulsion energy       453.8675371600 Hartrees.
 NAtoms=  218 NActive=  218 NUniq=  218 SFac= 1.00D+00 NAtFMM=   60 NAOKFM=T Big=T
 Integral buffers will be    131072 words long.
 Raffenetti 2 integral format.
 Two-electron integral symmetry is turned off.
 One-electron integrals computed using PRISM.
 NBasis=   268 RedAO= T EigKep=  1.12D-06  NBF=   268
 NBsUse=   267 1.00D-06 EigRej=  6.14D-07 NBFU=   267
 ExpMin= 4.38D-02 ExpMax= 4.56D+03 ExpMxC= 6.82D+02 IAcc=2 IRadAn=         4 AccDes= 0.00D+00
 Harris functional with IExCor=  402 and IRadAn=       4 diagonalized for initial guess.
 HarFok:  IExCor=  402 AccDes= 0.00D+00 IRadAn=         4 IDoV= 1 UseB2=F ITyADJ=14
 ICtDFT=  3500011 ScaDFX=  1.000000  1.000000  1.000000  1.000000
 FoFCou: FMM=F IPFlag=           0 FMFlag=      100000 FMFlg1=        2001
         NFxFlg=           0 DoJE=T BraDBF=F KetDBF=T FulRan=T
         wScrn=  0.000000 ICntrl=     500 IOpCl=  0 I1Cent=   200000004 NGrid=           0
         NMat0=    1 NMatS0=      1 NMatT0=    0 NMatD0=    1 NMtDS0=    0 NMtDT0=    0
 Symmetry not used in FoFCou.
 Requested convergence on RMS density matrix=1.00D-08 within 128 cycles.
 Requested convergence on MAX density matrix=1.00D-06.
 Requested convergence on             energy=1.00D-06.
 No special actions if energy rises.
 SCF Done:  E(RB3LYP) =  -385.985931946     A.U. after   11 cycles
            NFock= 11  Conv=0.78D-08     -V/T= 2.0059
 DoSCS=F DFT=T ScalE2(SS,OS)=  1.000000  1.000000
 Range of M.O.s used for correlation:     1   267
 NBasis=   268 NAE=    34 NBE=    34 NFC=     0 NFV=     0
 NROrb=    267 NOA=    34 NOB=    34 NVA=   233 NVB=   233

 **** Warning!!: The largest alpha MO coefficient is  0.20992188D+03

          Differentiating once with respect to magnetic field using GIAOs.
          Electric field/nuclear overlap derivatives assumed to be zero.
 FoFCou: FMM=F IPFlag=           0 FMFlag=      100000 FMFlg1=        2001
         NFxFlg=           0 DoJE=F BraDBF=F KetDBF=T FulRan=T
         wScrn=  0.000000 ICntrl=    6100 IOpCl=  0 I1Cent=           7 NGrid=         218
         NMat0=    1 NMatS0=      1 NMatT0=    0 NMatD0=    1 NMtDS0=    0 NMtDT0=    0
 Symmetry not used in FoFCou.
 FoFJK:  IHMeth= 1 ICntrl=    6127 DoSepK=F KAlg= 0 I1Cent=   0 FoldK=F
 IRaf=         1 NMat=   1 IRICut=       1 DoRegI=T DoRafI=F ISym2E= 0.
          There are     3 degrees of freedom in the 1st order CPHF.  IDoFFX=0 NUNeed=     3.
      3 vectors produced by pass  0 Test12= 2.64D-13 3.33D-08 XBig12= 1.44D+02 6.48D+00.
 AX will form     3 AO Fock derivatives at one time.
      3 vectors produced by pass  1 Test12= 2.64D-13 3.33D-08 XBig12= 2.28D-01 1.79D-01.
      3 vectors produced by pass  2 Test12= 2.64D-13 3.33D-08 XBig12= 7.58D-04 1.41D-02.
      3 vectors produced by pass  3 Test12= 2.64D-13 3.33D-08 XBig12= 2.19D-06 6.12D-04.
      3 vectors produced by pass  4 Test12= 2.64D-13 3.33D-08 XBig12= 2.99D-09 2.39D-05.
      3 vectors produced by pass  5 Test12= 2.64D-13 3.33D-08 XBig12= 6.15D-12 9.51D-07.
      1 vectors produced by pass  6 Test12= 2.64D-13 3.33D-08 XBig12= 9.29D-15 3.79D-08.
 InvSVY:  IOpt=1 It=  1 EMax= 1.78D-15
 Solved reduced A of dimension    19 with     3 vectors.
 Calculating GIAO nuclear magnetic shielding tensors.
 SCF GIAO Magnetic shielding tensor (ppm):
      1  C    Isotropic =    48.8814   Anisotropy =   178.3631
   XX=   -26.3877   YX=    47.3635   ZX=     0.0000
   XY=    49.5434   YY=     5.2417   ZY=     0.0000
   XZ=     0.0000   YZ=     0.0000   ZZ=   167.7901
   Eigenvalues:   -61.5420    40.3960   167.7901
      2  C    Isotropic =    48.8814   Anisotropy =   178.3631
   XX=   -26.3877   YX=   -47.3635   ZX=     0.0000
   XY=   -49.5434   YY=     5.2417   ZY=     0.0000
   XZ=     0.0000   YZ=     0.0000   ZZ=   167.7901
   Eigenvalues:   -61.5420    40.3960   167.7901
      3  C    Isotropic =    47.0315   Anisotropy =   159.6105
   XX=    39.7012   YX=   -14.9645   ZX=     0.0000
   XY=   -12.8373   YY=   -52.0452   ZY=     0.0000
   XZ=     0.0000   YZ=     0.0000   ZZ=   153.4385
   Eigenvalues:   -54.1051    41.7611   153.4385
      4  C    Isotropic =    40.3220   Anisotropy =   214.7654
   XX=   -33.3511   YX=     0.0000   ZX=     0.0000
   XY=     0.0000   YY=   -29.1819   ZY=     0.0000
   XZ=     0.0000   YZ=     0.0000   ZZ=   183.4989
   Eigenvalues:   -33.3511   -29.1819   183.4989
      5  C    Isotropic =    47.0315   Anisotropy =   159.6105
   XX=    39.7012   YX=    14.9645   ZX=     0.0000
   XY=    12.8373   YY=   -52.0452   ZY=     0.0000
   XZ=     0.0000   YZ=     0.0000   ZZ=   153.4385
   Eigenvalues:   -54.1051    41.7611   153.4385
      6  C    Isotropic =    48.8814   Anisotropy =   178.3631
   XX=   -26.3877   YX=    47.3635   ZX=     0.0000
   XY=    49.5434   YY=     5.2417   ZY=     0.0000
   XZ=     0.0000   YZ=     0.0000   ZZ=   167.7901
   Eigenvalues:   -61.5420    40.3960   167.7901
      7  C    Isotropic =    48.8814   Anisotropy =   178.3631
   XX=   -26.3877   YX=   -47.3635   ZX=     0.0000
   XY=   -49.5434   YY=     5.2417   ZY=     0.0000
   XZ=     0.0000   YZ=     0.0000   ZZ=   167.7901
   Eigenvalues:   -61.5420    40.3960   167.7901
      8  C    Isotropic =    47.0315   Anisotropy =   159.6105
   XX=    39.7012   YX=   -14.9645   ZX=     0.0000
   XY=   -12.8373   YY=   -52.0452   ZY=     0.0000
   XZ=     0.0000   YZ=     0.0000   ZZ=   153.4385
   Eigenvalues:   -54.1051    41.7611   153.4385
      9  C    Isotropic =    40.3220   Anisotropy =   214.7654
   XX=   -33.3511   YX=     0.0000   ZX=     0.0000
   XY=     0.0000   YY=   -29.1819   ZY=     0.0000
   XZ=     0.0000   YZ=     0.0000   ZZ=   183.4989
   Eigenvalues:   -33.3511   -29.1819   183.4989
     10  C    Isotropic =    47.0315   Anisotropy =   159.6105
   XX=    39.7012   YX=    14.9645   ZX=     0.0000
   XY=    12.8373   YY=   -52.0452   ZY=     0.0000
   XZ=     0.0000   YZ=     0.0000   ZZ=   153.4385
   Eigenvalues:   -54.1051    41.7611   153.4385
     11  H    Isotropic =    23.8865   Anisotropy =     5.6622
   XX=    25.3494   YX=     1.7328   ZX=     0.0000
   XY=     1.7216   YY=    26.3711   ZY=     0.0000
   XZ=     0.0000   YZ=     0.0000   ZZ=    19.9391
   Eigenvalues:    19.9391    24.0591    27.6614
     12  H    Isotropic =    23.8865   Anisotropy =     5.6622
   XX=    25.3494   YX=    -1.7328   ZX=     0.0000
   XY=    -1.7216   YY=    26.3711   ZY=     0.0000
   XZ=     0.0000   YZ=     0.0000   ZZ=    19.9391
   Eigenvalues:    19.9391    24.0591    27.6614
     13  H    Isotropic =    23.5289   Anisotropy =     7.4859
   XX=    28.4698   YX=    -0.2957   ZX=     0.0000
   XY=    -0.7473   YY=    23.0511   ZY=     0.0000
   XZ=     0.0000   YZ=     0.0000   ZZ=    19.0659
   Eigenvalues:    19.0659    23.0014    28.5196
     14  H    Isotropic =    23.5289   Anisotropy =     7.4859
   XX=    28.4698   YX=     0.2957   ZX=     0.0000
   XY=     0.7473   YY=    23.0511   ZY=     0.0000
   XZ=     0.0000   YZ=     0.0000   ZZ=    19.0659
   Eigenvalues:    19.0659    23.0014    28.5196
     15  H    Isotropic =    23.8865   Anisotropy =     5.6622
   XX=    25.3494   YX=     1.7328   ZX=     0.0000
   XY=     1.7216   YY=    26.3711   ZY=     0.0000
   XZ=     0.0000   YZ=     0.0000   ZZ=    19.9391
   Eigenvalues:    19.9391    24.0591    27.6614
     16  H    Isotropic =    23.8865   Anisotropy =     5.6622
   XX=    25.3494   YX=    -1.7328   ZX=     0.0000
   XY=    -1.7216   YY=    26.3711   ZY=     0.0000
   XZ=     0.0000   YZ=     0.0000   ZZ=    19.9391
   Eigenvalues:    19.9391    24.0591    27.6614
     17  H    Isotropic =    23.5289   Anisotropy =     7.4859
   XX=    28.4698   YX=    -0.2957   ZX=     0.0000
   XY=    -0.7473   YY=    23.0511   ZY=     0.0000
   XZ=     0.0000   YZ=     0.0000   ZZ=    19.0659
   Eigenvalues:    19.0659    23.0014    28.5196
     18  H    Isotropic =    23.5289   Anisotropy =     7.4859
   XX=    28.4698   YX=     0.2957   ZX=     0.0000
   XY=     0.7473   YY=    23.0511   ZY=     0.0000
   XZ=     0.0000   YZ=     0.0000   ZZ=    19.0659
   Eigenvalues:    19.0659    23.0014    28.5196
     19  Bq   Isotropic =     2.2165   Anisotropy =    12.6235
   XX=     3.0205   YX=     1.3019   ZX=     2.5765
   XY=     1.5766   YY=     0.5860   ZY=     1.2286
   XZ=    10.2011   YZ=     5.6859   ZZ=     3.0429
   Eigenvalues:    -3.9193    -0.0634    10.6321
     20  Bq   Isotropic =     2.2165   Anisotropy =    12.6235
   XX=     3.0205   YX=     1.3019   ZX=     2.5765
   XY=     1.5766   YY=     0.5860   ZY=     1.2286
   XZ=    10.2011   YZ=     5.6859   ZZ=     3.0429
   Eigenvalues:    -3.9193    -0.0634    10.6321
     21  Bq   Isotropic =     2.2165   Anisotropy =    12.6235
   XX=     3.0205   YX=     1.3019   ZX=     2.5765
   XY=     1.5766   YY=     0.5860   ZY=     1.2286
   XZ=    10.2011   YZ=     5.6859   ZZ=     3.0429
   Eigenvalues:    -3.9193    -0.0634    10.6321
     22  Bq   Isotropic =     2.2165   Anisotropy =    12.6235
   XX=     3.0205   YX=     1.3019   ZX=     2.5765
   XY=     1.5766   YY=     0.5860   ZY=     1.2286
   XZ=    10.2011   YZ=     5.6859   ZZ=     3.0429
   Eigenvalues:    -3.9193    -0.0634    10.6321
     23  Bq   Isotropic =     2.2165   Anisotropy =    12.6235
   XX=     3.0205   YX=     1.3019   ZX=     2.5765
   XY=     1.5766   YY=     0.5860   ZY=     1.2286
   XZ=    10.2011   YZ=     5.6859   ZZ=     3.0429
   Eigenvalues:    -3.9193    -0.0634    10.6321
     24  Bq   Isotropic =     2.2165   Anisotropy =    12.6235
   XX=     3.0205   YX=     1.3019   ZX=     2.5765
   XY=     1.5766   YY=     0.5860   ZY=     1.2286
   XZ=    10.2011   YZ=     5.6859   ZZ=     3.0429
   Eigenvalues:    -3.9193    -0.0634    10.6321
     25  Bq   Isotropic =     2.2165   Anisotropy =    12.6235
   XX=     3.0205   YX=     1.3019   ZX=     2.5765
   XY=     1.5766   YY=     0.5860   ZY=     1.2286
   XZ=    10.2011   YZ=     5.6859   ZZ=     3.0429
   Eigenvalues:    -3.9193    -0.0634    10.6321
     26  Bq   Isotropic =     2.2165   Anisotropy =    12.6235
   XX=     3.0205   YX=     1.3019   ZX=     2.5765
   XY=     1.5766   YY=     0.5860   ZY=     1.2286
   XZ=    10.2011   YZ=     5.6859   ZZ=     3.0429
   Eigenvalues:    -3.9193    -0.0634    10.6321
     27  Bq   Isotropic =     2.2165   Anisotropy =    12.6235
   XX=     3.0205   YX=     1.3019   ZX=     2.5765
   XY=     1.5766   YY=     0.5860   ZY=     1.2286
   XZ=    10.2011   YZ=     5.6859   ZZ=     3.0429
   Eigenvalues:    -3.9193    -0.0634    10.6321
     28  Bq   Isotropic =     2.2165   Anisotropy =    12.6235
   XX=     3.0205   YX=     1.3019   ZX=     2.5765
   XY=     1.5766   YY=     0.5860   ZY=     1.2286
   XZ=    10.2011   YZ=     5.6859   ZZ=     3.0429
   Eigenvalues:    -3.9193    -0.0634    10.6321
     29  Bq   Isotropic =     2.2165   Anisotropy =    12.6235
   XX=     3.0205   YX=     1.3019   ZX=     2.5765
   XY=     1.5766   YY=     0.5860   ZY=     1.2286
   XZ=    10.2011   YZ=     5.6859   ZZ=     3.0429
   Eigenvalues:    -3.9193    -0.0634    10.6321
     30  Bq   Isotropic =     2.2165   Anisotropy =    12.6235
   XX=     3.0205   YX=     1.3019   ZX=     2.5765
   XY=     1.5766   YY=     0.5860   ZY=     1.2286
   XZ=    10.2011   YZ=     5.6859   ZZ=     3.0429
   Eigenvalues:    -3.9193    -0.0634    10.6321
     31  Bq   Isotropic =     2.2165   Anisotropy =    12.6235
   XX=     3.0205   YX=     1.3019   ZX=     2.5765
   XY=     1.5766   YY=     0.5860   ZY=     1.2286
   XZ=    10.2011   YZ=     5.6859   ZZ=     3.0429
   Eigenvalues:    -3.9193    -0.0634    10.6321
     32  Bq   Isotropic =     1.1764   Anisotropy =    11.7192
   XX=     2.9912   YX=     1.4953   ZX=     3.2260
   XY=     1.4944   YY=    -0.1014   ZY=     0.8564
   XZ=     9.3228   YZ=     3.9084   ZZ=     0.6394
   Eigenvalues:    -4.7564    -0.7036     8.9892
     33  Bq   Isotropic =     1.1147   Anisotropy =    11.6401
   XX=     2.8565   YX=     1.5951   ZX=     3.0975
   XY=     1.6967   YY=    -0.0541   ZY=     1.1948
   XZ=     8.9481   YZ=     4.3541   ZZ=     0.5416
   Eigenvalues:    -4.7352    -0.7954     8.8748
     34  Bq   Isotropic =     1.0997   Anisotropy =    11.6101
   XX=     2.7199   YX=     1.6656   ZX=     2.9383
   XY=     1.8774   YY=     0.0708   ZY=     1.5311
   XZ=     8.6314   YZ=     4.8437   ZZ=     0.5085
   Eigenvalues:    -4.7318    -0.8088     8.8398
     35  Bq   Isotropic =     1.1300   Anisotropy =    11.6299
   XX=     2.6000   YX=     1.6937   ZX=     2.7552
   XY=     2.0190   YY=     0.2539   ZY=     1.8522
   XZ=     8.3775   YZ=     5.3668   ZZ=     0.5361
   Eigenvalues:    -4.7502    -0.7431     8.8833
     36  Bq   Isotropic =     1.2074   Anisotropy =    11.6981
   XX=     2.5199   YX=     1.6725   ZX=     2.5548
   XY=     2.1101   YY=     0.4728   ZY=     2.1445
   XZ=     8.1935   YZ=     5.9144   ZZ=     0.6295
   Eigenvalues:    -4.7842    -0.5997     9.0062
     37  Bq   Isotropic =     1.3370   Anisotropy =    11.8110
   XX=     2.5035   YX=     1.6029   ZX=     2.3443
   XY=     2.1472   YY=     0.7043   ZY=     2.3924
   XZ=     8.0898   YZ=     6.4760   ZZ=     0.8034
   Eigenvalues:    -4.8179    -0.3820     9.2110
     38  Bq   Isotropic =     1.5267   Anisotropy =    11.9625
   XX=     2.5705   YX=     1.4931   ZX=     2.1312
   XY=     2.1337   YY=     0.9286   ZY=     2.5781
   XZ=     8.0800   YZ=     7.0368   ZZ=     1.0810
   Eigenvalues:    -4.8250    -0.0966     9.5017
     39  Bq   Isotropic =     1.7858   Anisotropy =    12.1448
   XX=     2.7322   YX=     1.3568   ZX=     1.9239
   XY=     2.0781   YY=     1.1326   ZY=     2.6809
   XZ=     8.1790   YZ=     7.5720   ZZ=     1.4925
   Eigenvalues:    -4.7697     0.2448     9.8823
     40  Bq   Isotropic =     2.1216   Anisotropy =    12.3484
   XX=     2.9863   YX=     1.2113   ZX=     1.7315
   XY=     1.9916   YY=     1.3114   ZY=     2.6789
   XZ=     8.4011   YZ=     8.0429   ZZ=     2.0670
   Eigenvalues:    -4.6112     0.6221    10.3538
     41  Bq   Isotropic =     2.5331   Anisotropy =    12.5633
   XX=     3.3123   YX=     1.0747   ZX=     1.5642
   XY=     1.8847   YY=     1.4694   ZY=     2.5530
   XZ=     8.7552   YZ=     8.3937   ZZ=     2.8175
   Eigenvalues:    -4.3131     1.0037    10.9086
     42  Bq   Isotropic =     3.0018   Anisotropy =    12.7791
   XX=     3.6693   YX=     0.9638   ZX=     1.4344
   XY=     1.7651   YY=     1.6174   ZY=     2.2948
   XZ=     9.2398   YZ=     8.5556   ZZ=     3.7187
   Eigenvalues:    -3.8621     1.3463    11.5212
     43  Bq   Isotropic =     3.4839   Anisotropy =    12.9841
   XX=     4.0002   YX=     0.8914   ZX=     1.3570
   XY=     1.6382   YY=     1.7655   ZY=     1.9156
   XZ=     9.8361   YZ=     8.4616   ZZ=     4.6858
   Eigenvalues:    -3.2894     1.6011    12.1399
     44  Bq   Isotropic =     3.9098   Anisotropy =    13.1629
   XX=     4.2443   YX=     0.8654   ZX=     1.3501
   XY=     1.5090   YY=     1.9136   ZY=     1.4523
   XZ=    10.5028   YZ=     8.0715   ZZ=     5.5714
   Eigenvalues:    -2.6876     1.7320    12.6850
     45  Bq   Isotropic =     4.1988   Anisotropy =    13.2942
   XX=     4.3581   YX=     0.8851   ZX=     1.4317
   XY=     1.3831   YY=     2.0417   ZY=     0.9612
   XZ=    11.1746   YZ=     7.3980   ZZ=     6.1965
   Eigenvalues:    -2.2093     1.7440    13.0616
     46  Bq   Isotropic =     4.2859   Anisotropy =    13.3562
   XX=     4.3333   YX=     0.9390   ZX=     1.6121
   XY=     1.2657   YY=     2.1117   ZY=     0.5014
   XZ=    11.7688   YZ=     6.5176   ZZ=     6.4127
   Eigenvalues:    -2.0256     1.6933    13.1900
     47  Bq   Isotropic =     4.1496   Anisotropy =    13.3358
   XX=     4.2001   YX=     1.0052   ZX=     1.8834
   XY=     1.1579   YY=     2.0826   ZY=     0.1174
   XZ=    12.2023   YZ=     5.5542   ZZ=     6.1662
   Eigenvalues:    -2.2200     1.6287    13.0401
     48  Bq   Isotropic =     3.8217   Anisotropy =    13.2368
   XX=     4.0103   YX=     1.0604   ZX=     2.2145
   XY=     1.0586   YY=     1.9330   ZY=    -0.1664
   XZ=    12.4150   YZ=     4.6419   ZZ=     5.5219
   Eigenvalues:    -2.7067     1.5255    12.6462
     49  Bq   Isotropic =     3.3728   Anisotropy =    13.0763
   XX=     3.8136   YX=     1.0918   ZX=     2.5575
   XY=     0.9701   YY=     1.6720   ZY=    -0.3409
   XZ=    12.3881   YZ=     3.8875   ZZ=     4.6327
   Eigenvalues:    -3.3078     1.3358    12.0903
     50  Bq   Isotropic =     2.8838   Anisotropy =    12.8753
   XX=     3.6417   YX=     1.1038   ZX=     2.8651
   XY=     0.9030   YY=     1.3344   ZY=    -0.4059
   XZ=    12.1473   YZ=     3.3492   ZZ=     3.6753
   Eigenvalues:    -3.8694     1.0535    11.4673
     51  Bq   Isotropic =     2.4207   Anisotropy =    12.6529
   XX=     3.5051   YX=     1.1133   ZX=     3.1052
   XY=     0.8734   YY=     0.9663   ZY=    -0.3678
   XZ=    11.7493   YZ=     3.0386   ZZ=     2.7906
   Eigenvalues:    -4.3036     0.7097    10.8559
     52  Bq   Isotropic =     2.0224   Anisotropy =    12.4251
   XX=     3.3982   YX=     1.1392   ZX=     3.2651
   XY=     0.8956   YY=     0.6122   ZY=    -0.2388
   XZ=    11.2606   YZ=     2.9356   ZZ=     2.0567
   Eigenvalues:    -4.5856     0.3469    10.3058
     53  Bq   Isotropic =     1.7033   Anisotropy =    12.2063
   XX=     3.3069   YX=     1.1935   ZX=     3.3469
   XY=     0.9767   YY=     0.3082   ZY=    -0.0348
   XZ=    10.7396   YZ=     3.0055   ZZ=     1.4948
   Eigenvalues:    -4.7334     0.0025     9.8409
     54  Bq   Isotropic =     1.4619   Anisotropy =    12.0091
   XX=     3.2156   YX=     1.2777   ZX=     3.3602
   XY=     1.1132   YY=     0.0797   ZY=     0.2268
   XZ=    10.2282   YZ=     3.2115   ZZ=     1.0905
   Eigenvalues:    -4.7850    -0.2972     9.4680
     55  Bq   Isotropic =     1.2895   Anisotropy =    11.8440
   XX=     3.1120   YX=     1.3833   ZX=     3.3165
   XY=     1.2923   YY=    -0.0584   ZY=     0.5291
   XZ=     9.7516   YZ=     3.5211   ZZ=     0.8150
   Eigenvalues:    -4.7812    -0.5358     9.1856
     56  Bq   Isotropic =     0.5370   Anisotropy =    10.8471
   XX=     3.5497   YX=     1.5505   ZX=     3.3408
   XY=     1.3447   YY=    -0.4485   ZY=     0.5354
   XZ=     8.0120   YZ=     2.6436   ZZ=    -1.4903
   Eigenvalues:    -5.2473    -0.9102     7.7683
     57  Bq   Isotropic =     0.4838   Anisotropy =    10.7314
   XX=     3.2602   YX=     1.8289   ZX=     3.1337
   XY=     1.8018   YY=    -0.3122   ZY=     1.0489
   XZ=     7.5064   YZ=     3.3055   ZZ=    -1.4967
   Eigenvalues:    -5.1142    -1.0725     7.6380
     58  Bq   Isotropic =     0.4736   Anisotropy =    10.6902
   XX=     2.9224   YX=     2.0309   ZX=     2.8892
   XY=     2.1928   YY=     0.0021   ZY=     1.5565
   XZ=     7.0729   YZ=     3.9969   ZZ=    -1.5035
   Eigenvalues:    -5.0775    -1.1021     7.6005
     59  Bq   Isotropic =     0.5044   Anisotropy =    10.7256
   XX=     2.5848   YX=     2.1183   ZX=     2.6120
   XY=     2.4736   YY=     0.4439   ZY=     2.0488
   XZ=     6.7033   YZ=     4.7213   ZZ=    -1.5156
   Eigenvalues:    -5.1404    -1.0013     7.6548
     60  Bq   Isotropic =     0.5797   Anisotropy =    10.8350
   XX=     2.3117   YX=     2.0725   ZX=     2.3073
   XY=     2.6202   YY=     0.9545   ZY=     2.5149
   XZ=     6.4003   YZ=     5.4886   ZZ=    -1.5271
   Eigenvalues:    -5.2974    -0.7666     7.8030
     61  Bq   Isotropic =     0.7107   Anisotropy =    11.0105
   XX=     2.1750   YX=     1.8965   ZX=     1.9812
   XY=     2.6309   YY=     1.4743   ZY=     2.9400
   XZ=     6.1782   YZ=     6.3142   ZZ=    -1.5171
   Eigenvalues:    -5.5311    -0.3878     8.0511
     62  Bq   Isotropic =     0.9204   Anisotropy =    11.2378
   XX=     2.2464   YX=     1.6134   ZX=     1.6408
   XY=     2.5253   YY=     1.9524   ZY=     3.3010
   XZ=     6.0636   YZ=     7.2148   ZZ=    -1.4377
   Eigenvalues:    -5.8026     0.1515     8.4123
     63  Bq   Isotropic =     1.2501   Anisotropy =    11.4946
   XX=     2.5879   YX=     1.2624   ZX=     1.2932
   XY=     2.3398   YY=     2.3567   ZY=     3.5607
   XZ=     6.0948   YZ=     8.1989   ZZ=    -1.1944
   Eigenvalues:    -6.0332     0.8703     8.9132
     64  Bq   Isotropic =     1.7652   Anisotropy =    11.7502
   XX=     3.2399   YX=     0.8913   ZX=     0.9436
   XY=     2.1186   YY=     2.6816   ZY=     3.6597
   XZ=     6.3198   YZ=     9.2466   ZZ=    -0.6258
   Eigenvalues:    -6.0809     1.7779     9.5987
     65  Bq   Isotropic =     2.5498   Anisotropy =    11.9698
   XX=     4.2030   YX=     0.5486   ZX=     0.5944
   XY=     1.9000   YY=     2.9547   ZY=     3.5112
   XZ=     6.7889   YZ=    10.2721   ZZ=     0.4916
   Eigenvalues:    -5.7332     2.8529    10.5296
     66  Bq   Isotropic =     3.6692   Anisotropy =    12.1323
   XX=     5.4022   YX=     0.2748   ZX=     0.2474
   XY=     1.6977   YY=     3.2396   ZY=     3.0162
   XZ=     7.5445   YZ=    11.0821   ZZ=     2.3660
   Eigenvalues:    -4.7590     4.0093    11.7574
     67  Bq   Isotropic =     5.0888   Anisotropy =    12.2585
   XX=     6.6374   YX=     0.0994   ZX=    -0.0905
   XY=     1.4893   YY=     3.6338   ZY=     2.1275
   XZ=     8.6065   YZ=    11.3702   ZZ=     4.9952
   Eigenvalues:    -3.0570     5.0622    13.2611
     68  Bq   Isotropic =     6.5796   Anisotropy =    12.4105
   XX=     7.5750   YX=     0.0556   ZX=    -0.3882
   XY=     1.2463   YY=     4.2298   ZY=     0.9603
   XZ=     9.9514   YZ=    10.8201   ZZ=     7.9340
   Eigenvalues:    -0.8458     5.7313    14.8533
     69  Bq   Isotropic =     7.7222   Anisotropy =    12.6106
   XX=     7.8811   YX=     0.1956   ZX=    -0.5526
   XY=     1.0028   YY=     4.9964   ZY=    -0.1737
   XZ=    11.4721   YZ=     9.3177   ZZ=    10.2891
   Eigenvalues:     1.2639     5.7734    16.1292
     70  Bq   Isotropic =     8.0927   Anisotropy =    12.7548
   XX=     7.4757   YX=     0.5376   ZX=    -0.4118
   XY=     0.8487   YY=     5.6613   ZY=    -0.9743
   XZ=    12.9372   YZ=     7.1108   ZZ=    11.1409
   Eigenvalues:     2.2039     5.4782    16.5959
     71  Bq   Isotropic =     7.5364   Anisotropy =    12.7332
   XX=     6.6272   YX=     0.9553   ZX=     0.1696
   XY=     0.7879   YY=     5.8481   ZY=    -1.4180
   XZ=    14.0268   YZ=     4.7285   ZZ=    10.1338
   Eigenvalues:     1.0445     5.5394    16.0252
     72  Bq   Isotropic =     6.2786   Anisotropy =    12.5974
   XX=     5.7188   YX=     1.2184   ZX=     1.0975
   XY=     0.6973   YY=     5.4042   ZY=    -1.6644
   XZ=    14.4719   YZ=     2.7027   ZZ=     7.7126
   Eigenvalues:    -1.1543     5.3132    14.6769
     73  Bq   Isotropic =     4.7608   Anisotropy =    12.4517
   XX=     4.9866   YX=     1.2150   ZX=     2.0771
   XY=     0.4986   YY=     4.4870   ZY=    -1.7925
   XZ=    14.2040   YZ=     1.3256   ZZ=     4.8088
   Eigenvalues:    -3.3191     4.5396    13.0619
     74  Bq   Isotropic =     3.3742   Anisotropy =    12.3014
   XX=     4.4915   YX=     1.0354   ZX=     2.8528
   XY=     0.2517   YY=     3.3663   ZY=    -1.7809
   XZ=    13.3868   YZ=     0.6103   ZZ=     2.2648
   Eigenvalues:    -4.9079     3.4553    11.5751
     75  Bq   Isotropic =     2.3105   Anisotropy =    12.1011
   XX=     4.2042   YX=     0.8431   ZX=     3.3413
   XY=     0.0709   YY=     2.2554   ZY=    -1.6146
   XZ=    12.2991   YZ=     0.4135   ZZ=     0.4721
   Eigenvalues:    -5.7726     2.3263    10.3779
     76  Bq   Isotropic =     1.5818   Anisotropy =    11.8413
   XX=     4.0593   YX=     0.7515   ZX=     3.5836
   XY=     0.0363   YY=     1.2780   ZY=    -1.3158
   XZ=    11.1835   YZ=     0.5661   ZZ=    -0.5921
   Eigenvalues:    -6.0467     1.3160     9.4759
     77  Bq   Isotropic =     1.1137   Anisotropy =    11.5523
   XX=     3.9806   YX=     0.8007   ZX=     3.6547
   XY=     0.1743   YY=     0.4973   ZY=    -0.9215
   XZ=    10.1763   YZ=     0.9360   ZZ=    -1.1367
   Eigenvalues:    -5.9632     0.4892     8.8153
     78  Bq   Isotropic =     0.8219   Anisotropy =    11.2726
   XX=     3.8985   YX=     0.9796   ZX=     3.6160
   XY=     0.4696   YY=    -0.0560   ZY=    -0.4656
   XZ=     9.3206   YZ=     1.4366   ZZ=    -1.3769
   Eigenvalues:    -5.7246    -0.1466     8.3369
     79  Bq   Isotropic =     0.6427   Anisotropy =    11.0312
   XX=     3.7631   YX=     1.2479   ZX=     3.5049
   XY=     0.8794   YY=    -0.3699   ZY=     0.0262
   XZ=     8.6080   YZ=     2.0157   ZZ=    -1.4652
   Eigenvalues:    -5.4622    -0.6066     7.9968
     80  Bq   Isotropic =     0.1451   Anisotropy =    10.1428
   XX=     4.3130   YX=     1.5369   ZX=     2.9817
   XY=     1.1888   YY=    -0.6240   ZY=     0.3070
   XZ=     6.3494   YZ=     1.7349   ZZ=    -3.2537
   Eigenvalues:    -5.5013    -0.9704     6.9070
     81  Bq   Isotropic =     0.1128   Anisotropy =    10.0087
   XX=     3.8749   YX=     2.0206   ZX=     2.7613
   XY=     1.9060   YY=    -0.4012   ZY=     0.8427
   XZ=     5.8725   YZ=     2.4147   ZZ=    -3.1352
   Eigenvalues:    -5.2814    -1.1655     6.7853
     82  Bq   Isotropic =     0.1103   Anisotropy =     9.9632
   XX=     3.3302   YX=     2.3712   ZX=     2.5053
   XY=     2.5017   YY=     0.1074   ZY=     1.3696
   XZ=     5.4535   YZ=     3.1015   ZZ=    -3.1069
   Eigenvalues:    -5.2207    -1.2009     6.7524
     83  Bq   Isotropic =     0.1370   Anisotropy =    10.0110
   XX=     2.7581   YX=     2.5237   ZX=     2.2150
   XY=     2.9041   YY=     0.8187   ZY=     1.8844
   XZ=     5.0769   YZ=     3.8084   ZZ=    -3.1657
   Eigenvalues:    -5.3153    -1.0847     6.8110
     84  Bq   Isotropic =     0.1954   Anisotropy =    10.1498
   XX=     2.2653   YX=     2.4465   ZX=     1.8929
   XY=     3.0759   YY=     1.6363   ZY=     2.3825
   XZ=     4.7414   YZ=     4.5570   ZZ=    -3.3153
   Eigenvalues:    -5.5691    -0.8066     6.9619
     85  Bq   Isotropic =     0.2930   Anisotropy =    10.3679
   XX=     1.9762   YX=     2.1448   ZX=     1.5431
   XY=     3.0174   YY=     2.4628   ZY=     2.8553
   XZ=     4.4603   YZ=     5.3805   ZZ=    -3.5602
   Eigenvalues:    -5.9901    -0.3359     7.2049
     86  Bq   Isotropic =     0.4512   Anisotropy =    10.6409
   XX=     2.0241   YX=     1.6582   ZX=     1.1716
   XY=     2.7666   YY=     3.2156   ZY=     3.2860
   XZ=     4.2637   YZ=     6.3262   ZZ=    -3.8861
   Eigenvalues:    -6.5742     0.3827     7.5451
     87  Bq   Isotropic =     0.7252   Anisotropy =    10.9234
   XX=     2.5426   YX=     1.0533   ZX=     0.7833
   XY=     2.3931   YY=     3.8458   ZY=     3.6383
   XZ=     4.2012   YZ=     7.4553   ZZ=    -4.2128
   Eigenvalues:    -7.2619     1.4300     8.0074
     88  Bq   Isotropic =     1.2381   Anisotropy =    11.1321
   XX=     3.6612   YX=     0.4136   ZX=     0.3752
   XY=     1.9909   YY=     4.3557   ZY=     3.8340
   XZ=     4.3399   YZ=     8.8265   ZZ=    -4.3027
   Eigenvalues:    -7.8497     2.9045     8.6595
     89  Bq   Isotropic =     2.2237   Anisotropy =    11.1215
   XX=     5.4986   YX=    -0.1717   ZX=    -0.0738
   XY=     1.6649   YY=     4.8036   ZY=     3.7093
   XZ=     4.7502   YZ=    10.4347   ZZ=    -3.6310
   Eigenvalues:    -7.8582     4.8913     9.6381
     90  Bq   Isotropic =     4.0174   Anisotropy =    10.7399
   XX=     8.1111   YX=    -0.6316   ZX=    -0.6067
   XY=     1.4827   YY=     5.2901   ZY=     2.9683
   XZ=     5.4792   YZ=    12.0683   ZZ=    -1.3489
   Eigenvalues:    -6.4749     7.3498    11.1773
     91  Bq   Isotropic =     6.8387   Anisotropy =    10.0714
   XX=    11.2591   YX=    -0.9661   ZX=    -1.2880
   XY=     1.3406   YY=     5.9826   ZY=     1.2463
   XZ=     6.5540   YZ=    13.1320   ZZ=     3.2745
   Eigenvalues:    -2.9472     9.9104    13.5530
     92  Bq   Isotropic =     6.1944   Anisotropy =     9.7799
   XX=     6.5559   YX=     2.1338   ZX=     0.9135
   XY=     0.5419   YY=     9.1012   ZY=    -2.3375
   XZ=    14.6111   YZ=    -1.2734   ZZ=     2.9261
   Eigenvalues:    -3.6269     9.4958    12.7143
     93  Bq   Isotropic =     3.5304   Anisotropy =    10.7330
   XX=     5.5708   YX=     1.2520   ZX=     2.4110
   XY=    -0.1770   YY=     6.4586   ZY=    -2.3557
   XZ=    13.1258   YZ=    -1.6072   ZZ=    -1.4383
   Eigenvalues:    -6.7463     6.6518    10.6857
     94  Bq   Isotropic =     1.8825   Anisotropy =    11.1740
   XX=     5.0332   YX=     0.5530   ZX=     3.1289
   XY=    -0.6857   YY=     4.1671   ZY=    -2.1390
   XZ=    11.3597   YZ=    -1.3747   ZZ=    -3.5527
   Eigenvalues:    -7.8667     4.1824     9.3319
     95  Bq   Isotropic =     1.0010   Anisotropy =    11.1532
   XX=     4.8284   YX=     0.2301   ZX=     3.3787
   XY=    -0.8465   YY=     2.3327   ZY=    -1.7579
   XZ=     9.7878   YZ=    -0.8815   ZZ=    -4.1580
   Eigenvalues:    -7.7397     2.3062     8.4365
     96  Bq   Isotropic =     0.5583   Anisotropy =    10.9169
   XX=     4.7824   YX=     0.2555   ZX=     3.3977
   XY=    -0.6679   YY=     0.9567   ZY=    -1.2864
   XZ=     8.5553   YZ=    -0.2736   ZZ=    -4.0641
   Eigenvalues:    -7.1214     0.9602     7.8363
     97  Bq   Isotropic =     0.3335   Anisotropy =    10.6251
   XX=     4.7412   YX=     0.5483   ZX=     3.3098
   XY=    -0.2073   YY=     0.0203   ZY=    -0.7693
   XZ=     7.6263   YZ=     0.3828   ZZ=    -3.7609
   Eigenvalues:    -6.4455     0.0292     7.4169
     98  Bq   Isotropic =     0.2124   Anisotropy =    10.3548
   XX=     4.6015   YX=     1.0111   ZX=     3.1658
   XY=     0.4474   YY=    -0.4977   ZY=    -0.2331
   XZ=     6.9163   YZ=     1.0567   ZZ=    -3.4665
   Eigenvalues:    -5.8895    -0.5888     7.1156
     99  Bq   Isotropic =    -0.0871   Anisotropy =     9.6405
   XX=     5.0273   YX=     1.4989   ZX=     2.2284
   XY=     1.0614   YY=    -0.7124   ZY=     0.1593
   XZ=     4.4035   YZ=     1.0511   ZZ=    -4.5762
   Eigenvalues:    -5.6180    -0.9831     6.3400
    100  Bq   Isotropic =    -0.1031   Anisotropy =     9.4941
   XX=     4.4688   YX=     2.1667   ZX=     2.0495
   XY=     1.9987   YY=    -0.4207   ZY=     0.5908
   XZ=     4.0474   YZ=     1.5934   ZZ=    -4.3574
   Eigenvalues:    -5.3482    -1.1873     6.2264
    101  Bq   Isotropic =    -0.0999   Anisotropy =     9.4457
   XX=     3.7504   YX=     2.6491   ZX=     1.8428
   XY=     2.7634   YY=     0.2513   ZY=     1.0140
   XZ=     3.7267   YZ=     2.1300   ZZ=    -4.3014
   Eigenvalues:    -5.2758    -1.2211     6.1972
    102  Bq   Isotropic =    -0.0754   Anisotropy =     9.5027
   XX=     2.9773   YX=     2.8579   ZX=     1.6075
   XY=     3.2601   YY=     1.1920   ZY=     1.4293
   XZ=     3.4270   YZ=     2.6749   ZZ=    -4.3955
   Eigenvalues:    -5.3875    -1.0985     6.2598
    103  Bq   Isotropic =    -0.0297   Anisotropy =     9.6645
   XX=     2.2922   YX=     2.7499   ZX=     1.3444
   XY=     3.4395   YY=     2.2732   ZY=     1.8358
   XZ=     3.1456   YZ=     3.2491   ZZ=    -4.6547
   Eigenvalues:    -5.6986    -0.8039     6.4132
    104  Bq   Isotropic =     0.0366   Anisotropy =     9.9183
   XX=     1.8654   YX=     2.3312   ZX=     1.0560
   XY=     3.3025   YY=     3.3645   ZY=     2.2299
   XZ=     2.8918   YZ=     3.8847   ZZ=    -5.1202
   Eigenvalues:    -6.2517    -0.2873     6.6488
    105  Bq   Isotropic =     0.1319   Anisotropy =    10.2342
   XX=     1.8873   YX=     1.6543   ZX=     0.7478
   XY=     2.8996   YY=     4.3544   ZY=     2.6017
   XZ=     2.6914   YZ=     4.6324   ZZ=    -5.8458
   Eigenvalues:    -7.1049     0.5460     6.9547
    106  Bq   Isotropic =     0.2996   Anisotropy =    10.5546
   XX=     2.5645   YX=     0.8075   ZX=     0.4260
   XY=     2.3231   YY=     5.1818   ZY=     2.9242
   XZ=     2.5920   YZ=     5.5701   ZZ=    -6.8473
   Eigenvalues:    -8.2836     1.8465     7.3360
    107  Bq   Isotropic =     0.6807   Anisotropy =    10.7576
   XX=     4.1258   YX=    -0.0997   ZX=     0.0853
   XY=     1.7025   YY=     5.8726   ZY=     3.1236
   XZ=     2.6621   YZ=     6.8039   ZZ=    -7.9564
   Eigenvalues:    -9.6360     3.8257     7.8524
    108  Bq   Isotropic =     1.6440   Anisotropy =    10.5151
   XX=     6.8564   YX=    -0.9369   ZX=    -0.3205
   XY=     1.2256   YY=     6.5479   ZY=     3.0005
   XZ=     2.9545   YZ=     8.4243   ZZ=    -8.4724
   Eigenvalues:   -10.4814     6.7593     8.6541
    109  Bq   Isotropic =     3.9256   Anisotropy =    11.0156
   XX=    11.1539   YX=    -1.5618   ZX=    -0.8979
   XY=     1.1486   YY=     7.2900   ZY=     2.0572
   XZ=     3.4069   YZ=    10.3146   ZZ=    -6.6671
   Eigenvalues:    -9.0908     9.5983    11.2693
    110  Bq   Isotropic =     3.3212   Anisotropy =    10.3485
   XX=     6.6709   YX=     1.7456   ZX=     1.5488
   XY=    -0.2612   YY=     9.9313   ZY=    -1.9738
   XZ=    10.5919   YZ=    -2.4264   ZZ=    -6.6384
   Eigenvalues:    -9.2714     9.0149    10.2202
    111  Bq   Isotropic =     1.2628   Anisotropy =    10.5595
   XX=     5.7720   YX=     0.2950   ZX=     2.4029
   XY=    -1.2493   YY=     6.2399   ZY=    -1.8592
   XZ=     8.7295   YZ=    -1.8542   ZZ=    -8.2235
   Eigenvalues:   -10.3216     5.8076     8.3024
    112  Bq   Isotropic =     0.4266   Anisotropy =    10.6855
   XX=     5.4876   YX=    -0.2784   ZX=     2.6219
   XY=    -1.5686   YY=     3.4649   ZY=    -1.5470
   XZ=     7.1984   YZ=    -1.2612   ZZ=    -7.6728
   Eigenvalues:    -9.3880     3.1174     7.5503
    113  Bq   Isotropic =     0.1198   Anisotropy =    10.4629
   XX=     5.4846   YX=    -0.2724   ZX=     2.6052
   XY=    -1.3754   YY=     1.4818   ZY=    -1.1527
   XZ=     6.1142   YZ=    -0.6665   ZZ=    -6.6071
   Eigenvalues:    -8.0547     1.3190     7.0950
    114  Bq   Isotropic =     0.0021   Anisotropy =    10.1588
   XX=     5.4974   YX=     0.1284   ZX=     2.5094
   XY=    -0.7806   YY=     0.1752   ZY=    -0.7218
   XZ=     5.3654   YZ=    -0.0786   ZZ=    -5.6662
   Eigenvalues:    -6.9265     0.1582     6.7747
    115  Bq   Isotropic =    -0.0541   Anisotropy =     9.8702
   XX=     5.3692   YX=     0.7702   ZX=     2.3812
   XY=     0.0835   YY=    -0.5359   ZY=    -0.2800
   XZ=     4.8249   YZ=     0.4949   ZZ=    -4.9956
   Eigenvalues:    -6.1252    -0.5632     6.5260
    116  Bq   Isotropic =    -0.2093   Anisotropy =     9.3423
   XX=     5.5226   YX=     1.4649   ZX=     1.1894
   XY=     0.9800   YY=    -0.7538   ZY=     0.0662
   XZ=     2.2549   YZ=     0.4964   ZZ=    -5.3967
   Eigenvalues:    -5.6636    -0.9832     6.0189
    117  Bq   Isotropic =    -0.2164   Anisotropy =     9.1875
   XX=     4.8864   YX=     2.2587   ZX=     1.0902
   XY=     2.0631   YY=    -0.4182   ZY=     0.3047
   XZ=     2.0670   YZ=     0.7946   ZZ=    -5.1173
   Eigenvalues:    -5.3708    -1.1870     5.9086
    118  Bq   Isotropic =    -0.2100   Anisotropy =     9.1366
   XX=     4.0535   YX=     2.8308   ZX=     0.9757
   XY=     2.9384   YY=     0.3617   ZY=     0.5384
   XZ=     1.8948   YZ=     1.0864   ZZ=    -5.0451
   Eigenvalues:    -5.2941    -1.2169     5.8811
    119  Bq   Isotropic =    -0.1860   Anisotropy =     9.1994
   XX=     3.1465   YX=     3.0774   ZX=     0.8450
   XY=     3.4950   YY=     1.4551   ZY=     0.7682
   XZ=     1.7301   YZ=     1.3802   ZZ=    -5.1597
   Eigenvalues:    -5.4133    -1.0916     5.9469
    120  Bq   Isotropic =    -0.1466   Anisotropy =     9.3766
   XX=     2.3322   YX=     2.9473   ZX=     0.6982
   XY=     3.6750   YY=     2.7125   ZY=     0.9944
   XZ=     1.5708   YZ=     1.6883   ZZ=    -5.4845
   Eigenvalues:    -5.7518    -0.7925     6.1045
    121  Bq   Isotropic =    -0.0990   Anisotropy =     9.6562
   XX=     1.8120   YX=     2.4466   ZX=     0.5364
   XY=     3.4789   YY=     3.9799   ZY=     1.2160
   XZ=     1.4217   YZ=     2.0293   ZZ=    -6.0889
   Eigenvalues:    -6.3792    -0.2563     6.3385
    122  Bq   Isotropic =    -0.0483   Anisotropy =    10.0083
   XX=     1.8181   YX=     1.6357   ZX=     0.3637
   XY=     2.9639   YY=     5.1238   ZY=     1.4281
   XZ=     1.2976   YZ=     2.4334   ZZ=    -7.0868
   Eigenvalues:    -7.4100     0.6412     6.6239
    123  Bq   Isotropic =     0.0281   Anisotropy =    10.3808
   XX=     2.6148   YX=     0.6158   ZX=     0.1861
   XY=     2.2308   YY=     6.0713   ZY=     1.6158
   XZ=     1.2295   YZ=     2.9504   ZZ=    -8.6017
   Eigenvalues:    -8.9694     2.1051     6.9487
    124  Bq   Isotropic =     0.2566   Anisotropy =    10.6834
   XX=     4.5106   YX=    -0.4952   ZX=     0.0028
   XY=     1.4121   YY=     6.8680   ZY=     1.7313
   XZ=     1.2649   YZ=     3.6554   ZZ=   -10.6089
   Eigenvalues:   -11.0346     4.4255     7.3788
    125  Bq   Isotropic =     1.0728   Anisotropy =    10.9936
   XX=     7.9069   YX=    -1.5572   ZX=    -0.2311
   XY=     0.7228   YY=     7.7080   ZY=     1.6240
   XZ=     1.4274   YZ=     4.6265   ZZ=   -12.3964
   Eigenvalues:   -12.8916     7.7082     8.4019
    126  Bq   Isotropic =     3.5571   Anisotropy =    15.1346
   XX=    13.5002   YX=    -2.3561   ZX=    -0.6472
   XY=     0.6390   YY=     8.6030   ZY=     0.8404
   XZ=     1.5624   YZ=     5.7944   ZZ=   -11.4319
   Eigenvalues:   -11.9805     9.0050    13.6468
    127  Bq   Isotropic =     2.9556   Anisotropy =    15.0770
   XX=     7.3526   YX=     2.2214   ZX=     0.6061
   XY=    -0.1274   YY=    12.7880   ZY=    -1.0297
   XZ=     5.8302   YZ=    -1.6614   ZZ=   -11.2739
   Eigenvalues:   -11.9055     7.7653    13.0069
    128  Bq   Isotropic =     0.7050   Anisotropy =    11.5545
   XX=     6.2000   YX=     0.1149   ZX=     1.2818
   XY=    -1.5447   YY=     7.9115   ZY=    -1.0261
   XZ=     4.7149   YZ=    -1.1930   ZZ=   -11.9966
   Eigenvalues:   -12.5252     6.2321     8.4080
    129  Bq   Isotropic =     0.0082   Anisotropy =    10.5886
   XX=     5.8942   YX=    -0.6296   ZX=     1.4275
   XY=    -2.0037   YY=     4.3472   ZY=    -0.8738
   XZ=     3.7899   YZ=    -0.8236   ZZ=   -10.2169
   Eigenvalues:   -10.6556     3.6129     7.0673
    130  Bq   Isotropic =    -0.1548   Anisotropy =    10.2261
   XX=     5.9453   YX=    -0.6398   ZX=     1.4095
   XY=    -1.8279   YY=     1.8884   ZY=    -0.6628
   XZ=     3.1684   YZ=    -0.4762   ZZ=    -8.2980
   Eigenvalues:    -8.6700     1.5430     6.6626
    131  Bq   Isotropic =    -0.1853   Anisotropy =     9.8893
   XX=     6.0080   YX=    -0.1675   ZX=     1.3490
   XY=    -1.1558   YY=     0.3094   ZY=    -0.4240
   XZ=     2.7606   YZ=    -0.1384   ZZ=    -6.8733
   Eigenvalues:    -7.1973     0.2339     6.4076
    132  Bq   Isotropic =    -0.1970   Anisotropy =     9.5843
   XX=     5.8955   YX=     0.5970   ZX=     1.2749
   XY=    -0.1552   YY=    -0.5399   ZY=    -0.1777
   XZ=     2.4754   YZ=     0.1863   ZZ=    -5.9467
   Eigenvalues:    -6.2367    -0.5469     6.1925
    133  Bq   Isotropic =    -0.2474   Anisotropy =     9.2436
   XX=     5.6988   YX=     1.4518   ZX=     0.0000
   XY=     0.9521   YY=    -0.7660   ZY=     0.0000
   XZ=     0.0000   YZ=     0.0000   ZZ=    -5.6749
   Eigenvalues:    -5.6749    -0.9823     5.9150
    134  Bq   Isotropic =    -0.2517   Anisotropy =     9.0857
   XX=     5.0358   YX=     2.2901   ZX=     0.0000
   XY=     2.0861   YY=    -0.4153   ZY=     0.0000
   XZ=     0.0000   YZ=     0.0000   ZZ=    -5.3757
[...]
     5  C   -0.081784
     6  C   -0.271259
     7  C   -0.271259
     8  C   -0.081784
     9  C    0.204484
    10  C   -0.081784
    11  H    0.128962
    12  H    0.128962
    13  H    0.121839
    14  H    0.121839
    15  H    0.128962
    16  H    0.128962
    17  H    0.121839
    18  H    0.121839
    19  Bq   0.000000
    20  Bq   0.000000
    21  Bq   0.000000
    22  Bq   0.000000
    23  Bq   0.000000
    24  Bq   0.000000
    25  Bq   0.000000
    26  Bq   0.000000
    27  Bq   0.000000
    28  Bq   0.000000
    29  Bq   0.000000
    30  Bq   0.000000
    31  Bq   0.000000
    32  Bq   0.000000
    33  Bq   0.000000
    34  Bq   0.000000
    35  Bq   0.000000
    36  Bq   0.000000
    37  Bq   0.000000
    38  Bq   0.000000
    39  Bq   0.000000
    40  Bq   0.000000
    41  Bq   0.000000
    42  Bq   0.000000
    43  Bq   0.000000
    44  Bq   0.000000
    45  Bq   0.000000
    46  Bq   0.000000
    47  Bq   0.000000
    48  Bq   0.000000
    49  Bq   0.000000
    50  Bq   0.000000
    51  Bq   0.000000
    52  Bq   0.000000
    53  Bq   0.000000
    54  Bq   0.000000
    55  Bq   0.000000
    56  Bq   0.000000
    57  Bq   0.000000
    58  Bq   0.000000
    59  Bq   0.000000
    60  Bq   0.000000
    61  Bq   0.000000
    62  Bq   0.000000
    63  Bq   0.000000
    64  Bq   0.000000
    65  Bq   0.000000
    66  Bq   0.000000
    67  Bq   0.000000
    68  Bq   0.000000
    69  Bq   0.000000
    70  Bq   0.000000
    71  Bq   0.000000
    72  Bq   0.000000
    73  Bq   0.000000
    74  Bq   0.000000
    75  Bq   0.000000
    76  Bq   0.000000
    77  Bq   0.000000
    78  Bq   0.000000
    79  Bq   0.000000
    80  Bq   0.000000
    81  Bq   0.000000
    82  Bq   0.000000
    83  Bq   0.000000
    84  Bq   0.000000
    85  Bq   0.000000
    86  Bq   0.000000
    87  Bq   0.000000
    88  Bq   0.000000
    89  Bq   0.000000
    90  Bq   0.000000
    91  Bq   0.000000
    92  Bq   0.000000
    93  Bq   0.000000
    94  Bq   0.000000
    95  Bq   0.000000
    96  Bq   0.000000
    97  Bq   0.000000
    98  Bq   0.000000
    99  Bq   0.000000
   100  Bq   0.000000
   101  Bq   0.000000
   102  Bq   0.000000
   103  Bq   0.000000
   104  Bq   0.000000
   105  Bq   0.000000
   106  Bq   0.000000
   107  Bq   0.000000
   108  Bq   0.000000
   109  Bq   0.000000
   110  Bq   0.000000
   111  Bq   0.000000
   112  Bq   0.000000
   113  Bq   0.000000
   114  Bq   0.000000
   115  Bq   0.000000
   116  Bq   0.000000
   117  Bq   0.000000
   118  Bq   0.000000
   119  Bq   0.000000
   120  Bq   0.000000
   121  Bq   0.000000
   122  Bq   0.000000
   123  Bq   0.000000
   124  Bq   0.000000
   125  Bq   0.000000
   126  Bq   0.000000
   127  Bq   0.000000
   128  Bq   0.000000
   129  Bq   0.000000
   130  Bq   0.000000
   131  Bq   0.000000
   132  Bq   0.000000
   133  Bq   0.000000
   134  Bq   0.000000
   135  Bq   0.000000
   136  Bq   0.000000
   137  Bq   0.000000
   138  Bq   0.000000
   139  Bq   0.000000
   140  Bq   0.000000
   141  Bq   0.000000
   142  Bq   0.000000
   143  Bq   0.000000
   144  Bq   0.000000
   145  Bq   0.000000
   146  Bq   0.000000
   147  Bq   0.000000
   148  Bq   0.000000
   149  Bq   0.000000
   150  Bq   0.000000
   151  Bq   0.000000
   152  Bq   0.000000
   153  Bq   0.000000
   154  Bq   0.000000
   155  Bq   0.000000
   156  Bq   0.000000
   157  Bq   0.000000
   158  Bq   0.000000
   159  Bq   0.000000
   160  Bq   0.000000
   161  Bq   0.000000
   162  Bq   0.000000
   163  Bq   0.000000
   164  Bq   0.000000
   165  Bq   0.000000
   166  Bq   0.000000
   167  Bq   0.000000
   168  Bq   0.000000
   169  Bq   0.000000
   170  Bq   0.000000
   171  Bq   0.000000
   172  Bq   0.000000
   173  Bq   0.000000
   174  Bq   0.000000
   175  Bq   0.000000
   176  Bq   0.000000
   177  Bq   0.000000
   178  Bq   0.000000
   179  Bq   0.000000
   180  Bq   0.000000
   181  Bq   0.000000
   182  Bq   0.000000
   183  Bq   0.000000
   184  Bq   0.000000
   185  Bq   0.000000
   186  Bq   0.000000
   187  Bq   0.000000
   188  Bq   0.000000
   189  Bq   0.000000
   190  Bq   0.000000
   191  Bq   0.000000
   192  Bq   0.000000
   193  Bq   0.000000
   194  Bq   0.000000
   195  Bq   0.000000
   196  Bq   0.000000
   197  Bq   0.000000
   198  Bq   0.000000
   199  Bq   0.000000
   200  Bq   0.000000
   201  Bq   0.000000
   202  Bq   0.000000
   203  Bq   0.000000
   204  Bq   0.000000
   205  Bq   0.000000
   206  Bq   0.000000
   207  Bq   0.000000
   208  Bq   0.000000
   209  Bq   0.000000
   210  Bq   0.000000
   211  Bq   0.000000
   212  Bq   0.000000
   213  Bq   0.000000
   214  Bq   0.000000
   215  Bq   0.000000
   216  Bq   0.000000
   217  Bq   0.000000
   218  Bq   0.000000
 Sum of Mulliken charges =   0.00000
 Mulliken charges with hydrogens summed into heavy atoms:
               1
     1  C   -0.142297
     2  C   -0.271259
     3  C    0.040055
     4  C    0.204484
     5  C    0.040055
     6  C   -0.142297
     7  C   -0.142297
     8  C    0.040055
     9  C    0.204484
    10  C    0.040055
    19  Bq   0.000000
    20  Bq   0.000000
    21  Bq   0.000000
    22  Bq   0.000000
    23  Bq   0.000000
    24  Bq   0.000000
    25  Bq   0.000000
    26  Bq   0.000000
    27  Bq   0.000000
    28  Bq   0.000000
    29  Bq   0.000000
    30  Bq   0.000000
    31  Bq   0.000000
    32  Bq   0.000000
    33  Bq   0.000000
    34  Bq   0.000000
    35  Bq   0.000000
    36  Bq   0.000000
    37  Bq   0.000000
    38  Bq   0.000000
    39  Bq   0.000000
    40  Bq   0.000000
    41  Bq   0.000000
    42  Bq   0.000000
    43  Bq   0.000000
    44  Bq   0.000000
    45  Bq   0.000000
    46  Bq   0.000000
    47  Bq   0.000000
    48  Bq   0.000000
    49  Bq   0.000000
    50  Bq   0.000000
    51  Bq   0.000000
    52  Bq   0.000000
    53  Bq   0.000000
    54  Bq   0.000000
    55  Bq   0.000000
    56  Bq   0.000000
    57  Bq   0.000000
    58  Bq   0.000000
    59  Bq   0.000000
    60  Bq   0.000000
    61  Bq   0.000000
    62  Bq   0.000000
    63  Bq   0.000000
    64  Bq   0.000000
    65  Bq   0.000000
    66  Bq   0.000000
    67  Bq   0.000000
    68  Bq   0.000000
    69  Bq   0.000000
    70  Bq   0.000000
    71  Bq   0.000000
    72  Bq   0.000000
    73  Bq   0.000000
    74  Bq   0.000000
    75  Bq   0.000000
    76  Bq   0.000000
    77  Bq   0.000000
    78  Bq   0.000000
    79  Bq   0.000000
    80  Bq   0.000000
    81  Bq   0.000000
    82  Bq   0.000000
    83  Bq   0.000000
    84  Bq   0.000000
    85  Bq   0.000000
    86  Bq   0.000000
    87  Bq   0.000000
    88  Bq   0.000000
    89  Bq   0.000000
    90  Bq   0.000000
    91  Bq   0.000000
    92  Bq   0.000000
    93  Bq   0.000000
    94  Bq   0.000000
    95  Bq   0.000000
    96  Bq   0.000000
    97  Bq   0.000000
    98  Bq   0.000000
    99  Bq   0.000000
   100  Bq   0.000000
   101  Bq   0.000000
   102  Bq   0.000000
   103  Bq   0.000000
   104  Bq   0.000000
   105  Bq   0.000000
   106  Bq   0.000000
   107  Bq   0.000000
   108  Bq   0.000000
   109  Bq   0.000000
   110  Bq   0.000000
   111  Bq   0.000000
   112  Bq   0.000000
   113  Bq   0.000000
   114  Bq   0.000000
   115  Bq   0.000000
   116  Bq   0.000000
   117  Bq   0.000000
   118  Bq   0.000000
   119  Bq   0.000000
   120  Bq   0.000000
   121  Bq   0.000000
   122  Bq   0.000000
   123  Bq   0.000000
   124  Bq   0.128962
   125  Bq   0.000000
   126  Bq   0.000000
   127  Bq   0.000000
   128  Bq   0.000000
   129  Bq   0.000000
   130  Bq   0.000000
   131  Bq   0.000000
   132  Bq   0.000000
   133  Bq   0.000000
   134  Bq   0.000000
   135  Bq   0.000000
   136  Bq   0.000000
   137  Bq   0.000000
   138  Bq   0.000000
   139  Bq   0.000000
   140  Bq   0.000000
   141  Bq   0.000000
   142  Bq   0.000000
   143  Bq   0.000000
   144  Bq   0.000000
   145  Bq   0.000000
   146  Bq   0.000000
   147  Bq   0.000000
   148  Bq   0.000000
   149  Bq   0.000000
   150  Bq   0.000000
   151  Bq   0.000000
   152  Bq   0.000000
   153  Bq   0.000000
   154  Bq   0.000000
   155  Bq   0.000000
   156  Bq   0.000000
   157  Bq   0.000000
   158  Bq   0.000000
   159  Bq   0.000000
   160  Bq   0.000000
   161  Bq   0.000000
   162  Bq   0.000000
   163  Bq   0.000000
   164  Bq   0.000000
   165  Bq   0.000000
   166  Bq   0.000000
   167  Bq   0.000000
   168  Bq   0.000000
   169  Bq   0.000000
   170  Bq   0.000000
   171  Bq   0.000000
   172  Bq   0.000000
   173  Bq   0.000000
   174  Bq   0.000000
   175  Bq   0.000000
   176  Bq   0.000000
   177  Bq   0.000000
   178  Bq   0.000000
   179  Bq   0.000000
   180  Bq   0.000000
   181  Bq   0.000000
   182  Bq   0.000000
   183  Bq   0.000000
   184  Bq   0.000000
   185  Bq   0.000000
   186  Bq   0.000000
   187  Bq   0.000000
   188  Bq   0.000000
   189  Bq   0.000000
   190  Bq   0.000000
   191  Bq   0.000000
   192  Bq   0.000000
   193  Bq   0.000000
   194  Bq   0.000000
   195  Bq   0.000000
   196  Bq   0.000000
   197  Bq   0.000000
   198  Bq   0.000000
   199  Bq   0.000000
   200  Bq   0.000000
   201  Bq   0.000000
   202  Bq   0.000000
   203  Bq   0.000000
   204  Bq   0.000000
   205  Bq   0.000000
   206  Bq   0.000000
   207  Bq   0.000000
   208  Bq   0.000000
   209  Bq   0.000000
   210  Bq   0.000000
   211  Bq   0.000000
   212  Bq   0.000000
   213  Bq   0.000000
   214  Bq   0.000000
   215  Bq   0.000000
   216  Bq   0.000000
   217  Bq   0.000000
   218  Bq   0.000000
 Electronic spatial extent (au):  <R**2>=           1312.5323
 Charge=              0.0000 electrons
 Dipole moment (field-independent basis, Debye):
    X=              0.0000    Y=              0.0000    Z=              0.0000  Tot=              0.0000
 Quadrupole moment (field-independent basis, Debye-Ang):
   XX=            -51.9618   YY=            -52.1216   ZZ=            -65.1252
   XY=              0.0000   XZ=              0.0000   YZ=              0.0000
 Traceless Quadrupole moment (field-independent basis, Debye-Ang):
   XX=              4.4411   YY=              4.2812   ZZ=             -8.7224
   XY=              0.0000   XZ=              0.0000   YZ=              0.0000
 Octapole moment (field-independent basis, Debye-Ang**2):
  XXX=              0.0000  YYY=              0.0000  ZZZ=              0.0000  XYY=              0.0000
  XXY=              0.0000  XXZ=              0.0000  XZZ=              0.0000  YZZ=              0.0000
  YYZ=              0.0000  XYZ=              0.0000
 Hexadecapole moment (field-independent basis, Debye-Ang**3):
 XXXX=          -1119.8966 YYYY=           -498.1664 ZZZZ=            -79.6336 XXXY=              0.0000
 XXXZ=              0.0000 YYYX=              0.0000 YYYZ=              0.0000 ZZZX=              0.0000
 ZZZY=              0.0000 XXYY=           -275.3262 XXZZ=           -249.8350 YYZZ=           -117.4791
 XXYZ=              0.0000 YYXZ=              0.0000 ZZXY=              0.0000
 N-N= 4.538675371600D+02 E-N=-1.802310911208D+03  KE= 3.837199947839D+02
 1\1\GINC-PLANA\SP\RB3LYP\6-311+G(d,p)\C10H8\YANNICK\11-Sep-2020\0\\# r
 b3lyp/6-311+g** NMR geom=connectivity\\Title\\0,1\C,0,2.45076,-0.71174
 ,0.\C,0,2.45076,0.71174,0.\C,0,1.25139,1.41137,0.\C,0,0.,0.72289,0.\C,
 0,-1.25139,1.41137,0.\C,0,-2.45076,0.71174,0.\C,0,-2.45076,-0.71174,0.
 \C,0,-1.25139,-1.41137,0.\C,0,0.,-0.72289,0.\C,0,1.25139,-1.41137,0.\H
 ,0,3.40873,-1.25791,0.\H,0,3.40873,1.25791,0.\H,0,1.24972,2.51472,0.\H
 ,0,-1.24972,2.51472,0.\H,0,-3.40873,1.25791,0.\H,0,-3.40873,-1.25791,0
 .\H,0,-1.24972,-2.51472,0.\H,0,1.24972,-2.51472,0.\Bq,0,3.40873,1.2579
 1,1.\Bq,0,3.40873,1.25791,1.\Bq,0,3.40873,1.25791,1.\Bq,0,3.40873,1.25
 791,1.\Bq,0,3.40873,1.25791,1.\Bq,0,3.40873,1.25791,1.\Bq,0,3.40873,1.
 25791,1.\Bq,0,3.40873,1.25791,1.\Bq,0,3.40873,1.25791,1.\Bq,0,3.40873,
 1.25791,1.\Bq,0,3.40873,1.25791,1.\Bq,0,3.40873,1.25791,1.\Bq,0,3.4087
 3,1.25791,1.\Bq,0,3.6675490451,1.25791,0.9659258263\Bq,0,3.65873,1.324
 8972981,0.9659258263\Bq,0,3.632873868,1.3873195226,0.9659258263\Bq,0,3
 .5917427019,1.4409227019,0.9659258263\Bq,0,3.5381395226,1.482053868,0.
 9659258263\Bq,0,3.4757172981,1.50791,0.9659258263\Bq,0,3.40873,1.51672
 90451,0.9659258263\Bq,0,3.3417427019,1.50791,0.9659258263\Bq,0,3.27932
 04774,1.482053868,0.9659258263\Bq,0,3.2257172981,1.4409227019,0.965925
 8263\Bq,0,3.184586132,1.3873195226,0.9659258263\Bq,0,3.15873,1.3248972
 981,0.9659258263\Bq,0,3.1499109549,1.25791,0.9659258263\Bq,0,3.15873,1
 .1909227019,0.9659258263\Bq,0,3.184586132,1.1285004774,0.9659258263\Bq
 ,0,3.2257172981,1.0748972981,0.9659258263\Bq,0,3.2793204774,1.03376613
 2,0.9659258263\Bq,0,3.3417427019,1.00791,0.9659258263\Bq,0,3.40873,0.9
 990909549,0.9659258263\Bq,0,3.4757172981,1.00791,0.9659258263\Bq,0,3.5
 381395226,1.033766132,0.9659258263\Bq,0,3.5917427019,1.0748972981,0.96
 59258263\Bq,0,3.632873868,1.1285004774,0.9659258263\Bq,0,3.65873,1.190
 9227019,0.9659258263\Bq,0,3.90873,1.25791,0.8660254038\Bq,0,3.89169291
 31,1.3873195226,0.8660254038\Bq,0,3.8417427019,1.50791,0.8660254038\Bq
 ,0,3.7622833906,1.6114633906,0.8660254038\Bq,0,3.65873,1.6909227019,0.
 8660254038\Bq,0,3.5381395226,1.7408729131,0.8660254038\Bq,0,3.40873,1.
 75791,0.8660254038\Bq,0,3.2793204774,1.7408729131,0.8660254038\Bq,0,3.
 15873,1.6909227019,0.8660254038\Bq,0,3.0551766094,1.6114633906,0.86602
 54038\Bq,0,2.9757172981,1.50791,0.8660254038\Bq,0,2.9257670869,1.38731
 95226,0.8660254038\Bq,0,2.90873,1.25791,0.8660254038\Bq,0,2.9257670869
 ,1.1285004774,0.8660254038\Bq,0,2.9757172981,1.00791,0.8660254038\Bq,0
 ,3.0551766094,0.9043566094,0.8660254038\Bq,0,3.15873,0.8248972981,0.86
 60254038\Bq,0,3.2793204774,0.7749470869,0.8660254038\Bq,0,3.40873,0.75
 791,0.8660254038\Bq,0,3.5381395226,0.7749470869,0.8660254038\Bq,0,3.65
 873,0.8248972981,0.8660254038\Bq,0,3.7622833906,0.9043566094,0.8660254
 038\Bq,0,3.8417427019,1.00791,0.8660254038\Bq,0,3.8916929131,1.1285004
 774,0.8660254038\Bq,0,4.1158367812,1.25791,0.7071067812\Bq,0,4.0917427
 019,1.4409227019,0.7071067812\Bq,0,4.0211024357,1.6114633906,0.7071067
 812\Bq,0,3.90873,1.75791,0.7071067812\Bq,0,3.7622833906,1.8702824357,0
 .7071067812\Bq,0,3.5917427019,1.9409227019,0.7071067812\Bq,0,3.40873,1
 .9650167812,0.7071067812\Bq,0,3.2257172981,1.9409227019,0.7071067812\B
 q,0,3.0551766094,1.8702824357,0.7071067812\Bq,0,2.90873,1.75791,0.7071
 067812\Bq,0,2.7963575643,1.6114633906,0.7071067812\Bq,0,2.7257172981,1
 .4409227019,0.7071067812\Bq,0,3.2257172981,0.5748972981,0.7071067812\B
 q,0,3.40873,0.5508032188,0.7071067812\Bq,0,3.5917427019,0.5748972981,0
 .7071067812\Bq,0,3.7622833906,0.6455375643,0.7071067812\Bq,0,3.90873,0
 .75791,0.7071067812\Bq,0,4.0211024357,0.9043566094,0.7071067812\Bq,0,4
 .0917427019,1.0748972981,0.7071067812\Bq,0,4.2747554038,1.25791,0.5\Bq
 ,0,4.2452463037,1.482053868,0.5\Bq,0,4.15873,1.6909227019,0.5\Bq,0,4.0
 211024357,1.8702824357,0.5\Bq,0,3.8417427019,2.00791,0.5\Bq,0,3.632873
 868,2.0944263037,0.5\Bq,0,3.40873,2.1239354038,0.5\Bq,0,3.184586132,2.
 0944263037,0.5\Bq,0,2.9757172981,2.00791,0.5\Bq,0,2.7963575643,1.87028
 24357,0.5\Bq,0,2.65873,1.6909227019,0.5\Bq,0,3.40873,0.3918845962,0.5\
 Bq,0,3.632873868,0.4213936963,0.5\Bq,0,3.8417427019,0.50791,0.5\Bq,0,4
 .0211024357,0.6455375643,0.5\Bq,0,4.15873,0.8248972981,0.5\Bq,0,4.2452
 463037,1.033766132,0.5\Bq,0,4.3746558263,1.25791,0.2588190451\Bq,0,4.3
 417427019,1.50791,0.2588190451\Bq,0,4.2452463037,1.7408729131,0.258819
 0451\Bq,0,4.0917427019,1.9409227019,0.2588190451\Bq,0,3.8916929131,2.0
 944263037,0.2588190451\Bq,0,3.65873,2.1909227019,0.2588190451\Bq,0,3.4
 0873,2.2238358263,0.2588190451\Bq,0,3.15873,2.1909227019,0.2588190451\
 Bq,0,2.9257670869,2.0944263037,0.2588190451\Bq,0,2.7257172981,1.940922
 7019,0.2588190451\Bq,0,2.5722136963,1.7408729131,0.2588190451\Bq,0,3.4
 0873,0.2919841737,0.2588190451\Bq,0,3.65873,0.3248972981,0.2588190451\
 Bq,0,3.8916929131,0.4213936963,0.2588190451\Bq,0,4.0917427019,0.574897
 2981,0.2588190451\Bq,0,4.2452463037,0.7749470869,0.2588190451\Bq,0,4.3
 417427019,1.00791,0.2588190451\Bq,0,4.40873,1.25791,0.\Bq,0,4.37465582
 63,1.5167290451,0.\Bq,0,4.2747554038,1.75791,0.\Bq,0,4.1158367812,1.96
 50167812,0.\Bq,0,3.90873,2.1239354038,0.\Bq,0,3.6675490451,2.223835826
 3,0.\Bq,0,3.40873,2.25791,0.\Bq,0,3.1499109549,2.2238358263,0.\Bq,0,2.
 90873,2.1239354038,0.\Bq,0,2.7016232188,1.9650167812,0.\Bq,0,2.5427045
 962,1.75791,0.\Bq,0,3.40873,0.25791,0.\Bq,0,3.6675490451,0.2919841737,
 0.\Bq,0,3.90873,0.3918845962,0.\Bq,0,4.1158367812,0.5508032188,0.\Bq,0
 ,4.2747554038,0.75791,0.\Bq,0,4.3746558263,0.9990909549,0.\Bq,0,4.3746
 558263,1.25791,-0.2588190451\Bq,0,4.3417427019,1.50791,-0.2588190451\B
 q,0,4.2452463037,1.7408729131,-0.2588190451\Bq,0,4.0917427019,1.940922
 7019,-0.2588190451\Bq,0,3.8916929131,2.0944263037,-0.2588190451\Bq,0,3
 .65873,2.1909227019,-0.2588190451\Bq,0,3.40873,2.2238358263,-0.2588190
 451\Bq,0,3.15873,2.1909227019,-0.2588190451\Bq,0,2.9257670869,2.094426
 3037,-0.2588190451\Bq,0,2.7257172981,1.9409227019,-0.2588190451\Bq,0,2
 .5722136963,1.7408729131,-0.2588190451\Bq,0,3.40873,0.2919841737,-0.25
 88190451\Bq,0,3.65873,0.3248972981,-0.2588190451\Bq,0,3.8916929131,0.4
 213936963,-0.2588190451\Bq,0,4.0917427019,0.5748972981,-0.2588190451\B
 q,0,4.2452463037,0.7749470869,-0.2588190451\Bq,0,4.3417427019,1.00791,
 -0.2588190451\Bq,0,4.2747554038,1.25791,-0.5\Bq,0,4.2452463037,1.48205
 3868,-0.5\Bq,0,4.15873,1.6909227019,-0.5\Bq,0,4.0211024357,1.870282435
 7,-0.5\Bq,0,3.8417427019,2.00791,-0.5\Bq,0,3.632873868,2.0944263037,-0
 .5\Bq,0,3.40873,2.1239354038,-0.5\Bq,0,3.184586132,2.0944263037,-0.5\B
 q,0,2.9757172981,2.00791,-0.5\Bq,0,2.7963575643,1.8702824357,-0.5\Bq,0
 ,2.65873,1.6909227019,-0.5\Bq,0,3.40873,0.3918845962,-0.5\Bq,0,3.63287
 3868,0.4213936963,-0.5\Bq,0,3.8417427019,0.50791,-0.5\Bq,0,4.021102435
 7,0.6455375643,-0.5\Bq,0,4.15873,0.8248972981,-0.5\Bq,0,4.2452463037,1
 .033766132,-0.5\Bq,0,4.1158367812,1.25791,-0.7071067812\Bq,0,4.0917427
 019,1.4409227019,-0.7071067812\Bq,0,4.0211024357,1.6114633906,-0.70710
 67812\Bq,0,3.90873,1.75791,-0.7071067812\Bq,0,3.7622833906,1.870282435
 7,-0.7071067812\Bq,0,3.5917427019,1.9409227019,-0.7071067812\Bq,0,3.40
 873,1.9650167812,-0.7071067812\Bq,0,3.2257172981,1.9409227019,-0.70710
 67812\Bq,0,3.0551766094,1.8702824357,-0.7071067812\Bq,0,2.90873,1.7579
 1,-0.7071067812\Bq,0,2.7963575643,1.6114633906,-0.7071067812\Bq,0,2.72
 57172981,1.4409227019,-0.7071067812\Bq,0,3.2257172981,0.5748972981,-0.
 7071067812\Bq,0,3.40873,0.5508032188,-0.7071067812\Bq,0,3.5917427019,0
 .5748972981,-0.7071067812\Bq,0,3.7622833906,0.6455375643,-0.7071067812
 \Bq,0,3.90873,0.75791,-0.7071067812\Bq,0,4.0211024357,0.9043566094,-0.
 7071067812\Bq,0,4.0917427019,1.0748972981,-0.7071067812\Bq,0,3.90873,1
 .25791,-0.8660254038\Bq,0,3.8916929131,1.3873195226,-0.8660254038\Bq,0
 ,3.8417427019,1.50791,-0.8660254038\Bq,0,3.7622833906,1.6114633906,-0.
 8660254038\Bq,0,3.65873,1.6909227019,-0.8660254038\Bq,0,3.5381395226,1
 .7408729131,-0.8660254038\Bq,0,3.40873,1.75791,-0.8660254038\Bq,0,3.27
 93204774,1.7408729131,-0.8660254038\Bq,0,3.15873,1.6909227019,-0.86602
 54038\Bq,0,3.0551766094,1.6114633906,-0.8660254038\Bq,0,2.9757172981,1
 .50791,-0.8660254038\Bq,0,2.9257670869,1.3873195226,-0.8660254038\Bq,0
 ,2.90873,1.25791,-0.8660254038\Bq,0,2.9257670869,1.1285004774,-0.86602
 54038\Bq,0,2.9757172981,1.00791,-0.8660254038\Bq,0,3.0551766094,0.9043
 566094,-0.8660254038\\Version=ES64L-G09RevD.01\HF=-385.9859319\RMSD=7.
 801e-09\Dipole=0.,0.,0.\Quadrupole=3.3018588,3.182998,-6.4848568,0.,0.
 ,0.\PG=C01 [X(C10H8)]\\@


 SOME PHYSICISTS WOULD PREFER TO COME BACK TO THE IDEA OF AN OBJECTIVE
 REAL WORLD WHOSE SMALLEST PARTS EXIST OBJECTIVELY IN THE SAME SENSE AS
 STONES OR TREES EXIST INDEPENDENTLY OF WHETHER WE OBSERVE THEM.
 THIS, HOWEVER, IS IMPOSSIBLE.  -- WERNER HEISENBERG
 Job cpu time:       0 days  0 hours 15 minutes  3.5 seconds.
 File lengths (MBytes):  RWF=     43 Int=      0 D2E=      0 Chk=      5 Scr=      1
 Normal termination of Gaussian 09 at Fri Sep 11 11:31:26 2020.
