 Entering Gaussian System, Link 0=g09
 Input=input_batch_00800.com
 Output=input_batch_00800.log
 Initial command:
 /share/programs/GAUSSIAN/64/g09/l1.exe "/scratch/yannick.36507/Gau-536509.inp" -scrdir="/scratch/yannick.36507/"
 Entering Link 1 = /share/programs/GAUSSIAN/64/g09/l1.exe PID=    536659.
  
 Copyright (c) 1988,1990,1992,1993,1995,1998,2003,2009,2013,
            Gaussian, Inc.  All Rights Reserved.
  
 This is part of the Gaussian(R) 09 program.  It is based on
 the Gaussian(R) 03 system (copyright 2003, Gaussian, Inc.),
 the Gaussian(R) 98 system (copyright 1998, Gaussian, Inc.),
 the Gaussian(R) 94 system (copyright 1995, Gaussian, Inc.),
 the Gaussian 92(TM) system (copyright 1992, Gaussian, Inc.),
 the Gaussian 90(TM) system (copyright 1990, Gaussian, Inc.),
 the Gaussian 88(TM) system (copyright 1988, Gaussian, Inc.),
 the Gaussian 86(TM) system (copyright 1986, Carnegie Mellon
 University), and the Gaussian 82(TM) system (copyright 1983,
 Carnegie Mellon University). Gaussian is a federally registered
 trademark of Gaussian, Inc.
  
 This software contains proprietary and confidential information,
 including trade secrets, belonging to Gaussian, Inc.
  
 This software is provided under written license and may be
 used, copied, transmitted, or stored only in accord with that
 written license.
  
 The following legend is applicable only to US Government
 contracts under FAR:
  
                    RESTRICTED RIGHTS LEGEND
  
 Use, reproduction and disclosure by the US Government is
 subject to restrictions as set forth in subparagraphs (a)
 and (c) of the Commercial Computer Software - Restricted
 Rights clause in FAR 52.227-19.
  
 Gaussian, Inc.
 340 Quinnipiac St., Bldg. 40, Wallingford CT 06492
  
  
 ---------------------------------------------------------------
 Warning -- This program may not be used in any manner that
 competes with the business of Gaussian, Inc. or will provide
 assistance to any competitor of Gaussian, Inc.  The licensee
 of this program is prohibited from giving any competitor of
 Gaussian, Inc. access to this program.  By using this program,
 the user acknowledges that Gaussian, Inc. is engaged in the
 business of creating and licensing software in the field of
 computational chemistry and represents and warrants to the
 licensee that it is not a competitor of Gaussian, Inc. and that
 it will not use this program in any manner prohibited above.
 ---------------------------------------------------------------
  

 Cite this work as:
 Gaussian 09, Revision D.01,
 M. J. Frisch, G. W. Trucks, H. B. Schlegel, G. E. Scuseria, 
 M. A. Robb, J. R. Cheeseman, G. Scalmani, V. Barone, B. Mennucci, 
 G. A. Petersson, H. Nakatsuji, M. Caricato, X. Li, H. P. Hratchian, 
 A. F. Izmaylov, J. Bloino, G. Zheng, J. L. Sonnenberg, M. Hada, 
 M. Ehara, K. Toyota, R. Fukuda, J. Hasegawa, M. Ishida, T. Nakajima, 
 Y. Honda, O. Kitao, H. Nakai, T. Vreven, J. A. Montgomery, Jr., 
 J. E. Peralta, F. Ogliaro, M. Bearpark, J. J. Heyd, E. Brothers, 
 K. N. Kudin, V. N. Staroverov, T. Keith, R. Kobayashi, J. Normand, 
 K. Raghavachari, A. Rendell, J. C. Burant, S. S. Iyengar, J. Tomasi, 
 M. Cossi, N. Rega, J. M. Millam, M. Klene, J. E. Knox, J. B. Cross, 
 V. Bakken, C. Adamo, J. Jaramillo, R. Gomperts, R. E. Stratmann, 
 O. Yazyev, A. J. Austin, R. Cammi, C. Pomelli, J. W. Ochterski, 
 R. L. Martin, K. Morokuma, V. G. Zakrzewski, G. A. Voth, 
 P. Salvador, J. J. Dannenberg, S. Dapprich, A. D. Daniels, 
 O. Farkas, J. B. Foresman, J. V. Ortiz, J. Cioslowski, 
 and D. J. Fox, Gaussian, Inc., Wallingford CT, 2013.
 
 ******************************************
 Gaussian 09:  ES64L-G09RevD.01 24-Apr-2013
                11-Sep-2020 
 ******************************************
 %nproc=8
 Will use up to    8 processors via shared memory.
 %mem=1000MB
 ----------------------------------------
 # rb3lyp/6-311+g** NMR geom=connectivity
 ----------------------------------------
 1/38=1,57=2/1;
 2/12=2,17=6,18=5,40=1/2;
 3/5=4,6=6,7=111,11=2,16=1,25=1,30=1,74=-5,116=1/1,2,8,3;
 4//1;
 5/5=2,38=5/2;
 8/6=1,10=90,11=11/1;
 10/13=100,45=16/2;
 6/7=2,8=2,9=2,10=2,28=1/1;
 99/9=1/99;
 -----
 Title
 -----
 Symbolic Z-matrix:
 Charge =  0 Multiplicity = 1
 C                     2.45076  -0.71174   0. 
 C                     2.45076   0.71174   0. 
 C                     1.25139   1.41137   0. 
 C                     0.        0.72289   0. 
 C                    -1.25139   1.41137   0. 
 C                    -2.45076   0.71174   0. 
 C                    -2.45076  -0.71174   0. 
 C                    -1.25139  -1.41137   0. 
 C                     0.       -0.72289   0. 
 C                     1.25139  -1.41137   0. 
 H                     3.40873  -1.25791   0. 
 H                     3.40873   1.25791   0. 
 H                     1.24972   2.51472   0. 
 H                    -1.24972   2.51472   0. 
 H                    -3.40873   1.25791   0. 
 H                    -3.40873  -1.25791   0. 
 H                    -1.24972  -2.51472   0. 
 H                     1.24972  -2.51472   0. 
 Bq                   -0.31838   1.66137  -0.25882 
 Bq                   -0.41487   1.89433  -0.25882 
 Bq                   -2.08791   1.89433  -0.25882 
 Bq                   -2.1844    1.66137  -0.25882 
 Bq                   -0.41487   1.63551  -0.5 
 Bq                   -0.50139   1.84438  -0.5 
 Bq                   -2.00139   1.84438  -0.5 
 Bq                   -2.08791   1.63551  -0.5 
 Bq                   -0.54428   1.41137  -0.70711 
 Bq                   -0.56838   1.59438  -0.70711 
 Bq                   -0.63902   1.76492  -0.70711 
 Bq                   -0.75139   1.91137  -0.70711 
 Bq                   -1.75139   1.91137  -0.70711 
 Bq                   -1.86376   1.76492  -0.70711 
 Bq                   -1.9344    1.59438  -0.70711 
 Bq                   -1.9585    1.41137  -0.70711 
 Bq                   -1.9344    1.22836  -0.70711 
 Bq                   -1.75139   0.91137  -0.70711 
 Bq                   -1.60494   0.799    -0.70711 
 Bq                   -1.4344    0.72836  -0.70711 
 Bq                   -1.06838   0.72836  -0.70711 
 Bq                   -0.89784   0.799    -0.70711 
 Bq                   -0.75139   0.91137  -0.70711 
 Bq                   -0.63902   1.05782  -0.70711 
 Bq                   -0.56838   1.22836  -0.70711 
 Bq                   -0.75139   1.41137  -0.86603 
 Bq                   -0.76843   1.54078  -0.86603 
 Bq                   -0.81838   1.66137  -0.86603 
 Bq                   -0.89784   1.76492  -0.86603 
 Bq                   -1.00139   1.84438  -0.86603 
 Bq                   -1.12198   1.89433  -0.86603 
 Bq                   -1.25139   1.91137  -0.86603 
 Bq                   -1.3808    1.89433  -0.86603 
 Bq                   -1.50139   1.84438  -0.86603 
 Bq                   -1.60494   1.76492  -0.86603 
 Bq                   -1.6844    1.66137  -0.86603 
 Bq                   -1.73435   1.54078  -0.86603 
 Bq                   -1.75139   1.41137  -0.86603 
 Bq                   -1.73435   1.28196  -0.86603 
 Bq                   -1.6844    1.16137  -0.86603 
 Bq                   -1.60494   1.05782  -0.86603 
 Bq                   -1.50139   0.97836  -0.86603 
 Bq                   -1.3808    0.92841  -0.86603 
 Bq                   -1.25139   0.91137  -0.86603 
 Bq                   -1.12198   0.92841  -0.86603 
 Bq                   -1.00139   0.97836  -0.86603 
 Bq                   -0.89784   1.05782  -0.86603 
 Bq                   -0.81838   1.16137  -0.86603 
 Bq                   -0.76843   1.28196  -0.86603 
 Bq                   -0.99257   1.41137  -0.96593 
 Bq                   -1.00139   1.47836  -0.96593 
 Bq                   -1.02725   1.54078  -0.96593 
 Bq                   -1.06838   1.59438  -0.96593 
 Bq                   -1.12198   1.63551  -0.96593 
 Bq                   -1.1844    1.66137  -0.96593 
 Bq                   -1.25139   1.67019  -0.96593 
 Bq                   -1.31838   1.66137  -0.96593 
 Bq                   -1.3808    1.63551  -0.96593 
 Bq                   -1.4344    1.59438  -0.96593 
 Bq                   -1.47553   1.54078  -0.96593 
 Bq                   -1.50139   1.47836  -0.96593 
 Bq                   -1.51021   1.41137  -0.96593 
 Bq                   -1.50139   1.34438  -0.96593 
 Bq                   -1.47553   1.28196  -0.96593 
 Bq                   -1.4344    1.22836  -0.96593 
 Bq                   -1.3808    1.18723  -0.96593 
 Bq                   -1.31838   1.16137  -0.96593 
 Bq                   -1.25139   1.15255  -0.96593 
 Bq                   -1.1844    1.16137  -0.96593 
 Bq                   -1.12198   1.18723  -0.96593 
 Bq                   -1.06838   1.22836  -0.96593 
 Bq                   -1.02725   1.28196  -0.96593 
 Bq                   -1.00139   1.34438  -0.96593 
 Bq                   -2.45076   0.71174   1. 
 Bq                   -2.45076   0.71174   1. 
 Bq                   -2.45076   0.71174   1. 
 Bq                   -2.45076   0.71174   1. 
 Bq                   -2.45076   0.71174   1. 
 Bq                   -2.45076   0.71174   1. 
 Bq                   -2.45076   0.71174   1. 
 Bq                   -2.45076   0.71174   1. 
 Bq                   -2.45076   0.71174   1. 
 Bq                   -2.45076   0.71174   1. 
 Bq                   -2.45076   0.71174   1. 
 Bq                   -2.45076   0.71174   1. 
 Bq                   -2.45076   0.71174   1. 
 Bq                   -2.45076   0.71174   1. 
 Bq                   -2.45076   0.71174   1. 
 Bq                   -2.45076   0.71174   1. 
 Bq                   -2.45076   0.71174   1. 
 Bq                   -2.45076   0.71174   1. 
 Bq                   -2.45076   0.71174   1. 
 Bq                   -2.45076   0.71174   1. 
 Bq                   -2.45076   0.71174   1. 
 Bq                   -2.45076   0.71174   1. 
 Bq                   -2.45076   0.71174   1. 
 Bq                   -2.45076   0.71174   1. 
 Bq                   -2.19194   0.71174   0.96593 
 Bq                   -2.20076   0.77873   0.96593 
 Bq                   -2.22662   0.84115   0.96593 
 Bq                   -2.26775   0.89475   0.96593 
 Bq                   -2.32135   0.93588   0.96593 
 Bq                   -2.38377   0.96174   0.96593 
 Bq                   -2.45076   0.97056   0.96593 
 Bq                   -2.51775   0.96174   0.96593 
 Bq                   -2.58017   0.93588   0.96593 
 Bq                   -2.63377   0.89475   0.96593 
 Bq                   -2.6749    0.84115   0.96593 
 Bq                   -2.70076   0.77873   0.96593 
 Bq                   -2.70958   0.71174   0.96593 
 Bq                   -2.70076   0.64475   0.96593 
 Bq                   -2.6749    0.58233   0.96593 
 Bq                   -2.63377   0.52873   0.96593 
 Bq                   -2.58017   0.4876    0.96593 
 Bq                   -2.51775   0.46174   0.96593 
 Bq                   -2.45076   0.45292   0.96593 
 Bq                   -2.38377   0.46174   0.96593 
 Bq                   -2.32135   0.4876    0.96593 
 Bq                   -2.26775   0.52873   0.96593 
 Bq                   -2.22662   0.58233   0.96593 
 Bq                   -2.20076   0.64475   0.96593 
 Bq                   -1.95076   0.71174   0.86603 
 Bq                   -1.9678    0.84115   0.86603 
 Bq                   -2.01775   0.96174   0.86603 
 Bq                   -2.09721   1.06529   0.86603 
 Bq                   -2.20076   1.14475   0.86603 
 Bq                   -2.32135   1.1947    0.86603 
 Bq                   -2.45076   1.21174   0.86603 
 Bq                   -2.58017   1.1947    0.86603 
 Bq                   -2.70076   1.14475   0.86603 
 Bq                   -2.80431   1.06529   0.86603 
 Bq                   -2.88377   0.96174   0.86603 
 Bq                   -2.93372   0.84115   0.86603 
 Bq                   -2.95076   0.71174   0.86603 
 Bq                   -2.93372   0.58233   0.86603 
 Bq                   -2.88377   0.46174   0.86603 
 Bq                   -2.80431   0.35819   0.86603 
 Bq                   -2.70076   0.27873   0.86603 
 Bq                   -2.58017   0.22878   0.86603 
 Bq                   -2.45076   0.21174   0.86603 
 Bq                   -2.32135   0.22878   0.86603 
 Bq                   -2.20076   0.27873   0.86603 
 Bq                   -2.09721   0.35819   0.86603 
 Bq                   -2.01775   0.46174   0.86603 
 Bq                   -1.9678    0.58233   0.86603 
 Bq                   -1.74365   0.71174   0.70711 
 Bq                   -1.76775   0.89475   0.70711 
 Bq                   -1.95076   1.21174   0.70711 
 Bq                   -2.09721   1.32411   0.70711 
 Bq                   -2.26775   1.39475   0.70711 
 Bq                   -2.45076   1.41885   0.70711 
 Bq                   -2.63377   1.39475   0.70711 
 Bq                   -3.13377   0.52873   0.70711 
 Bq                   -3.06313   0.35819   0.70711 
 Bq                   -2.95076   0.21174   0.70711 
 Bq                   -2.80431   0.09937   0.70711 
 Bq                   -2.63377   0.02873   0.70711 
 Bq                   -2.45076   0.00463   0.70711 
 Bq                   -2.26775   0.02873   0.70711 
 Bq                   -2.09721   0.09937   0.70711 
 Bq                   -1.95076   0.21174   0.70711 
 Bq                   -1.76775   0.52873   0.70711 
 Bq                   -2.22662   1.54826   0.5 
 Bq                   -2.45076   1.57777   0.5 
 Bq                   -3.20076   0.27873   0.5 
 Bq                   -3.06313   0.09937   0.5 
 Bq                   -2.20076   1.64475   0.25882 
 Bq                   -2.45076   1.67767   0.25882 
 Bq                   -3.28728   0.22878   0.25882 
 Bq                   -3.13377   0.02873   0.25882 
 Bq                   -2.45076   1.71174   0. 
 Bq                   -3.31679   0.21174   0. 
 Bq                   -3.15787   0.00463   0. 
 Bq                   -2.20076   1.64475  -0.25882 
 Bq                   -2.45076   1.67767  -0.25882 
 Bq                   -3.28728   0.22878  -0.25882 
 Bq                   -3.13377   0.02873  -0.25882 
 Bq                   -2.22662   1.54826  -0.5 
 Bq                   -2.45076   1.57777  -0.5 
 Bq                   -3.20076   0.27873  -0.5 
 Bq                   -3.06313   0.09937  -0.5 
 Bq                   -1.74365   0.71174  -0.70711 
 Bq                   -1.76775   0.89475  -0.70711 
 Bq                   -1.95076   1.21174  -0.70711 
 Bq                   -2.09721   1.32411  -0.70711 
 Bq                   -2.26775   1.39475  -0.70711 
 Bq                   -2.45076   1.41885  -0.70711 
 Bq                   -2.63377   1.39475  -0.70711 
 Bq                   -3.13377   0.52873  -0.70711 
 Bq                   -3.06313   0.35819  -0.70711 
 Bq                   -2.95076   0.21174  -0.70711 
 Bq                   -2.80431   0.09937  -0.70711 
 Bq                   -2.63377   0.02873  -0.70711 
 Bq                   -2.45076   0.00463  -0.70711 
 Bq                   -2.26775   0.02873  -0.70711 
 Bq                   -2.09721   0.09937  -0.70711 
 Bq                   -1.95076   0.21174  -0.70711 
 Bq                   -1.76775   0.52873  -0.70711 
 Bq                   -1.95076   0.71174  -0.86603 
 Bq                   -1.9678    0.84115  -0.86603 
 
 Symmetry turned off:
 Cannot cope with ghost atoms or with translation vectors.
 Stoichiometry    C10H8
 Framework group  C1[X(C10H8)]
 NUMDOF-- NAT=    18 NAtoms=   218
 Deg. of freedom     0
 Full point group                 C1      NOp   1
                          Input orientation:                          
 ---------------------------------------------------------------------
 Center     Atomic      Atomic             Coordinates (Angstroms)
 Number     Number       Type             X           Y           Z
 ---------------------------------------------------------------------
      1          6           0        2.450760   -0.711740    0.000000
      2          6           0        2.450760    0.711740    0.000000
      3          6           0        1.251390    1.411370    0.000000
      4          6           0        0.000000    0.722890    0.000000
      5          6           0       -1.251390    1.411370    0.000000
      6          6           0       -2.450760    0.711740    0.000000
      7          6           0       -2.450760   -0.711740    0.000000
      8          6           0       -1.251390   -1.411370    0.000000
      9          6           0        0.000000   -0.722890    0.000000
     10          6           0        1.251390   -1.411370    0.000000
     11          1           0        3.408730   -1.257910    0.000000
     12          1           0        3.408730    1.257910    0.000000
     13          1           0        1.249720    2.514720    0.000000
     14          1           0       -1.249720    2.514720    0.000000
     15          1           0       -3.408730    1.257910    0.000000
     16          1           0       -3.408730   -1.257910    0.000000
     17          1           0       -1.249720   -2.514720    0.000000
     18          1           0        1.249720   -2.514720    0.000000
     19          0           0       -0.318377    1.661370   -0.258819
     20          0           0       -0.414874    1.894333   -0.258819
     21          0           0       -2.087906    1.894333   -0.258819
     22          0           0       -2.184403    1.661370   -0.258819
     23          0           0       -0.414874    1.635514   -0.500000
     24          0           0       -0.501390    1.844383   -0.500000
     25          0           0       -2.001390    1.844383   -0.500000
     26          0           0       -2.087906    1.635514   -0.500000
     27          0           0       -0.544283    1.411370   -0.707107
     28          0           0       -0.568377    1.594383   -0.707107
     29          0           0       -0.639018    1.764923   -0.707107
     30          0           0       -0.751390    1.911370   -0.707107
     31          0           0       -1.751390    1.911370   -0.707107
     32          0           0       -1.863762    1.764923   -0.707107
     33          0           0       -1.934403    1.594383   -0.707107
     34          0           0       -1.958497    1.411370   -0.707107
     35          0           0       -1.934403    1.228357   -0.707107
     36          0           0       -1.751390    0.911370   -0.707107
     37          0           0       -1.604943    0.798998   -0.707107
     38          0           0       -1.434403    0.728357   -0.707107
     39          0           0       -1.068377    0.728357   -0.707107
     40          0           0       -0.897837    0.798998   -0.707107
     41          0           0       -0.751390    0.911370   -0.707107
     42          0           0       -0.639018    1.057817   -0.707107
     43          0           0       -0.568377    1.228357   -0.707107
     44          0           0       -0.751390    1.411370   -0.866025
     45          0           0       -0.768427    1.540780   -0.866025
     46          0           0       -0.818377    1.661370   -0.866025
     47          0           0       -0.897837    1.764923   -0.866025
     48          0           0       -1.001390    1.844383   -0.866025
     49          0           0       -1.121980    1.894333   -0.866025
     50          0           0       -1.251390    1.911370   -0.866025
     51          0           0       -1.380800    1.894333   -0.866025
     52          0           0       -1.501390    1.844383   -0.866025
     53          0           0       -1.604943    1.764923   -0.866025
     54          0           0       -1.684403    1.661370   -0.866025
     55          0           0       -1.734353    1.540780   -0.866025
     56          0           0       -1.751390    1.411370   -0.866025
     57          0           0       -1.734353    1.281960   -0.866025
     58          0           0       -1.684403    1.161370   -0.866025
     59          0           0       -1.604943    1.057817   -0.866025
     60          0           0       -1.501390    0.978357   -0.866025
     61          0           0       -1.380800    0.928407   -0.866025
     62          0           0       -1.251390    0.911370   -0.866025
     63          0           0       -1.121980    0.928407   -0.866025
     64          0           0       -1.001390    0.978357   -0.866025
     65          0           0       -0.897837    1.057817   -0.866025
     66          0           0       -0.818377    1.161370   -0.866025
     67          0           0       -0.768427    1.281960   -0.866025
     68          0           0       -0.992571    1.411370   -0.965926
     69          0           0       -1.001390    1.478357   -0.965926
     70          0           0       -1.027246    1.540780   -0.965926
     71          0           0       -1.068377    1.594383   -0.965926
     72          0           0       -1.121980    1.635514   -0.965926
     73          0           0       -1.184403    1.661370   -0.965926
     74          0           0       -1.251390    1.670189   -0.965926
     75          0           0       -1.318377    1.661370   -0.965926
     76          0           0       -1.380800    1.635514   -0.965926
     77          0           0       -1.434403    1.594383   -0.965926
     78          0           0       -1.475534    1.540780   -0.965926
     79          0           0       -1.501390    1.478357   -0.965926
     80          0           0       -1.510209    1.411370   -0.965926
     81          0           0       -1.501390    1.344383   -0.965926
     82          0           0       -1.475534    1.281960   -0.965926
     83          0           0       -1.434403    1.228357   -0.965926
     84          0           0       -1.380800    1.187226   -0.965926
     85          0           0       -1.318377    1.161370   -0.965926
     86          0           0       -1.251390    1.152551   -0.965926
     87          0           0       -1.184403    1.161370   -0.965926
     88          0           0       -1.121980    1.187226   -0.965926
     89          0           0       -1.068377    1.228357   -0.965926
     90          0           0       -1.027246    1.281960   -0.965926
     91          0           0       -1.001390    1.344383   -0.965926
     92          0           0       -2.450760    0.711740    1.000000
     93          0           0       -2.450760    0.711740    1.000000
     94          0           0       -2.450760    0.711740    1.000000
     95          0           0       -2.450760    0.711740    1.000000
     96          0           0       -2.450760    0.711740    1.000000
     97          0           0       -2.450760    0.711740    1.000000
     98          0           0       -2.450760    0.711740    1.000000
     99          0           0       -2.450760    0.711740    1.000000
    100          0           0       -2.450760    0.711740    1.000000
    101          0           0       -2.450760    0.711740    1.000000
    102          0           0       -2.450760    0.711740    1.000000
    103          0           0       -2.450760    0.711740    1.000000
    104          0           0       -2.450760    0.711740    1.000000
    105          0           0       -2.450760    0.711740    1.000000
    106          0           0       -2.450760    0.711740    1.000000
    107          0           0       -2.450760    0.711740    1.000000
    108          0           0       -2.450760    0.711740    1.000000
    109          0           0       -2.450760    0.711740    1.000000
    110          0           0       -2.450760    0.711740    1.000000
    111          0           0       -2.450760    0.711740    1.000000
    112          0           0       -2.450760    0.711740    1.000000
    113          0           0       -2.450760    0.711740    1.000000
    114          0           0       -2.450760    0.711740    1.000000
    115          0           0       -2.450760    0.711740    1.000000
    116          0           0       -2.191941    0.711740    0.965926
    117          0           0       -2.200760    0.778727    0.965926
    118          0           0       -2.226616    0.841150    0.965926
    119          0           0       -2.267747    0.894753    0.965926
    120          0           0       -2.321350    0.935884    0.965926
    121          0           0       -2.383773    0.961740    0.965926
    122          0           0       -2.450760    0.970559    0.965926
    123          0           0       -2.517747    0.961740    0.965926
    124          0           0       -2.580170    0.935884    0.965926
    125          0           0       -2.633773    0.894753    0.965926
    126          0           0       -2.674904    0.841150    0.965926
    127          0           0       -2.700760    0.778727    0.965926
    128          0           0       -2.709579    0.711740    0.965926
    129          0           0       -2.700760    0.644753    0.965926
    130          0           0       -2.674904    0.582330    0.965926
    131          0           0       -2.633773    0.528727    0.965926
    132          0           0       -2.580170    0.487596    0.965926
    133          0           0       -2.517747    0.461740    0.965926
    134          0           0       -2.450760    0.452921    0.965926
    135          0           0       -2.383773    0.461740    0.965926
    136          0           0       -2.321350    0.487596    0.965926
    137          0           0       -2.267747    0.528727    0.965926
    138          0           0       -2.226616    0.582330    0.965926
    139          0           0       -2.200760    0.644753    0.965926
    140          0           0       -1.950760    0.711740    0.866025
    141          0           0       -1.967797    0.841150    0.866025
    142          0           0       -2.017747    0.961740    0.866025
    143          0           0       -2.097207    1.065293    0.866025
    144          0           0       -2.200760    1.144753    0.866025
    145          0           0       -2.321350    1.194703    0.866025
    146          0           0       -2.450760    1.211740    0.866025
    147          0           0       -2.580170    1.194703    0.866025
    148          0           0       -2.700760    1.144753    0.866025
    149          0           0       -2.804313    1.065293    0.866025
    150          0           0       -2.883773    0.961740    0.866025
    151          0           0       -2.933723    0.841150    0.866025
    152          0           0       -2.950760    0.711740    0.866025
    153          0           0       -2.933723    0.582330    0.866025
    154          0           0       -2.883773    0.461740    0.866025
    155          0           0       -2.804313    0.358187    0.866025
    156          0           0       -2.700760    0.278727    0.866025
    157          0           0       -2.580170    0.228777    0.866025
    158          0           0       -2.450760    0.211740    0.866025
    159          0           0       -2.321350    0.228777    0.866025
    160          0           0       -2.200760    0.278727    0.866025
    161          0           0       -2.097207    0.358187    0.866025
    162          0           0       -2.017747    0.461740    0.866025
    163          0           0       -1.967797    0.582330    0.866025
    164          0           0       -1.743653    0.711740    0.707107
    165          0           0       -1.767747    0.894753    0.707107
    166          0           0       -1.950760    1.211740    0.707107
    167          0           0       -2.097207    1.324112    0.707107
    168          0           0       -2.267747    1.394753    0.707107
    169          0           0       -2.450760    1.418847    0.707107
    170          0           0       -2.633773    1.394753    0.707107
    171          0           0       -3.133773    0.528727    0.707107
    172          0           0       -3.063132    0.358187    0.707107
    173          0           0       -2.950760    0.211740    0.707107
    174          0           0       -2.804313    0.099368    0.707107
    175          0           0       -2.633773    0.028727    0.707107
    176          0           0       -2.450760    0.004633    0.707107
    177          0           0       -2.267747    0.028727    0.707107
    178          0           0       -2.097207    0.099368    0.707107
    179          0           0       -1.950760    0.211740    0.707107
    180          0           0       -1.767747    0.528727    0.707107
    181          0           0       -2.226616    1.548256    0.500000
    182          0           0       -2.450760    1.577765    0.500000
    183          0           0       -3.200760    0.278727    0.500000
    184          0           0       -3.063132    0.099368    0.500000
    185          0           0       -2.200760    1.644753    0.258819
    186          0           0       -2.450760    1.677666    0.258819
    187          0           0       -3.287276    0.228777    0.258819
    188          0           0       -3.133773    0.028727    0.258819
    189          0           0       -2.450760    1.711740    0.000000
    190          0           0       -3.316785    0.211740    0.000000
    191          0           0       -3.157867    0.004633    0.000000
    192          0           0       -2.200760    1.644753   -0.258819
    193          0           0       -2.450760    1.677666   -0.258819
    194          0           0       -3.287276    0.228777   -0.258819
    195          0           0       -3.133773    0.028727   -0.258819
    196          0           0       -2.226616    1.548256   -0.500000
    197          0           0       -2.450760    1.577765   -0.500000
    198          0           0       -3.200760    0.278727   -0.500000
    199          0           0       -3.063132    0.099368   -0.500000
    200          0           0       -1.743653    0.711740   -0.707107
    201          0           0       -1.767747    0.894753   -0.707107
    202          0           0       -1.950760    1.211740   -0.707107
    203          0           0       -2.097207    1.324112   -0.707107
    204          0           0       -2.267747    1.394753   -0.707107
    205          0           0       -2.450760    1.418847   -0.707107
    206          0           0       -2.633773    1.394753   -0.707107
    207          0           0       -3.133773    0.528727   -0.707107
    208          0           0       -3.063132    0.358187   -0.707107
    209          0           0       -2.950760    0.211740   -0.707107
    210          0           0       -2.804313    0.099368   -0.707107
    211          0           0       -2.633773    0.028727   -0.707107
    212          0           0       -2.450760    0.004633   -0.707107
    213          0           0       -2.267747    0.028727   -0.707107
    214          0           0       -2.097207    0.099368   -0.707107
    215          0           0       -1.950760    0.211740   -0.707107
    216          0           0       -1.767747    0.528727   -0.707107
    217          0           0       -1.950760    0.711740   -0.866025
    218          0           0       -1.967797    0.841150   -0.866025
 ---------------------------------------------------------------------
 Rotational constants (GHZ):      3.0751358      1.2130944      0.8699230
 Standard basis: 6-311+G(d,p) (5D, 7F)
 Warning:  center  19 has no basis functions!
 Warning:  center  20 has no basis functions!
 Warning:  center  21 has no basis functions!
 Warning:  center  22 has no basis functions!
 Warning:  center  23 has no basis functions!
 Warning:  center  24 has no basis functions!
 Warning:  center  25 has no basis functions!
 Warning:  center  26 has no basis functions!
 Warning:  center  27 has no basis functions!
 Warning:  center  28 has no basis functions!
 Warning:  center  29 has no basis functions!
 Warning:  center  30 has no basis functions!
 Warning:  center  31 has no basis functions!
 Warning:  center  32 has no basis functions!
 Warning:  center  33 has no basis functions!
 Warning:  center  34 has no basis functions!
 Warning:  center  35 has no basis functions!
 Warning:  center  36 has no basis functions!
 Warning:  center  37 has no basis functions!
 Warning:  center  38 has no basis functions!
 Warning:  center  39 has no basis functions!
 Warning:  center  40 has no basis functions!
 Warning:  center  41 has no basis functions!
 Warning:  center  42 has no basis functions!
 Warning:  center  43 has no basis functions!
 Warning:  center  44 has no basis functions!
 Warning:  center  45 has no basis functions!
 Warning:  center  46 has no basis functions!
 Warning:  center  47 has no basis functions!
 Warning:  center  48 has no basis functions!
 Warning:  center  49 has no basis functions!
 Warning:  center  50 has no basis functions!
 Warning:  center  51 has no basis functions!
 Warning:  center  52 has no basis functions!
 Warning:  center  53 has no basis functions!
 Warning:  center  54 has no basis functions!
 Warning:  center  55 has no basis functions!
 Warning:  center  56 has no basis functions!
 Warning:  center  57 has no basis functions!
 Warning:  center  58 has no basis functions!
 Warning:  center  59 has no basis functions!
 Warning:  center  60 has no basis functions!
 Warning:  center  61 has no basis functions!
 Warning:  center  62 has no basis functions!
 Warning:  center  63 has no basis functions!
 Warning:  center  64 has no basis functions!
 Warning:  center  65 has no basis functions!
 Warning:  center  66 has no basis functions!
 Warning:  center  67 has no basis functions!
 Warning:  center  68 has no basis functions!
 Warning:  center  69 has no basis functions!
 Warning:  center  70 has no basis functions!
 Warning:  center  71 has no basis functions!
 Warning:  center  72 has no basis functions!
 Warning:  center  73 has no basis functions!
 Warning:  center  74 has no basis functions!
 Warning:  center  75 has no basis functions!
 Warning:  center  76 has no basis functions!
 Warning:  center  77 has no basis functions!
 Warning:  center  78 has no basis functions!
 Warning:  center  79 has no basis functions!
 Warning:  center  80 has no basis functions!
 Warning:  center  81 has no basis functions!
 Warning:  center  82 has no basis functions!
 Warning:  center  83 has no basis functions!
 Warning:  center  84 has no basis functions!
 Warning:  center  85 has no basis functions!
 Warning:  center  86 has no basis functions!
 Warning:  center  87 has no basis functions!
 Warning:  center  88 has no basis functions!
 Warning:  center  89 has no basis functions!
 Warning:  center  90 has no basis functions!
 Warning:  center  91 has no basis functions!
 Warning:  center  92 has no basis functions!
 Warning:  center  93 has no basis functions!
 Warning:  center  94 has no basis functions!
 Warning:  center  95 has no basis functions!
 Warning:  center  96 has no basis functions!
 Warning:  center  97 has no basis functions!
 Warning:  center  98 has no basis functions!
 Warning:  center  99 has no basis functions!
 Warning:  center 100 has no basis functions!
 Warning:  center 101 has no basis functions!
 Warning:  center 102 has no basis functions!
 Warning:  center 103 has no basis functions!
 Warning:  center 104 has no basis functions!
 Warning:  center 105 has no basis functions!
 Warning:  center 106 has no basis functions!
 Warning:  center 107 has no basis functions!
 Warning:  center 108 has no basis functions!
 Warning:  center 109 has no basis functions!
 Warning:  center 110 has no basis functions!
 Warning:  center 111 has no basis functions!
 Warning:  center 112 has no basis functions!
 Warning:  center 113 has no basis functions!
 Warning:  center 114 has no basis functions!
 Warning:  center 115 has no basis functions!
 Warning:  center 116 has no basis functions!
 Warning:  center 117 has no basis functions!
 Warning:  center 118 has no basis functions!
 Warning:  center 119 has no basis functions!
 Warning:  center 120 has no basis functions!
 Warning:  center 121 has no basis functions!
 Warning:  center 122 has no basis functions!
 Warning:  center 123 has no basis functions!
 Warning:  center 124 has no basis functions!
 Warning:  center 125 has no basis functions!
 Warning:  center 126 has no basis functions!
 Warning:  center 127 has no basis functions!
 Warning:  center 128 has no basis functions!
 Warning:  center 129 has no basis functions!
 Warning:  center 130 has no basis functions!
 Warning:  center 131 has no basis functions!
 Warning:  center 132 has no basis functions!
 Warning:  center 133 has no basis functions!
 Warning:  center 134 has no basis functions!
 Warning:  center 135 has no basis functions!
 Warning:  center 136 has no basis functions!
 Warning:  center 137 has no basis functions!
 Warning:  center 138 has no basis functions!
 Warning:  center 139 has no basis functions!
 Warning:  center 140 has no basis functions!
 Warning:  center 141 has no basis functions!
 Warning:  center 142 has no basis functions!
 Warning:  center 143 has no basis functions!
 Warning:  center 144 has no basis functions!
 Warning:  center 145 has no basis functions!
 Warning:  center 146 has no basis functions!
 Warning:  center 147 has no basis functions!
 Warning:  center 148 has no basis functions!
 Warning:  center 149 has no basis functions!
 Warning:  center 150 has no basis functions!
 Warning:  center 151 has no basis functions!
 Warning:  center 152 has no basis functions!
 Warning:  center 153 has no basis functions!
 Warning:  center 154 has no basis functions!
 Warning:  center 155 has no basis functions!
 Warning:  center 156 has no basis functions!
 Warning:  center 157 has no basis functions!
 Warning:  center 158 has no basis functions!
 Warning:  center 159 has no basis functions!
 Warning:  center 160 has no basis functions!
 Warning:  center 161 has no basis functions!
 Warning:  center 162 has no basis functions!
 Warning:  center 163 has no basis functions!
 Warning:  center 164 has no basis functions!
 Warning:  center 165 has no basis functions!
 Warning:  center 166 has no basis functions!
 Warning:  center 167 has no basis functions!
 Warning:  center 168 has no basis functions!
 Warning:  center 169 has no basis functions!
 Warning:  center 170 has no basis functions!
 Warning:  center 171 has no basis functions!
 Warning:  center 172 has no basis functions!
 Warning:  center 173 has no basis functions!
 Warning:  center 174 has no basis functions!
 Warning:  center 175 has no basis functions!
 Warning:  center 176 has no basis functions!
 Warning:  center 177 has no basis functions!
 Warning:  center 178 has no basis functions!
 Warning:  center 179 has no basis functions!
 Warning:  center 180 has no basis functions!
 Warning:  center 181 has no basis functions!
 Warning:  center 182 has no basis functions!
 Warning:  center 183 has no basis functions!
 Warning:  center 184 has no basis functions!
 Warning:  center 185 has no basis functions!
 Warning:  center 186 has no basis functions!
 Warning:  center 187 has no basis functions!
 Warning:  center 188 has no basis functions!
 Warning:  center 189 has no basis functions!
 Warning:  center 190 has no basis functions!
 Warning:  center 191 has no basis functions!
 Warning:  center 192 has no basis functions!
 Warning:  center 193 has no basis functions!
 Warning:  center 194 has no basis functions!
 Warning:  center 195 has no basis functions!
 Warning:  center 196 has no basis functions!
 Warning:  center 197 has no basis functions!
 Warning:  center 198 has no basis functions!
 Warning:  center 199 has no basis functions!
 Warning:  center 200 has no basis functions!
 Warning:  center 201 has no basis functions!
 Warning:  center 202 has no basis functions!
 Warning:  center 203 has no basis functions!
 Warning:  center 204 has no basis functions!
 Warning:  center 205 has no basis functions!
 Warning:  center 206 has no basis functions!
 Warning:  center 207 has no basis functions!
 Warning:  center 208 has no basis functions!
 Warning:  center 209 has no basis functions!
 Warning:  center 210 has no basis functions!
 Warning:  center 211 has no basis functions!
 Warning:  center 212 has no basis functions!
 Warning:  center 213 has no basis functions!
 Warning:  center 214 has no basis functions!
 Warning:  center 215 has no basis functions!
 Warning:  center 216 has no basis functions!
 Warning:  center 217 has no basis functions!
 Warning:  center 218 has no basis functions!
   268 basis functions,   424 primitive gaussians,   278 cartesian basis functions
    34 alpha electrons       34 beta electrons
       nuclear repulsion energy       453.8675371600 Hartrees.
 NAtoms=  218 NActive=  218 NUniq=  218 SFac= 1.00D+00 NAtFMM=   60 NAOKFM=T Big=T
 Integral buffers will be    131072 words long.
 Raffenetti 2 integral format.
 Two-electron integral symmetry is turned off.
 One-electron integrals computed using PRISM.
 NBasis=   268 RedAO= T EigKep=  1.12D-06  NBF=   268
 NBsUse=   267 1.00D-06 EigRej=  6.14D-07 NBFU=   267
 ExpMin= 4.38D-02 ExpMax= 4.56D+03 ExpMxC= 6.82D+02 IAcc=2 IRadAn=         4 AccDes= 0.00D+00
 Harris functional with IExCor=  402 and IRadAn=       4 diagonalized for initial guess.
 HarFok:  IExCor=  402 AccDes= 0.00D+00 IRadAn=         4 IDoV= 1 UseB2=F ITyADJ=14
 ICtDFT=  3500011 ScaDFX=  1.000000  1.000000  1.000000  1.000000
 FoFCou: FMM=F IPFlag=           0 FMFlag=      100000 FMFlg1=        2001
         NFxFlg=           0 DoJE=T BraDBF=F KetDBF=T FulRan=T
         wScrn=  0.000000 ICntrl=     500 IOpCl=  0 I1Cent=   200000004 NGrid=           0
         NMat0=    1 NMatS0=      1 NMatT0=    0 NMatD0=    1 NMtDS0=    0 NMtDT0=    0
 Symmetry not used in FoFCou.
 Requested convergence on RMS density matrix=1.00D-08 within 128 cycles.
 Requested convergence on MAX density matrix=1.00D-06.
 Requested convergence on             energy=1.00D-06.
 No special actions if energy rises.
 SCF Done:  E(RB3LYP) =  -385.985931946     A.U. after   11 cycles
            NFock= 11  Conv=0.79D-08     -V/T= 2.0059
 DoSCS=F DFT=T ScalE2(SS,OS)=  1.000000  1.000000
 Range of M.O.s used for correlation:     1   267
 NBasis=   268 NAE=    34 NBE=    34 NFC=     0 NFV=     0
 NROrb=    267 NOA=    34 NOB=    34 NVA=   233 NVB=   233

 **** Warning!!: The largest alpha MO coefficient is  0.20992189D+03

          Differentiating once with respect to magnetic field using GIAOs.
          Electric field/nuclear overlap derivatives assumed to be zero.
 FoFCou: FMM=F IPFlag=           0 FMFlag=      100000 FMFlg1=        2001
         NFxFlg=           0 DoJE=F BraDBF=F KetDBF=T FulRan=T
         wScrn=  0.000000 ICntrl=    6100 IOpCl=  0 I1Cent=           7 NGrid=         218
         NMat0=    1 NMatS0=      1 NMatT0=    0 NMatD0=    1 NMtDS0=    0 NMtDT0=    0
 Symmetry not used in FoFCou.
 FoFJK:  IHMeth= 1 ICntrl=    6127 DoSepK=F KAlg= 0 I1Cent=   0 FoldK=F
 IRaf=         1 NMat=   1 IRICut=       1 DoRegI=T DoRafI=F ISym2E= 0.
          There are     3 degrees of freedom in the 1st order CPHF.  IDoFFX=0 NUNeed=     3.
      3 vectors produced by pass  0 Test12= 2.64D-13 3.33D-08 XBig12= 1.44D+02 6.48D+00.
 AX will form     3 AO Fock derivatives at one time.
      3 vectors produced by pass  1 Test12= 2.64D-13 3.33D-08 XBig12= 2.28D-01 1.79D-01.
      3 vectors produced by pass  2 Test12= 2.64D-13 3.33D-08 XBig12= 7.58D-04 1.41D-02.
      3 vectors produced by pass  3 Test12= 2.64D-13 3.33D-08 XBig12= 2.19D-06 6.12D-04.
      3 vectors produced by pass  4 Test12= 2.64D-13 3.33D-08 XBig12= 2.99D-09 2.39D-05.
      3 vectors produced by pass  5 Test12= 2.64D-13 3.33D-08 XBig12= 6.15D-12 9.51D-07.
      1 vectors produced by pass  6 Test12= 2.64D-13 3.33D-08 XBig12= 9.29D-15 3.79D-08.
 InvSVY:  IOpt=1 It=  1 EMax= 8.88D-16
 Solved reduced A of dimension    19 with     3 vectors.
 Calculating GIAO nuclear magnetic shielding tensors.
 SCF GIAO Magnetic shielding tensor (ppm):
      1  C    Isotropic =    48.8814   Anisotropy =   178.3631
   XX=   -26.3877   YX=    47.3635   ZX=     0.0000
   XY=    49.5434   YY=     5.2417   ZY=     0.0000
   XZ=     0.0000   YZ=     0.0000   ZZ=   167.7901
   Eigenvalues:   -61.5420    40.3960   167.7901
      2  C    Isotropic =    48.8814   Anisotropy =   178.3631
   XX=   -26.3877   YX=   -47.3635   ZX=     0.0000
   XY=   -49.5434   YY=     5.2417   ZY=     0.0000
   XZ=     0.0000   YZ=     0.0000   ZZ=   167.7901
   Eigenvalues:   -61.5420    40.3960   167.7901
      3  C    Isotropic =    47.0315   Anisotropy =   159.6105
   XX=    39.7012   YX=   -14.9645   ZX=     0.0000
   XY=   -12.8373   YY=   -52.0452   ZY=     0.0000
   XZ=     0.0000   YZ=     0.0000   ZZ=   153.4385
   Eigenvalues:   -54.1051    41.7611   153.4385
      4  C    Isotropic =    40.3220   Anisotropy =   214.7654
   XX=   -33.3511   YX=     0.0000   ZX=     0.0000
   XY=     0.0000   YY=   -29.1819   ZY=     0.0000
   XZ=     0.0000   YZ=     0.0000   ZZ=   183.4989
   Eigenvalues:   -33.3511   -29.1819   183.4989
      5  C    Isotropic =    47.0315   Anisotropy =   159.6105
   XX=    39.7012   YX=    14.9645   ZX=     0.0000
   XY=    12.8373   YY=   -52.0452   ZY=     0.0000
   XZ=     0.0000   YZ=     0.0000   ZZ=   153.4385
   Eigenvalues:   -54.1051    41.7611   153.4385
      6  C    Isotropic =    48.8814   Anisotropy =   178.3631
   XX=   -26.3877   YX=    47.3635   ZX=     0.0000
   XY=    49.5434   YY=     5.2417   ZY=     0.0000
   XZ=     0.0000   YZ=     0.0000   ZZ=   167.7901
   Eigenvalues:   -61.5420    40.3960   167.7901
      7  C    Isotropic =    48.8814   Anisotropy =   178.3631
   XX=   -26.3877   YX=   -47.3635   ZX=     0.0000
   XY=   -49.5434   YY=     5.2417   ZY=     0.0000
   XZ=     0.0000   YZ=     0.0000   ZZ=   167.7901
   Eigenvalues:   -61.5420    40.3960   167.7901
      8  C    Isotropic =    47.0315   Anisotropy =   159.6105
   XX=    39.7012   YX=   -14.9645   ZX=     0.0000
   XY=   -12.8373   YY=   -52.0452   ZY=     0.0000
   XZ=     0.0000   YZ=     0.0000   ZZ=   153.4385
   Eigenvalues:   -54.1051    41.7611   153.4385
      9  C    Isotropic =    40.3220   Anisotropy =   214.7654
   XX=   -33.3511   YX=     0.0000   ZX=     0.0000
   XY=     0.0000   YY=   -29.1819   ZY=     0.0000
   XZ=     0.0000   YZ=     0.0000   ZZ=   183.4989
   Eigenvalues:   -33.3511   -29.1819   183.4989
     10  C    Isotropic =    47.0315   Anisotropy =   159.6105
   XX=    39.7012   YX=    14.9645   ZX=     0.0000
   XY=    12.8373   YY=   -52.0452   ZY=     0.0000
   XZ=     0.0000   YZ=     0.0000   ZZ=   153.4385
   Eigenvalues:   -54.1051    41.7611   153.4385
     11  H    Isotropic =    23.8865   Anisotropy =     5.6622
   XX=    25.3494   YX=     1.7328   ZX=     0.0000
   XY=     1.7216   YY=    26.3711   ZY=     0.0000
   XZ=     0.0000   YZ=     0.0000   ZZ=    19.9391
   Eigenvalues:    19.9391    24.0591    27.6614
     12  H    Isotropic =    23.8865   Anisotropy =     5.6622
   XX=    25.3494   YX=    -1.7328   ZX=     0.0000
   XY=    -1.7216   YY=    26.3711   ZY=     0.0000
   XZ=     0.0000   YZ=     0.0000   ZZ=    19.9391
   Eigenvalues:    19.9391    24.0591    27.6614
     13  H    Isotropic =    23.5289   Anisotropy =     7.4859
   XX=    28.4698   YX=    -0.2957   ZX=     0.0000
   XY=    -0.7473   YY=    23.0511   ZY=     0.0000
   XZ=     0.0000   YZ=     0.0000   ZZ=    19.0659
   Eigenvalues:    19.0659    23.0014    28.5196
     14  H    Isotropic =    23.5289   Anisotropy =     7.4859
   XX=    28.4698   YX=     0.2957   ZX=     0.0000
   XY=     0.7473   YY=    23.0511   ZY=     0.0000
   XZ=     0.0000   YZ=     0.0000   ZZ=    19.0659
   Eigenvalues:    19.0659    23.0014    28.5196
     15  H    Isotropic =    23.8865   Anisotropy =     5.6622
   XX=    25.3494   YX=     1.7328   ZX=     0.0000
   XY=     1.7216   YY=    26.3711   ZY=     0.0000
   XZ=     0.0000   YZ=     0.0000   ZZ=    19.9391
   Eigenvalues:    19.9391    24.0591    27.6614
     16  H    Isotropic =    23.8865   Anisotropy =     5.6622
   XX=    25.3494   YX=    -1.7328   ZX=     0.0000
   XY=    -1.7216   YY=    26.3711   ZY=     0.0000
   XZ=     0.0000   YZ=     0.0000   ZZ=    19.9391
   Eigenvalues:    19.9391    24.0591    27.6614
     17  H    Isotropic =    23.5289   Anisotropy =     7.4859
   XX=    28.4698   YX=    -0.2957   ZX=     0.0000
   XY=    -0.7473   YY=    23.0511   ZY=     0.0000
   XZ=     0.0000   YZ=     0.0000   ZZ=    19.0659
   Eigenvalues:    19.0659    23.0014    28.5196
     18  H    Isotropic =    23.5289   Anisotropy =     7.4859
   XX=    28.4698   YX=     0.2957   ZX=     0.0000
   XY=     0.7473   YY=    23.0511   ZY=     0.0000
   XZ=     0.0000   YZ=     0.0000   ZZ=    19.0659
   Eigenvalues:    19.0659    23.0014    28.5196
     19  Bq   Isotropic =     6.1951   Anisotropy =    17.4718
   XX=    17.7259   YX=     1.0742   ZX=    -0.2666
   XY=     0.0470   YY=    11.7867   ZY=     0.6832
   XZ=    -1.9187   YZ=    -6.0338   ZZ=   -10.9273
   Eigenvalues:   -11.2741    12.0164    17.8429
     20  Bq   Isotropic =     3.0888   Anisotropy =    18.7687
   XX=    13.9330   YX=    -1.9941   ZX=    -0.4871
   XY=    -4.3604   YY=     9.5191   ZY=     0.5621
   XZ=    -2.9211   YZ=    -5.1896   ZZ=   -14.1857
   Eigenvalues:   -14.5520     8.2171    15.6013
     21  Bq   Isotropic =     5.1507   Anisotropy =    16.3551
   XX=    11.4669   YX=     1.0305   ZX=     0.3543
   XY=     4.0670   YY=    14.6178   ZY=     0.1780
   XZ=     4.5296   YZ=    -4.3230   ZZ=   -10.6325
   Eigenvalues:   -11.1133    10.5113    16.0541
     22  Bq   Isotropic =     9.5133   Anisotropy =    13.3314
   XX=    16.0760   YX=    -0.9744   ZX=    -0.2830
   XY=    -0.4331   YY=    17.8079   ZY=     0.2747
   XZ=     3.3642   YZ=    -5.2192   ZZ=    -5.3439
   Eigenvalues:    -5.7027    15.8418    18.4010
     23  Bq   Isotropic =     7.6914   Anisotropy =    11.9516
   XX=    14.9252   YX=     0.6720   ZX=    -0.4784
   XY=    -0.3531   YY=    12.3484   ZY=    -0.2009
   XZ=    -3.7738   YZ=   -12.2737   ZZ=    -4.1995
   Eigenvalues:    -6.4679    13.8830    15.6591
     24  Bq   Isotropic =     4.7647   Anisotropy =    13.5352
   XX=    12.1538   YX=    -1.5673   ZX=    -0.8130
   XY=    -3.5393   YY=     9.7794   ZY=     0.4483
   XZ=    -4.9464   YZ=   -10.5861   ZZ=    -7.6391
   Eigenvalues:    -9.5572    10.0631    13.7882
     25  Bq   Isotropic =     6.9062   Anisotropy =    13.7493
   XX=    10.2622   YX=     0.4803   ZX=     0.5596
   XY=     3.3311   YY=    14.8513   ZY=    -0.1687
   XZ=     8.1496   YZ=    -9.0925   ZZ=    -4.3948
   Eigenvalues:    -6.7363    11.3825    16.0724
     26  Bq   Isotropic =    11.0268   Anisotropy =    14.5568
   XX=    13.7323   YX=    -1.6388   ZX=    -0.0065
   XY=    -0.3007   YY=    18.4688   ZY=    -0.8110
   XZ=     7.1998   YZ=   -10.5722   ZZ=     0.8792
   Eigenvalues:    -1.4724    13.8214    20.7313
     27  Bq   Isotropic =    13.5323   Anisotropy =    14.7744
   XX=    14.3875   YX=     1.4001   ZX=    -0.6594
   XY=     1.6059   YY=    12.6723   ZY=    -1.8969
   XZ=    -3.3235   YZ=   -17.2718   ZZ=    13.5372
   Eigenvalues:     3.5027    13.7124    23.3819
     28  Bq   Isotropic =     9.3527   Anisotropy =    12.7815
   XX=    12.0270   YX=    -0.0585   ZX=    -0.4223
   XY=    -0.6969   YY=    11.1310   ZY=    -1.4338
   XZ=    -4.4920   YZ=   -16.7971   ZZ=     4.9001
   Eigenvalues:    -1.9708    12.1552    17.8737
     29  Bq   Isotropic =     7.0475   Anisotropy =    10.5636
   XX=    10.3768   YX=    -1.2282   ZX=    -0.8081
   XY=    -2.4325   YY=     9.4317   ZY=    -0.2168
   XZ=    -5.2207   YZ=   -15.1999   ZZ=     1.3339
   Eigenvalues:    -4.1787    11.2312    14.0898
     30  Bq   Isotropic =     6.6156   Anisotropy =     7.9774
   XX=     9.7951   YX=    -1.6681   ZX=    -1.5475
   XY=    -3.0051   YY=     7.8888   ZY=     1.1795
   XZ=    -5.3510   YZ=   -13.7283   ZZ=     2.1630
   Eigenvalues:    -3.2052    11.1182    11.9339
     31  Bq   Isotropic =     7.8611   Anisotropy =    10.3692
   XX=     8.3414   YX=     1.1944   ZX=     0.9275
   XY=     3.6702   YY=    11.5052   ZY=     0.5464
   XZ=     9.5371   YZ=   -12.4856   ZZ=     3.7368
   Eigenvalues:    -2.5486    11.3580    14.7739
     32  Bq   Isotropic =     9.0843   Anisotropy =    13.4296
   XX=     9.0392   YX=     0.2611   ZX=     0.3128
   XY=     2.4972   YY=    14.0174   ZY=    -0.8732
   XZ=     9.6128   YZ=   -13.6543   ZZ=     4.1962
   Eigenvalues:    -1.9719    11.1873    18.0373
     33  Bq   Isotropic =    12.3110   Anisotropy =    16.0275
   XX=    11.1413   YX=    -1.2500   ZX=     0.0127
   XY=     0.2929   YY=    16.6765   ZY=    -2.0812
   XZ=     9.3725   YZ=   -14.9467   ZZ=     9.1151
   Eigenvalues:     2.0258    11.9111    22.9960
     34  Bq   Isotropic =    17.4268   Anisotropy =    18.2603
   XX=    14.2571   YX=    -2.9108   ZX=     0.3726
   XY=    -2.1833   YY=    19.2136   ZY=    -2.5784
   XZ=     9.0021   YZ=   -15.1785   ZZ=    18.8096
   Eigenvalues:     9.4125    13.2674    29.6003
     35  Bq   Isotropic =    23.1332   Anisotropy =    21.4535
   XX=    16.7647   YX=    -4.1228   ZX=     1.3652
   XY=    -3.8293   YY=    21.3580   ZY=    -2.5029
   XZ=     8.2192   YZ=   -13.2370   ZZ=    31.2769
   Eigenvalues:    14.4635    17.5005    37.4356
     36  Bq   Isotropic =    26.9316   Anisotropy =    29.7738
   XX=    15.4629   YX=    -3.3959   ZX=     1.7892
   XY=    -3.1823   YY=    19.4080   ZY=    -2.7410
   XZ=     3.7332   YZ=    -4.8232   ZZ=    45.9238
   Eigenvalues:    13.5904    20.4236    46.7807
     37  Bq   Isotropic =    23.9938   Anisotropy =    30.2021
   XX=    13.7097   YX=    -2.3420   ZX=     0.5359
   XY=    -2.5016   YY=    14.3658   ZY=    -2.6689
   XZ=     1.7516   YZ=    -1.7574   ZZ=    43.9060
   Eigenvalues:    11.5825    16.2705    44.1285
     38  Bq   Isotropic =    20.6168   Anisotropy =    28.9840
   XX=    12.6367   YX=    -1.4512   ZX=    -0.1550
   XY=    -1.8287   YY=     9.3670   ZY=    -2.5146
   XZ=     1.6477   YZ=    -0.3669   ZZ=    39.8466
   Eigenvalues:     8.6509    13.2600    39.9394
     39  Bq   Isotropic =    18.9091   Anisotropy =    28.5232
   XX=    12.3653   YX=     0.2149   ZX=     0.4856
   XY=     0.5579   YY=     6.7600   ZY=    -2.3530
   XZ=     4.6079   YZ=    -0.6538   ZZ=    37.6019
   Eigenvalues:     6.6399    12.1629    37.9245
     40  Bq   Isotropic =    20.7053   Anisotropy =    29.1021
   XX=    13.0570   YX=     0.9243   ZX=     0.1139
   XY=     1.7925   YY=     9.3591   ZY=    -2.2608
   XZ=     5.0846   YZ=    -2.3926   ZZ=    39.6997
   Eigenvalues:     8.6142    13.3949    40.1067
     41  Bq   Isotropic =    22.4516   Anisotropy =    27.8431
   XX=    14.3712   YX=     1.7394   ZX=    -0.9895
   XY=     2.9696   YY=    12.5754   ZY=    -2.0709
   XZ=     3.7077   YZ=    -5.9510   ZZ=    40.4080
   Eigenvalues:    10.3960    15.9451    41.0136
     42  Bq   Isotropic =    21.9717   Anisotropy =    23.4442
   XX=    15.8143   YX=     2.5065   ZX=    -1.7028
   XY=     3.8229   YY=    14.2953   ZY=    -1.7614
   XZ=     1.0410   YZ=   -10.9342   ZZ=    35.8056
   Eigenvalues:    10.7927    17.5213    37.6012
     43  Bq   Isotropic =    18.4711   Anisotropy =    17.9899
   XX=    16.0356   YX=     2.4611   ZX=    -1.3546
   XY=     3.4307   YY=    13.9606   ZY=    -1.7420
   XZ=    -1.5305   YZ=   -15.3291   ZZ=    25.4169
   Eigenvalues:     8.8693    16.0796    30.4643
     44  Bq   Isotropic =    13.0221   Anisotropy =    18.9986
   XX=    11.1586   YX=    -0.1184   ZX=    -0.0068
   XY=     0.2131   YY=     9.4794   ZY=    -2.7448
   XZ=    -2.5901   YZ=   -18.7671   ZZ=    18.4284
   Eigenvalues:     2.2520    11.1266    25.6878
     45  Bq   Isotropic =    10.8999   Anisotropy =    16.5677
   XX=    10.1761   YX=    -0.5877   ZX=    -0.2278
   XY=    -0.6558   YY=     9.1388   ZY=    -2.0206
   XZ=    -3.3388   YZ=   -18.7486   ZZ=    13.3848
   Eigenvalues:     0.3964    10.3583    21.9451
     46  Bq   Isotropic =     9.4200   Anisotropy =    14.5004
   XX=     9.3105   YX=    -0.9476   ZX=    -0.5644
   XY=    -1.2987   YY=     8.5663   ZY=    -1.0088
   XZ=    -3.5618   YZ=   -18.0039   ZZ=    10.3833
   Eigenvalues:    -0.5745     9.7476    19.0869
     47  Bq   Isotropic =     8.6984   Anisotropy =    12.8985
   XX=     8.6990   YX=    -1.0330   ZX=    -0.9278
   XY=    -1.4644   YY=     7.9531   ZY=     0.0456
   XZ=    -3.1682   YZ=   -17.0719   ZZ=     9.4431
   Eigenvalues:    -0.4308     9.2286    17.2973
     48  Bq   Isotropic =     8.5731   Anisotropy =    11.9803
   XX=     8.2868   YX=    -0.7975   ZX=    -1.1375
   XY=    -1.0899   YY=     7.5199   ZY=     0.8944
   XZ=    -2.0362   YZ=   -16.3108   ZZ=     9.9125
   Eigenvalues:     0.5207     8.6386    16.5599
     49  Bq   Isotropic =     8.7461   Anisotropy =    11.7185
   XX=     7.9704   YX=    -0.3274   ZX=    -1.0460
   XY=    -0.2982   YY=     7.4267   ZY=     1.3912
   XZ=    -0.1494   YZ=   -15.8242   ZZ=    10.8411
   Eigenvalues:     1.6580     8.0217    16.5584
     50  Bq   Isotropic =     8.9419   Anisotropy =    11.8474
   XX=     7.7148   YX=     0.2145   ZX=    -0.6848
   XY=     0.6723   YY=     7.7248   ZY=     1.4910
   XZ=     2.2407   YZ=   -15.5658   ZZ=    11.3862
   Eigenvalues:     2.1607     7.8249    16.8402
     51  Bq   Isotropic =     9.0640   Anisotropy =    12.2250
   XX=     7.5535   YX=     0.6598   ZX=    -0.2825
   XY=     1.5502   YY=     8.3978   ZY=     1.2001
   XZ=     4.6345   YZ=   -15.5034   ZZ=    11.2406
   Eigenvalues:     1.6698     8.3081    17.2140
     52  Bq   Isotropic =     9.2588   Anisotropy =    12.9955
   XX=     7.5475   YX=     0.8678   ZX=    -0.0828
   XY=     2.0884   YY=     9.4072   ZY=     0.5457
   XZ=     6.5542   YZ=   -15.6929   ZZ=    10.8216
   Eigenvalues:     0.8752     8.9786    17.9224
     53  Bq   Isotropic =     9.8283   Anisotropy =    14.3916
   XX=     7.7933   YX=     0.7434   ZX=    -0.1490
   XY=     2.1108   YY=    10.6685   ZY=    -0.4054
   XZ=     7.7975   YZ=   -16.1885   ZZ=    11.0230
   Eigenvalues:     0.6040     9.4581    19.4227
     54  Bq   Isotropic =    11.0620   Anisotropy =    16.3833
   XX=     8.4143   YX=     0.2778   ZX=    -0.3573
   XY=     1.5733   YY=    12.0136   ZY=    -1.5031
   XZ=     8.4260   YZ=   -16.8824   ZZ=    12.7583
   Eigenvalues:     1.4099     9.7920    21.9843
     55  Bq   Isotropic =    13.0758   Anisotropy =    18.7385
   XX=     9.4484   YX=    -0.4190   ZX=    -0.5354
   XY=     0.6147   YY=    13.2172   ZY=    -2.5105
   XZ=     8.5744   YZ=   -17.4233   ZZ=    16.5617
   Eigenvalues:     3.4940    10.1651    25.5681
     56  Bq   Isotropic =    15.6722   Anisotropy =    21.3289
   XX=    10.7073   YX=    -1.1427   ZX=    -0.5955
   XY=    -0.4618   YY=    14.0508   ZY=    -3.1972
   XZ=     8.2934   YZ=   -17.3085   ZZ=    22.2586
   Eigenvalues:     6.4965    10.6287    29.8915
     57  Bq   Isotropic =    18.2819   Anisotropy =    24.1266
   XX=    11.7910   YX=    -1.6711   ZX=    -0.5858
   XY=    -1.3160   YY=    14.2780   ZY=    -3.4796
   XZ=     7.5349   YZ=   -16.1646   ZZ=    28.7767
   Eigenvalues:     9.2915    11.1879    34.3663
     58  Bq   Isotropic =    20.1454   Anisotropy =    26.8634
   XX=    12.3505   YX=    -1.8666   ZX=    -0.6376
   XY=    -1.7543   YY=    13.6506   ZY=    -3.4547
   XZ=     6.3027   YZ=   -14.0666   ZZ=    34.4350
   Eigenvalues:    10.1560    12.2258    38.0543
     59  Bq   Isotropic =    20.7731   Anisotropy =    28.9406
   XX=    12.3713   YX=    -1.7459   ZX=    -0.7983
   XY=    -1.8048   YY=    12.0864   ZY=    -3.2895
   XZ=     4.8549   YZ=   -11.5913   ZZ=    37.8617
   Eigenvalues:     9.5534    12.6991    40.0668
     60  Bq   Isotropic =    20.3079   Anisotropy =    29.9635
   XX=    12.1270   YX=    -1.4333   ZX=    -0.9057
   XY=    -1.5816   YY=     9.9207   ZY=    -3.1229
   XZ=     3.6658   YZ=    -9.4694   ZZ=    38.8759
   Eigenvalues:     8.2358    12.4043    40.2836
     61  Bq   Isotropic =    19.3792   Anisotropy =    30.1281
   XX=    11.8916   YX=    -1.0381   ZX=    -0.7362
   XY=    -1.1359   YY=     7.8413   ZY=    -3.0291
   XZ=     3.0707   YZ=    -8.1762   ZZ=    38.4048
   Eigenvalues:     6.7005    11.9726    39.4646
     62  Bq   Isotropic =    18.6265   Anisotropy =    29.9296
   XX=    11.7869   YX=    -0.6212   ZX=    -0.2774
   XY=    -0.5026   YY=     6.5118   ZY=    -3.0051
   XZ=     2.9889   YZ=    -7.8593   ZZ=    37.5807
   Eigenvalues:     5.5720    11.7279    38.5795
     63  Bq   Isotropic =    18.3369   Anisotropy =    29.6137
   XX=    11.8316   YX=    -0.2321   ZX=     0.2278
   XY=     0.2076   YY=     6.2460   ZY=    -3.0177
   XZ=     2.9960   YZ=    -8.5289   ZZ=    36.9330
   Eigenvalues:     5.1842    11.7472    38.0793
     64  Bq   Isotropic =    18.3426   Anisotropy =    28.9232
   XX=    12.0078   YX=     0.0901   ZX=     0.5014
   XY=     0.8396   YY=     6.9029   ZY=    -3.0579
   XZ=     2.6121   YZ=   -10.1740   ZZ=    36.1171
   Eigenvalues:     5.3811    12.0220    37.6247
     65  Bq   Isotropic =    18.1299   Anisotropy =    27.3792
   XX=    12.2301   YX=     0.3199   ZX=     0.4725
   XY=     1.2572   YY=     7.9905   ZY=    -3.1228
   XZ=     1.6050   YZ=   -12.6324   ZZ=    34.1692
   Eigenvalues:     5.6389    12.3681    36.3828
     66  Bq   Isotropic =    17.1669   Anisotropy =    24.8521
   XX=    12.2901   YX=     0.4019   ZX=     0.2961
   XY=     1.3317   YY=     8.9473   ZY=    -3.1695
   XZ=     0.1376   YZ=   -15.3825   ZZ=    30.2631
   Eigenvalues:     5.3622    12.4035    33.7349
     67  Bq   Isotropic =    15.3259   Anisotropy =    21.8376
   XX=    11.9456   YX=     0.2562   ZX=     0.1361
   XY=     0.9641   YY=     9.4510   ZY=    -3.0947
   XZ=    -1.3783   YZ=   -17.6299   ZZ=    24.5809
   Eigenvalues:     4.1772    11.9161    29.8842
     68  Bq   Isotropic =    13.1145   Anisotropy =    21.7290
   XX=     9.7836   YX=    -0.5001   ZX=    -0.1614
   XY=    -0.1386   YY=     7.6834   ZY=    -2.6348
   XZ=    -0.5254   YZ=   -18.7168   ZZ=    21.8765
   Eigenvalues:     1.9356     9.8074    27.6005
     69  Bq   Isotropic =    12.2773   Anisotropy =    20.3640
   XX=     9.4023   YX=    -0.5555   ZX=    -0.3044
   XY=    -0.2998   YY=     7.7763   ZY=    -2.2364
   XZ=    -0.7338   YZ=   -18.9293   ZZ=    19.6534
   Eigenvalues:     1.5290     9.4497    25.8533
     70  Bq   Isotropic =    11.5788   Anisotropy =    19.1817
   XX=     9.0231   YX=    -0.5668   ZX=    -0.4621
   XY=    -0.3946   YY=     7.8008   ZY=    -1.7794
   XZ=    -0.6696   YZ=   -18.8934   ZZ=    17.9124
   Eigenvalues:     1.2853     9.0844    24.3666
     71  Bq   Isotropic =    11.0760   Anisotropy =    18.2563
   XX=     8.6818   YX=    -0.5101   ZX=    -0.6071
   XY=    -0.3751   YY=     7.7996   ZY=    -1.3303
   XZ=    -0.3065   YZ=   -18.7078   ZZ=    16.7466
   Eigenvalues:     1.2490     8.7321    23.2469
     72  Bq   Isotropic =    10.7792   Anisotropy =    17.6314
   XX=     8.3998   YX=    -0.3813   ZX=    -0.7128
   XY=    -0.2280   YY=     7.8268   ZY=    -0.9618
   XZ=     0.3477   YZ=   -18.4756   ZZ=    16.1109
   Eigenvalues:     1.3864     8.4177    22.5334
     73  Bq   Isotropic =    10.6674   Anisotropy =    17.3191
   XX=     8.1883   YX=    -0.2008   ZX=    -0.7658
   XY=     0.0199   YY=     7.9309   ZY=    -0.7336
   XZ=     1.2413   YZ=   -18.2744   ZZ=    15.8828
   Eigenvalues:     1.6042     8.1844    22.2134
     74  Bq   Isotropic =    10.7140   Anisotropy =    17.3107
   XX=     8.0573   YX=    -0.0076   ZX=    -0.7756
   XY=     0.3100   YY=     8.1403   ZY=    -0.6810
   XZ=     2.2776   YZ=   -18.1489   ZZ=    15.9444
   Eigenvalues:     1.8036     8.0840    22.2545
     75  Bq   Isotropic =    10.9087   Anisotropy =    17.5964
   XX=     8.0191   YX=     0.1517   ZX=    -0.7706
   XY=     0.5691   YY=     8.4559   ZY=    -0.8123
   XZ=     3.3297   YZ=   -18.1154   ZZ=    16.2512
   Eigenvalues:     1.9490     8.1376    22.6396
     76  Bq   Isotropic =    11.2641   Anisotropy =    18.1737
   XX=     8.0872   YX=     0.2367   ZX=    -0.7818
   XY=     0.7298   YY=     8.8497   ZY=    -1.1086
   XZ=     4.2727   YZ=   -18.1652   ZZ=    16.8555
   Eigenvalues:     2.1000     8.3125    23.3799
     77  Bq   Isotropic =    11.8040   Anisotropy =    19.0369
   XX=     8.2714   YX=     0.2254   ZX=    -0.8253
   XY=     0.7495   YY=     9.2685   ZY=    -1.5263
   XZ=     5.0119   YZ=   -18.2609   ZZ=    17.8723
   Eigenvalues:     2.3653     8.5515    24.4953
     78  Bq   Isotropic =    12.5383   Anisotropy =    20.1582
   XX=     8.5693   YX=     0.1207   ZX=    -0.8968
   XY=     0.6222   YY=     9.6411   ZY=    -2.0009
   XZ=     5.4948   YZ=   -18.3319   ZZ=    19.4045
   Eigenvalues:     2.8233     8.8145    25.9771
     79  Bq   Isotropic =    13.4363   Anisotropy =    21.4779
   XX=     8.9575   YX=    -0.0498   ZX=    -0.9795
   XY=     0.3812   YY=     9.8908   ZY=    -2.4588
   XZ=     5.7046   YZ=   -18.2835   ZZ=    21.4606
   Eigenvalues:     3.4641     9.0899    27.7549
     80  Bq   Isotropic =    14.4137   Anisotropy =    22.9072
   XX=     9.3884   YX=    -0.2427   ZX=    -1.0553
   XY=     0.0877   YY=     9.9506   ZY=    -2.8360
   XZ=     5.6487   YZ=   -18.0267   ZZ=    23.9021
   Eigenvalues:     4.1738     9.3822    29.6852
     81  Bq   Isotropic =    15.3432   Anisotropy =    24.3324
   XX=     9.8010   YX=    -0.4138   ZX=    -1.1104
   XY=    -0.1893   YY=     9.7786   ZY=    -3.0969
   XZ=     5.3565   YZ=   -17.5226   ZZ=    26.4501
   Eigenvalues:     4.7716     9.6933    31.5648
     82  Bq   Isotropic =    16.0934   Anisotropy =    25.6235
   XX=    10.1434   YX=    -0.5319   ZX=    -1.1314
   XY=    -0.3950   YY=     9.3728   ZY=    -3.2421
   XZ=     4.8842   YZ=   -16.8151   ZZ=    28.7641
   Eigenvalues:     5.1002    10.0043    33.1757
     83  Bq   Isotropic =    16.5779   Anisotropy =    26.6580
   XX=    10.3918   YX=    -0.5863   ZX=    -1.0999
   XY=    -0.4993   YY=     8.7831   ZY=    -3.3006
   XZ=     4.3129   YZ=   -16.0306   ZZ=    30.5587
   Eigenvalues:     5.1110    10.2728    34.3499
     84  Bq   Isotropic =    16.7857   Anisotropy =    27.3557
   XX=    10.5523   YX=    -0.5838   ZX=    -0.9966
   XY=    -0.4974   YY=     8.1114   ZY=    -3.3114
   XZ=     3.7281   YZ=   -15.3378   ZZ=    31.6933
   Eigenvalues:     4.8692    10.4649    35.0228
     85  Bq   Isotropic =    16.7704   Anisotropy =    27.6960
   XX=    10.6456   YX=    -0.5416   ZX=    -0.8161
   XY=    -0.4036   YY=     7.4883   ZY=    -3.3056
   XZ=     3.1861   YZ=   -14.8928   ZZ=    32.1772
   Eigenvalues:     4.4961    10.5806    35.2343
     86  Bq   Isotropic =    16.6062   Anisotropy =    27.6976
   XX=    10.6910   YX=    -0.4802   ZX=    -0.5812
   XY=    -0.2484   YY=     7.0328   ZY=    -3.2988
   XZ=     2.6911   YZ=   -14.7980   ZZ=    32.0948
   Eigenvalues:     4.1074    10.6400    35.0712
     87  Bq   Isotropic =    16.3406   Anisotropy =    27.3803
   XX=    10.6969   YX=    -0.4195   ZX=    -0.3400
   XY=    -0.0744   YY=     6.8124   ZY=    -3.2918
   XZ=     2.2031   YZ=   -15.0841   ZZ=    31.5126
   Eigenvalues:     3.7690    10.6587    34.5942
     88  Bq   Isotropic =    15.9730   Anisotropy =    26.7456
   XX=    10.6590   YX=    -0.3759   ZX=    -0.1456
   XY=     0.0711   YY=     6.8241   ZY=    -3.2747
   XZ=     1.6731   YZ=   -15.7066   ZZ=    30.4360
   Eigenvalues:     3.4807    10.6350    33.8035
     89  Bq   Isotropic =    15.4693   Anisotropy =    25.7961
   XX=    10.5620   YX=    -0.3612   ZX=    -0.0321
   XY=     0.1472   YY=     7.0043   ZY=    -3.2283
   XZ=     1.0832   YZ=   -16.5490   ZZ=    28.8418
   Eigenvalues:     3.1909    10.5504    32.6667
     90  Bq   Isotropic =    14.8026   Anisotropy =    24.5734
   XX=    10.3867   YX=    -0.3813   ZX=    -0.0063
   XY=     0.1306   YY=     7.2601   ZY=    -3.1247
   XZ=     0.4673   YZ=   -17.4422   ZZ=    26.7609
   Eigenvalues:     2.8394    10.3835    31.1849
     91  Bq   Isotropic =    13.9922   Anisotropy =    23.1744
   XX=    10.1233   YX=    -0.4327   ZX=    -0.0556
   XY=     0.0241   YY=     7.5053   ZY=    -2.9333
   XZ=    -0.0989   YZ=   -18.2078   ZZ=    24.3482
   Eigenvalues:     2.4055    10.1294    29.4418
     92  Bq   Isotropic =    14.3829   Anisotropy =    25.2284
   XX=     8.3122   YX=    -0.2816   ZX=    -3.2523
   XY=    -0.2390   YY=     8.7529   ZY=     0.7482
   XZ=   -16.1450   YZ=     8.5481   ZZ=    26.0836
   Eigenvalues:     3.4619     8.4850    31.2018
     93  Bq   Isotropic =    14.3829   Anisotropy =    25.2284
   XX=     8.3122   YX=    -0.2816   ZX=    -3.2523
   XY=    -0.2390   YY=     8.7529   ZY=     0.7482
   XZ=   -16.1450   YZ=     8.5481   ZZ=    26.0836
   Eigenvalues:     3.4619     8.4850    31.2018
     94  Bq   Isotropic =    14.3829   Anisotropy =    25.2284
   XX=     8.3122   YX=    -0.2816   ZX=    -3.2523
   XY=    -0.2390   YY=     8.7529   ZY=     0.7482
   XZ=   -16.1450   YZ=     8.5481   ZZ=    26.0836
   Eigenvalues:     3.4619     8.4850    31.2018
     95  Bq   Isotropic =    14.3829   Anisotropy =    25.2284
   XX=     8.3122   YX=    -0.2816   ZX=    -3.2523
   XY=    -0.2390   YY=     8.7529   ZY=     0.7482
   XZ=   -16.1450   YZ=     8.5481   ZZ=    26.0836
   Eigenvalues:     3.4619     8.4850    31.2018
     96  Bq   Isotropic =    14.3829   Anisotropy =    25.2284
   XX=     8.3122   YX=    -0.2816   ZX=    -3.2523
   XY=    -0.2390   YY=     8.7529   ZY=     0.7482
   XZ=   -16.1450   YZ=     8.5481   ZZ=    26.0836
   Eigenvalues:     3.4619     8.4850    31.2018
     97  Bq   Isotropic =    14.3829   Anisotropy =    25.2284
   XX=     8.3122   YX=    -0.2816   ZX=    -3.2523
   XY=    -0.2390   YY=     8.7529   ZY=     0.7482
   XZ=   -16.1450   YZ=     8.5481   ZZ=    26.0836
   Eigenvalues:     3.4619     8.4850    31.2018
     98  Bq   Isotropic =    14.3829   Anisotropy =    25.2284
   XX=     8.3122   YX=    -0.2816   ZX=    -3.2523
   XY=    -0.2390   YY=     8.7529   ZY=     0.7482
   XZ=   -16.1450   YZ=     8.5481   ZZ=    26.0836
   Eigenvalues:     3.4619     8.4850    31.2018
     99  Bq   Isotropic =    14.3829   Anisotropy =    25.2284
   XX=     8.3122   YX=    -0.2816   ZX=    -3.2523
   XY=    -0.2390   YY=     8.7529   ZY=     0.7482
   XZ=   -16.1450   YZ=     8.5481   ZZ=    26.0836
   Eigenvalues:     3.4619     8.4850    31.2018
    100  Bq   Isotropic =    14.3829   Anisotropy =    25.2284
   XX=     8.3122   YX=    -0.2816   ZX=    -3.2523
   XY=    -0.2390   YY=     8.7529   ZY=     0.7482
   XZ=   -16.1450   YZ=     8.5481   ZZ=    26.0836
   Eigenvalues:     3.4619     8.4850    31.2018
    101  Bq   Isotropic =    14.3829   Anisotropy =    25.2284
   XX=     8.3122   YX=    -0.2816   ZX=    -3.2523
   XY=    -0.2390   YY=     8.7529   ZY=     0.7482
   XZ=   -16.1450   YZ=     8.5481   ZZ=    26.0836
   Eigenvalues:     3.4619     8.4850    31.2018
    102  Bq   Isotropic =    14.3829   Anisotropy =    25.2284
   XX=     8.3122   YX=    -0.2816   ZX=    -3.2523
   XY=    -0.2390   YY=     8.7529   ZY=     0.7482
   XZ=   -16.1450   YZ=     8.5481   ZZ=    26.0836
   Eigenvalues:     3.4619     8.4850    31.2018
    103  Bq   Isotropic =    14.3829   Anisotropy =    25.2284
   XX=     8.3122   YX=    -0.2816   ZX=    -3.2523
   XY=    -0.2390   YY=     8.7529   ZY=     0.7482
   XZ=   -16.1450   YZ=     8.5481   ZZ=    26.0836
   Eigenvalues:     3.4619     8.4850    31.2018
    104  Bq   Isotropic =    14.3829   Anisotropy =    25.2284
   XX=     8.3122   YX=    -0.2816   ZX=    -3.2523
   XY=    -0.2390   YY=     8.7529   ZY=     0.7482
   XZ=   -16.1450   YZ=     8.5481   ZZ=    26.0836
   Eigenvalues:     3.4619     8.4850    31.2018
    105  Bq   Isotropic =    14.3829   Anisotropy =    25.2284
   XX=     8.3122   YX=    -0.2816   ZX=    -3.2523
   XY=    -0.2390   YY=     8.7529   ZY=     0.7482
   XZ=   -16.1450   YZ=     8.5481   ZZ=    26.0836
   Eigenvalues:     3.4619     8.4850    31.2018
    106  Bq   Isotropic =    14.3829   Anisotropy =    25.2284
   XX=     8.3122   YX=    -0.2816   ZX=    -3.2523
   XY=    -0.2390   YY=     8.7529   ZY=     0.7482
   XZ=   -16.1450   YZ=     8.5481   ZZ=    26.0836
   Eigenvalues:     3.4619     8.4850    31.2018
    107  Bq   Isotropic =    14.3829   Anisotropy =    25.2284
   XX=     8.3122   YX=    -0.2816   ZX=    -3.2523
   XY=    -0.2390   YY=     8.7529   ZY=     0.7482
   XZ=   -16.1450   YZ=     8.5481   ZZ=    26.0836
   Eigenvalues:     3.4619     8.4850    31.2018
    108  Bq   Isotropic =    14.3829   Anisotropy =    25.2284
   XX=     8.3122   YX=    -0.2816   ZX=    -3.2523
   XY=    -0.2390   YY=     8.7529   ZY=     0.7482
   XZ=   -16.1450   YZ=     8.5481   ZZ=    26.0836
   Eigenvalues:     3.4619     8.4850    31.2018
    109  Bq   Isotropic =    14.3829   Anisotropy =    25.2284
   XX=     8.3122   YX=    -0.2816   ZX=    -3.2523
   XY=    -0.2390   YY=     8.7529   ZY=     0.7482
   XZ=   -16.1450   YZ=     8.5481   ZZ=    26.0836
   Eigenvalues:     3.4619     8.4850    31.2018
    110  Bq   Isotropic =    14.3829   Anisotropy =    25.2284
   XX=     8.3122   YX=    -0.2816   ZX=    -3.2523
   XY=    -0.2390   YY=     8.7529   ZY=     0.7482
   XZ=   -16.1450   YZ=     8.5481   ZZ=    26.0836
   Eigenvalues:     3.4619     8.4850    31.2018
    111  Bq   Isotropic =    14.3829   Anisotropy =    25.2284
   XX=     8.3122   YX=    -0.2816   ZX=    -3.2523
   XY=    -0.2390   YY=     8.7529   ZY=     0.7482
   XZ=   -16.1450   YZ=     8.5481   ZZ=    26.0836
   Eigenvalues:     3.4619     8.4850    31.2018
    112  Bq   Isotropic =    14.3829   Anisotropy =    25.2284
   XX=     8.3122   YX=    -0.2816   ZX=    -3.2523
   XY=    -0.2390   YY=     8.7529   ZY=     0.7482
   XZ=   -16.1450   YZ=     8.5481   ZZ=    26.0836
   Eigenvalues:     3.4619     8.4850    31.2018
    113  Bq   Isotropic =    14.3829   Anisotropy =    25.2284
   XX=     8.3122   YX=    -0.2816   ZX=    -3.2523
   XY=    -0.2390   YY=     8.7529   ZY=     0.7482
   XZ=   -16.1450   YZ=     8.5481   ZZ=    26.0836
   Eigenvalues:     3.4619     8.4850    31.2018
    114  Bq   Isotropic =    14.3829   Anisotropy =    25.2284
   XX=     8.3122   YX=    -0.2816   ZX=    -3.2523
   XY=    -0.2390   YY=     8.7529   ZY=     0.7482
   XZ=   -16.1450   YZ=     8.5481   ZZ=    26.0836
   Eigenvalues:     3.4619     8.4850    31.2018
    115  Bq   Isotropic =    14.3829   Anisotropy =    25.2284
   XX=     8.3122   YX=    -0.2816   ZX=    -3.2523
   XY=    -0.2390   YY=     8.7529   ZY=     0.7482
   XZ=   -16.1450   YZ=     8.5481   ZZ=    26.0836
   Eigenvalues:     3.4619     8.4850    31.2018
    116  Bq   Isotropic =    17.4798   Anisotropy =    29.3839
   XX=     8.1344   YX=     0.1098   ZX=    -4.1399
   XY=     0.4377   YY=    10.5379   ZY=     0.8472
   XZ=   -12.9284   YZ=     8.4399   ZZ=    33.7672
   Eigenvalues:     5.0267    10.3438    37.0691
    117  Bq   Isotropic =    17.2255   Anisotropy =    28.5118
   XX=     8.6710   YX=    -0.2036   ZX=    -4.1046
   XY=     0.0423   YY=    10.5155   ZY=     0.7290
   XZ=   -13.1759   YZ=     9.5377   ZZ=    32.4901
   Eigenvalues:     5.3461    10.0972    36.2334
    118  Bq   Isotropic =    16.7126   Anisotropy =    27.3407
   XX=     9.2103   YX=    -0.4758   ZX=    -3.9910
   XY=    -0.3671   YY=    10.3251   ZY=     0.6576
   XZ=   -13.5173   YZ=    10.6205   ZZ=    30.6025
   Eigenvalues:     5.4902     9.7079    34.9398
    119  Bq   Isotropic =    15.9482   Anisotropy =    25.9528
   XX=     9.6594   YX=    -0.6657   ZX=    -3.7785
   XY=    -0.7301   YY=     9.9469   ZY=     0.5960
   XZ=   -13.8553   YZ=    11.5252   ZZ=    28.2385
   Eigenvalues:     5.3612     9.2334    33.2501
    120  Bq   Isotropic =    15.0134   Anisotropy =    24.4680
   XX=     9.9572   YX=    -0.7581   ZX=    -3.4558
   XY=    -1.0035   YY=     9.4104   ZY=     0.5115
   XZ=   -14.1236   YZ=    12.1161   ZZ=    25.6727
   Eigenvalues:     4.9530     8.7619    31.3254
    121  Bq   Isotropic =    14.0353   Anisotropy =    23.0125
   XX=    10.0760   YX=    -0.7648   ZX=    -3.0344
   XY=    -1.1662   YY=     8.7946   ZY=     0.3903
   XZ=   -14.3102   YZ=    12.3214   ZZ=    23.2354
   Eigenvalues:     4.3888     8.3401    29.3770
    122  Bq   Isotropic =    13.1391   Anisotropy =    21.6979
   XX=    10.0148   YX=    -0.7194   ZX=    -2.5564
   XY=    -1.2217   YY=     8.2036   ZY=     0.2388
   XZ=   -14.4595   YZ=    12.1354   ZZ=    21.1988
   Eigenvalues:     3.8534     7.9595    27.6043
    123  Bq   Isotropic =    12.4096   Anisotropy =    20.6127
   XX=     9.7966   YX=    -0.6671   ZX=    -2.0889
   XY=    -1.1952   YY=     7.7323   ZY=     0.0751
   XZ=   -14.6471   YZ=    11.5979   ZZ=    19.6999
   Eigenvalues:     3.4759     7.6015    26.1514
    124  Bq   Isotropic =    11.8795   Anisotropy =    19.8178
   XX=     9.4658   YX=    -0.6493   ZX=    -1.7049
   XY=    -1.1244   YY=     7.4409   ZY=    -0.0775
   XZ=   -14.9426   YZ=    10.7757   ZZ=    18.7317
   Eigenvalues:     3.2713     7.2758    25.0913
    125  Bq   Isotropic =    11.5417   Anisotropy =    19.3414
   XX=     9.0831   YX=    -0.6891   ZX=    -1.4617
   XY=    -1.0451   YY=     7.3461   ZY=    -0.1915
   XZ=   -15.3782   YZ=     9.7565   ZZ=    18.1959
   Eigenvalues:     3.1489     7.0402    24.4360
    126  Bq   Isotropic =    11.3754   Anisotropy =    19.1862
   XX=     8.7158   YX=    -0.7837   ZX=    -1.3879
   XY=    -0.9803   YY=     7.4266   ZY=    -0.2338
   XZ=   -15.9387   YZ=     8.6493   ZZ=    17.9836
   Eigenvalues:     2.9801     6.9797    24.1662
    127  Bq   Isotropic =    11.3701   Anisotropy =    19.3474
   XX=     8.4247   YX=    -0.9062   ZX=    -1.4834
   XY=    -0.9345   YY=     7.6373   ZY=    -0.1721
   XZ=   -16.5701   YZ=     7.5752   ZZ=    18.0482
   Eigenvalues:     2.7165     7.1254    24.2684
    128  Bq   Isotropic =    11.5369   Anisotropy =    19.8268
   XX=     8.2510   YX=    -1.0135   ZX=    -1.7259
   XY=    -0.8951   YY=     7.9245   ZY=     0.0113
   XZ=   -17.1975   YZ=     6.6443   ZZ=    18.4352
   Eigenvalues:     2.4396     7.4163    24.7548
    129  Bq   Isotropic =    11.9003   Anisotropy =    20.6270
   XX=     8.2046   YX=    -1.0582   ZX=    -2.0782
   XY=    -0.8371   YY=     8.2407   ZY=     0.3060
   XZ=   -17.7374   YZ=     5.9278   ZZ=    19.2557
   Eigenvalues:     2.2807     7.7686    25.6517
    130  Bq   Isotropic =    12.4759   Anisotropy =    21.7319
   XX=     8.2574   YX=    -1.0022   ZX=    -2.4918
   XY=    -0.7323   YY=     8.5540   ZY=     0.6711
   XZ=   -18.1008   YZ=     5.4451   ZZ=    20.6161
   Eigenvalues:     2.3315     8.1322    26.9638
    131  Bq   Isotropic =    13.2448   Anisotropy =    23.0895
   XX=     8.3482   YX=    -0.8298   ZX=    -2.9107
   XY=    -0.5608   YY=     8.8486   ZY=     1.0480
   XZ=   -18.1982   YZ=     5.1719   ZZ=    22.5377
   Eigenvalues:     2.6030     8.4937    28.6378
    132  Bq   Isotropic =    14.1400   Anisotropy =    24.6067
   XX=     8.4000   YX=    -0.5548   ZX=    -3.2809
   XY=    -0.3197   YY=     9.1178   ZY=     1.3794
   XZ=   -17.9583   YZ=     5.0629   ZZ=    24.9022
   Eigenvalues:     3.0206     8.8549    30.5445
    133  Bq   Isotropic =    15.0539   Anisotropy =    26.1546
   XX=     8.3488   YX=    -0.2169   ZX=    -3.5650
   XY=    -0.0246   YY=     9.3581   ZY=     1.6238
   XZ=   -17.3620   YZ=     5.0759   ZZ=    27.4547
   Eigenvalues:     3.4563     9.2151    32.4902
    134  Bq   Isotropic =    15.8714   Anisotropy =    27.5828
   XX=     8.1716   YX=     0.1308   ZX=    -3.7537
[...]
    16  H    0.128962
    17  H    0.121839
    18  H    0.121839
    19  Bq   0.000000
    20  Bq   0.000000
    21  Bq   0.000000
    22  Bq   0.000000
    23  Bq   0.000000
    24  Bq   0.000000
    25  Bq   0.000000
    26  Bq   0.000000
    27  Bq   0.000000
    28  Bq   0.000000
    29  Bq   0.000000
    30  Bq   0.000000
    31  Bq   0.000000
    32  Bq   0.000000
    33  Bq   0.000000
    34  Bq   0.000000
    35  Bq   0.000000
    36  Bq   0.000000
    37  Bq   0.000000
    38  Bq   0.000000
    39  Bq   0.000000
    40  Bq   0.000000
    41  Bq   0.000000
    42  Bq   0.000000
    43  Bq   0.000000
    44  Bq   0.000000
    45  Bq   0.000000
    46  Bq   0.000000
    47  Bq   0.000000
    48  Bq   0.000000
    49  Bq   0.000000
    50  Bq   0.000000
    51  Bq   0.000000
    52  Bq   0.000000
    53  Bq   0.000000
    54  Bq   0.000000
    55  Bq   0.000000
    56  Bq   0.000000
    57  Bq   0.000000
    58  Bq   0.000000
    59  Bq   0.000000
    60  Bq   0.000000
    61  Bq   0.000000
    62  Bq   0.000000
    63  Bq   0.000000
    64  Bq   0.000000
    65  Bq   0.000000
    66  Bq   0.000000
    67  Bq   0.000000
    68  Bq   0.000000
    69  Bq   0.000000
    70  Bq   0.000000
    71  Bq   0.000000
    72  Bq   0.000000
    73  Bq   0.000000
    74  Bq   0.000000
    75  Bq   0.000000
    76  Bq   0.000000
    77  Bq   0.000000
    78  Bq   0.000000
    79  Bq   0.000000
    80  Bq   0.000000
    81  Bq   0.000000
    82  Bq   0.000000
    83  Bq   0.000000
    84  Bq   0.000000
    85  Bq   0.000000
    86  Bq   0.000000
    87  Bq   0.000000
    88  Bq   0.000000
    89  Bq   0.000000
    90  Bq   0.000000
    91  Bq   0.000000
    92  Bq   0.000000
    93  Bq   0.000000
    94  Bq   0.000000
    95  Bq   0.000000
    96  Bq   0.000000
    97  Bq   0.000000
    98  Bq   0.000000
    99  Bq   0.000000
   100  Bq   0.000000
   101  Bq   0.000000
   102  Bq   0.000000
   103  Bq   0.000000
   104  Bq   0.000000
   105  Bq   0.000000
   106  Bq   0.000000
   107  Bq   0.000000
   108  Bq   0.000000
   109  Bq   0.000000
   110  Bq   0.000000
   111  Bq   0.000000
   112  Bq   0.000000
   113  Bq   0.000000
   114  Bq   0.000000
   115  Bq   0.000000
   116  Bq   0.000000
   117  Bq   0.000000
   118  Bq   0.000000
   119  Bq   0.000000
   120  Bq   0.000000
   121  Bq   0.000000
   122  Bq   0.000000
   123  Bq   0.000000
   124  Bq   0.000000
   125  Bq   0.000000
   126  Bq   0.000000
   127  Bq   0.000000
   128  Bq   0.000000
   129  Bq   0.000000
   130  Bq   0.000000
   131  Bq   0.000000
   132  Bq   0.000000
   133  Bq   0.000000
   134  Bq   0.000000
   135  Bq   0.000000
   136  Bq   0.000000
   137  Bq   0.000000
   138  Bq   0.000000
   139  Bq   0.000000
   140  Bq   0.000000
   141  Bq   0.000000
   142  Bq   0.000000
   143  Bq   0.000000
   144  Bq   0.000000
   145  Bq   0.000000
   146  Bq   0.000000
   147  Bq   0.000000
   148  Bq   0.000000
   149  Bq   0.000000
   150  Bq   0.000000
   151  Bq   0.000000
   152  Bq   0.000000
   153  Bq   0.000000
   154  Bq   0.000000
   155  Bq   0.000000
   156  Bq   0.000000
   157  Bq   0.000000
   158  Bq   0.000000
   159  Bq   0.000000
   160  Bq   0.000000
   161  Bq   0.000000
   162  Bq   0.000000
   163  Bq   0.000000
   164  Bq   0.000000
   165  Bq   0.000000
   166  Bq   0.000000
   167  Bq   0.000000
   168  Bq   0.000000
   169  Bq   0.000000
   170  Bq   0.000000
   171  Bq   0.000000
   172  Bq   0.000000
   173  Bq   0.000000
   174  Bq   0.000000
   175  Bq   0.000000
   176  Bq   0.000000
   177  Bq   0.000000
   178  Bq   0.000000
   179  Bq   0.000000
   180  Bq   0.000000
   181  Bq   0.000000
   182  Bq   0.000000
   183  Bq   0.000000
   184  Bq   0.000000
   185  Bq   0.000000
   186  Bq   0.000000
   187  Bq   0.000000
   188  Bq   0.000000
   189  Bq   0.000000
   190  Bq   0.000000
   191  Bq   0.000000
   192  Bq   0.000000
   193  Bq   0.000000
   194  Bq   0.000000
   195  Bq   0.000000
   196  Bq   0.000000
   197  Bq   0.000000
   198  Bq   0.000000
   199  Bq   0.000000
   200  Bq   0.000000
   201  Bq   0.000000
   202  Bq   0.000000
   203  Bq   0.000000
   204  Bq   0.000000
   205  Bq   0.000000
   206  Bq   0.000000
   207  Bq   0.000000
   208  Bq   0.000000
   209  Bq   0.000000
   210  Bq   0.000000
   211  Bq   0.000000
   212  Bq   0.000000
   213  Bq   0.000000
   214  Bq   0.000000
   215  Bq   0.000000
   216  Bq   0.000000
   217  Bq   0.000000
   218  Bq   0.000000
 Sum of Mulliken charges =   0.00000
 Mulliken charges with hydrogens summed into heavy atoms:
               1
     1  C   -0.142297
     2  C   -0.142297
     3  C    0.040055
     4  C    0.204484
     5  C   -0.081784
     6  C   -0.271259
     7  C   -0.142297
     8  C    0.040055
     9  C    0.204484
    10  C    0.040055
    19  Bq   0.000000
    20  Bq   0.000000
    21  Bq   0.000000
    22  Bq   0.000000
    23  Bq   0.000000
    24  Bq   0.000000
    25  Bq   0.000000
    26  Bq   0.000000
    27  Bq   0.000000
    28  Bq   0.000000
    29  Bq   0.000000
    30  Bq   0.121839
    31  Bq   0.000000
    32  Bq   0.000000
    33  Bq   0.000000
    34  Bq   0.000000
    35  Bq   0.000000
    36  Bq   0.000000
    37  Bq   0.000000
    38  Bq   0.000000
    39  Bq   0.000000
    40  Bq   0.000000
    41  Bq   0.000000
    42  Bq   0.000000
    43  Bq   0.000000
    44  Bq   0.000000
    45  Bq   0.000000
    46  Bq   0.000000
    47  Bq   0.000000
    48  Bq   0.000000
    49  Bq   0.000000
    50  Bq   0.000000
    51  Bq   0.000000
    52  Bq   0.000000
    53  Bq   0.000000
    54  Bq   0.000000
    55  Bq   0.000000
    56  Bq   0.000000
    57  Bq   0.000000
    58  Bq   0.000000
    59  Bq   0.000000
    60  Bq   0.000000
    61  Bq   0.000000
    62  Bq   0.000000
    63  Bq   0.000000
    64  Bq   0.000000
    65  Bq   0.000000
    66  Bq   0.000000
    67  Bq   0.000000
    68  Bq   0.000000
    69  Bq   0.000000
    70  Bq   0.000000
    71  Bq   0.000000
    72  Bq   0.000000
    73  Bq   0.000000
    74  Bq   0.000000
    75  Bq   0.000000
    76  Bq   0.000000
    77  Bq   0.000000
    78  Bq   0.000000
    79  Bq   0.000000
    80  Bq   0.000000
    81  Bq   0.000000
    82  Bq   0.000000
    83  Bq   0.000000
    84  Bq   0.000000
    85  Bq   0.000000
    86  Bq   0.000000
    87  Bq   0.000000
    88  Bq   0.000000
    89  Bq   0.000000
    90  Bq   0.000000
    91  Bq   0.000000
    92  Bq   0.000000
    93  Bq   0.000000
    94  Bq   0.000000
    95  Bq   0.000000
    96  Bq   0.000000
    97  Bq   0.000000
    98  Bq   0.000000
    99  Bq   0.000000
   100  Bq   0.000000
   101  Bq   0.000000
   102  Bq   0.000000
   103  Bq   0.000000
   104  Bq   0.000000
   105  Bq   0.000000
   106  Bq   0.000000
   107  Bq   0.000000
   108  Bq   0.000000
   109  Bq   0.000000
   110  Bq   0.000000
   111  Bq   0.000000
   112  Bq   0.000000
   113  Bq   0.000000
   114  Bq   0.000000
   115  Bq   0.000000
   116  Bq   0.000000
   117  Bq   0.000000
   118  Bq   0.000000
   119  Bq   0.000000
   120  Bq   0.000000
   121  Bq   0.000000
   122  Bq   0.000000
   123  Bq   0.000000
   124  Bq   0.000000
   125  Bq   0.000000
   126  Bq   0.000000
   127  Bq   0.000000
   128  Bq   0.000000
   129  Bq   0.000000
   130  Bq   0.000000
   131  Bq   0.000000
   132  Bq   0.000000
   133  Bq   0.000000
   134  Bq   0.000000
   135  Bq   0.000000
   136  Bq   0.000000
   137  Bq   0.000000
   138  Bq   0.000000
   139  Bq   0.000000
   140  Bq   0.000000
   141  Bq   0.000000
   142  Bq   0.000000
   143  Bq   0.000000
   144  Bq   0.000000
   145  Bq   0.000000
   146  Bq   0.000000
   147  Bq   0.000000
   148  Bq   0.000000
   149  Bq   0.000000
   150  Bq   0.000000
   151  Bq   0.000000
   152  Bq   0.000000
   153  Bq   0.000000
   154  Bq   0.000000
   155  Bq   0.000000
   156  Bq   0.000000
   157  Bq   0.000000
   158  Bq   0.000000
   159  Bq   0.000000
   160  Bq   0.000000
   161  Bq   0.000000
   162  Bq   0.000000
   163  Bq   0.000000
   164  Bq   0.000000
   165  Bq   0.000000
   166  Bq   0.000000
   167  Bq   0.000000
   168  Bq   0.000000
   169  Bq   0.000000
   170  Bq   0.000000
   171  Bq   0.000000
   172  Bq   0.000000
   173  Bq   0.000000
   174  Bq   0.000000
   175  Bq   0.000000
   176  Bq   0.000000
   177  Bq   0.000000
   178  Bq   0.000000
   179  Bq   0.000000
   180  Bq   0.000000
   181  Bq   0.000000
   182  Bq   0.000000
   183  Bq   0.000000
   184  Bq   0.000000
   185  Bq   0.000000
   186  Bq   0.000000
   187  Bq   0.000000
   188  Bq   0.000000
   189  Bq   0.000000
   190  Bq   0.128962
   191  Bq   0.000000
   192  Bq   0.000000
   193  Bq   0.000000
   194  Bq   0.000000
   195  Bq   0.000000
   196  Bq   0.000000
   197  Bq   0.000000
   198  Bq   0.000000
   199  Bq   0.000000
   200  Bq   0.000000
   201  Bq   0.000000
   202  Bq   0.000000
   203  Bq   0.000000
   204  Bq   0.000000
   205  Bq   0.000000
   206  Bq   0.000000
   207  Bq   0.000000
   208  Bq   0.000000
   209  Bq   0.000000
   210  Bq   0.000000
   211  Bq   0.000000
   212  Bq   0.000000
   213  Bq   0.000000
   214  Bq   0.000000
   215  Bq   0.000000
   216  Bq   0.000000
   217  Bq   0.000000
   218  Bq   0.000000
 Electronic spatial extent (au):  <R**2>=           1312.5323
 Charge=              0.0000 electrons
 Dipole moment (field-independent basis, Debye):
    X=              0.0000    Y=              0.0000    Z=              0.0000  Tot=              0.0000
 Quadrupole moment (field-independent basis, Debye-Ang):
   XX=            -51.9618   YY=            -52.1216   ZZ=            -65.1252
   XY=              0.0000   XZ=              0.0000   YZ=              0.0000
 Traceless Quadrupole moment (field-independent basis, Debye-Ang):
   XX=              4.4411   YY=              4.2812   ZZ=             -8.7224
   XY=              0.0000   XZ=              0.0000   YZ=              0.0000
 Octapole moment (field-independent basis, Debye-Ang**2):
  XXX=              0.0000  YYY=              0.0000  ZZZ=              0.0000  XYY=              0.0000
  XXY=              0.0000  XXZ=              0.0000  XZZ=              0.0000  YZZ=              0.0000
  YYZ=              0.0000  XYZ=              0.0000
 Hexadecapole moment (field-independent basis, Debye-Ang**3):
 XXXX=          -1119.8966 YYYY=           -498.1664 ZZZZ=            -79.6336 XXXY=              0.0000
 XXXZ=              0.0000 YYYX=              0.0000 YYYZ=              0.0000 ZZZX=              0.0000
 ZZZY=              0.0000 XXYY=           -275.3262 XXZZ=           -249.8350 YYZZ=           -117.4791
 XXYZ=              0.0000 YYXZ=              0.0000 ZZXY=              0.0000
 N-N= 4.538675371600D+02 E-N=-1.802310911208D+03  KE= 3.837199947839D+02
 1\1\GINC-PLANA\SP\RB3LYP\6-311+G(d,p)\C10H8\YANNICK\11-Sep-2020\0\\# r
 b3lyp/6-311+g** NMR geom=connectivity\\Title\\0,1\C,0,2.45076,-0.71174
 ,0.\C,0,2.45076,0.71174,0.\C,0,1.25139,1.41137,0.\C,0,0.,0.72289,0.\C,
 0,-1.25139,1.41137,0.\C,0,-2.45076,0.71174,0.\C,0,-2.45076,-0.71174,0.
 \C,0,-1.25139,-1.41137,0.\C,0,0.,-0.72289,0.\C,0,1.25139,-1.41137,0.\H
 ,0,3.40873,-1.25791,0.\H,0,3.40873,1.25791,0.\H,0,1.24972,2.51472,0.\H
 ,0,-1.24972,2.51472,0.\H,0,-3.40873,1.25791,0.\H,0,-3.40873,-1.25791,0
 .\H,0,-1.24972,-2.51472,0.\H,0,1.24972,-2.51472,0.\Bq,0,-0.3183772981,
 1.66137,-0.2588190451\Bq,0,-0.4148736963,1.8943329131,-0.2588190451\Bq
 ,0,-2.0879063037,1.8943329131,-0.2588190451\Bq,0,-2.1844027019,1.66137
 ,-0.2588190451\Bq,0,-0.4148736963,1.635513868,-0.5\Bq,0,-0.50139,1.844
 3827019,-0.5\Bq,0,-2.00139,1.8443827019,-0.5\Bq,0,-2.0879063037,1.6355
 13868,-0.5\Bq,0,-0.5442832188,1.41137,-0.7071067812\Bq,0,-0.5683772981
 ,1.5943827019,-0.7071067812\Bq,0,-0.6390175643,1.7649233906,-0.7071067
 812\Bq,0,-0.75139,1.91137,-0.7071067812\Bq,0,-1.75139,1.91137,-0.70710
 67812\Bq,0,-1.8637624357,1.7649233906,-0.7071067812\Bq,0,-1.9344027019
 ,1.5943827019,-0.7071067812\Bq,0,-1.9584967812,1.41137,-0.7071067812\B
 q,0,-1.9344027019,1.2283572981,-0.7071067812\Bq,0,-1.75139,0.91137,-0.
 7071067812\Bq,0,-1.6049433906,0.7989975643,-0.7071067812\Bq,0,-1.43440
 27019,0.7283572981,-0.7071067812\Bq,0,-1.0683772981,0.7283572981,-0.70
 71067812\Bq,0,-0.8978366094,0.7989975643,-0.7071067812\Bq,0,-0.75139,0
 .91137,-0.7071067812\Bq,0,-0.6390175643,1.0578166094,-0.7071067812\Bq,
 0,-0.5683772981,1.2283572981,-0.7071067812\Bq,0,-0.75139,1.41137,-0.86
 60254038\Bq,0,-0.7684270869,1.5407795226,-0.8660254038\Bq,0,-0.8183772
 981,1.66137,-0.8660254038\Bq,0,-0.8978366094,1.7649233906,-0.866025403
 8\Bq,0,-1.00139,1.8443827019,-0.8660254038\Bq,0,-1.1219804774,1.894332
 9131,-0.8660254038\Bq,0,-1.25139,1.91137,-0.8660254038\Bq,0,-1.3807995
 226,1.8943329131,-0.8660254038\Bq,0,-1.50139,1.8443827019,-0.866025403
 8\Bq,0,-1.6049433906,1.7649233906,-0.8660254038\Bq,0,-1.6844027019,1.6
 6137,-0.8660254038\Bq,0,-1.7343529131,1.5407795226,-0.8660254038\Bq,0,
 -1.75139,1.41137,-0.8660254038\Bq,0,-1.7343529131,1.2819604774,-0.8660
 254038\Bq,0,-1.6844027019,1.16137,-0.8660254038\Bq,0,-1.6049433906,1.0
 578166094,-0.8660254038\Bq,0,-1.50139,0.9783572981,-0.8660254038\Bq,0,
 -1.3807995226,0.9284070869,-0.8660254038\Bq,0,-1.25139,0.91137,-0.8660
 254038\Bq,0,-1.1219804774,0.9284070869,-0.8660254038\Bq,0,-1.00139,0.9
 783572981,-0.8660254038\Bq,0,-0.8978366094,1.0578166094,-0.8660254038\
 Bq,0,-0.8183772981,1.16137,-0.8660254038\Bq,0,-0.7684270869,1.28196047
 74,-0.8660254038\Bq,0,-0.9925709549,1.41137,-0.9659258263\Bq,0,-1.0013
 9,1.4783572981,-0.9659258263\Bq,0,-1.027246132,1.5407795226,-0.9659258
 263\Bq,0,-1.0683772981,1.5943827019,-0.9659258263\Bq,0,-1.1219804774,1
 .635513868,-0.9659258263\Bq,0,-1.1844027019,1.66137,-0.9659258263\Bq,0
 ,-1.25139,1.6701890451,-0.9659258263\Bq,0,-1.3183772981,1.66137,-0.965
 9258263\Bq,0,-1.3807995226,1.635513868,-0.9659258263\Bq,0,-1.434402701
 9,1.5943827019,-0.9659258263\Bq,0,-1.475533868,1.5407795226,-0.9659258
 263\Bq,0,-1.50139,1.4783572981,-0.9659258263\Bq,0,-1.5102090451,1.4113
 7,-0.9659258263\Bq,0,-1.50139,1.3443827019,-0.9659258263\Bq,0,-1.47553
 3868,1.2819604774,-0.9659258263\Bq,0,-1.4344027019,1.2283572981,-0.965
 9258263\Bq,0,-1.3807995226,1.187226132,-0.9659258263\Bq,0,-1.318377298
 1,1.16137,-0.9659258263\Bq,0,-1.25139,1.1525509549,-0.9659258263\Bq,0,
 -1.1844027019,1.16137,-0.9659258263\Bq,0,-1.1219804774,1.187226132,-0.
 9659258263\Bq,0,-1.0683772981,1.2283572981,-0.9659258263\Bq,0,-1.02724
 6132,1.2819604774,-0.9659258263\Bq,0,-1.00139,1.3443827019,-0.96592582
 63\Bq,0,-2.45076,0.71174,1.\Bq,0,-2.45076,0.71174,1.\Bq,0,-2.45076,0.7
 1174,1.\Bq,0,-2.45076,0.71174,1.\Bq,0,-2.45076,0.71174,1.\Bq,0,-2.4507
 6,0.71174,1.\Bq,0,-2.45076,0.71174,1.\Bq,0,-2.45076,0.71174,1.\Bq,0,-2
 .45076,0.71174,1.\Bq,0,-2.45076,0.71174,1.\Bq,0,-2.45076,0.71174,1.\Bq
 ,0,-2.45076,0.71174,1.\Bq,0,-2.45076,0.71174,1.\Bq,0,-2.45076,0.71174,
 1.\Bq,0,-2.45076,0.71174,1.\Bq,0,-2.45076,0.71174,1.\Bq,0,-2.45076,0.7
 1174,1.\Bq,0,-2.45076,0.71174,1.\Bq,0,-2.45076,0.71174,1.\Bq,0,-2.4507
 6,0.71174,1.\Bq,0,-2.45076,0.71174,1.\Bq,0,-2.45076,0.71174,1.\Bq,0,-2
 .45076,0.71174,1.\Bq,0,-2.45076,0.71174,1.\Bq,0,-2.1919409549,0.71174,
 0.9659258263\Bq,0,-2.20076,0.7787272981,0.9659258263\Bq,0,-2.226616132
 ,0.8411495226,0.9659258263\Bq,0,-2.2677472981,0.8947527019,0.965925826
 3\Bq,0,-2.3213504774,0.935883868,0.9659258263\Bq,0,-2.3837727019,0.961
 74,0.9659258263\Bq,0,-2.45076,0.9705590451,0.9659258263\Bq,0,-2.517747
 2981,0.96174,0.9659258263\Bq,0,-2.5801695226,0.935883868,0.9659258263\
 Bq,0,-2.6337727019,0.8947527019,0.9659258263\Bq,0,-2.674903868,0.84114
 95226,0.9659258263\Bq,0,-2.70076,0.7787272981,0.9659258263\Bq,0,-2.709
 5790451,0.71174,0.9659258263\Bq,0,-2.70076,0.6447527019,0.9659258263\B
 q,0,-2.674903868,0.5823304774,0.9659258263\Bq,0,-2.6337727019,0.528727
 2981,0.9659258263\Bq,0,-2.5801695226,0.487596132,0.9659258263\Bq,0,-2.
 5177472981,0.46174,0.9659258263\Bq,0,-2.45076,0.4529209549,0.965925826
 3\Bq,0,-2.3837727019,0.46174,0.9659258263\Bq,0,-2.3213504774,0.4875961
 32,0.9659258263\Bq,0,-2.2677472981,0.5287272981,0.9659258263\Bq,0,-2.2
 26616132,0.5823304774,0.9659258263\Bq,0,-2.20076,0.6447527019,0.965925
 8263\Bq,0,-1.95076,0.71174,0.8660254038\Bq,0,-1.9677970869,0.841149522
 6,0.8660254038\Bq,0,-2.0177472981,0.96174,0.8660254038\Bq,0,-2.0972066
 094,1.0652933906,0.8660254038\Bq,0,-2.20076,1.1447527019,0.8660254038\
 Bq,0,-2.3213504774,1.1947029131,0.8660254038\Bq,0,-2.45076,1.21174,0.8
 660254038\Bq,0,-2.5801695226,1.1947029131,0.8660254038\Bq,0,-2.70076,1
 .1447527019,0.8660254038\Bq,0,-2.8043133906,1.0652933906,0.8660254038\
 Bq,0,-2.8837727019,0.96174,0.8660254038\Bq,0,-2.9337229131,0.841149522
 6,0.8660254038\Bq,0,-2.95076,0.71174,0.8660254038\Bq,0,-2.9337229131,0
 .5823304774,0.8660254038\Bq,0,-2.8837727019,0.46174,0.8660254038\Bq,0,
 -2.8043133906,0.3581866094,0.8660254038\Bq,0,-2.70076,0.2787272981,0.8
 660254038\Bq,0,-2.5801695226,0.2287770869,0.8660254038\Bq,0,-2.45076,0
 .21174,0.8660254038\Bq,0,-2.3213504774,0.2287770869,0.8660254038\Bq,0,
 -2.20076,0.2787272981,0.8660254038\Bq,0,-2.0972066094,0.3581866094,0.8
 660254038\Bq,0,-2.0177472981,0.46174,0.8660254038\Bq,0,-1.9677970869,0
 .5823304774,0.8660254038\Bq,0,-1.7436532188,0.71174,0.7071067812\Bq,0,
 -1.7677472981,0.8947527019,0.7071067812\Bq,0,-1.95076,1.21174,0.707106
 7812\Bq,0,-2.0972066094,1.3241124357,0.7071067812\Bq,0,-2.2677472981,1
 .3947527019,0.7071067812\Bq,0,-2.45076,1.4188467812,0.7071067812\Bq,0,
 -2.6337727019,1.3947527019,0.7071067812\Bq,0,-3.1337727019,0.528727298
 1,0.7071067812\Bq,0,-3.0631324357,0.3581866094,0.7071067812\Bq,0,-2.95
 076,0.21174,0.7071067812\Bq,0,-2.8043133906,0.0993675643,0.7071067812\
 Bq,0,-2.6337727019,0.0287272981,0.7071067812\Bq,0,-2.45076,0.004633218
 8,0.7071067812\Bq,0,-2.2677472981,0.0287272981,0.7071067812\Bq,0,-2.09
 72066094,0.0993675643,0.7071067812\Bq,0,-1.95076,0.21174,0.7071067812\
 Bq,0,-1.7677472981,0.5287272981,0.7071067812\Bq,0,-2.226616132,1.54825
 63037,0.5\Bq,0,-2.45076,1.5777654038,0.5\Bq,0,-3.20076,0.2787272981,0.
 5\Bq,0,-3.0631324357,0.0993675643,0.5\Bq,0,-2.20076,1.6447527019,0.258
 8190451\Bq,0,-2.45076,1.6776658263,0.2588190451\Bq,0,-3.2872763037,0.2
 287770869,0.2588190451\Bq,0,-3.1337727019,0.0287272981,0.2588190451\Bq
 ,0,-2.45076,1.71174,0.\Bq,0,-3.3167854038,0.21174,0.\Bq,0,-3.157866781
 2,0.0046332188,0.\Bq,0,-2.20076,1.6447527019,-0.2588190451\Bq,0,-2.450
 76,1.6776658263,-0.2588190451\Bq,0,-3.2872763037,0.2287770869,-0.25881
 90451\Bq,0,-3.1337727019,0.0287272981,-0.2588190451\Bq,0,-2.226616132,
 1.5482563037,-0.5\Bq,0,-2.45076,1.5777654038,-0.5\Bq,0,-3.20076,0.2787
 272981,-0.5\Bq,0,-3.0631324357,0.0993675643,-0.5\Bq,0,-1.7436532188,0.
 71174,-0.7071067812\Bq,0,-1.7677472981,0.8947527019,-0.7071067812\Bq,0
 ,-1.95076,1.21174,-0.7071067812\Bq,0,-2.0972066094,1.3241124357,-0.707
 1067812\Bq,0,-2.2677472981,1.3947527019,-0.7071067812\Bq,0,-2.45076,1.
 4188467812,-0.7071067812\Bq,0,-2.6337727019,1.3947527019,-0.7071067812
 \Bq,0,-3.1337727019,0.5287272981,-0.7071067812\Bq,0,-3.0631324357,0.35
 81866094,-0.7071067812\Bq,0,-2.95076,0.21174,-0.7071067812\Bq,0,-2.804
 3133906,0.0993675643,-0.7071067812\Bq,0,-2.6337727019,0.0287272981,-0.
 7071067812\Bq,0,-2.45076,0.0046332188,-0.7071067812\Bq,0,-2.2677472981
 ,0.0287272981,-0.7071067812\Bq,0,-2.0972066094,0.0993675643,-0.7071067
 812\Bq,0,-1.95076,0.21174,-0.7071067812\Bq,0,-1.7677472981,0.528727298
 1,-0.7071067812\Bq,0,-1.95076,0.71174,-0.8660254038\Bq,0,-1.9677970869
 ,0.8411495226,-0.8660254038\\Version=ES64L-G09RevD.01\HF=-385.9859319\
 RMSD=7.870e-09\Dipole=0.,0.,0.\Quadrupole=3.3018588,3.182998,-6.484856
 8,0.,0.,0.\PG=C01 [X(C10H8)]\\@


 I DO NOT DEFINE TIME, SPACE, PLACE, AND MOTION, AS BEING WELL KNOWN TO ALL.
                                            -- NEWTON (1642-1726), PRINCIPIA
 Job cpu time:       0 days  0 hours 14 minutes 19.1 seconds.
 File lengths (MBytes):  RWF=     43 Int=      0 D2E=      0 Chk=      5 Scr=      1
 Normal termination of Gaussian 09 at Fri Sep 11 11:31:21 2020.
