 Entering Gaussian System, Link 0=g16
 Initial command:
 /share/programs/G16_SLATER/g16/l1.exe "/scratch/aartigas.27132/Gau-4783.inp" -scrdir="/scratch/aartigas.27132/"
 Entering Link 1 = /share/programs/G16_SLATER/g16/l1.exe PID=      4784.
  
 Copyright (c) 1988,1990,1992,1993,1995,1998,2003,2009,2016,
            Gaussian, Inc.  All Rights Reserved.
  
 This is part of the Gaussian(R) 16 program.  It is based on
 the Gaussian(R) 09 system (copyright 2009, Gaussian, Inc.),
 the Gaussian(R) 03 system (copyright 2003, Gaussian, Inc.),
 the Gaussian(R) 98 system (copyright 1998, Gaussian, Inc.),
 the Gaussian(R) 94 system (copyright 1995, Gaussian, Inc.),
 the Gaussian 92(TM) system (copyright 1992, Gaussian, Inc.),
 the Gaussian 90(TM) system (copyright 1990, Gaussian, Inc.),
 the Gaussian 88(TM) system (copyright 1988, Gaussian, Inc.),
 the Gaussian 86(TM) system (copyright 1986, Carnegie Mellon
 University), and the Gaussian 82(TM) system (copyright 1983,
 Carnegie Mellon University). Gaussian is a federally registered
 trademark of Gaussian, Inc.
  
 This software contains proprietary and confidential information,
 including trade secrets, belonging to Gaussian, Inc.
  
 This software is provided under written license and may be
 used, copied, transmitted, or stored only in accord with that
 written license.
  
 The following legend is applicable only to US Government
 contracts under FAR:
  
                    RESTRICTED RIGHTS LEGEND
  
 Use, reproduction and disclosure by the US Government is
 subject to restrictions as set forth in subparagraphs (a)
 and (c) of the Commercial Computer Software - Restricted
 Rights clause in FAR 52.227-19.
  
 Gaussian, Inc.
 340 Quinnipiac St., Bldg. 40, Wallingford CT 06492
  
  
 ---------------------------------------------------------------
 Warning -- This program may not be used in any manner that
 competes with the business of Gaussian, Inc. or will provide
 assistance to any competitor of Gaussian, Inc.  The licensee
 of this program is prohibited from giving any competitor of
 Gaussian, Inc. access to this program.  By using this program,
 the user acknowledges that Gaussian, Inc. is engaged in the
 business of creating and licensing software in the field of
 computational chemistry and represents and warrants to the
 licensee that it is not a competitor of Gaussian, Inc. and that
 it will not use this program in any manner prohibited above.
 ---------------------------------------------------------------
  

 Cite this work as:
 Gaussian 16, Revision A.03,
 M. J. Frisch, G. W. Trucks, H. B. Schlegel, G. E. Scuseria, 
 M. A. Robb, J. R. Cheeseman, G. Scalmani, V. Barone, 
 G. A. Petersson, H. Nakatsuji, X. Li, M. Caricato, A. V. Marenich, 
 J. Bloino, B. G. Janesko, R. Gomperts, B. Mennucci, H. P. Hratchian, 
 J. V. Ortiz, A. F. Izmaylov, J. L. Sonnenberg, D. Williams-Young, 
 F. Ding, F. Lipparini, F. Egidi, J. Goings, B. Peng, A. Petrone, 
 T. Henderson, D. Ranasinghe, V. G. Zakrzewski, J. Gao, N. Rega, 
 G. Zheng, W. Liang, M. Hada, M. Ehara, K. Toyota, R. Fukuda, 
 J. Hasegawa, M. Ishida, T. Nakajima, Y. Honda, O. Kitao, H. Nakai, 
 T. Vreven, K. Throssell, J. A. Montgomery, Jr., J. E. Peralta, 
 F. Ogliaro, M. J. Bearpark, J. J. Heyd, E. N. Brothers, K. N. Kudin, 
 V. N. Staroverov, T. A. Keith, R. Kobayashi, J. Normand, 
 K. Raghavachari, A. P. Rendell, J. C. Burant, S. S. Iyengar, 
 J. Tomasi, M. Cossi, J. M. Millam, M. Klene, C. Adamo, R. Cammi, 
 J. W. Ochterski, R. L. Martin, K. Morokuma, O. Farkas, 
 J. B. Foresman, and D. J. Fox, Gaussian, Inc., Wallingford CT, 2016.
 
 ******************************************
 Gaussian 16:  ES64L-G16RevA.03 25-Dec-2016
                 5-Aug-2020 
 ******************************************
 %nproc=8
 Will use up to    8 processors via shared memory.
 ----------------------
 # rb3lyp/6-311+g** NMR
 ----------------------
 1/38=1,172=1/1;
 2/12=2,17=6,18=5,40=1/2;
 3/5=4,6=6,7=111,11=2,25=1,30=1,74=-5,116=1/1,2,3,8;
 4//1;
 5/5=2,38=5/2;
 8/6=1,10=90,11=11/1;
 10/13=100,45=16/2;
 6/7=2,8=2,9=2,10=2,28=1/1;
 99/9=1/99;
 -----
 Title
 -----
 Symbolic Z-matrix:
 Charge =  0 Multiplicity = 1
 C                    -4.05006  -0.57719   0.81367 
 H                    -5.02638  -1.00827   1.00248 
 C                    -3.93816   0.66178   0.24009 
 H                    -4.82524   1.23389  -0.01113 
 C                    -2.67684   1.24332   0.00576 
 C                    -1.49741   0.50515   0.28483 
 C                    -1.65083  -0.73387   0.9404 
 H                    -0.77136  -1.2731    1.26338 
 C                    -2.88985  -1.2624    1.19943 
 H                    -2.96837  -2.21246   1.71527 
 C                    -2.57732   2.59637  -0.41929 
 H                    -3.48707   3.14122  -0.64741 
 C                    -1.37419   3.21479  -0.4364 
 H                    -1.29973   4.2742   -0.65781 
 C                    -0.17195   2.49941  -0.17346 
 C                    -0.20439   1.10184   0.01927 
 C                     1.05135   3.20426  -0.06762 
 H                     1.04273   4.28195  -0.1897 
 C                     2.19421   2.54874   0.25796 
 H                     3.11685   3.09128   0.43347 
 C                     2.22165   1.13366   0.2935 
 C                     1.04869   0.39455   0.03024 
 C                     3.44834   0.46146   0.55739 
 H                     4.30958   1.06061   0.83348 
 C                     3.54273  -0.88559   0.47495 
 H                     4.47315  -1.39397   0.70388 
 C                     2.44901  -1.64744  -0.01963 
 C                     1.21507  -1.00573  -0.30136 
 C                     0.25311  -1.74344  -1.02166 
 H                    -0.65414  -1.25351  -1.34628 
 C                     0.44942  -3.06286  -1.34138 
 H                    -0.30832  -3.59443  -1.90541 
 C                     1.62517  -3.7208   -0.95525 
 H                     1.767    -4.76874  -1.1927 
 C                     2.61099  -3.01442  -0.31831 
 H                     3.55256  -3.49028  -0.06464 
 Bq                    1.02326   1.81374   0.05998 
 Bq                   -1.61291  -0.6341    0.80743 
 Bq                   -1.60935  -0.13471   0.78312 
 Bq                   -1.60578   0.36469   0.75881 
 Bq                   -1.60222   0.86409   0.73451 
 Bq                   -1.59866   1.36348   0.7102 
 Bq                   -1.5951    1.86288   0.68589 
 Bq                   -1.59154   2.36227   0.66158 
 Bq                   -1.58798   2.86167   0.63727 
 Bq                   -1.58442   3.36107   0.61297 
 Bq                   -1.58086   3.86046   0.58866 
 Bq                   -1.11819  -0.6341    0.8799 
 Bq                   -1.11463  -0.13471   0.85559 
 Bq                   -1.11106   0.36469   0.83128 
 Bq                   -1.1075    0.86409   0.80697 
 Bq                   -1.10394   1.36348   0.78267 
 Bq                   -1.10038   1.86288   0.75836 
 Bq                   -1.09682   2.36227   0.73405 
 Bq                   -1.09326   2.86167   0.70974 
 Bq                   -1.0897    3.36107   0.68543 
 Bq                   -1.08614   3.86046   0.66113 
 Bq                   -0.62347  -0.6341    0.95237 
 Bq                   -0.6199   -0.13471   0.92806 
 Bq                   -0.61634   0.36469   0.90375 
 Bq                   -0.61278   0.86409   0.87944 
 Bq                   -0.60922   1.36348   0.85513 
 Bq                   -0.60566   1.86288   0.83083 
 Bq                   -0.6021    2.36227   0.80652 
 Bq                   -0.59854   2.86167   0.78221 
 Bq                   -0.59498   3.36107   0.7579 
 Bq                   -0.59142   3.86046   0.73359 
 Bq                   -0.12874  -0.6341    1.02483 
 Bq                   -0.12518  -0.13471   1.00052 
 Bq                   -0.12162   0.36469   0.97622 
 Bq                   -0.11806   0.86409   0.95191 
 Bq                   -0.1145    1.36348   0.9276 
 Bq                   -0.11094   1.86288   0.90329 
 Bq                   -0.10738   2.36227   0.87898 
 Bq                   -0.10382   2.86167   0.85468 
 Bq                   -0.10026   3.36107   0.83037 
 Bq                   -0.0967    3.86046   0.80606 
 Bq                    0.36598  -0.6341    1.0973 
 Bq                    0.36954  -0.13471   1.07299 
 Bq                    0.3731    0.36469   1.04868 
 Bq                    0.37666   0.86409   1.02438 
 Bq                    0.38022   1.36348   1.00007 
 Bq                    0.38378   1.86288   0.97576 
 Bq                    0.38734   2.36227   0.95145 
 Bq                    0.3909    2.86167   0.92714 
 Bq                    0.39446   3.36107   0.90284 
 Bq                    0.39802   3.86046   0.87853 
 Bq                    0.8607   -0.6341    1.16977 
 Bq                    0.86426  -0.13471   1.14546 
 Bq                    0.86782   0.36469   1.12115 
 Bq                    0.87138   0.86409   1.09684 
 Bq                    0.87494   1.36348   1.07254 
 Bq                    0.8785    1.86288   1.04823 
 Bq                    0.88206   2.36227   1.02392 
 Bq                    0.88562   2.86167   0.99961 
 Bq                    0.88918   3.36107   0.9753 
 Bq                    0.89274   3.86046   0.951 
 Bq                    1.35542  -0.6341    1.24223 
 Bq                    1.35898  -0.13471   1.21793 
 Bq                    1.36254   0.36469   1.19362 
 Bq                    1.3661    0.86409   1.16931 
 Bq                    1.36966   1.36348   1.145 
 Bq                    1.37322   1.86288   1.12069 
 Bq                    1.37678   2.36227   1.09639 
 Bq                    1.38034   2.86167   1.07208 
 Bq                    1.3839    3.36107   1.04777 
 Bq                    1.38746   3.86046   1.02346 
 Bq                    1.85014  -0.6341    1.3147 
 Bq                    1.8537   -0.13471   1.29039 
 Bq                    1.85726   0.36469   1.26609 
 Bq                    1.86082   0.86409   1.24178 
 Bq                    1.86438   1.36348   1.21747 
 Bq                    1.86794   1.86288   1.19316 
 Bq                    1.8715    2.36227   1.16885 
 Bq                    1.87506   2.86167   1.14455 
 Bq                    1.87862   3.36107   1.12024 
 Bq                    1.88218   3.86046   1.09593 
 Bq                    2.34486  -0.6341    1.38717 
 Bq                    2.34842  -0.13471   1.36286 
 Bq                    2.35198   0.36469   1.33855 
 Bq                    2.35554   0.86409   1.31425 
 Bq                    2.3591    1.36348   1.28994 
 Bq                    2.36266   1.86288   1.26563 
 Bq                    2.36622   2.36227   1.24132 
 Bq                    2.36978   2.86167   1.21701 
 Bq                    2.37334   3.36107   1.1927 
 Bq                    2.3769    3.86046   1.1684 
 Bq                    2.83958  -0.6341    1.45964 
 Bq                    2.84314  -0.13471   1.43533 
 Bq                    2.8467    0.36469   1.41102 
 Bq                    2.85026   0.86409   1.38671 
 Bq                    2.85382   1.36348   1.3624 
 Bq                    2.85738   1.86288   1.3381 
 Bq                    2.86094   2.36227   1.31379 
 Bq                    2.8645    2.86167   1.28948 
 Bq                    2.86806   3.36107   1.26517 
 Bq                    2.87163   3.86046   1.24086 
 
 Symmetry turned off:
 Cannot cope with ghost atoms or with translation vectors.
 Stoichiometry    C22H14
 Framework group  C1[X(C22H14)]
 NumDoF:  NAt=    36 NAtoms=   137
 Deg. of freedom     0
 Full point group                 C1      NOp   1
                          Input orientation:                          
 ---------------------------------------------------------------------
 Center     Atomic      Atomic             Coordinates (Angstroms)
 Number     Number       Type             X           Y           Z
 ---------------------------------------------------------------------
      1          6           0       -4.050056   -0.577186    0.813671
      2          1           0       -5.026380   -1.008273    1.002476
      3          6           0       -3.938155    0.661780    0.240088
      4          1           0       -4.825242    1.233889   -0.011130
      5          6           0       -2.676841    1.243325    0.005758
      6          6           0       -1.497412    0.505153    0.284825
      7          6           0       -1.650833   -0.733873    0.940403
      8          1           0       -0.771365   -1.273097    1.263375
      9          6           0       -2.889855   -1.262404    1.199431
     10          1           0       -2.968371   -2.212456    1.715268
     11          6           0       -2.577319    2.596370   -0.419293
     12          1           0       -3.487073    3.141224   -0.647406
     13          6           0       -1.374190    3.214790   -0.436403
     14          1           0       -1.299732    4.274202   -0.657814
     15          6           0       -0.171949    2.499409   -0.173459
     16          6           0       -0.204392    1.101844    0.019269
     17          6           0        1.051349    3.204256   -0.067622
     18          1           0        1.042734    4.281950   -0.189700
     19          6           0        2.194209    2.548745    0.257958
     20          1           0        3.116853    3.091285    0.433473
     21          6           0        2.221647    1.133656    0.293499
     22          6           0        1.048693    0.394553    0.030241
     23          6           0        3.448336    0.461463    0.557394
     24          1           0        4.309579    1.060605    0.833485
     25          6           0        3.542735   -0.885593    0.474946
     26          1           0        4.473147   -1.393970    0.703882
     27          6           0        2.449005   -1.647445   -0.019632
     28          6           0        1.215070   -1.005726   -0.301357
     29          6           0        0.253111   -1.743444   -1.021659
     30          1           0       -0.654136   -1.253505   -1.346285
     31          6           0        0.449419   -3.062860   -1.341378
     32          1           0       -0.308316   -3.594431   -1.905406
     33          6           0        1.625173   -3.720797   -0.955254
     34          1           0        1.767005   -4.768740   -1.192702
     35          6           0        2.610987   -3.014418   -0.318305
     36          1           0        3.552561   -3.490281   -0.064637
     37          0           0        1.023260    1.813744    0.059981
     38          0           0       -1.612906   -0.634102    0.807431
     39          0           0       -1.609346   -0.134706    0.783123
     40          0           0       -1.605785    0.364690    0.758815
     41          0           0       -1.602224    0.864086    0.734507
     42          0           0       -1.598664    1.363482    0.710199
     43          0           0       -1.595103    1.862879    0.685891
     44          0           0       -1.591542    2.362275    0.661583
     45          0           0       -1.587982    2.861671    0.637275
     46          0           0       -1.584421    3.361067    0.612967
     47          0           0       -1.580860    3.860463    0.588659
     48          0           0       -1.118186   -0.634102    0.879898
     49          0           0       -1.114625   -0.134706    0.855590
     50          0           0       -1.111064    0.364690    0.831282
     51          0           0       -1.107504    0.864086    0.806974
     52          0           0       -1.103943    1.363482    0.782666
     53          0           0       -1.100382    1.862879    0.758358
     54          0           0       -1.096822    2.362275    0.734050
     55          0           0       -1.093261    2.861671    0.709742
     56          0           0       -1.089700    3.361067    0.685434
     57          0           0       -1.086140    3.860463    0.661126
     58          0           0       -0.623465   -0.634102    0.952365
     59          0           0       -0.619904   -0.134706    0.928057
     60          0           0       -0.616344    0.364690    0.903749
     61          0           0       -0.612783    0.864086    0.879441
     62          0           0       -0.609222    1.363482    0.855133
     63          0           0       -0.605662    1.862879    0.830825
     64          0           0       -0.602101    2.362275    0.806517
     65          0           0       -0.598540    2.861671    0.782209
     66          0           0       -0.594980    3.361067    0.757901
     67          0           0       -0.591419    3.860463    0.733593
     68          0           0       -0.128744   -0.634102    1.024833
     69          0           0       -0.125184   -0.134706    1.000525
     70          0           0       -0.121623    0.364690    0.976217
     71          0           0       -0.118062    0.864086    0.951909
     72          0           0       -0.114502    1.363482    0.927601
     73          0           0       -0.110941    1.862879    0.903293
     74          0           0       -0.107380    2.362275    0.878984
     75          0           0       -0.103820    2.861671    0.854676
     76          0           0       -0.100259    3.361067    0.830368
     77          0           0       -0.096698    3.860463    0.806060
     78          0           0        0.365976   -0.634102    1.097300
     79          0           0        0.369537   -0.134706    1.072992
     80          0           0        0.373098    0.364690    1.048684
     81          0           0        0.376658    0.864086    1.024376
     82          0           0        0.380219    1.363482    1.000068
     83          0           0        0.383780    1.862879    0.975760
     84          0           0        0.387340    2.362275    0.951452
     85          0           0        0.390901    2.861671    0.927144
     86          0           0        0.394462    3.361067    0.902836
     87          0           0        0.398022    3.860463    0.878528
     88          0           0        0.860697   -0.634102    1.169767
     89          0           0        0.864257   -0.134706    1.145459
     90          0           0        0.867818    0.364690    1.121151
     91          0           0        0.871379    0.864086    1.096843
     92          0           0        0.874939    1.363482    1.072535
     93          0           0        0.878500    1.862879    1.048227
     94          0           0        0.882061    2.362275    1.023919
     95          0           0        0.885621    2.861671    0.999611
     96          0           0        0.889182    3.361067    0.975303
     97          0           0        0.892743    3.860463    0.950995
     98          0           0        1.355417   -0.634102    1.242235
     99          0           0        1.358978   -0.134706    1.217927
    100          0           0        1.362539    0.364690    1.193618
    101          0           0        1.366099    0.864086    1.169310
    102          0           0        1.369660    1.363482    1.145002
    103          0           0        1.373221    1.862879    1.120694
    104          0           0        1.376781    2.362275    1.096386
    105          0           0        1.380342    2.861671    1.072078
    106          0           0        1.383903    3.361067    1.047770
    107          0           0        1.387463    3.860463    1.023462
    108          0           0        1.850138   -0.634102    1.314702
    109          0           0        1.853699   -0.134706    1.290394
    110          0           0        1.857259    0.364690    1.266086
    111          0           0        1.860820    0.864086    1.241778
    112          0           0        1.864381    1.363482    1.217470
    113          0           0        1.867941    1.862879    1.193162
    114          0           0        1.871502    2.362275    1.168854
    115          0           0        1.875063    2.861671    1.144546
    116          0           0        1.878623    3.361067    1.120238
    117          0           0        1.882184    3.860463    1.095930
    118          0           0        2.344859   -0.634102    1.387169
    119          0           0        2.348419   -0.134706    1.362861
    120          0           0        2.351980    0.364690    1.338553
    121          0           0        2.355541    0.864086    1.314245
    122          0           0        2.359101    1.363482    1.289937
    123          0           0        2.362662    1.862879    1.265629
    124          0           0        2.366223    2.362275    1.241321
    125          0           0        2.369783    2.861671    1.217013
    126          0           0        2.373344    3.361067    1.192705
    127          0           0        2.376905    3.860463    1.168397
    128          0           0        2.839579   -0.634102    1.459636
    129          0           0        2.843140   -0.134706    1.435328
    130          0           0        2.846701    0.364690    1.411020
    131          0           0        2.850261    0.864086    1.386712
    132          0           0        2.853822    1.363482    1.362404
    133          0           0        2.857383    1.862879    1.338096
    134          0           0        2.860943    2.362275    1.313788
    135          0           0        2.864504    2.861671    1.289480
    136          0           0        2.868065    3.361067    1.265172
    137          0           0        2.871625    3.860463    1.240864
 ---------------------------------------------------------------------
 Rotational constants (GHZ):           0.4529074           0.2836956           0.1879557
 Standard basis: 6-311+G(d,p) (5D, 7F)
 Warning:  center  37 has no basis functions!
 Warning:  center  38 has no basis functions!
 Warning:  center  39 has no basis functions!
 Warning:  center  40 has no basis functions!
 Warning:  center  41 has no basis functions!
 Warning:  center  42 has no basis functions!
 Warning:  center  43 has no basis functions!
 Warning:  center  44 has no basis functions!
 Warning:  center  45 has no basis functions!
 Warning:  center  46 has no basis functions!
 Warning:  center  47 has no basis functions!
 Warning:  center  48 has no basis functions!
 Warning:  center  49 has no basis functions!
 Warning:  center  50 has no basis functions!
 Warning:  center  51 has no basis functions!
 Warning:  center  52 has no basis functions!
 Warning:  center  53 has no basis functions!
 Warning:  center  54 has no basis functions!
 Warning:  center  55 has no basis functions!
 Warning:  center  56 has no basis functions!
 Warning:  center  57 has no basis functions!
 Warning:  center  58 has no basis functions!
 Warning:  center  59 has no basis functions!
 Warning:  center  60 has no basis functions!
 Warning:  center  61 has no basis functions!
 Warning:  center  62 has no basis functions!
 Warning:  center  63 has no basis functions!
 Warning:  center  64 has no basis functions!
 Warning:  center  65 has no basis functions!
 Warning:  center  66 has no basis functions!
 Warning:  center  67 has no basis functions!
 Warning:  center  68 has no basis functions!
 Warning:  center  69 has no basis functions!
 Warning:  center  70 has no basis functions!
 Warning:  center  71 has no basis functions!
 Warning:  center  72 has no basis functions!
 Warning:  center  73 has no basis functions!
 Warning:  center  74 has no basis functions!
 Warning:  center  75 has no basis functions!
 Warning:  center  76 has no basis functions!
 Warning:  center  77 has no basis functions!
 Warning:  center  78 has no basis functions!
 Warning:  center  79 has no basis functions!
 Warning:  center  80 has no basis functions!
 Warning:  center  81 has no basis functions!
 Warning:  center  82 has no basis functions!
 Warning:  center  83 has no basis functions!
 Warning:  center  84 has no basis functions!
 Warning:  center  85 has no basis functions!
 Warning:  center  86 has no basis functions!
 Warning:  center  87 has no basis functions!
 Warning:  center  88 has no basis functions!
 Warning:  center  89 has no basis functions!
 Warning:  center  90 has no basis functions!
 Warning:  center  91 has no basis functions!
 Warning:  center  92 has no basis functions!
 Warning:  center  93 has no basis functions!
 Warning:  center  94 has no basis functions!
 Warning:  center  95 has no basis functions!
 Warning:  center  96 has no basis functions!
 Warning:  center  97 has no basis functions!
 Warning:  center  98 has no basis functions!
 Warning:  center  99 has no basis functions!
 Warning:  center 100 has no basis functions!
 Warning:  center 101 has no basis functions!
 Warning:  center 102 has no basis functions!
 Warning:  center 103 has no basis functions!
 Warning:  center 104 has no basis functions!
 Warning:  center 105 has no basis functions!
 Warning:  center 106 has no basis functions!
 Warning:  center 107 has no basis functions!
 Warning:  center 108 has no basis functions!
 Warning:  center 109 has no basis functions!
 Warning:  center 110 has no basis functions!
 Warning:  center 111 has no basis functions!
 Warning:  center 112 has no basis functions!
 Warning:  center 113 has no basis functions!
 Warning:  center 114 has no basis functions!
 Warning:  center 115 has no basis functions!
 Warning:  center 116 has no basis functions!
 Warning:  center 117 has no basis functions!
 Warning:  center 118 has no basis functions!
 Warning:  center 119 has no basis functions!
 Warning:  center 120 has no basis functions!
 Warning:  center 121 has no basis functions!
 Warning:  center 122 has no basis functions!
 Warning:  center 123 has no basis functions!
 Warning:  center 124 has no basis functions!
 Warning:  center 125 has no basis functions!
 Warning:  center 126 has no basis functions!
 Warning:  center 127 has no basis functions!
 Warning:  center 128 has no basis functions!
 Warning:  center 129 has no basis functions!
 Warning:  center 130 has no basis functions!
 Warning:  center 131 has no basis functions!
 Warning:  center 132 has no basis functions!
 Warning:  center 133 has no basis functions!
 Warning:  center 134 has no basis functions!
 Warning:  center 135 has no basis functions!
 Warning:  center 136 has no basis functions!
 Warning:  center 137 has no basis functions!
   568 basis functions,   904 primitive gaussians,   590 cartesian basis functions
    73 alpha electrons       73 beta electrons
       nuclear repulsion energy      1610.9176226554 Hartrees.
 NAtoms=  137 NActive=  137 NUniq=  137 SFac= 1.00D+00 NAtFMM=   60 NAOKFM=T Big=T
 Integral buffers will be    131072 words long.
 Raffenetti 2 integral format.
 Two-electron integral symmetry is turned off.
 One-electron integrals computed using PRISM.
 NBasis=   568 RedAO= T EigKep=  1.78D-06  NBF=   568
 NBsUse=   556 1.00D-06 EigRej=  9.09D-07 NBFU=   556
 ExpMin= 4.38D-02 ExpMax= 4.56D+03 ExpMxC= 6.82D+02 IAcc=3 IRadAn=         5 AccDes= 0.00D+00
 Harris functional with IExCor=  402 and IRadAn=       5 diagonalized for initial guess.
 HarFok:  IExCor=  402 AccDes= 0.00D+00 IRadAn=         5 IDoV= 1 UseB2=F ITyADJ=14
 ICtDFT=  3500011 ScaDFX=  1.000000  1.000000  1.000000  1.000000
 FoFCou: FMM=F IPFlag=           0 FMFlag=      100000 FMFlg1=        2001
         NFxFlg=           0 DoJE=T BraDBF=F KetDBF=T FulRan=T
         wScrn=  0.000000 ICntrl=       500 IOpCl=  0 I1Cent=   200000004 NGrid=           0
         NMat0=    1 NMatS0=      1 NMatT0=    0 NMatD0=    1 NMtDS0=    0 NMtDT0=    0
 Symmetry not used in FoFCou.
 Requested convergence on RMS density matrix=1.00D-08 within 128 cycles.
 Requested convergence on MAX density matrix=1.00D-06.
 Requested convergence on             energy=1.00D-06.
 No special actions if energy rises.
 SCF Done:  E(RB3LYP) =  -847.003283891     A.U. after   15 cycles
            NFock= 15  Conv=0.77D-08     -V/T= 2.0040
 DoSCS=F DFT=T ScalE2(SS,OS)=  1.000000  1.000000
 Range of M.O.s used for correlation:     1   556
 NBasis=   568 NAE=    73 NBE=    73 NFC=     0 NFV=     0
 NROrb=    556 NOA=    73 NOB=    73 NVA=   483 NVB=   483

 **** Warning!!: The largest alpha MO coefficient is  0.10864959D+03

          Differentiating once with respect to magnetic field using GIAOs.
          Electric field/nuclear overlap derivatives assumed to be zero.
 FoFCou: FMM=F IPFlag=           0 FMFlag=      100000 FMFlg1=        2001
         NFxFlg=           0 DoJE=F BraDBF=F KetDBF=T FulRan=T
         wScrn=  0.000000 ICntrl=      6100 IOpCl=  0 I1Cent=           7 NGrid=         137
         NMat0=    1 NMatS0=      1 NMatT0=    0 NMatD0=    1 NMtDS0=    0 NMtDT0=    0
 Symmetry not used in FoFCou.
 FoFJK:  IHMeth= 1 ICntrl=    6127 DoSepK=F KAlg= 0 I1Cent=           0 FoldK=F
 IRaf=         1 NMat=       1 IRICut=       1 DoRegI=T DoRafI=F ISym2E= 0 IDoP0=0 IntGTp=1.
          There are     3 degrees of freedom in the 1st order CPHF.  IDoFFX=0 NUNeed=     3.
      3 vectors produced by pass  0 Test12= 1.18D-12 3.33D-08 XBig12= 2.07D+03 9.18D+00.
 AX will form     3 AO Fock derivatives at one time.
      3 vectors produced by pass  1 Test12= 1.18D-12 3.33D-08 XBig12= 3.57D+00 8.02D-01.
      3 vectors produced by pass  2 Test12= 1.18D-12 3.33D-08 XBig12= 2.10D-02 6.93D-02.
      3 vectors produced by pass  3 Test12= 1.18D-12 3.33D-08 XBig12= 5.46D-05 1.89D-03.
      3 vectors produced by pass  4 Test12= 1.18D-12 3.33D-08 XBig12= 1.20D-07 7.78D-05.
      3 vectors produced by pass  5 Test12= 1.18D-12 3.33D-08 XBig12= 4.03D-10 4.76D-06.
      3 vectors produced by pass  6 Test12= 1.18D-12 3.33D-08 XBig12= 2.01D-12 3.04D-07.
      3 vectors produced by pass  7 Test12= 1.18D-12 3.33D-08 XBig12= 3.12D-13 8.91D-08.
      3 vectors produced by pass  8 Test12= 1.18D-12 3.33D-08 XBig12= 6.79D-13 8.94D-08.
      3 vectors produced by pass  9 Test12= 1.18D-12 3.33D-08 XBig12= 1.59D-13 6.54D-08.
      3 vectors produced by pass 10 Test12= 1.18D-12 3.33D-08 XBig12= 4.75D-13 9.98D-08.
      3 vectors produced by pass 11 Test12= 1.18D-12 3.33D-08 XBig12= 3.10D-13 6.18D-08.
      2 vectors produced by pass 12 Test12= 1.18D-12 3.33D-08 XBig12= 3.95D-13 7.17D-08.
 InvSVY:  IOpt=1 It=  1 EMax= 4.26D-14
 Solved reduced A of dimension    38 with     3 vectors.
 Calculating GIAO nuclear magnetic shielding tensors.
 SCF GIAO Magnetic shielding tensor (ppm):
      1  C    Isotropic =    53.1700   Anisotropy =   178.4458
   XX=   -42.1952   YX=   -32.3046   ZX=    10.0983
   XY=   -29.1770   YY=    58.3204   ZY=    55.3788
   XZ=    13.2067   YZ=    58.8864   ZZ=   143.3849
   Eigenvalues:   -54.8969    42.2731   172.1339
      2  H    Isotropic =    24.3249   Anisotropy =     5.0184
   XX=    25.4938   YX=    -0.9967   ZX=     0.6985
   XY=    -0.8097   YY=    26.3053   ZY=    -2.3448
   XZ=    -0.1423   YZ=    -2.4831   ZZ=    21.1757
   Eigenvalues:    20.2173    25.0870    27.6705
      3  C    Isotropic =    51.5990   Anisotropy =   155.8040
   XX=   -29.2759   YX=    37.6891   ZX=   -17.5069
   XY=    34.9361   YY=    49.2645   ZY=    49.4008
   XZ=    -9.1821   YZ=    44.1902   ZZ=   134.8085
   Eigenvalues:   -48.6044    47.9331   155.4684
      4  H    Isotropic =    23.7953   Anisotropy =     7.2788
   XX=    25.2686   YX=     1.9043   ZX=    -0.3918
   XY=     2.0867   YY=    26.4310   ZY=    -2.5190
   XZ=    -1.3415   YZ=    -2.4824   ZZ=    19.6862
   Eigenvalues:    18.8536    23.8844    28.6478
      5  C    Isotropic =    46.3293   Anisotropy =   208.7938
   XX=   -18.7634   YX=    -5.0283   ZX=    -1.1374
   XY=     2.6118   YY=    -3.3596   ZY=    66.9810
   XZ=     2.7770   YZ=    68.8332   ZZ=   161.1107
   Eigenvalues:   -27.9901   -18.5472   185.5251
      6  C    Isotropic =    48.1538   Anisotropy =   197.7355
   XX=   -27.9572   YX=    -2.2961   ZX=    12.1324
   XY=   -15.6813   YY=    21.4233   ZY=    74.5314
   XZ=   -17.4434   YZ=    60.5697   ZZ=   150.9954
   Eigenvalues:   -30.3962    -5.1197   179.9775
      7  C    Isotropic =    49.2652   Anisotropy =   180.1198
   XX=   -13.2296   YX=    28.7139   ZX=   -24.2977
   XY=    31.1175   YY=    29.8805   ZY=    77.7489
   XZ=   -39.4323   YZ=    65.2377   ZZ=   131.1447
   Eigenvalues:   -52.0064    30.4568   169.3451
      8  H    Isotropic =    23.1106   Anisotropy =    13.2879
   XX=    28.3374   YX=     1.5238   ZX=    -3.6492
   XY=     3.1974   YY=    22.7522   ZY=    -1.9308
   XZ=    -8.3358   YZ=    -1.1415   ZZ=    18.2422
   Eigenvalues:    15.4316    21.9309    31.9692
      9  C    Isotropic =    55.3790   Anisotropy =   174.7214
   XX=    46.1473   YX=    -2.9852   ZX=    -2.5221
   XY=     0.3554   YY=    -1.1010   ZY=    92.4715
   XZ=     0.3542   YZ=    94.8963   ZZ=   121.0906
   Eigenvalues:   -51.8546    46.1316   171.8599
     10  H    Isotropic =    24.5657   Anisotropy =     7.2078
   XX=    29.1014   YX=     0.0432   ZX=    -0.2604
   XY=     0.2834   YY=    23.2436   ZY=    -1.1035
   XZ=    -2.4306   YZ=    -2.8656   ZZ=    21.3521
   Eigenvalues:    19.9763    24.3499    29.3709
     11  C    Isotropic =    51.6147   Anisotropy =   151.0090
   XX=     2.5872   YX=    40.5226   ZX=   -25.7440
   XY=    50.8325   YY=    11.9585   ZY=    42.2021
   XZ=   -15.1508   YZ=    38.4615   ZZ=   140.2983
   Eigenvalues:   -48.2241    50.7808   152.2873
     12  H    Isotropic =    23.8484   Anisotropy =     7.2776
   XX=    26.1040   YX=     2.3348   ZX=    -0.0664
   XY=     2.3706   YY=    26.3233   ZY=    -1.9097
   XZ=     0.6248   YZ=    -1.6545   ZZ=    19.1180
   Eigenvalues:    18.6066    24.2385    28.7001
     13  C    Isotropic =    52.9284   Anisotropy =   147.0362
   XX=    51.3555   YX=    20.0327   ZX=   -13.5856
   XY=    11.2348   YY=   -33.6683   ZY=    42.7405
   XZ=    -8.2730   YZ=    40.1055   ZZ=   141.0981
   Eigenvalues:   -46.1921    54.0249   150.9526
     14  H    Isotropic =    23.9442   Anisotropy =     7.5024
   XX=    28.7155   YX=     0.5541   ZX=     1.0121
   XY=     0.4833   YY=    24.4716   ZY=    -0.8950
   XZ=     1.7659   YZ=    -0.3202   ZZ=    18.6455
   Eigenvalues:    18.3831    24.5037    28.9458
     15  C    Isotropic =    47.0832   Anisotropy =   203.5172
   XX=   -27.0916   YX=    -0.1109   ZX=   -28.6568
   XY=     4.6383   YY=    -9.2199   ZY=    28.7787
   XZ=    -9.4096   YZ=    23.2793   ZZ=   177.5610
   Eigenvalues:   -30.0660   -11.4458   182.7613
     16  C    Isotropic =    51.6831   Anisotropy =   188.9362
   XX=   -19.7367   YX=     5.0216   ZX=    16.1496
   XY=    -8.8050   YY=     1.7586   ZY=    23.2176
   XZ=   -48.8619   YZ=    24.3404   ZZ=   173.0274
   Eigenvalues:   -21.1153    -1.4759   177.6406
     17  C    Isotropic =    51.8568   Anisotropy =   148.5198
   XX=    50.7721   YX=   -23.6818   ZX=   -18.4641
   XY=   -16.9405   YY=   -41.6714   ZY=    17.8097
   XZ=   -14.4800   YZ=    11.1905   ZZ=   146.4697
   Eigenvalues:   -46.5535    51.2540   150.8700
     18  H    Isotropic =    23.8871   Anisotropy =     7.6762
   XX=    28.5371   YX=    -0.1282   ZX=     1.5525
   XY=    -0.2787   YY=    24.3320   ZY=    -0.7408
   XZ=     2.6127   YZ=    -1.5856   ZZ=    18.7922
   Eigenvalues:    18.1693    24.4874    29.0046
     19  C    Isotropic =    51.7663   Anisotropy =   148.6842
   XX=     2.3508   YX=   -45.6544   ZX=   -31.1097
   XY=   -52.9214   YY=     7.5176   ZY=    -1.8002
   XZ=   -23.6855   YZ=    -2.0343   ZZ=   145.4305
   Eigenvalues:   -46.7953    51.2050   150.8891
     20  H    Isotropic =    23.9375   Anisotropy =     7.6244
   XX=    25.5089   YX=    -2.0855   ZX=     1.5452
   XY=    -2.0408   YY=    27.3504   ZY=    -0.4943
   XZ=     2.6875   YZ=    -1.0321   ZZ=    18.9534
   Eigenvalues:    18.3269    24.4652    29.0205
     21  C    Isotropic =    47.2053   Anisotropy =   202.2944
   XX=   -13.1919   YX=    13.7851   ZX=   -43.9805
   XY=     8.3109   YY=   -19.8972   ZY=     0.1252
   XZ=   -29.8753   YZ=   -13.4280   ZZ=   174.7049
   Eigenvalues:   -29.8341   -10.6182   182.0682
     22  C    Isotropic =    51.6373   Anisotropy =   188.7174
   XX=    -0.5099   YX=     1.6301   ZX=   -16.1424
   XY=    18.6257   YY=   -15.4605   ZY=   -34.4730
   XZ=   -50.0915   YZ=    20.6205   ZZ=   170.8824
   Eigenvalues:   -21.0812    -1.4558   177.4489
     23  C    Isotropic =    52.7485   Anisotropy =   147.3596
   XX=   -22.7360   YX=   -31.9862   ZX=   -49.8421
   XY=   -23.9619   YY=    43.7963   ZY=   -16.0773
   XZ=   -44.4990   YZ=   -19.3301   ZZ=   137.1853
   Eigenvalues:   -46.7355    53.9929   150.9883
     24  H    Isotropic =    23.9643   Anisotropy =     7.5607
   XX=    24.9836   YX=    -1.6532   ZX=     1.4445
   XY=    -1.7400   YY=    28.1922   ZY=     0.0625
   XZ=     1.3535   YZ=    -0.8300   ZZ=    18.7172
   Eigenvalues:    18.4190    24.4691    29.0048
     25  C    Isotropic =    51.5471   Anisotropy =   151.4815
   XX=   -28.2326   YX=    32.8196   ZX=   -52.7701
   XY=    23.0322   YY=    45.4757   ZY=    -3.7505
   XZ=   -44.4729   YZ=   -10.3149   ZZ=   137.3982
   Eigenvalues:   -48.2470    50.3535   152.5348
     26  H    Isotropic =    23.9495   Anisotropy =     7.2423
   XX=    24.0835   YX=     1.2223   ZX=     1.5352
   XY=     1.1108   YY=    28.2010   ZY=     1.4497
   XZ=     1.9486   YZ=     0.8198   ZZ=    19.5641
   Eigenvalues:    18.9160    24.1549    28.7777
     27  C    Isotropic =    46.4205   Anisotropy =   208.7250
   XX=    -2.8829   YX=    14.2762   ZX=   -61.9139
   XY=     6.7072   YY=   -11.7520   ZY=   -41.9356
   XZ=   -61.4882   YZ=   -46.2127   ZZ=   153.8964
   Eigenvalues:   -27.6878   -18.6213   185.5705
     28  C    Isotropic =    47.8721   Anisotropy =   197.7655
   XX=    19.2428   YX=    14.7036   ZX=   -60.5074
   XY=    29.1038   YY=   -19.1880   ZY=   -56.3547
   XZ=   -63.5174   YZ=   -24.4566   ZZ=   143.5617
   Eigenvalues:   -30.5975    -5.5019   179.7158
     29  C    Isotropic =    49.4074   Anisotropy =   179.8282
   XX=    -3.7471   YX=    38.0782   ZX=   -81.0763
   XY=    36.1065   YY=    26.3315   ZY=   -23.2674
   XZ=   -78.1272   YZ=    -4.2514   ZZ=   125.6377
   Eigenvalues:   -51.8475    30.7768   169.2928
     30  H    Isotropic =    23.1375   Anisotropy =    13.4089
   XX=    22.2061   YX=    -0.8409   ZX=    -0.0618
   XY=    -2.1842   YY=    28.4163   ZY=     4.6320
   XZ=    -3.3021   YZ=     8.2051   ZZ=    18.7900
   Eigenvalues:    15.4743    21.8614    32.0767
     31  C    Isotropic =    55.2619   Anisotropy =   175.0623
   XX=    16.8311   YX=   -14.4710   ZX=   -84.4423
   XY=   -17.8936   YY=    37.6446   ZY=   -50.2556
   XZ=   -85.2660   YZ=   -54.3924   ZZ=   111.3099
   Eigenvalues:   -52.5760    46.3915   171.9700
     32  H    Isotropic =    24.5925   Anisotropy =     7.2047
   XX=    24.6585   YX=    -2.4694   ZX=     0.7458
   XY=    -2.6212   YY=    27.5120   ZY=     1.0621
   XZ=     1.0688   YZ=     3.8775   ZZ=    21.6071
   Eigenvalues:    19.9956    24.3863    29.3956
     33  C    Isotropic =    53.5116   Anisotropy =   178.2180
   XX=    61.2493   YX=    35.4513   ZX=   -42.6071
   XY=    31.8739   YY=   -37.6243   ZY=   -45.3091
   XZ=   -44.2526   YZ=   -49.7233   ZZ=   136.9100
   Eigenvalues:   -54.3749    42.5862   172.3236
     34  H    Isotropic =    24.3116   Anisotropy =     4.9117
   XX=    26.7177   YX=    -0.1479   ZX=     2.4615
   XY=    -0.3359   YY=    24.8421   ZY=     0.8639
   XZ=     2.1378   YZ=     1.5559   ZZ=    21.3750
   Eigenvalues:    20.2013    25.1475    27.5861
     35  C    Isotropic =    51.3371   Anisotropy =   156.3894
   XX=    -1.7263   YX=    53.6659   ZX=   -52.5937
   XY=    56.2664   YY=    24.8404   ZY=   -14.3702
   XZ=   -43.3243   YZ=   -19.1809   ZZ=   130.8973
   Eigenvalues:   -49.5168    47.9314   155.5967
     36  H    Isotropic =    23.8592   Anisotropy =     7.1834
   XX=    24.3290   YX=     1.2996   ZX=     2.1079
   XY=     1.2451   YY=    27.1457   ZY=     1.9534
   XZ=     1.5912   YZ=     2.8705   ZZ=    20.1029
   Eigenvalues:    18.9702    23.9593    28.6481
     37  Bq   Isotropic =     6.0429   Anisotropy =     1.0369
   XX=     6.6660   YX=     0.0802   ZX=    -0.2721
   XY=    -0.0160   YY=     6.7151   ZY=     0.2759
   XZ=     0.4884   YZ=    -0.2092   ZZ=     4.7475
   Eigenvalues:     4.7409     6.6536     6.7341
     38  Bq   Isotropic =   -45.4492   Anisotropy =   108.7343
   XX=   -89.5452   YX=    18.7808   ZX=   -20.0402
   XY=    -9.7248   YY=   -56.7744   ZY=    44.2674
   XZ=    -8.1902   YZ=    28.5129   ZZ=     9.9720
   Eigenvalues:   -94.9245   -68.4635    27.0403
     39  Bq   Isotropic =    33.7111   Anisotropy =    39.2775
   XX=    40.2505   YX=     1.9833   ZX=    -0.2933
   XY=    -5.7438   YY=    13.5567   ZY=    21.0963
   XZ=   -11.7525   YZ=    22.2473   ZZ=    47.3262
   Eigenvalues:     2.9436    38.2937    59.8961
     40  Bq   Isotropic =    24.7987   Anisotropy =    37.8492
   XX=    19.4010   YX=    -2.4076   ZX=    12.3280
   XY=    -7.1182   YY=    23.3184   ZY=    30.6316
   XZ=    -9.6779   YZ=    13.3801   ZZ=    31.6768
   Eigenvalues:     3.7862    20.5784    50.0315
     41  Bq   Isotropic =    28.4778   Anisotropy =    29.8000
   XX=    18.9800   YX=     5.4876   ZX=     5.8579
   XY=     4.8383   YY=    20.4298   ZY=     5.2761
   XZ=     1.4565   YZ=     7.6334   ZZ=    46.0236
   Eigenvalues:    14.4095    22.6794    48.3445
     42  Bq   Isotropic =    18.7608   Anisotropy =    23.1695
   XX=    12.1061   YX=     2.2649   ZX=    -1.3052
   XY=     5.1795   YY=    14.5650   ZY=     5.2384
   XZ=     0.4494   YZ=    13.5853   ZZ=    29.6114
   Eigenvalues:     7.3645    14.7108    34.2072
     43  Bq   Isotropic =    10.8529   Anisotropy =    19.5963
   XX=     3.5883   YX=     0.4334   ZX=    -1.2611
   XY=     2.8663   YY=     9.2488   ZY=     4.5458
   XZ=    -1.0397   YZ=    11.1369   ZZ=    19.7218
   Eigenvalues:     2.1926     6.4492    23.9171
     44  Bq   Isotropic =    11.2369   Anisotropy =    21.7978
   XX=     3.8647   YX=    -0.3688   ZX=    -0.8236
   XY=     1.2287   YY=     6.9680   ZY=     3.9451
   XZ=    -2.6364   YZ=    10.5113   ZZ=    22.8779
   Eigenvalues:     2.9285     5.0134    25.7687
     45  Bq   Isotropic =    14.5587   Anisotropy =    26.5011
   XX=     8.0763   YX=    -1.6761   ZX=    -0.0381
   XY=    -0.7955   YY=     9.0003   ZY=     6.2787
   XZ=    -3.3368   YZ=    16.1403   ZZ=    26.5994
   Eigenvalues:     3.5175     7.9325    32.2261
     46  Bq   Isotropic =    12.3100   Anisotropy =    24.4633
   XX=     7.8232   YX=    -1.8031   ZX=     0.9977
   XY=    -0.6353   YY=    12.0619   ZY=     5.7069
   XZ=    -3.2133   YZ=    21.7190   ZZ=    17.0449
   Eigenvalues:     0.6088     7.7024    28.6189
     47  Bq   Isotropic =     5.6717   Anisotropy =    18.0696
   XX=     3.3156   YX=    -1.1879   ZX=     0.4274
   XY=     0.2372   YY=     9.0954   ZY=     2.7431
   XZ=    -3.2223   YZ=    18.3028   ZZ=     4.6040
   Eigenvalues:    -3.9958     3.2928    17.7181
     48  Bq   Isotropic =     6.0593   Anisotropy =    28.6731
   XX=   -14.1421   YX=    -8.2491   ZX=     3.1160
   XY=    -3.2130   YY=    22.2916   ZY=    -4.8984
   XZ=    -9.9993   YZ=    -7.1319   ZZ=    10.0283
   Eigenvalues:   -15.7659     8.7690    25.1747
     49  Bq   Isotropic =    11.3626   Anisotropy =    17.1071
   XX=    22.2221   YX=    -4.3666   ZX=     0.3125
   XY=    -0.2036   YY=    12.6442   ZY=    -2.5832
   XZ=    -3.8464   YZ=    -5.9944   ZZ=    -0.7786
   Eigenvalues:    -2.2567    13.5771    22.7673
     50  Bq   Isotropic =    10.9214   Anisotropy =    25.4269
   XX=    16.8099   YX=     6.5464   ZX=    -9.9310
   XY=    12.2379   YY=    16.0775   ZY=     3.5660
   XZ=    -2.6976   YZ=   -12.1536   ZZ=    -0.1231
   Eigenvalues:    -2.3114     7.2030    27.8727
     51  Bq   Isotropic =    19.9352   Anisotropy =    13.2045
   XX=    14.7262   YX=    -2.0250   ZX=    -6.9111
   XY=     5.3783   YY=    17.3909   ZY=     1.4932
   XZ=     0.8916   YZ=    -5.0133   ZZ=    27.6884
   Eigenvalues:    13.6082    17.4591    28.7382
     52  Bq   Isotropic =    16.4487   Anisotropy =    21.1995
   XX=     9.7451   YX=     1.0434   ZX=    -2.4108
   XY=     4.8929   YY=    11.9248   ZY=     5.7398
   XZ=    -3.7477   YZ=     8.5065   ZZ=    27.6761
   Eigenvalues:     5.5151    13.2492    30.5817
     53  Bq   Isotropic =    11.6426   Anisotropy =    22.2178
   XX=     5.0503   YX=     0.7547   ZX=    -2.9858
   XY=     3.1210   YY=     7.4718   ZY=     6.1477
   XZ=    -5.9818   YZ=     9.9584   ZZ=    22.4059
   Eigenvalues:     0.6984     7.7750    26.4545
     54  Bq   Isotropic =    12.2188   Anisotropy =    24.7058
   XX=     5.2376   YX=    -1.4203   ZX=    -1.9845
   XY=     0.9497   YY=     6.5450   ZY=     5.5067
   XZ=    -4.9289   YZ=    11.5355   ZZ=    24.8739
   Eigenvalues:     2.6819     5.2852    28.6894
     55  Bq   Isotropic =    13.2982   Anisotropy =    26.6560
   XX=     7.8703   YX=    -2.2616   ZX=    -0.4485
   XY=     0.8108   YY=     7.5399   ZY=     6.4675
   XZ=    -1.7703   YZ=    18.2445   ZZ=    24.4844
   Eigenvalues:     1.0283     7.7975    31.0689
     56  Bq   Isotropic =     9.3968   Anisotropy =    22.8871
   XX=     6.8191   YX=    -2.3350   ZX=     1.2781
   XY=     0.7768   YY=     8.9134   ZY=     5.5510
   XZ=     2.2272   YZ=    22.0888   ZZ=    12.4580
   Eigenvalues:    -3.5411     7.0767    24.6549
     57  Bq   Isotropic =     3.9527   Anisotropy =    16.8293
   XX=     2.9926   YX=    -1.3921   ZX=     2.1063
   XY=     0.8038   YY=     6.8008   ZY=     2.7414
   XZ=     2.9170   YZ=    17.9034   ZZ=     2.0645
   Eigenvalues:    -6.6409     3.3266    15.1722
     58  Bq   Isotropic =     1.8528   Anisotropy =    19.7763
   XX=     9.0302   YX=    -0.0573   ZX=    -1.7762
   XY=     4.8727   YY=     7.6812   ZY=    -8.1803
   XZ=   -11.0227   YZ=    -8.9427   ZZ=   -11.1531
   Eigenvalues:   -15.5561     6.0774    15.0370
     59  Bq   Isotropic =    -3.3848   Anisotropy =    22.7634
   XX=     9.6224   YX=     0.2040   ZX=     0.3613
   XY=     4.6718   YY=     2.2894   ZY=    -8.9432
   XZ=    -5.1096   YZ=   -14.7921   ZZ=   -22.0662
   Eigenvalues:   -26.9378     4.9926    11.7908
     60  Bq   Isotropic =    -0.2640   Anisotropy =    23.0688
   XX=    11.1984   YX=     2.2185   ZX=    -0.2235
   XY=     6.3074   YY=     3.1178   ZY=    -6.9066
   XZ=    -1.4843   YZ=   -20.9675   ZZ=   -15.1081
   Eigenvalues:   -22.6960     6.7888    15.1152
     61  Bq   Isotropic =    11.9827   Anisotropy =    11.5302
   XX=    13.3632   YX=     1.2549   ZX=     2.1869
   XY=     5.7431   YY=     8.5211   ZY=     0.4880
   XZ=     0.3138   YZ=   -15.9225   ZZ=    14.0636
   Eigenvalues:     1.9621    14.3164    19.6695
     62  Bq   Isotropic =    17.9784   Anisotropy =    22.3935
   XX=    10.8807   YX=     4.2584   ZX=     1.0885
   XY=     7.2422   YY=    10.2910   ZY=     4.0053
   XZ=    -3.9554   YZ=    -1.1929   ZZ=    32.7637
   Eigenvalues:     4.6846    16.3434    32.9074
     63  Bq   Isotropic =    16.9421   Anisotropy =    28.9940
   XX=     9.0288   YX=     1.9674   ZX=    -3.1354
   XY=     4.3215   YY=     7.8983   ZY=     6.4914
   XZ=    -6.2427   YZ=     7.8339   ZZ=    33.8990
   Eigenvalues:     2.9260    11.6288    36.2714
     64  Bq   Isotropic =    16.3482   Anisotropy =    29.2023
   XX=     8.6033   YX=    -1.7272   ZX=    -2.0961
   XY=     1.9228   YY=     9.1559   ZY=     7.1220
   XZ=    -3.8666   YZ=    14.0740   ZZ=    31.2853
   Eigenvalues:     4.5231     8.7052    35.8164
     65  Bq   Isotropic =    12.8951   Anisotropy =    24.3957
   XX=     9.2224   YX=    -2.4421   ZX=     0.5367
   XY=     2.3642   YY=     8.3243   ZY=     4.6151
   XZ=     0.4551   YZ=    21.2203   ZZ=    21.1385
   Eigenvalues:     0.3023     9.2240    29.1589
     66  Bq   Isotropic =     5.8083   Anisotropy =    18.9739
   XX=     6.8713   YX=    -2.2512   ZX=     2.0799
   XY=     1.7738   YY=     6.3427   ZY=     3.8341
   XZ=     3.9053   YZ=    21.8366   ZZ=     4.2110
   Eigenvalues:    -7.9821     6.9494    18.4576
     67  Bq   Isotropic =     1.3241   Anisotropy =    14.2255
   XX=     3.5303   YX=    -1.5058   ZX=     2.3896
   XY=     1.0509   YY=     4.6374   ZY=     2.3637
   XZ=     4.1567   YZ=    16.1051   ZZ=    -4.1955
   Eigenvalues:   -10.6108     3.7753    10.8078
     68  Bq   Isotropic =    -2.1742   Anisotropy =    21.6063
   XX=     9.1029   YX=     0.1940   ZX=    -2.3670
   XY=     4.6593   YY=    -1.8815   ZY=    -4.9197
   XZ=   -12.0183   YZ=    -5.3940   ZZ=   -13.7441
   Eigenvalues:   -17.0682    -1.6845    12.2300
     69  Bq   Isotropic =    -3.8405   Anisotropy =    21.2421
   XX=     7.7093   YX=     0.5701   ZX=    -0.5732
   XY=     4.2345   YY=    -1.5373   ZY=    -5.7001
   XZ=    -9.4582   YZ=   -11.7070   ZZ=   -17.6935
   Eigenvalues:   -21.9473     0.1049    10.3209
     70  Bq   Isotropic =    -0.6760   Anisotropy =    21.0602
   XX=    10.5611   YX=     1.1434   ZX=    -0.1830
   XY=     4.1604   YY=    -1.3344   ZY=    -4.6655
   XZ=    -7.6026   YZ=   -18.5753   ZZ=   -11.2549
   Eigenvalues:   -19.0401     3.6478    13.3641
     71  Bq   Isotropic =     9.3813   Anisotropy =    15.1247
   XX=    14.4119   YX=     1.3225   ZX=    -0.5531
   XY=     4.5224   YY=     2.3130   ZY=     0.9400
   XZ=    -4.8635   YZ=   -18.0006   ZZ=    11.4190
   Eigenvalues:    -2.8782    11.5577    19.4644
     72  Bq   Isotropic =    17.0317   Anisotropy =    23.0527
   XX=    12.7866   YX=     1.5736   ZX=    -1.0264
   XY=     4.6781   YY=     6.2845   ZY=     1.8764
   XZ=    -1.2495   YZ=    -7.1511   ZZ=    32.0240
   Eigenvalues:     4.8725    13.8225    32.4001
     73  Bq   Isotropic =    17.5220   Anisotropy =    29.6196
   XX=     9.8994   YX=     1.9618   ZX=    -2.2998
   XY=     5.0067   YY=     5.9825   ZY=     4.4581
   XZ=     0.9032   YZ=     4.0806   ZZ=    36.6839
   Eigenvalues:     3.4493    11.8482    37.2684
     74  Bq   Isotropic =    16.7774   Anisotropy =    28.7027
   XX=     9.3776   YX=     0.6122   ZX=    -4.0090
   XY=     5.0300   YY=     8.0501   ZY=     5.6251
   XZ=     0.7623   YZ=    12.6280   ZZ=    32.9044
   Eigenvalues:     3.3661    11.0535    35.9125
     75  Bq   Isotropic =    12.6854   Anisotropy =    21.9078
   XX=    10.3937   YX=    -2.0319   ZX=    -2.4884
   XY=     3.0616   YY=     7.3757   ZY=     2.9834
   XZ=    -0.0456   YZ=    20.5441   ZZ=    20.2869
   Eigenvalues:     0.2951    10.4706    27.2906
     76  Bq   Isotropic =     5.2447   Anisotropy =    16.0875
   XX=     7.9743   YX=    -2.5611   ZX=     0.0751
   XY=     1.3059   YY=     5.4466   ZY=     2.8057
   XZ=     0.5467   YZ=    21.1521   ZZ=     2.3130
   Eigenvalues:    -8.2270     7.9913    15.9697
     77  Bq   Isotropic =     0.8816   Anisotropy =    12.2632
   XX=     4.4544   YX=    -1.9854   ZX=     0.6292
   XY=     0.7053   YY=     3.9914   ZY=     1.9762
   XZ=     1.1005   YZ=    15.3682   ZZ=    -5.8011
   Eigenvalues:   -10.9381     4.5258     9.0571
     78  Bq   Isotropic =    -0.0758   Anisotropy =    18.8013
   XX=     7.2081   YX=    -0.9580   ZX=    -3.2919
   XY=     3.1969   YY=    -2.3070   ZY=    -3.7587
   XZ=   -14.5242   YZ=    -4.4296   ZZ=    -5.1286
   Eigenvalues:   -10.9604    -1.7254    12.4583
     79  Bq   Isotropic =     0.4779   Anisotropy =    18.1956
   XX=     7.4312   YX=    -0.4502   ZX=    -1.7877
   XY=     3.0624   YY=    -0.6837   ZY=    -3.8387
   XZ=   -13.9424   YZ=    -9.7919   ZZ=    -5.3137
   Eigenvalues:   -12.0117     0.8372    12.6083
     80  Bq   Isotropic =     4.7277   Anisotropy =    18.7019
   XX=     9.8755   YX=     0.1576   ZX=    -1.1647
   XY=     3.2791   YY=     0.0870   ZY=    -3.7546
   XZ=   -12.4192   YZ=   -14.1732   ZZ=     4.2205
   Eigenvalues:    -7.5886     4.5760    17.1956
     81  Bq   Isotropic =    10.6902   Anisotropy =    19.2591
   XX=    11.2277   YX=    -0.0152   ZX=    -2.0381
   XY=     3.4333   YY=     0.2183   ZY=     0.2685
   XZ=    -7.1504   YZ=    -9.4687   ZZ=    20.6246
   Eigenvalues:    -0.8160     9.3570    23.5296
     82  Bq   Isotropic =    12.0813   Anisotropy =    21.5543
   XX=     8.4138   YX=    -0.5478   ZX=    -1.7721
   XY=     2.7956   YY=     1.4714   ZY=     2.8073
   XZ=    -0.5634   YZ=    -1.3774   ZZ=    26.3587
   Eigenvalues:     1.2624     8.5307    26.4508
     83  Bq   Isotropic =    11.3600   Anisotropy =    23.1410
   XX=     5.9115   YX=     1.1633   ZX=    -1.4199
   XY=     4.2337   YY=     1.7237   ZY=     2.3769
   XZ=     3.2558   YZ=     2.8516   ZZ=    26.4447
   Eigenvalues:     0.2546     7.0380    26.7873
     84  Bq   Isotropic =    12.3616   Anisotropy =    24.4048
   XX=     6.1208   YX=     1.6441   ZX=    -3.3595
   XY=     5.1324   YY=     3.1617   ZY=     1.7703
   XZ=     2.8848   YZ=     7.3867   ZZ=    27.8021
   Eigenvalues:     0.3581     8.0951    28.6315
     85  Bq   Isotropic =    12.8178   Anisotropy =    23.2508
   XX=     8.9621   YX=    -0.9569   ZX=    -3.5446
   XY=     2.6624   YY=     5.0496   ZY=     2.7108
   XZ=     0.0236   YZ=    16.0281   ZZ=    24.4417
   Eigenvalues:     0.9962     9.1390    28.3183
     86  Bq   Isotropic =     8.1708   Anisotropy =    18.0970
   XX=     8.1451   YX=    -2.4327   ZX=    -1.7589
   XY=     0.9104   YY=     6.5723   ZY=     3.0341
   XZ=    -1.4577   YZ=    20.3632   ZZ=     9.7950
   Eigenvalues:    -3.6455     7.9224    20.2355
     87  Bq   Isotropic =     3.0012   Anisotropy =    13.3584
   XX=     4.4318   YX=    -2.3863   ZX=    -1.2351
   XY=     0.4013   YY=     4.9905   ZY=     1.7844
   XZ=    -0.9248   YZ=    16.1018   ZZ=    -0.4188
   Eigenvalues:    -7.0639     4.1607    11.9067
     88  Bq   Isotropic =     4.0829   Anisotropy =    18.6010
   XX=     5.2174   YX=    -1.6203   ZX=    -4.1661
   XY=     1.6714   YY=    -1.0160   ZY=    -4.2102
   XZ=   -13.7231   YZ=    -5.4155   ZZ=     8.0473
   Eigenvalues:    -5.1734     0.9385    16.4836
     89  Bq   Isotropic =     6.0273   Anisotropy =    19.0361
   XX=     6.8958   YX=    -0.7838   ZX=    -2.9158
   XY=     2.1998   YY=     0.5529   ZY=    -3.6322
   XZ=   -13.2027   YZ=    -9.1073   ZZ=    10.6331
   Eigenvalues:    -3.6651     3.0289    18.7180
     90  Bq   Isotropic =    10.6206   Anisotropy =    22.9027
   XX=    10.5805   YX=    -0.3191   ZX=    -2.7981
   XY=     2.4523   YY=     1.0959   ZY=    -3.6225
   XZ=   -11.6584   YZ=   -10.4202   ZZ=    20.1853
   Eigenvalues:    -1.3660     7.3386    25.8890
     91  Bq   Isotropic =    12.6208   Anisotropy =    25.4872
   XX=    10.8991   YX=    -0.9891   ZX=    -3.1343
   XY=     2.0349   YY=    -1.2843   ZY=    -0.0632
   XZ=    -6.6701   YZ=    -2.8160   ZZ=    28.2476
   Eigenvalues:    -1.3614     9.6115    29.6123
     92  Bq   Isotropic =    10.1639   Anisotropy =    23.2843
   XX=     6.6880   YX=    -0.9933   ZX=    -2.8176
   XY=     1.9933   YY=    -1.1432   ZY=     3.5819
   XZ=    -1.7990   YZ=     3.5596   ZZ=    24.9469
   Eigenvalues:    -1.7016     6.5066    25.6868
     93  Bq   Isotropic =     8.8238   Anisotropy =    21.0320
   XX=     4.1238   YX=     0.0739   ZX=    -2.8698
   XY=     2.6994   YY=    -0.0486   ZY=     2.1211
   XZ=     0.7568   YZ=     3.9937   ZZ=    22.3960
   Eigenvalues:    -0.9156     4.5418    22.8451
     94  Bq   Isotropic =    10.7921   Anisotropy =    22.5755
   XX=     5.4034   YX=     0.6461   ZX=    -3.6089
   XY=     3.1526   YY=     1.5668   ZY=     0.6171
   XZ=     1.3470   YZ=     5.5950   ZZ=    25.4062
   Eigenvalues:     0.3502     6.1837    25.8424
     95  Bq   Isotropic =    13.9176   Anisotropy =    24.2970
   XX=     9.4621   YX=    -0.7289   ZX=    -4.1097
   XY=     2.0666   YY=     5.0605   ZY=     3.2207
   XZ=     0.9315   YZ=    13.5157   ZZ=    27.2304
   Eigenvalues:     2.0793     9.5580    30.1157
     96  Bq   Isotropic =    11.0627   Anisotropy =    20.3074
   XX=     8.2164   YX=    -2.7424   ZX=    -2.7349
   XY=     0.3184   YY=     8.6191   ZY=     3.3793
   XZ=     1.9509   YZ=    19.4481   ZZ=    16.3527
   Eigenvalues:     0.3617     8.2255    24.6010
     97  Bq   Isotropic =     4.9265   Anisotropy =    15.0372
   XX=     3.0234   YX=    -2.6989   ZX=    -0.8585
   XY=    -0.1962   YY=     6.4805   ZY=     1.8234
   XZ=     2.9906   YZ=    16.2646   ZZ=     5.2755
   Eigenvalues:    -3.6543     3.4824    14.9512
     98  Bq   Isotropic =     6.3336   Anisotropy =    20.6062
   XX=     3.0222   YX=    -1.8257   ZX=    -4.2324
   XY=     0.0132   YY=    -0.9147   ZY=    -4.0488
   XZ=    -8.0208   YZ=    -5.6439   ZZ=    16.8934
   Eigenvalues:    -3.3301     2.2599    20.0711
     99  Bq   Isotropic =     8.0212   Anisotropy =    21.5023
   XX=     4.7017   YX=    -0.7139   ZX=    -3.4119
   XY=     1.2433   YY=     0.2451   ZY=    -4.4530
   XZ=    -6.5379   YZ=    -8.1441   ZZ=    19.1169
   Eigenvalues:    -1.9168     3.6244    22.3561
    100  Bq   Isotropic =    12.4232   Anisotropy =    26.8238
   XX=     8.4028   YX=    -0.3793   ZX=    -4.4278
   XY=     1.6026   YY=     1.1741   ZY=    -4.1007
   XZ=    -5.4419   YZ=    -8.8462   ZZ=    27.6926
   Eigenvalues:    -0.3552     7.3190    30.3057
    101  Bq   Isotropic =    15.0335   Anisotropy =    30.3000
   XX=     9.4352   YX=    -1.5523   ZX=    -4.7308
   XY=     1.0898   YY=     1.0782   ZY=     0.3610
   XZ=    -3.4039   YZ=    -1.2744   ZZ=    34.5870
   Eigenvalues:     1.0615     8.8054    35.2335
    102  Bq   Isotropic =    12.5809   Anisotropy =    27.2277
   XX=     6.0759   YX=    -1.3168   ZX=    -4.2131
   XY=     2.0548   YY=     1.8149   ZY=     3.3340
   XZ=    -1.0631   YZ=     5.0653   ZZ=    29.8518
   Eigenvalues:     1.0822     5.9278    30.7327
    103  Bq   Isotropic =    11.0701   Anisotropy =    24.2271
   XX=     4.2825   YX=    -1.4024   ZX=    -4.4587
   XY=     1.3844   YY=     2.4952   ZY=     2.4235
   XZ=     0.1903   YZ=     5.2164   ZZ=    26.4325
   Eigenvalues:     1.8550     4.1337    27.2215
    104  Bq   Isotropic =    13.3288   Anisotropy =    24.8323
   XX=     5.0637   YX=    -1.4126   ZX=    -3.5052
   XY=     0.6086   YY=     5.6962   ZY=     1.2836
   XZ=     1.7402   YZ=     6.4678   ZZ=    29.2265
   Eigenvalues:     4.7935     5.3093    29.8837
    105  Bq   Isotropic =    15.4093   Anisotropy =    24.8382
   XX=     8.1802   YX=    -1.0649   ZX=    -2.8490
   XY=     1.7740   YY=     9.1130   ZY=     2.8932
   XZ=     4.2425   YZ=    13.6808   ZZ=    28.9347
   Eigenvalues:     6.1005     8.1593    31.9681
    106  Bq   Isotropic =    10.0578   Anisotropy =    20.6549
   XX=     5.9219   YX=    -2.2906   ZX=    -0.8007
   XY=     0.8217   YY=     9.9969   ZY=     4.2164
   XZ=     7.6311   YZ=    18.2563   ZZ=    14.2546
   Eigenvalues:    -0.5165     6.8621    23.8278
    107  Bq   Isotropic =     3.5347   Anisotropy =    15.7637
   XX=     1.3271   YX=    -1.8838   ZX=     1.7979
   XY=     0.0635   YY=     6.9606   ZY=     2.9018
   XZ=     8.2934   YZ=    14.3436   ZZ=     2.3165
   Eigenvalues:    -6.9019     3.4623    14.0439
    108  Bq   Isotropic =     6.7199   Anisotropy =    21.3654
   XX=     2.2717   YX=    -1.1701   ZX=    -4.7895
   XY=    -0.4660   YY=    -1.4943   ZY=    -3.2794
   XZ=    -3.2525   YZ=    -5.0866   ZZ=    19.3824
   Eigenvalues:    -2.8462     2.0425    20.9636
    109  Bq   Isotropic =     7.4435   Anisotropy =    21.2860
   XX=     3.7336   YX=    -0.8634   ZX=    -4.1648
   XY=     0.0693   YY=    -0.9856   ZY=    -4.9979
   XZ=    -1.9296   YZ=    -6.9125   ZZ=    19.5824
   Eigenvalues:    -2.8075     3.5038    21.6341
    110  Bq   Isotropic =    11.0993   Anisotropy =    25.1671
   XX=     7.1516   YX=    -0.9266   ZX=    -4.4707
   XY=     0.2665   YY=    -0.1355   ZY=    -4.6543
   XZ=     0.0490   YZ=    -7.7581   ZZ=    26.2818
   Eigenvalues:    -1.5960     7.0165    27.8774
    111  Bq   Isotropic =    15.6180   Anisotropy =    28.1834
   XX=     9.3720   YX=    -2.2447   ZX=    -4.2622
   XY=     0.5197   YY=     3.0902   ZY=    -0.1673
   XZ=     3.7767   YZ=    -1.1109   ZZ=    34.3919
   Eigenvalues:     2.9598     9.4873    34.4069
    112  Bq   Isotropic =    15.0575   Anisotropy =    26.1599
   XX=     7.0362   YX=    -2.6041   ZX=    -3.0016
   XY=     1.8523   YY=     6.0775   ZY=     0.2885
   XZ=     7.2252   YZ=     5.0498   ZZ=    32.0589
   Eigenvalues:     5.5466     7.1285    32.4975
    113  Bq   Isotropic =    13.7821   Anisotropy =    25.1595
   XX=     5.5965   YX=    -3.0365   ZX=    -2.4109
   XY=     0.6316   YY=     6.0871   ZY=     1.7856
   XZ=     7.9362   YZ=     6.0488   ZZ=    29.6627
   Eigenvalues:     3.7747     7.0165    30.5551
    114  Bq   Isotropic =    15.0325   Anisotropy =    24.8941
   XX=     6.1299   YX=    -3.0315   ZX=    -0.4176
   XY=    -0.3469   YY=     9.5735   ZY=     3.0454
   XZ=     9.8458   YZ=     8.5167   ZZ=    29.3941
   Eigenvalues:     3.6392     9.8297    31.6286
    115  Bq   Isotropic =    13.5449   Anisotropy =    21.4557
   XX=     8.3238   YX=    -1.8906   ZX=     0.7803
   XY=     2.0590   YY=     9.6142   ZY=     1.6120
   XZ=    10.8638   YZ=    14.1221   ZZ=    22.6968
   Eigenvalues:     4.0312     8.7549    27.8487
    116  Bq   Isotropic =     6.3579   Anisotropy =    18.0764
   XX=     5.5005   YX=    -1.7778   ZX=     2.2135
   XY=     2.2398   YY=     7.1787   ZY=     3.8307
   XZ=    10.1995   YZ=    16.0840   ZZ=     6.3945
   Eigenvalues:    -5.0997     5.7646    18.4088
    117  Bq   Isotropic =     1.2416   Anisotropy =    14.7324
   XX=     1.3784   YX=    -0.8951   ZX=     3.2130
   XY=     1.2554   YY=     5.4228   ZY=     3.5895
   XZ=     8.6523   YZ=    11.5805   ZZ=    -3.0763
   Eigenvalues:    -9.8730     2.5346    11.0632
    118  Bq   Isotropic =     8.0400   Anisotropy =    22.4785
   XX=     2.8484   YX=     0.1774   ZX=    -6.4047
   XY=     0.0792   YY=    -0.3830   ZY=    -3.1431
   XZ=    -0.9581   YZ=    -4.9021   ZZ=    21.6547
   Eigenvalues:    -1.1710     2.2654    23.0257
    119  Bq   Isotropic =     8.5212   Anisotropy =    21.7891
   XX=     4.5316   YX=    -1.0250   ZX=    -6.2773
   XY=    -0.7898   YY=    -0.2624   ZY=    -4.8918
   XZ=    -0.7352   YZ=    -5.5179   ZZ=    21.2945
   Eigenvalues:    -1.9146     4.4309    23.0473
    120  Bq   Isotropic =    11.1116   Anisotropy =    23.4558
   XX=     6.7169   YX=    -1.9465   ZX=    -6.1482
   XY=    -1.1149   YY=     0.9520   ZY=    -4.7198
   XZ=     1.6107   YZ=    -4.8376   ZZ=    25.6660
   Eigenvalues:    -0.4639     7.0500    26.7488
    121  Bq   Isotropic =    13.2309   Anisotropy =    21.0587
   XX=     7.9635   YX=    -3.6293   ZX=    -5.5617
   XY=    -0.8919   YY=     4.5724   ZY=    -0.9583
   XZ=     8.2126   YZ=     2.6799   ZZ=    27.1569
   Eigenvalues:     3.3638     9.0590    27.2701
    122  Bq   Isotropic =    10.1771   Anisotropy =    17.0439
   XX=     5.1745   YX=    -5.6481   ZX=    -1.5237
   XY=    -1.4258   YY=     7.2958   ZY=    -0.9230
   XZ=    16.2512   YZ=     7.0910   ZZ=    18.0610
   Eigenvalues:    -0.7154     9.7070    21.5397
    123  Bq   Isotropic =     8.1822   Anisotropy =    18.8869
   XX=     3.5976   YX=    -3.4835   ZX=     2.0709
   XY=    -0.3188   YY=     6.6137   ZY=     0.3357
   XZ=    18.5720   YZ=     5.5759   ZZ=    14.3353
   Eigenvalues:    -3.6495     7.4226    20.7735
    124  Bq   Isotropic =     9.1195   Anisotropy =    17.2736
   XX=     4.1490   YX=    -0.9460   ZX=     0.4817
   XY=     1.2928   YY=     8.2294   ZY=     1.1939
   XZ=    16.8340   YZ=     6.0401   ZZ=    14.9800
   Eigenvalues:    -0.9434     7.6666    20.6352
    125  Bq   Isotropic =     8.4677   Anisotropy =    14.2931
   XX=     6.0733   YX=    -2.0300   ZX=    -0.8921
   XY=     1.5518   YY=     6.2567   ZY=     0.1096
   XZ=    12.1979   YZ=    10.3784   ZZ=    13.0732
   Eigenvalues:     0.9958     6.4109    17.9964
    126  Bq   Isotropic =     3.6843   Anisotropy =    13.7658
   XX=     4.2804   YX=    -2.2132   ZX=     1.2226
   XY=     1.6181   YY=     4.0712   ZY=     3.4150
   XZ=     8.6615   YZ=    12.9547   ZZ=     2.7013
   Eigenvalues:    -6.2964     4.4878    12.8615
    127  Bq   Isotropic =     0.1925   Anisotropy =    12.4946
   XX=     1.1168   YX=    -0.7890   ZX=     2.5044
   XY=     1.5689   YY=     3.8767   ZY=     3.7733
   XZ=     6.7073   YZ=     9.3931   ZZ=    -4.4159
   Eigenvalues:    -9.4949     1.5502     8.5223
    128  Bq   Isotropic =    11.4256   Anisotropy =    24.3317
   XX=     4.0458   YX=     1.2457   ZX=    -6.2120
   XY=     0.5269   YY=     3.6525   ZY=    -4.1401
   XZ=     2.9445   YZ=    -5.3056   ZZ=    26.5784
   Eigenvalues:     2.5025     4.1275    27.6467
    129  Bq   Isotropic =    12.8130   Anisotropy =    23.6802
   XX=     6.7506   YX=    -1.6787   ZX=    -6.4152
   XY=    -1.7660   YY=     3.6979   ZY=    -3.5801
   XZ=     2.2658   YZ=    -3.1376   ZZ=    27.9905
   Eigenvalues:     2.3247     7.5145    28.5998
    130  Bq   Isotropic =    13.7763   Anisotropy =    22.3909
   XX=     6.8917   YX=    -3.7654   ZX=    -4.2357
   XY=    -3.1335   YY=     5.7939   ZY=    -2.5281
   XZ=     5.3341   YZ=     0.6624   ZZ=    28.6432
   Eigenvalues:     2.8451     9.7802    28.7036
    131  Bq   Isotropic =    10.5333   Anisotropy =    16.3150
   XX=     6.0312   YX=    -4.3465   ZX=    -1.5910
   XY=    -1.7852   YY=     6.1388   ZY=    -0.3388
   XZ=    10.9912   YZ=     7.8593   ZZ=    19.4297
   Eigenvalues:     1.0617     9.1282    21.4099
    132  Bq   Isotropic =     3.6669   Anisotropy =    12.7789
   XX=     2.6606   YX=    -5.1866   ZX=     2.2569
   XY=    -2.0847   YY=     5.5901   ZY=     1.3946
   XZ=    16.0998   YZ=     9.1245   ZZ=     2.7501
   Eigenvalues:    -9.1639     7.9785    12.1862
    133  Bq   Isotropic =     0.9437   Anisotropy =    13.9160
   XX=     0.6613   YX=    -2.9679   ZX=     4.5648
   XY=    -1.1289   YY=     4.7756   ZY=     0.4428
   XZ=    17.5748   YZ=     4.7165   ZZ=    -2.6058
   Eigenvalues:   -12.7790     5.3890    10.2210
    134  Bq   Isotropic =     2.2566   Anisotropy =    12.4879
   XX=     0.3674   YX=    -0.6153   ZX=     3.1078
   XY=     0.3904   YY=     4.7121   ZY=    -0.9175
   XZ=    15.8574   YZ=     2.5666   ZZ=     1.6902
   Eigenvalues:    -8.5082     4.6962    10.5818
    135  Bq   Isotropic =     3.8680   Anisotropy =    12.6311
   XX=     1.5437   YX=    -0.7842   ZX=     1.5811
   XY=     1.0026   YY=     3.2620   ZY=    -0.0839
   XZ=    12.4039   YZ=     5.7670   ZZ=     6.7984
   Eigenvalues:    -3.6557     2.9710    12.2888
    136  Bq   Isotropic =     2.0887   Anisotropy =    13.1695
   XX=     1.3422   YX=    -0.7163   ZX=     1.8841
   XY=     1.8306   YY=     2.6186   ZY=     3.5270
   XZ=     8.6144   YZ=     9.5112   ZZ=     2.3053
   Eigenvalues:    -5.9059     1.3036    10.8683
    137  Bq   Isotropic =    -0.1632   Anisotropy =    11.4044
   XX=     0.0712   YX=     0.1056   ZX=     2.2086
   XY=     2.0861   YY=     2.9599   ZY=     3.6643
   XZ=     5.8332   YZ=     7.4430   ZZ=    -3.5208
   Eigenvalues:    -7.8888    -0.0405     7.4397
 End of Minotr F.D. properties file   721 does not exist.
 End of Minotr F.D. properties file   722 does not exist.
 End of Minotr F.D. properties file   788 does not exist.
 Hyperfine terms turned off by default for NAtoms > 100.

 **********************************************************************

            Population analysis using the SCF density.

 **********************************************************************

 Alpha  occ. eigenvalues --  -10.19519 -10.19478 -10.19029 -10.19029 -10.18896
 Alpha  occ. eigenvalues --  -10.18895 -10.18706 -10.18705 -10.17975 -10.17938
 Alpha  occ. eigenvalues --  -10.17937 -10.17904 -10.17858 -10.17858 -10.17744
 Alpha  occ. eigenvalues --  -10.17743 -10.17670 -10.17670 -10.17548 -10.17548
 Alpha  occ. eigenvalues --  -10.17417 -10.17416  -0.90320  -0.88119  -0.85937
 Alpha  occ. eigenvalues --   -0.83160  -0.80702  -0.79527  -0.76956  -0.75590
 Alpha  occ. eigenvalues --   -0.74411  -0.72712  -0.71872  -0.64912  -0.64545
 Alpha  occ. eigenvalues --   -0.62214  -0.61768  -0.61707  -0.58417  -0.55988
 Alpha  occ. eigenvalues --   -0.53829  -0.53378  -0.50936  -0.50526  -0.49905
 Alpha  occ. eigenvalues --   -0.47316  -0.47011  -0.45836  -0.44023  -0.43956
 Alpha  occ. eigenvalues --   -0.43861  -0.43232  -0.42654  -0.42235  -0.41022
 Alpha  occ. eigenvalues --   -0.40605  -0.39905  -0.39348  -0.37595  -0.37171
 Alpha  occ. eigenvalues --   -0.36929  -0.35577  -0.35098  -0.33983  -0.33391
 Alpha  occ. eigenvalues --   -0.32930  -0.30649  -0.29657  -0.28532  -0.26104
 Alpha  occ. eigenvalues --   -0.23798  -0.21944  -0.21480
 Alpha virt. eigenvalues --   -0.06190  -0.06048  -0.03588  -0.01474   0.00045
 Alpha virt. eigenvalues --    0.00403   0.00776   0.00822   0.01789   0.01908
 Alpha virt. eigenvalues --    0.02260   0.03054   0.03115   0.03427   0.03970
 Alpha virt. eigenvalues --    0.04148   0.05033   0.05261   0.05403   0.05895
 Alpha virt. eigenvalues --    0.06030   0.06849   0.07148   0.07594   0.07804
 Alpha virt. eigenvalues --    0.08569   0.08924   0.09463   0.09496   0.10354
 Alpha virt. eigenvalues --    0.10570   0.10732   0.11408   0.11748   0.12306
 Alpha virt. eigenvalues --    0.12874   0.12935   0.13130   0.13385   0.13945
 Alpha virt. eigenvalues --    0.14237   0.14391   0.14830   0.15470   0.15971
 Alpha virt. eigenvalues --    0.16370   0.16695   0.16750   0.17157   0.17459
 Alpha virt. eigenvalues --    0.17466   0.17772   0.18102   0.18395   0.18613
 Alpha virt. eigenvalues --    0.19142   0.19181   0.19441   0.19725   0.20002
 Alpha virt. eigenvalues --    0.20054   0.20484   0.20789   0.20847   0.20953
 Alpha virt. eigenvalues --    0.21459   0.21966   0.22313   0.22670   0.22674
 Alpha virt. eigenvalues --    0.23072   0.23288   0.23358   0.23739   0.24176
 Alpha virt. eigenvalues --    0.24292   0.24631   0.24928   0.24965   0.25616
 Alpha virt. eigenvalues --    0.25621   0.26241   0.26401   0.26560   0.27084
 Alpha virt. eigenvalues --    0.27711   0.27773   0.28033   0.28455   0.29035
 Alpha virt. eigenvalues --    0.29404   0.29706   0.29857   0.30078   0.30253
 Alpha virt. eigenvalues --    0.30266   0.30649   0.31525   0.31636   0.31758
 Alpha virt. eigenvalues --    0.32239   0.32483   0.32704   0.33195   0.33327
 Alpha virt. eigenvalues --    0.33840   0.34625   0.35488   0.35598   0.36043
 Alpha virt. eigenvalues --    0.38050   0.38109   0.39835   0.40156   0.40471
 Alpha virt. eigenvalues --    0.40903   0.42104   0.44630   0.45266   0.47699
 Alpha virt. eigenvalues --    0.47890   0.48537   0.49021   0.49110   0.50711
 Alpha virt. eigenvalues --    0.52328   0.52559   0.53309   0.53697   0.53977
 Alpha virt. eigenvalues --    0.54277   0.54989   0.55247   0.55788   0.56073
 Alpha virt. eigenvalues --    0.56322   0.56436   0.57288   0.57797   0.57994
 Alpha virt. eigenvalues --    0.58489   0.58829   0.59687   0.59777   0.59998
 Alpha virt. eigenvalues --    0.60789   0.60868   0.61789   0.62257   0.62766
 Alpha virt. eigenvalues --    0.63479   0.64175   0.65147   0.66108   0.66617
 Alpha virt. eigenvalues --    0.67511   0.67973   0.68078   0.69426   0.69894
 Alpha virt. eigenvalues --    0.70261   0.70432   0.71100   0.71532   0.72506
 Alpha virt. eigenvalues --    0.72623   0.72679   0.72826   0.73078   0.74019
 Alpha virt. eigenvalues --    0.74766   0.75246   0.75517   0.75527   0.75825
 Alpha virt. eigenvalues --    0.76469   0.76811   0.77162   0.78212   0.78273
 Alpha virt. eigenvalues --    0.78966   0.80200   0.80250   0.81116   0.82017
 Alpha virt. eigenvalues --    0.82463   0.82753   0.84094   0.84505   0.85228
 Alpha virt. eigenvalues --    0.85345   0.86390   0.87451   0.88386   0.88669
 Alpha virt. eigenvalues --    0.89585   0.89655   0.90216   0.91202   0.91381
 Alpha virt. eigenvalues --    0.91542   0.93345   0.93632   0.94099   0.94269
 Alpha virt. eigenvalues --    0.95618   0.96104   0.96964   0.97583   0.97759
 Alpha virt. eigenvalues --    0.98660   0.98888   0.99995   1.00137   1.01437
 Alpha virt. eigenvalues --    1.02087   1.02133   1.03492   1.03557   1.05029
 Alpha virt. eigenvalues --    1.05108   1.07288   1.07607   1.09453   1.09581
 Alpha virt. eigenvalues --    1.10586   1.11198   1.11331   1.13382   1.13854
 Alpha virt. eigenvalues --    1.14269   1.16458   1.16861   1.17654   1.19397
 Alpha virt. eigenvalues --    1.19547   1.21711   1.22636   1.22894   1.26125
 Alpha virt. eigenvalues --    1.29617   1.31281   1.32829   1.33582   1.36341
 Alpha virt. eigenvalues --    1.37663   1.39484   1.39517   1.42713   1.46210
 Alpha virt. eigenvalues --    1.46584   1.48223   1.48804   1.49143   1.50150
 Alpha virt. eigenvalues --    1.50235   1.51739   1.51768   1.53142   1.53852
 Alpha virt. eigenvalues --    1.54784   1.55164   1.55788   1.56018   1.56909
 Alpha virt. eigenvalues --    1.57369   1.58363   1.59276   1.59830   1.60691
 Alpha virt. eigenvalues --    1.61318   1.61437   1.61530   1.63672   1.64358
 Alpha virt. eigenvalues --    1.65748   1.67463   1.67570   1.69816   1.70530
 Alpha virt. eigenvalues --    1.71032   1.72103   1.72835   1.73613   1.74610
 Alpha virt. eigenvalues --    1.74968   1.75931   1.76093   1.76160   1.78199
 Alpha virt. eigenvalues --    1.78443   1.82205   1.82757   1.83005   1.83265
 Alpha virt. eigenvalues --    1.85144   1.85660   1.85803   1.87132   1.88323
 Alpha virt. eigenvalues --    1.89447   1.89538   1.90393   1.91565   1.92371
 Alpha virt. eigenvalues --    1.92424   1.92653   1.93924   1.94576   1.95166
 Alpha virt. eigenvalues --    1.95369   1.95608   1.97280   1.97532   1.97787
 Alpha virt. eigenvalues --    1.99538   2.01839   2.02734   2.03513   2.04274
 Alpha virt. eigenvalues --    2.05377   2.06329   2.06633   2.08238   2.08245
 Alpha virt. eigenvalues --    2.09663   2.10651   2.10693   2.11950   2.12645
 Alpha virt. eigenvalues --    2.14353   2.15040   2.18293   2.19151   2.20115
 Alpha virt. eigenvalues --    2.21316   2.22335   2.24453   2.26496   2.27023
 Alpha virt. eigenvalues --    2.30750   2.30776   2.32190   2.34589   2.34679
 Alpha virt. eigenvalues --    2.36221   2.40261   2.41010   2.42361   2.42548
 Alpha virt. eigenvalues --    2.43343   2.45214   2.46685   2.46769   2.47872
 Alpha virt. eigenvalues --    2.49371   2.52075   2.54599   2.56304   2.58248
 Alpha virt. eigenvalues --    2.59056   2.65475   2.65678   2.67058   2.69083
 Alpha virt. eigenvalues --    2.69620   2.69758   2.70629   2.71087   2.71942
 Alpha virt. eigenvalues --    2.72192   2.73171   2.73425   2.74326   2.74463
 Alpha virt. eigenvalues --    2.75225   2.75305   2.75525   2.75932   2.76148
 Alpha virt. eigenvalues --    2.76930   2.77514   2.77723   2.78748   2.79193
 Alpha virt. eigenvalues --    2.79815   2.80229   2.82623   2.83434   2.83662
 Alpha virt. eigenvalues --    2.85615   2.86706   2.87188   2.88082   2.88315
 Alpha virt. eigenvalues --    2.88695   2.89199   2.91197   2.94038   2.94128
 Alpha virt. eigenvalues --    2.94895   2.95121   2.97440   2.97682   3.01307
 Alpha virt. eigenvalues --    3.01633   3.04949   3.06617   3.10084   3.11988
 Alpha virt. eigenvalues --    3.14970   3.16481   3.22162   3.23050   3.23283
 Alpha virt. eigenvalues --    3.24797   3.25501   3.29918   3.30518   3.34806
 Alpha virt. eigenvalues --    3.35007   3.36722   3.38733   3.39353   3.40525
 Alpha virt. eigenvalues --    3.44514   3.45139   3.48005   3.50671   3.50767
 Alpha virt. eigenvalues --    3.55406   3.55423   3.57270   3.58232   3.58357
 Alpha virt. eigenvalues --    3.65254   3.65347   3.66170   3.66992   3.73362
 Alpha virt. eigenvalues --    3.75788   3.84163   3.97968   4.04607   4.04614
 Alpha virt. eigenvalues --    4.06100   4.06776   4.08780   4.09572   4.09773
 Alpha virt. eigenvalues --    4.19389   4.20687   4.25014   4.32130   4.41470
 Alpha virt. eigenvalues --    4.60493   4.79189   4.79328   4.79758   4.84284
 Alpha virt. eigenvalues --    4.85797  23.48703  23.65474  23.75492  23.85014
 Alpha virt. eigenvalues --   23.89650  23.94497  23.96407  23.97011  23.97390
 Alpha virt. eigenvalues --   23.98137  23.98920  24.03520  24.03812  24.04041
 Alpha virt. eigenvalues --   24.04301  24.14283  24.14640  24.21696  24.21996
 Alpha virt. eigenvalues --   24.22195  24.22672  24.23049
          Condensed to atoms (all electrons):
 Mulliken charges:
               1
     1  C   -0.379011
     2  H    0.123756
     3  C    0.054362
     4  H    0.115562
     5  C    0.447723
     6  C    0.063661
     7  C   -0.484065
     8  H    0.149708
     9  C   -0.262110
    10  H    0.122290
    11  C   -0.321453
    12  H    0.116208
    13  C   -0.234569
    14  H    0.116516
    15  C    0.651925
    16  C    0.037060
    17  C   -0.434569
    18  H    0.117448
    19  C   -0.434668
    20  H    0.117446
    21  C    0.651883
    22  C    0.036499
    23  C   -0.234337
    24  H    0.116514
    25  C   -0.321384
    26  H    0.116205
    27  C    0.447922
    28  C    0.063287
    29  C   -0.484078
    30  H    0.149729
    31  C   -0.261748
    32  H    0.122280
    33  C   -0.379719
    34  H    0.123755
    35  C    0.054416
    36  H    0.115557
    37  Bq   0.000000
    38  Bq   0.000000
    39  Bq   0.000000
    40  Bq   0.000000
    41  Bq   0.000000
    42  Bq   0.000000
    43  Bq   0.000000
    44  Bq   0.000000
    45  Bq   0.000000
    46  Bq   0.000000
    47  Bq   0.000000
    48  Bq   0.000000
    49  Bq   0.000000
    50  Bq   0.000000
    51  Bq   0.000000
    52  Bq   0.000000
    53  Bq   0.000000
    54  Bq   0.000000
    55  Bq   0.000000
    56  Bq   0.000000
    57  Bq   0.000000
    58  Bq   0.000000
    59  Bq   0.000000
    60  Bq   0.000000
    61  Bq   0.000000
    62  Bq   0.000000
    63  Bq   0.000000
    64  Bq   0.000000
    65  Bq   0.000000
    66  Bq   0.000000
    67  Bq   0.000000
    68  Bq   0.000000
    69  Bq   0.000000
    70  Bq   0.000000
    71  Bq   0.000000
    72  Bq   0.000000
    73  Bq   0.000000
    74  Bq   0.000000
    75  Bq   0.000000
    76  Bq   0.000000
    77  Bq   0.000000
    78  Bq   0.000000
    79  Bq   0.000000
    80  Bq   0.000000
    81  Bq   0.000000
    82  Bq   0.000000
    83  Bq   0.000000
    84  Bq   0.000000
    85  Bq   0.000000
    86  Bq   0.000000
    87  Bq   0.000000
    88  Bq   0.000000
    89  Bq   0.000000
    90  Bq   0.000000
    91  Bq   0.000000
    92  Bq   0.000000
    93  Bq   0.000000
    94  Bq   0.000000
    95  Bq   0.000000
    96  Bq   0.000000
    97  Bq   0.000000
    98  Bq   0.000000
    99  Bq   0.000000
   100  Bq   0.000000
   101  Bq   0.000000
   102  Bq   0.000000
   103  Bq   0.000000
   104  Bq   0.000000
   105  Bq   0.000000
   106  Bq   0.000000
   107  Bq   0.000000
   108  Bq   0.000000
   109  Bq   0.000000
   110  Bq   0.000000
   111  Bq   0.000000
   112  Bq   0.000000
   113  Bq   0.000000
   114  Bq   0.000000
   115  Bq   0.000000
   116  Bq   0.000000
   117  Bq   0.000000
   118  Bq   0.000000
   119  Bq   0.000000
   120  Bq   0.000000
   121  Bq   0.000000
   122  Bq   0.000000
   123  Bq   0.000000
   124  Bq   0.000000
   125  Bq   0.000000
   126  Bq   0.000000
   127  Bq   0.000000
   128  Bq   0.000000
   129  Bq   0.000000
   130  Bq   0.000000
   131  Bq   0.000000
   132  Bq   0.000000
   133  Bq   0.000000
   134  Bq   0.000000
   135  Bq   0.000000
   136  Bq   0.000000
   137  Bq   0.000000
 Sum of Mulliken charges =  -0.00000
 Mulliken charges with hydrogens summed into heavy atoms:
               1
     1  C   -0.255255
     3  C    0.169924
     5  C    0.447723
     6  C    0.063661
     7  C   -0.484065
     9  C   -0.139820
    11  C   -0.205245
    13  C   -0.118054
    15  C    0.651925
    16  C    0.037060
    17  C   -0.317120
    19  C   -0.434668
    21  C    0.651883
    22  C    0.036499
    23  C   -0.117824
    25  C   -0.205179
    27  C    0.447922
    28  C    0.063287
    29  C   -0.334349
    31  C   -0.139468
    33  C   -0.255964
    35  C    0.169974
    37  Bq   0.000000
    38  Bq   0.000000
    39  Bq   0.000000
    40  Bq   0.000000
    41  Bq   0.000000
    42  Bq   0.000000
    43  Bq   0.000000
    44  Bq   0.000000
    45  Bq   0.000000
    46  Bq   0.000000
    47  Bq   0.000000
    48  Bq   0.000000
    49  Bq   0.000000
    50  Bq   0.000000
    51  Bq   0.000000
    52  Bq   0.000000
    53  Bq   0.000000
    54  Bq   0.000000
    55  Bq   0.000000
    56  Bq   0.000000
    57  Bq   0.000000
    58  Bq   0.149708
    59  Bq   0.000000
    60  Bq   0.000000
    61  Bq   0.000000
    62  Bq   0.000000
    63  Bq   0.000000
    64  Bq   0.000000
    65  Bq   0.000000
    66  Bq   0.000000
    67  Bq   0.000000
    68  Bq   0.000000
    69  Bq   0.000000
    70  Bq   0.000000
    71  Bq   0.000000
    72  Bq   0.000000
    73  Bq   0.000000
    74  Bq   0.000000
    75  Bq   0.000000
    76  Bq   0.000000
    77  Bq   0.000000
    78  Bq   0.000000
    79  Bq   0.000000
    80  Bq   0.000000
    81  Bq   0.000000
    82  Bq   0.000000
    83  Bq   0.000000
    84  Bq   0.000000
    85  Bq   0.000000
    86  Bq   0.000000
    87  Bq   0.000000
    88  Bq   0.000000
    89  Bq   0.000000
    90  Bq   0.000000
    91  Bq   0.000000
    92  Bq   0.000000
    93  Bq   0.000000
    94  Bq   0.000000
    95  Bq   0.000000
    96  Bq   0.000000
    97  Bq   0.000000
    98  Bq   0.000000
    99  Bq   0.000000
   100  Bq   0.000000
   101  Bq   0.000000
   102  Bq   0.000000
   103  Bq   0.000000
   104  Bq   0.000000
   105  Bq   0.000000
   106  Bq   0.000000
   107  Bq   0.000000
   108  Bq   0.000000
   109  Bq   0.000000
   110  Bq   0.000000
   111  Bq   0.000000
   112  Bq   0.000000
   113  Bq   0.000000
   114  Bq   0.000000
   115  Bq   0.000000
   116  Bq   0.000000
   117  Bq   0.000000
   118  Bq   0.000000
   119  Bq   0.000000
   120  Bq   0.000000
   121  Bq   0.000000
   122  Bq   0.000000
   123  Bq   0.000000
   124  Bq   0.000000
   125  Bq   0.000000
   126  Bq   0.000000
   127  Bq   0.000000
   128  Bq   0.000000
   129  Bq   0.000000
   130  Bq   0.000000
   131  Bq   0.000000
   132  Bq   0.000000
   133  Bq   0.000000
   134  Bq   0.000000
   135  Bq   0.000000
   136  Bq   0.117446
   137  Bq   0.000000
 Electronic spatial extent (au):  <R**2>=           5736.9270
 Charge=             -0.0000 electrons
 Dipole moment (field-independent basis, Debye):
    X=              0.0480    Y=              0.0854    Z=              0.0027  Tot=              0.0981
 Quadrupole moment (field-independent basis, Debye-Ang):
   XX=           -113.7065   YY=           -113.9465   ZZ=           -133.2659
   XY=             -0.3840   XZ=              3.2088   YZ=             -1.1827
 Traceless Quadrupole moment (field-independent basis, Debye-Ang):
   XX=              6.5998   YY=              6.3598   ZZ=            -12.9596
   XY=             -0.3840   XZ=              3.2088   YZ=             -1.1827
 Octapole moment (field-independent basis, Debye-Ang**2):
  XXX=            -16.4604  YYY=            -16.1937  ZZZ=             -1.7048  XYY=              2.5621
  XXY=             -6.5684  XXZ=             13.6585  XZZ=             -8.9438  YZZ=            -17.7184
  YYZ=            -13.2980  XYZ=              8.8042
 Hexadecapole moment (field-independent basis, Debye-Ang**3):
 XXXX=          -3951.1838 YYYY=          -3112.2266 ZZZZ=           -504.8224 XXXY=            340.6919
 XXXZ=            156.4869 YYYX=            335.5529 YYYZ=            -87.0842 ZZZX=            120.2213
 ZZZY=           -108.7256 XXYY=          -1176.4813 XXZZ=           -856.7341 YYZZ=           -665.7192
 XXYZ=            -68.8903 YYXZ=             48.1509 ZZXY=            153.0341
 N-N= 1.610917622655D+03 E-N=-5.186891081272D+03  KE= 8.436329715391D+02
 1\1\GINC-CALVANI\SP\RB3LYP\6-311+G(d,p)\C22H14\AARTIGAS\05-Aug-2020\0\
 \# rb3lyp/6-311+g** NMR\\Title\\0,1\C,0,-4.0500558,-0.5771862,0.813671
 2\H,0,-5.0263804,-1.0082727,1.002476\C,0,-3.9381552,0.6617804,0.240087
 6\H,0,-4.8252424,1.233889,-0.0111295\C,0,-2.676841,1.2433246,0.0057578
 \C,0,-1.4974121,0.5051527,0.2848253\C,0,-1.6508332,-0.7338728,0.940402
 6\H,0,-0.7713646,-1.2730967,1.2633753\C,0,-2.8898548,-1.2624035,1.1994
 307\H,0,-2.9683706,-2.2124563,1.7152676\C,0,-2.5773185,2.5963696,-0.41
 9293\H,0,-3.4870728,3.1412239,-0.6474055\C,0,-1.3741895,3.2147896,-0.4
 36403\H,0,-1.2997315,4.2742019,-0.6578144\C,0,-0.1719488,2.499409,-0.1
 734588\C,0,-0.2043917,1.1018437,0.0192689\C,0,1.0513491,3.204256,-0.06
 76222\H,0,1.0427344,4.2819499,-0.1896997\C,0,2.1942091,2.5487446,0.257
 9577\H,0,3.1168527,3.0912848,0.4334727\C,0,2.2216473,1.1336562,0.29349
 9\C,0,1.0486931,0.3945528,0.0302412\C,0,3.4483363,0.4614633,0.5573939\
 H,0,4.3095794,1.0606054,0.8334846\C,0,3.5427346,-0.8855926,0.4749463\H
 ,0,4.4731467,-1.3939704,0.7038822\C,0,2.4490052,-1.6474447,-0.0196319\
 C,0,1.2150704,-1.0057258,-0.3013573\C,0,0.2531113,-1.743444,-1.0216591
 \H,0,-0.6541356,-1.2535051,-1.3462847\C,0,0.4494193,-3.0628597,-1.3413
 779\H,0,-0.3083162,-3.5944309,-1.905406\C,0,1.6251726,-3.7207967,-0.95
 52541\H,0,1.7670048,-4.7687404,-1.1927019\C,0,2.6109872,-3.0144177,-0.
 318305\H,0,3.5525612,-3.4902813,-0.0646367\Bq,0,1.0232596833,1.8137437
 167,0.0599809667\Bq,0,-1.6129062924,-0.6341018169,0.8074307588\Bq,0,-1
 .6093456227,-0.13470574,0.783122735\Bq,0,-1.605784953,0.3646903368,0.7
 588147112\Bq,0,-1.6022242833,0.8640864137,0.7345066873\Bq,0,-1.5986636
 136,1.3634824906,0.7101986635\Bq,0,-1.5951029439,1.8628785675,0.685890
 6397\Bq,0,-1.5915422742,2.3622746444,0.6615826158\Bq,0,-1.5879816045,2
 .8616707213,0.637274592\Bq,0,-1.5844209348,3.3610667981,0.6129665682\B
 q,0,-1.5808602651,3.860462875,0.5886585443\Bq,0,-1.1181856731,-0.63410
 18169,0.8798980534\Bq,0,-1.1146250034,-0.13470574,0.8555900296\Bq,0,-1
 .1110643337,0.3646903368,0.8312820057\Bq,0,-1.107503664,0.8640864137,0
 .8069739819\Bq,0,-1.1039429942,1.3634824906,0.7826659581\Bq,0,-1.10038
 23245,1.8628785675,0.7583579342\Bq,0,-1.0968216548,2.3622746444,0.7340
 499104\Bq,0,-1.0932609851,2.8616707213,0.7097418866\Bq,0,-1.0897003154
 ,3.3610667981,0.6854338627\Bq,0,-1.0861396457,3.860462875,0.6611258389
 \Bq,0,-0.6234650537,-0.6341018169,0.952365348\Bq,0,-0.619904384,-0.134
 70574,0.9280573241\Bq,0,-0.6163437143,0.3646903368,0.9037493003\Bq,0,-
 0.6127830446,0.8640864137,0.8794412765\Bq,0,-0.6092223749,1.3634824906
 ,0.8551332526\Bq,0,-0.6056617052,1.8628785675,0.8308252288\Bq,0,-0.602
 1010355,2.3622746444,0.806517205\Bq,0,-0.5985403658,2.8616707213,0.782
 2091811\Bq,0,-0.5949796961,3.3610667981,0.7579011573\Bq,0,-0.591419026
 3,3.860462875,0.7335931335\Bq,0,-0.1287444344,-0.6341018169,1.02483264
 25\Bq,0,-0.1251837647,-0.13470574,1.0005246187\Bq,0,-0.121623095,0.364
 6903368,0.9762165949\Bq,0,-0.1180624252,0.8640864137,0.951908571\Bq,0,
 -0.1145017555,1.3634824906,0.9276005472\Bq,0,-0.1109410858,1.862878567
 5,0.9032925234\Bq,0,-0.1073804161,2.3622746444,0.8789844995\Bq,0,-0.10
 38197464,2.8616707213,0.8546764757\Bq,0,-0.1002590767,3.3610667981,0.8
 303684519\Bq,0,-0.096698407,3.860462875,0.806060428\Bq,0,0.365976185,-
 0.6341018169,1.0972999371\Bq,0,0.3695368547,-0.13470574,1.0729919133\B
 q,0,0.3730975244,0.3646903368,1.0486838894\Bq,0,0.3766581941,0.8640864
 137,1.0243758656\Bq,0,0.3802188638,1.3634824906,1.0000678418\Bq,0,0.38
 37795335,1.8628785675,0.9757598179\Bq,0,0.3873402032,2.3622746444,0.95
 14517941\Bq,0,0.3909008729,2.8616707213,0.9271437703\Bq,0,0.3944615427
 ,3.3610667981,0.9028357464\Bq,0,0.3980222124,3.860462875,0.8785277226\
 Bq,0,0.8606968043,-0.6341018169,1.1697672317\Bq,0,0.8642574741,-0.1347
 0574,1.1454592078\Bq,0,0.8678181438,0.3646903368,1.121151184\Bq,0,0.87
 13788135,0.8640864137,1.0968431602\Bq,0,0.8749394832,1.3634824906,1.07
 25351363\Bq,0,0.8785001529,1.8628785675,1.0482271125\Bq,0,0.8820608226
 ,2.3622746444,1.0239190887\Bq,0,0.8856214923,2.8616707213,0.9996110648
 \Bq,0,0.889182162,3.3610667981,0.975303041\Bq,0,0.8927428317,3.8604628
 75,0.9509950172\Bq,0,1.3554174237,-0.6341018169,1.2422345262\Bq,0,1.35
 89780934,-0.13470574,1.2179265024\Bq,0,1.3625387631,0.3646903368,1.193
 6184786\Bq,0,1.3660994328,0.8640864137,1.1693104547\Bq,0,1.3696601025,
 1.3634824906,1.1450024309\Bq,0,1.3732207722,1.8628785675,1.1206944071\
 Bq,0,1.376781442,2.3622746444,1.0963863833\Bq,0,1.3803421117,2.8616707
 213,1.0720783594\Bq,0,1.3839027814,3.3610667981,1.0477703356\Bq,0,1.38
 74634511,3.860462875,1.0234623118\Bq,0,1.8501380431,-0.6341018169,1.31
 47018208\Bq,0,1.8536987128,-0.13470574,1.290393797\Bq,0,1.8572593825,0
 .3646903368,1.2660857731\Bq,0,1.8608200522,0.8640864137,1.2417777493\B
 q,0,1.8643807219,1.3634824906,1.2174697255\Bq,0,1.8679413916,1.8628785
 675,1.1931617017\Bq,0,1.8715020613,2.3622746444,1.1688536778\Bq,0,1.87
 5062731,2.8616707213,1.144545654\Bq,0,1.8786234007,3.3610667981,1.1202
 376302\Bq,0,1.8821840704,3.860462875,1.0959296063\Bq,0,2.3448586624,-0
 .6341018169,1.3871691154\Bq,0,2.3484193321,-0.13470574,1.3628610916\Bq
 ,0,2.3519800018,0.3646903368,1.3385530677\Bq,0,2.3555406715,0.86408641
 37,1.3142450439\Bq,0,2.3591013413,1.3634824906,1.2899370201\Bq,0,2.362
 662011,1.8628785675,1.2656289962\Bq,0,2.3662226807,2.3622746444,1.2413
 209724\Bq,0,2.3697833504,2.8616707213,1.2170129486\Bq,0,2.3733440201,3
 .3610667981,1.1927049247\Bq,0,2.3769046898,3.860462875,1.1683969009\Bq
 ,0,2.8395792818,-0.6341018169,1.45963641\Bq,0,2.8431399515,-0.13470574
 ,1.4353283861\Bq,0,2.8467006212,0.3646903368,1.4110203623\Bq,0,2.85026
 12909,0.8640864137,1.3867123385\Bq,0,2.8538219606,1.3634824906,1.36240
 43146\Bq,0,2.8573826303,1.8628785675,1.3380962908\Bq,0,2.8609433,2.362
 2746444,1.313788267\Bq,0,2.8645039697,2.8616707213,1.2894802431\Bq,0,2
 .8680646394,3.3610667981,1.2651722193\Bq,0,2.8716253092,3.860462875,1.
 2408641955\\Version=ES64L-G16RevA.03\HF=-847.0032839\RMSD=7.665e-09\Di
 pole=0.0188975,0.0336152,0.0010509\Quadrupole=4.9068038,4.7283337,-9.6
 351376,-0.2854741,2.3856816,-0.8792762\PG=C01 [X(C22H14)]\\@


 I HAVE NOT FAILED, I HAVE ONLY DISCOVERED 10,000
 WAYS THAT DIDN'T WORK.  -- THOMAS A. EDISON
 Job cpu time:       0 days  2 hours 17 minutes 36.1 seconds.
 Elapsed time:       0 days  0 hours 17 minutes 31.0 seconds.
 File lengths (MBytes):  RWF=    187 Int=      0 D2E=      0 Chk=     26 Scr=      1
 Normal termination of Gaussian 16 at Wed Aug  5 22:34:16 2020.

real	17m31.181s
user	137m33.849s
sys	0m2.296s
