 Entering Gaussian System, Link 0=g16
 Initial command:
 /share/programs/G16_SLATER/g16/l1.exe "/scratch/aartigas.27134/Gau-66596.inp" -scrdir="/scratch/aartigas.27134/"
 Entering Link 1 = /share/programs/G16_SLATER/g16/l1.exe PID=     66597.
  
 Copyright (c) 1988,1990,1992,1993,1995,1998,2003,2009,2016,
            Gaussian, Inc.  All Rights Reserved.
  
 This is part of the Gaussian(R) 16 program.  It is based on
 the Gaussian(R) 09 system (copyright 2009, Gaussian, Inc.),
 the Gaussian(R) 03 system (copyright 2003, Gaussian, Inc.),
 the Gaussian(R) 98 system (copyright 1998, Gaussian, Inc.),
 the Gaussian(R) 94 system (copyright 1995, Gaussian, Inc.),
 the Gaussian 92(TM) system (copyright 1992, Gaussian, Inc.),
 the Gaussian 90(TM) system (copyright 1990, Gaussian, Inc.),
 the Gaussian 88(TM) system (copyright 1988, Gaussian, Inc.),
 the Gaussian 86(TM) system (copyright 1986, Carnegie Mellon
 University), and the Gaussian 82(TM) system (copyright 1983,
 Carnegie Mellon University). Gaussian is a federally registered
 trademark of Gaussian, Inc.
  
 This software contains proprietary and confidential information,
 including trade secrets, belonging to Gaussian, Inc.
  
 This software is provided under written license and may be
 used, copied, transmitted, or stored only in accord with that
 written license.
  
 The following legend is applicable only to US Government
 contracts under FAR:
  
                    RESTRICTED RIGHTS LEGEND
  
 Use, reproduction and disclosure by the US Government is
 subject to restrictions as set forth in subparagraphs (a)
 and (c) of the Commercial Computer Software - Restricted
 Rights clause in FAR 52.227-19.
  
 Gaussian, Inc.
 340 Quinnipiac St., Bldg. 40, Wallingford CT 06492
  
  
 ---------------------------------------------------------------
 Warning -- This program may not be used in any manner that
 competes with the business of Gaussian, Inc. or will provide
 assistance to any competitor of Gaussian, Inc.  The licensee
 of this program is prohibited from giving any competitor of
 Gaussian, Inc. access to this program.  By using this program,
 the user acknowledges that Gaussian, Inc. is engaged in the
 business of creating and licensing software in the field of
 computational chemistry and represents and warrants to the
 licensee that it is not a competitor of Gaussian, Inc. and that
 it will not use this program in any manner prohibited above.
 ---------------------------------------------------------------
  

 Cite this work as:
 Gaussian 16, Revision A.03,
 M. J. Frisch, G. W. Trucks, H. B. Schlegel, G. E. Scuseria, 
 M. A. Robb, J. R. Cheeseman, G. Scalmani, V. Barone, 
 G. A. Petersson, H. Nakatsuji, X. Li, M. Caricato, A. V. Marenich, 
 J. Bloino, B. G. Janesko, R. Gomperts, B. Mennucci, H. P. Hratchian, 
 J. V. Ortiz, A. F. Izmaylov, J. L. Sonnenberg, D. Williams-Young, 
 F. Ding, F. Lipparini, F. Egidi, J. Goings, B. Peng, A. Petrone, 
 T. Henderson, D. Ranasinghe, V. G. Zakrzewski, J. Gao, N. Rega, 
 G. Zheng, W. Liang, M. Hada, M. Ehara, K. Toyota, R. Fukuda, 
 J. Hasegawa, M. Ishida, T. Nakajima, Y. Honda, O. Kitao, H. Nakai, 
 T. Vreven, K. Throssell, J. A. Montgomery, Jr., J. E. Peralta, 
 F. Ogliaro, M. J. Bearpark, J. J. Heyd, E. N. Brothers, K. N. Kudin, 
 V. N. Staroverov, T. A. Keith, R. Kobayashi, J. Normand, 
 K. Raghavachari, A. P. Rendell, J. C. Burant, S. S. Iyengar, 
 J. Tomasi, M. Cossi, J. M. Millam, M. Klene, C. Adamo, R. Cammi, 
 J. W. Ochterski, R. L. Martin, K. Morokuma, O. Farkas, 
 J. B. Foresman, and D. J. Fox, Gaussian, Inc., Wallingford CT, 2016.
 
 ******************************************
 Gaussian 16:  ES64L-G16RevA.03 25-Dec-2016
                 5-Aug-2020 
 ******************************************
 %nproc=8
 Will use up to    8 processors via shared memory.
 ----------------------
 # rb3lyp/6-311+g** NMR
 ----------------------
 1/38=1,172=1/1;
 2/12=2,17=6,18=5,40=1/2;
 3/5=4,6=6,7=111,11=2,25=1,30=1,74=-5,116=1/1,2,3,8;
 4//1;
 5/5=2,38=5/2;
 8/6=1,10=90,11=11/1;
 10/13=100,45=16/2;
 6/7=2,8=2,9=2,10=2,28=1/1;
 99/9=1/99;
 -----
 Title
 -----
 Symbolic Z-matrix:
 Charge =  0 Multiplicity = 1
 C                    -4.05006  -0.57719   0.81367 
 H                    -5.02638  -1.00827   1.00248 
 C                    -3.93816   0.66178   0.24009 
 H                    -4.82524   1.23389  -0.01113 
 C                    -2.67684   1.24332   0.00576 
 C                    -1.49741   0.50515   0.28483 
 C                    -1.65083  -0.73387   0.9404 
 H                    -0.77136  -1.2731    1.26338 
 C                    -2.88985  -1.2624    1.19943 
 H                    -2.96837  -2.21246   1.71527 
 C                    -2.57732   2.59637  -0.41929 
 H                    -3.48707   3.14122  -0.64741 
 C                    -1.37419   3.21479  -0.4364 
 H                    -1.29973   4.2742   -0.65781 
 C                    -0.17195   2.49941  -0.17346 
 C                    -0.20439   1.10184   0.01927 
 C                     1.05135   3.20426  -0.06762 
 H                     1.04273   4.28195  -0.1897 
 C                     2.19421   2.54874   0.25796 
 H                     3.11685   3.09128   0.43347 
 C                     2.22165   1.13366   0.2935 
 C                     1.04869   0.39455   0.03024 
 C                     3.44834   0.46146   0.55739 
 H                     4.30958   1.06061   0.83348 
 C                     3.54273  -0.88559   0.47495 
 H                     4.47315  -1.39397   0.70388 
 C                     2.44901  -1.64744  -0.01963 
 C                     1.21507  -1.00573  -0.30136 
 C                     0.25311  -1.74344  -1.02166 
 H                    -0.65414  -1.25351  -1.34628 
 C                     0.44942  -3.06286  -1.34138 
 H                    -0.30832  -3.59443  -1.90541 
 C                     1.62517  -3.7208   -0.95525 
 H                     1.767    -4.76874  -1.1927 
 C                     2.61099  -3.01442  -0.31831 
 H                     3.55256  -3.49028  -0.06464 
 Bq                   -2.78386  -0.0272    0.5807 
 Bq                   -5.29165  -1.84366   2.55843 
 Bq                   -5.2908   -1.3934    2.34102 
 Bq                   -5.28994  -0.94314   2.12361 
 Bq                   -5.28909  -0.49289   1.9062 
 Bq                   -5.28823  -0.04263   1.68879 
 Bq                   -5.28738   0.40763   1.47138 
 Bq                   -5.28652   0.85788   1.25396 
 Bq                   -5.28567   1.30814   1.03655 
 Bq                   -5.28482   1.7584    0.81914 
 Bq                   -5.28396   2.20865   0.60173 
 Bq                   -4.79166  -1.84366   2.5604 
 Bq                   -4.7908   -1.3934    2.34299 
 Bq                   -4.78995  -0.94314   2.12558 
 Bq                   -4.78909  -0.49289   1.90816 
 Bq                   -4.78824  -0.04263   1.69075 
 Bq                   -4.78738   0.40763   1.47334 
 Bq                   -4.78653   0.85788   1.25593 
 Bq                   -4.78567   1.30814   1.03852 
 Bq                   -4.78482   1.7584    0.82111 
 Bq                   -4.78396   2.20865   0.60369 
 Bq                   -4.29166  -1.84366   2.56237 
 Bq                   -4.29081  -1.3934    2.34495 
 Bq                   -4.28995  -0.94314   2.12754 
 Bq                   -4.2891   -0.49289   1.91013 
 Bq                   -4.28824  -0.04263   1.69272 
 Bq                   -4.28739   0.40763   1.47531 
 Bq                   -4.28653   0.85788   1.25789 
 Bq                   -4.28568   1.30814   1.04048 
 Bq                   -4.28482   1.7584    0.82307 
 Bq                   -4.28397   2.20865   0.60566 
 Bq                   -3.79166  -1.84366   2.56433 
 Bq                   -3.79081  -1.3934    2.34692 
 Bq                   -3.78995  -0.94314   2.12951 
 Bq                   -3.7891   -0.49289   1.9121 
 Bq                   -3.78825  -0.04263   1.69468 
 Bq                   -3.78739   0.40763   1.47727 
 Bq                   -3.78654   0.85788   1.25986 
 Bq                   -3.78568   1.30814   1.04245 
 Bq                   -3.78483   1.7584    0.82504 
 Bq                   -3.78397   2.20865   0.60762 
 Bq                   -3.29167  -1.84366   2.5663 
 Bq                   -3.29081  -1.3934    2.34888 
 Bq                   -3.28996  -0.94314   2.13147 
 Bq                   -3.2891   -0.49289   1.91406 
 Bq                   -3.28825  -0.04263   1.69665 
 Bq                   -3.28739   0.40763   1.47924 
 Bq                   -3.28654   0.85788   1.26183 
 Bq                   -3.28569   1.30814   1.04441 
 Bq                   -3.28483   1.7584    0.827 
 Bq                   -3.28398   2.20865   0.60959 
 Bq                   -2.79167  -1.84366   2.56826 
 Bq                   -2.79082  -1.3934    2.35085 
 Bq                   -2.78996  -0.94314   2.13344 
 Bq                   -2.78911  -0.49289   1.91603 
 Bq                   -2.78825  -0.04263   1.69861 
 Bq                   -2.7874    0.40763   1.4812 
 Bq                   -2.78654   0.85788   1.26379 
 Bq                   -2.78569   1.30814   1.04638 
 Bq                   -2.78483   1.7584    0.82897 
 Bq                   -2.78398   2.20865   0.61156 
 Bq                   -2.29168  -1.84366   2.57023 
 Bq                   -2.29082  -1.3934    2.35282 
 Bq                   -2.28997  -0.94314   2.1354 
 Bq                   -2.28911  -0.49289   1.91799 
 Bq                   -2.28826  -0.04263   1.70058 
 Bq                   -2.2874    0.40763   1.48317 
 Bq                   -2.28655   0.85788   1.26576 
 Bq                   -2.28569   1.30814   1.04834 
 Bq                   -2.28484   1.7584    0.83093 
 Bq                   -2.28398   2.20865   0.61352 
 Bq                   -1.79168  -1.84366   2.57219 
 Bq                   -1.79083  -1.3934    2.35478 
 Bq                   -1.78997  -0.94314   2.13737 
 Bq                   -1.78912  -0.49289   1.91996 
 Bq                   -1.78826  -0.04263   1.70255 
 Bq                   -1.78741   0.40763   1.48513 
 Bq                   -1.78655   0.85788   1.26772 
 Bq                   -1.7857    1.30814   1.05031 
 Bq                   -1.78484   1.7584    0.8329 
 Bq                   -1.78399   2.20865   0.61549 
 Bq                   -1.29168  -1.84366   2.57416 
 Bq                   -1.29083  -1.3934    2.35675 
 Bq                   -1.28997  -0.94314   2.13934 
 Bq                   -1.28912  -0.49289   1.92192 
 Bq                   -1.28826  -0.04263   1.70451 
 Bq                   -1.28741   0.40763   1.4871 
 Bq                   -1.28656   0.85788   1.26969 
 Bq                   -1.2857    1.30814   1.05228 
 Bq                   -1.28485   1.7584    0.83486 
 Bq                   -1.28399   2.20865   0.61745 
 Bq                   -0.79169  -1.84366   2.57612 
 Bq                   -0.79083  -1.3934    2.35871 
 Bq                   -0.78998  -0.94314   2.1413 
 Bq                   -0.78912  -0.49289   1.92389 
 Bq                   -0.78827  -0.04263   1.70648 
 Bq                   -0.78741   0.40763   1.48906 
 Bq                   -0.78656   0.85788   1.27165 
 Bq                   -0.7857    1.30814   1.05424 
 Bq                   -0.78485   1.7584    0.83683 
 Bq                   -0.784     2.20865   0.61942 
 
 Symmetry turned off:
 Cannot cope with ghost atoms or with translation vectors.
 Stoichiometry    C22H14
 Framework group  C1[X(C22H14)]
 NumDoF:  NAt=    36 NAtoms=   137
 Deg. of freedom     0
 Full point group                 C1      NOp   1
                          Input orientation:                          
 ---------------------------------------------------------------------
 Center     Atomic      Atomic             Coordinates (Angstroms)
 Number     Number       Type             X           Y           Z
 ---------------------------------------------------------------------
      1          6           0       -4.050056   -0.577186    0.813671
      2          1           0       -5.026380   -1.008273    1.002476
      3          6           0       -3.938155    0.661780    0.240088
      4          1           0       -4.825242    1.233889   -0.011130
      5          6           0       -2.676841    1.243325    0.005758
      6          6           0       -1.497412    0.505153    0.284825
      7          6           0       -1.650833   -0.733873    0.940403
      8          1           0       -0.771365   -1.273097    1.263375
      9          6           0       -2.889855   -1.262404    1.199431
     10          1           0       -2.968371   -2.212456    1.715268
     11          6           0       -2.577319    2.596370   -0.419293
     12          1           0       -3.487073    3.141224   -0.647406
     13          6           0       -1.374190    3.214790   -0.436403
     14          1           0       -1.299732    4.274202   -0.657814
     15          6           0       -0.171949    2.499409   -0.173459
     16          6           0       -0.204392    1.101844    0.019269
     17          6           0        1.051349    3.204256   -0.067622
     18          1           0        1.042734    4.281950   -0.189700
     19          6           0        2.194209    2.548745    0.257958
     20          1           0        3.116853    3.091285    0.433473
     21          6           0        2.221647    1.133656    0.293499
     22          6           0        1.048693    0.394553    0.030241
     23          6           0        3.448336    0.461463    0.557394
     24          1           0        4.309579    1.060605    0.833485
     25          6           0        3.542735   -0.885593    0.474946
     26          1           0        4.473147   -1.393970    0.703882
     27          6           0        2.449005   -1.647445   -0.019632
     28          6           0        1.215070   -1.005726   -0.301357
     29          6           0        0.253111   -1.743444   -1.021659
     30          1           0       -0.654136   -1.253505   -1.346285
     31          6           0        0.449419   -3.062860   -1.341378
     32          1           0       -0.308316   -3.594431   -1.905406
     33          6           0        1.625173   -3.720797   -0.955254
     34          1           0        1.767005   -4.768740   -1.192702
     35          6           0        2.610987   -3.014418   -0.318305
     36          1           0        3.552561   -3.490281   -0.064637
     37          0           0       -2.783859   -0.027201    0.580696
     38          0           0       -5.291653   -1.843658    2.558435
     39          0           0       -5.290798   -1.393401    2.341023
     40          0           0       -5.289943   -0.943145    2.123611
     41          0           0       -5.289089   -0.492888    1.906199
     42          0           0       -5.288234   -0.042631    1.688787
     43          0           0       -5.287379    0.407626    1.471375
     44          0           0       -5.286525    0.857883    1.253963
     45          0           0       -5.285670    1.308140    1.036551
     46          0           0       -5.284815    1.758397    0.819140
     47          0           0       -5.283961    2.208654    0.601728
     48          0           0       -4.791656   -1.843658    2.560400
     49          0           0       -4.790802   -1.393401    2.342988
     50          0           0       -4.789947   -0.943145    2.125576
     51          0           0       -4.789093   -0.492888    1.908165
     52          0           0       -4.788238   -0.042631    1.690753
     53          0           0       -4.787383    0.407626    1.473341
     54          0           0       -4.786529    0.857883    1.255929
     55          0           0       -4.785674    1.308140    1.038517
     56          0           0       -4.784819    1.758397    0.821105
     57          0           0       -4.783965    2.208654    0.603693
     58          0           0       -4.291660   -1.843658    2.562366
     59          0           0       -4.290806   -1.393401    2.344954
     60          0           0       -4.289951   -0.943145    2.127542
     61          0           0       -4.289096   -0.492888    1.910130
     62          0           0       -4.288242   -0.042631    1.692718
     63          0           0       -4.287387    0.407626    1.475306
     64          0           0       -4.286532    0.857883    1.257894
     65          0           0       -4.285678    1.308140    1.040482
     66          0           0       -4.284823    1.758397    0.823071
     67          0           0       -4.283968    2.208654    0.605659
     68          0           0       -3.791664   -1.843658    2.564331
     69          0           0       -3.790810   -1.393401    2.346919
     70          0           0       -3.789955   -0.943145    2.129508
     71          0           0       -3.789100   -0.492888    1.912096
     72          0           0       -3.788246   -0.042631    1.694684
     73          0           0       -3.787391    0.407626    1.477272
     74          0           0       -3.786536    0.857883    1.259860
     75          0           0       -3.785682    1.308140    1.042448
     76          0           0       -3.784827    1.758397    0.825036
     77          0           0       -3.783972    2.208654    0.607624
     78          0           0       -3.291668   -1.843658    2.566297
     79          0           0       -3.290813   -1.393401    2.348885
     80          0           0       -3.289959   -0.943145    2.131473
     81          0           0       -3.289104   -0.492888    1.914061
     82          0           0       -3.288249   -0.042631    1.696649
     83          0           0       -3.287395    0.407626    1.479237
     84          0           0       -3.286540    0.857883    1.261825
     85          0           0       -3.285685    1.308140    1.044414
     86          0           0       -3.284831    1.758397    0.827002
     87          0           0       -3.283976    2.208654    0.609590
     88          0           0       -2.791672   -1.843658    2.568262
     89          0           0       -2.790817   -1.393401    2.350850
     90          0           0       -2.789963   -0.943145    2.133439
     91          0           0       -2.789108   -0.492888    1.916027
     92          0           0       -2.788253   -0.042631    1.698615
     93          0           0       -2.787399    0.407626    1.481203
     94          0           0       -2.786544    0.857883    1.263791
     95          0           0       -2.785689    1.308140    1.046379
     96          0           0       -2.784835    1.758397    0.828967
     97          0           0       -2.783980    2.208654    0.611555
     98          0           0       -2.291676   -1.843658    2.570228
     99          0           0       -2.290821   -1.393401    2.352816
    100          0           0       -2.289966   -0.943145    2.135404
    101          0           0       -2.289112   -0.492888    1.917992
    102          0           0       -2.288257   -0.042631    1.700580
    103          0           0       -2.287403    0.407626    1.483168
    104          0           0       -2.286548    0.857883    1.265756
    105          0           0       -2.285693    1.308140    1.048345
    106          0           0       -2.284839    1.758397    0.830933
    107          0           0       -2.283984    2.208654    0.613521
    108          0           0       -1.791680   -1.843658    2.572193
    109          0           0       -1.790825   -1.393401    2.354781
    110          0           0       -1.789970   -0.943145    2.137370
    111          0           0       -1.789116   -0.492888    1.919958
    112          0           0       -1.788261   -0.042631    1.702546
    113          0           0       -1.787406    0.407626    1.485134
    114          0           0       -1.786552    0.857883    1.267722
    115          0           0       -1.785697    1.308140    1.050310
    116          0           0       -1.784842    1.758397    0.832898
    117          0           0       -1.783988    2.208654    0.615486
    118          0           0       -1.291684   -1.843658    2.574159
    119          0           0       -1.290829   -1.393401    2.356747
    120          0           0       -1.289974   -0.943145    2.139335
    121          0           0       -1.289120   -0.492888    1.921923
    122          0           0       -1.288265   -0.042631    1.704511
    123          0           0       -1.287410    0.407626    1.487099
    124          0           0       -1.286556    0.857883    1.269687
    125          0           0       -1.285701    1.308140    1.052276
    126          0           0       -1.284846    1.758397    0.834864
    127          0           0       -1.283992    2.208654    0.617452
    128          0           0       -0.791687   -1.843658    2.576124
    129          0           0       -0.790833   -1.393401    2.358713
    130          0           0       -0.789978   -0.943145    2.141301
    131          0           0       -0.789123   -0.492888    1.923889
    132          0           0       -0.788269   -0.042631    1.706477
    133          0           0       -0.787414    0.407626    1.489065
    134          0           0       -0.786559    0.857883    1.271653
    135          0           0       -0.785705    1.308140    1.054241
    136          0           0       -0.784850    1.758397    0.836829
    137          0           0       -0.783995    2.208654    0.619417
 ---------------------------------------------------------------------
 Rotational constants (GHZ):           0.4529074           0.2836956           0.1879557
 Standard basis: 6-311+G(d,p) (5D, 7F)
 Warning:  center  37 has no basis functions!
 Warning:  center  38 has no basis functions!
 Warning:  center  39 has no basis functions!
 Warning:  center  40 has no basis functions!
 Warning:  center  41 has no basis functions!
 Warning:  center  42 has no basis functions!
 Warning:  center  43 has no basis functions!
 Warning:  center  44 has no basis functions!
 Warning:  center  45 has no basis functions!
 Warning:  center  46 has no basis functions!
 Warning:  center  47 has no basis functions!
 Warning:  center  48 has no basis functions!
 Warning:  center  49 has no basis functions!
 Warning:  center  50 has no basis functions!
 Warning:  center  51 has no basis functions!
 Warning:  center  52 has no basis functions!
 Warning:  center  53 has no basis functions!
 Warning:  center  54 has no basis functions!
 Warning:  center  55 has no basis functions!
 Warning:  center  56 has no basis functions!
 Warning:  center  57 has no basis functions!
 Warning:  center  58 has no basis functions!
 Warning:  center  59 has no basis functions!
 Warning:  center  60 has no basis functions!
 Warning:  center  61 has no basis functions!
 Warning:  center  62 has no basis functions!
 Warning:  center  63 has no basis functions!
 Warning:  center  64 has no basis functions!
 Warning:  center  65 has no basis functions!
 Warning:  center  66 has no basis functions!
 Warning:  center  67 has no basis functions!
 Warning:  center  68 has no basis functions!
 Warning:  center  69 has no basis functions!
 Warning:  center  70 has no basis functions!
 Warning:  center  71 has no basis functions!
 Warning:  center  72 has no basis functions!
 Warning:  center  73 has no basis functions!
 Warning:  center  74 has no basis functions!
 Warning:  center  75 has no basis functions!
 Warning:  center  76 has no basis functions!
 Warning:  center  77 has no basis functions!
 Warning:  center  78 has no basis functions!
 Warning:  center  79 has no basis functions!
 Warning:  center  80 has no basis functions!
 Warning:  center  81 has no basis functions!
 Warning:  center  82 has no basis functions!
 Warning:  center  83 has no basis functions!
 Warning:  center  84 has no basis functions!
 Warning:  center  85 has no basis functions!
 Warning:  center  86 has no basis functions!
 Warning:  center  87 has no basis functions!
 Warning:  center  88 has no basis functions!
 Warning:  center  89 has no basis functions!
 Warning:  center  90 has no basis functions!
 Warning:  center  91 has no basis functions!
 Warning:  center  92 has no basis functions!
 Warning:  center  93 has no basis functions!
 Warning:  center  94 has no basis functions!
 Warning:  center  95 has no basis functions!
 Warning:  center  96 has no basis functions!
 Warning:  center  97 has no basis functions!
 Warning:  center  98 has no basis functions!
 Warning:  center  99 has no basis functions!
 Warning:  center 100 has no basis functions!
 Warning:  center 101 has no basis functions!
 Warning:  center 102 has no basis functions!
 Warning:  center 103 has no basis functions!
 Warning:  center 104 has no basis functions!
 Warning:  center 105 has no basis functions!
 Warning:  center 106 has no basis functions!
 Warning:  center 107 has no basis functions!
 Warning:  center 108 has no basis functions!
 Warning:  center 109 has no basis functions!
 Warning:  center 110 has no basis functions!
 Warning:  center 111 has no basis functions!
 Warning:  center 112 has no basis functions!
 Warning:  center 113 has no basis functions!
 Warning:  center 114 has no basis functions!
 Warning:  center 115 has no basis functions!
 Warning:  center 116 has no basis functions!
 Warning:  center 117 has no basis functions!
 Warning:  center 118 has no basis functions!
 Warning:  center 119 has no basis functions!
 Warning:  center 120 has no basis functions!
 Warning:  center 121 has no basis functions!
 Warning:  center 122 has no basis functions!
 Warning:  center 123 has no basis functions!
 Warning:  center 124 has no basis functions!
 Warning:  center 125 has no basis functions!
 Warning:  center 126 has no basis functions!
 Warning:  center 127 has no basis functions!
 Warning:  center 128 has no basis functions!
 Warning:  center 129 has no basis functions!
 Warning:  center 130 has no basis functions!
 Warning:  center 131 has no basis functions!
 Warning:  center 132 has no basis functions!
 Warning:  center 133 has no basis functions!
 Warning:  center 134 has no basis functions!
 Warning:  center 135 has no basis functions!
 Warning:  center 136 has no basis functions!
 Warning:  center 137 has no basis functions!
   568 basis functions,   904 primitive gaussians,   590 cartesian basis functions
    73 alpha electrons       73 beta electrons
       nuclear repulsion energy      1610.9176226554 Hartrees.
 NAtoms=  137 NActive=  137 NUniq=  137 SFac= 1.00D+00 NAtFMM=   60 NAOKFM=T Big=T
 Integral buffers will be    131072 words long.
 Raffenetti 2 integral format.
 Two-electron integral symmetry is turned off.
 One-electron integrals computed using PRISM.
 NBasis=   568 RedAO= T EigKep=  1.78D-06  NBF=   568
 NBsUse=   556 1.00D-06 EigRej=  9.09D-07 NBFU=   556
 ExpMin= 4.38D-02 ExpMax= 4.56D+03 ExpMxC= 6.82D+02 IAcc=3 IRadAn=         5 AccDes= 0.00D+00
 Harris functional with IExCor=  402 and IRadAn=       5 diagonalized for initial guess.
 HarFok:  IExCor=  402 AccDes= 0.00D+00 IRadAn=         5 IDoV= 1 UseB2=F ITyADJ=14
 ICtDFT=  3500011 ScaDFX=  1.000000  1.000000  1.000000  1.000000
 FoFCou: FMM=F IPFlag=           0 FMFlag=      100000 FMFlg1=        2001
         NFxFlg=           0 DoJE=T BraDBF=F KetDBF=T FulRan=T
         wScrn=  0.000000 ICntrl=       500 IOpCl=  0 I1Cent=   200000004 NGrid=           0
         NMat0=    1 NMatS0=      1 NMatT0=    0 NMatD0=    1 NMtDS0=    0 NMtDT0=    0
 Symmetry not used in FoFCou.
 Requested convergence on RMS density matrix=1.00D-08 within 128 cycles.
 Requested convergence on MAX density matrix=1.00D-06.
 Requested convergence on             energy=1.00D-06.
 No special actions if energy rises.
 SCF Done:  E(RB3LYP) =  -847.003283891     A.U. after   15 cycles
            NFock= 15  Conv=0.76D-08     -V/T= 2.0040
 DoSCS=F DFT=T ScalE2(SS,OS)=  1.000000  1.000000
 Range of M.O.s used for correlation:     1   556
 NBasis=   568 NAE=    73 NBE=    73 NFC=     0 NFV=     0
 NROrb=    556 NOA=    73 NOB=    73 NVA=   483 NVB=   483

 **** Warning!!: The largest alpha MO coefficient is  0.10864958D+03

          Differentiating once with respect to magnetic field using GIAOs.
          Electric field/nuclear overlap derivatives assumed to be zero.
 FoFCou: FMM=F IPFlag=           0 FMFlag=      100000 FMFlg1=        2001
         NFxFlg=           0 DoJE=F BraDBF=F KetDBF=T FulRan=T
         wScrn=  0.000000 ICntrl=      6100 IOpCl=  0 I1Cent=           7 NGrid=         137
         NMat0=    1 NMatS0=      1 NMatT0=    0 NMatD0=    1 NMtDS0=    0 NMtDT0=    0
 Symmetry not used in FoFCou.
 FoFJK:  IHMeth= 1 ICntrl=    6127 DoSepK=F KAlg= 0 I1Cent=           0 FoldK=F
 IRaf=         1 NMat=       1 IRICut=       1 DoRegI=T DoRafI=F ISym2E= 0 IDoP0=0 IntGTp=1.
          There are     3 degrees of freedom in the 1st order CPHF.  IDoFFX=0 NUNeed=     3.
      3 vectors produced by pass  0 Test12= 1.18D-12 3.33D-08 XBig12= 2.07D+03 9.18D+00.
 AX will form     3 AO Fock derivatives at one time.
      3 vectors produced by pass  1 Test12= 1.18D-12 3.33D-08 XBig12= 3.57D+00 8.02D-01.
      3 vectors produced by pass  2 Test12= 1.18D-12 3.33D-08 XBig12= 2.10D-02 6.93D-02.
      3 vectors produced by pass  3 Test12= 1.18D-12 3.33D-08 XBig12= 5.46D-05 1.89D-03.
      3 vectors produced by pass  4 Test12= 1.18D-12 3.33D-08 XBig12= 1.20D-07 7.78D-05.
      3 vectors produced by pass  5 Test12= 1.18D-12 3.33D-08 XBig12= 4.03D-10 4.76D-06.
      3 vectors produced by pass  6 Test12= 1.18D-12 3.33D-08 XBig12= 2.01D-12 3.04D-07.
      3 vectors produced by pass  7 Test12= 1.18D-12 3.33D-08 XBig12= 3.13D-13 8.91D-08.
      3 vectors produced by pass  8 Test12= 1.18D-12 3.33D-08 XBig12= 6.82D-13 8.98D-08.
      3 vectors produced by pass  9 Test12= 1.18D-12 3.33D-08 XBig12= 1.64D-13 6.77D-08.
      3 vectors produced by pass 10 Test12= 1.18D-12 3.33D-08 XBig12= 5.15D-13 1.06D-07.
      3 vectors produced by pass 11 Test12= 1.18D-12 3.33D-08 XBig12= 3.51D-13 6.35D-08.
      2 vectors produced by pass 12 Test12= 1.18D-12 3.33D-08 XBig12= 3.40D-13 7.17D-08.
 InvSVY:  IOpt=1 It=  1 EMax= 7.11D-15
 Solved reduced A of dimension    38 with     3 vectors.
 Calculating GIAO nuclear magnetic shielding tensors.
 SCF GIAO Magnetic shielding tensor (ppm):
      1  C    Isotropic =    53.1700   Anisotropy =   178.4458
   XX=   -42.1952   YX=   -32.3046   ZX=    10.0983
   XY=   -29.1770   YY=    58.3204   ZY=    55.3788
   XZ=    13.2067   YZ=    58.8864   ZZ=   143.3849
   Eigenvalues:   -54.8969    42.2731   172.1339
      2  H    Isotropic =    24.3249   Anisotropy =     5.0184
   XX=    25.4938   YX=    -0.9967   ZX=     0.6985
   XY=    -0.8097   YY=    26.3053   ZY=    -2.3448
   XZ=    -0.1423   YZ=    -2.4831   ZZ=    21.1757
   Eigenvalues:    20.2173    25.0870    27.6705
      3  C    Isotropic =    51.5990   Anisotropy =   155.8040
   XX=   -29.2759   YX=    37.6891   ZX=   -17.5069
   XY=    34.9361   YY=    49.2645   ZY=    49.4008
   XZ=    -9.1821   YZ=    44.1902   ZZ=   134.8085
   Eigenvalues:   -48.6044    47.9331   155.4684
      4  H    Isotropic =    23.7953   Anisotropy =     7.2788
   XX=    25.2686   YX=     1.9043   ZX=    -0.3918
   XY=     2.0867   YY=    26.4310   ZY=    -2.5190
   XZ=    -1.3415   YZ=    -2.4824   ZZ=    19.6862
   Eigenvalues:    18.8536    23.8844    28.6478
      5  C    Isotropic =    46.3293   Anisotropy =   208.7938
   XX=   -18.7634   YX=    -5.0283   ZX=    -1.1374
   XY=     2.6118   YY=    -3.3596   ZY=    66.9810
   XZ=     2.7770   YZ=    68.8332   ZZ=   161.1107
   Eigenvalues:   -27.9901   -18.5472   185.5251
      6  C    Isotropic =    48.1538   Anisotropy =   197.7355
   XX=   -27.9572   YX=    -2.2961   ZX=    12.1324
   XY=   -15.6813   YY=    21.4233   ZY=    74.5314
   XZ=   -17.4434   YZ=    60.5697   ZZ=   150.9954
   Eigenvalues:   -30.3962    -5.1197   179.9775
      7  C    Isotropic =    49.2652   Anisotropy =   180.1198
   XX=   -13.2296   YX=    28.7139   ZX=   -24.2977
   XY=    31.1175   YY=    29.8805   ZY=    77.7489
   XZ=   -39.4323   YZ=    65.2377   ZZ=   131.1447
   Eigenvalues:   -52.0064    30.4568   169.3451
      8  H    Isotropic =    23.1106   Anisotropy =    13.2879
   XX=    28.3374   YX=     1.5238   ZX=    -3.6492
   XY=     3.1974   YY=    22.7522   ZY=    -1.9308
   XZ=    -8.3358   YZ=    -1.1415   ZZ=    18.2422
   Eigenvalues:    15.4316    21.9309    31.9692
      9  C    Isotropic =    55.3790   Anisotropy =   174.7214
   XX=    46.1473   YX=    -2.9852   ZX=    -2.5221
   XY=     0.3554   YY=    -1.1010   ZY=    92.4715
   XZ=     0.3542   YZ=    94.8963   ZZ=   121.0906
   Eigenvalues:   -51.8546    46.1316   171.8599
     10  H    Isotropic =    24.5657   Anisotropy =     7.2078
   XX=    29.1014   YX=     0.0432   ZX=    -0.2604
   XY=     0.2834   YY=    23.2436   ZY=    -1.1035
   XZ=    -2.4306   YZ=    -2.8656   ZZ=    21.3521
   Eigenvalues:    19.9763    24.3499    29.3709
     11  C    Isotropic =    51.6147   Anisotropy =   151.0090
   XX=     2.5872   YX=    40.5226   ZX=   -25.7440
   XY=    50.8325   YY=    11.9585   ZY=    42.2021
   XZ=   -15.1508   YZ=    38.4615   ZZ=   140.2983
   Eigenvalues:   -48.2241    50.7808   152.2873
     12  H    Isotropic =    23.8484   Anisotropy =     7.2776
   XX=    26.1040   YX=     2.3348   ZX=    -0.0664
   XY=     2.3706   YY=    26.3233   ZY=    -1.9097
   XZ=     0.6248   YZ=    -1.6545   ZZ=    19.1180
   Eigenvalues:    18.6066    24.2385    28.7001
     13  C    Isotropic =    52.9284   Anisotropy =   147.0362
   XX=    51.3555   YX=    20.0327   ZX=   -13.5856
   XY=    11.2348   YY=   -33.6683   ZY=    42.7405
   XZ=    -8.2730   YZ=    40.1055   ZZ=   141.0981
   Eigenvalues:   -46.1921    54.0249   150.9526
     14  H    Isotropic =    23.9442   Anisotropy =     7.5024
   XX=    28.7155   YX=     0.5541   ZX=     1.0121
   XY=     0.4833   YY=    24.4716   ZY=    -0.8950
   XZ=     1.7659   YZ=    -0.3202   ZZ=    18.6455
   Eigenvalues:    18.3831    24.5037    28.9458
     15  C    Isotropic =    47.0832   Anisotropy =   203.5172
   XX=   -27.0916   YX=    -0.1109   ZX=   -28.6568
   XY=     4.6383   YY=    -9.2199   ZY=    28.7787
   XZ=    -9.4096   YZ=    23.2793   ZZ=   177.5610
   Eigenvalues:   -30.0660   -11.4458   182.7613
     16  C    Isotropic =    51.6831   Anisotropy =   188.9362
   XX=   -19.7367   YX=     5.0216   ZX=    16.1496
   XY=    -8.8050   YY=     1.7586   ZY=    23.2176
   XZ=   -48.8619   YZ=    24.3404   ZZ=   173.0274
   Eigenvalues:   -21.1153    -1.4759   177.6406
     17  C    Isotropic =    51.8568   Anisotropy =   148.5198
   XX=    50.7721   YX=   -23.6818   ZX=   -18.4641
   XY=   -16.9405   YY=   -41.6714   ZY=    17.8097
   XZ=   -14.4800   YZ=    11.1905   ZZ=   146.4697
   Eigenvalues:   -46.5535    51.2540   150.8700
     18  H    Isotropic =    23.8871   Anisotropy =     7.6762
   XX=    28.5371   YX=    -0.1282   ZX=     1.5525
   XY=    -0.2787   YY=    24.3320   ZY=    -0.7408
   XZ=     2.6127   YZ=    -1.5856   ZZ=    18.7922
   Eigenvalues:    18.1693    24.4874    29.0046
     19  C    Isotropic =    51.7663   Anisotropy =   148.6842
   XX=     2.3508   YX=   -45.6544   ZX=   -31.1097
   XY=   -52.9214   YY=     7.5176   ZY=    -1.8002
   XZ=   -23.6855   YZ=    -2.0343   ZZ=   145.4305
   Eigenvalues:   -46.7953    51.2050   150.8891
     20  H    Isotropic =    23.9375   Anisotropy =     7.6244
   XX=    25.5089   YX=    -2.0855   ZX=     1.5452
   XY=    -2.0408   YY=    27.3504   ZY=    -0.4943
   XZ=     2.6875   YZ=    -1.0321   ZZ=    18.9534
   Eigenvalues:    18.3269    24.4652    29.0205
     21  C    Isotropic =    47.2053   Anisotropy =   202.2944
   XX=   -13.1919   YX=    13.7851   ZX=   -43.9805
   XY=     8.3109   YY=   -19.8972   ZY=     0.1252
   XZ=   -29.8753   YZ=   -13.4280   ZZ=   174.7049
   Eigenvalues:   -29.8341   -10.6182   182.0682
     22  C    Isotropic =    51.6373   Anisotropy =   188.7174
   XX=    -0.5099   YX=     1.6301   ZX=   -16.1424
   XY=    18.6257   YY=   -15.4605   ZY=   -34.4730
   XZ=   -50.0915   YZ=    20.6205   ZZ=   170.8824
   Eigenvalues:   -21.0812    -1.4558   177.4489
     23  C    Isotropic =    52.7485   Anisotropy =   147.3596
   XX=   -22.7360   YX=   -31.9862   ZX=   -49.8421
   XY=   -23.9619   YY=    43.7963   ZY=   -16.0773
   XZ=   -44.4990   YZ=   -19.3301   ZZ=   137.1853
   Eigenvalues:   -46.7355    53.9929   150.9883
     24  H    Isotropic =    23.9643   Anisotropy =     7.5607
   XX=    24.9836   YX=    -1.6532   ZX=     1.4445
   XY=    -1.7400   YY=    28.1922   ZY=     0.0625
   XZ=     1.3535   YZ=    -0.8300   ZZ=    18.7172
   Eigenvalues:    18.4190    24.4691    29.0048
     25  C    Isotropic =    51.5471   Anisotropy =   151.4815
   XX=   -28.2326   YX=    32.8196   ZX=   -52.7701
   XY=    23.0322   YY=    45.4757   ZY=    -3.7505
   XZ=   -44.4729   YZ=   -10.3149   ZZ=   137.3982
   Eigenvalues:   -48.2470    50.3535   152.5348
     26  H    Isotropic =    23.9495   Anisotropy =     7.2423
   XX=    24.0835   YX=     1.2223   ZX=     1.5352
   XY=     1.1108   YY=    28.2010   ZY=     1.4497
   XZ=     1.9486   YZ=     0.8198   ZZ=    19.5641
   Eigenvalues:    18.9160    24.1549    28.7777
     27  C    Isotropic =    46.4205   Anisotropy =   208.7250
   XX=    -2.8829   YX=    14.2762   ZX=   -61.9139
   XY=     6.7072   YY=   -11.7520   ZY=   -41.9356
   XZ=   -61.4882   YZ=   -46.2127   ZZ=   153.8964
   Eigenvalues:   -27.6878   -18.6213   185.5705
     28  C    Isotropic =    47.8721   Anisotropy =   197.7655
   XX=    19.2428   YX=    14.7036   ZX=   -60.5074
   XY=    29.1038   YY=   -19.1880   ZY=   -56.3547
   XZ=   -63.5174   YZ=   -24.4566   ZZ=   143.5617
   Eigenvalues:   -30.5975    -5.5019   179.7158
     29  C    Isotropic =    49.4074   Anisotropy =   179.8282
   XX=    -3.7471   YX=    38.0782   ZX=   -81.0763
   XY=    36.1065   YY=    26.3315   ZY=   -23.2674
   XZ=   -78.1272   YZ=    -4.2514   ZZ=   125.6377
   Eigenvalues:   -51.8475    30.7768   169.2928
     30  H    Isotropic =    23.1375   Anisotropy =    13.4089
   XX=    22.2061   YX=    -0.8409   ZX=    -0.0618
   XY=    -2.1842   YY=    28.4163   ZY=     4.6320
   XZ=    -3.3021   YZ=     8.2051   ZZ=    18.7900
   Eigenvalues:    15.4743    21.8614    32.0767
     31  C    Isotropic =    55.2619   Anisotropy =   175.0623
   XX=    16.8311   YX=   -14.4710   ZX=   -84.4423
   XY=   -17.8936   YY=    37.6446   ZY=   -50.2556
   XZ=   -85.2660   YZ=   -54.3924   ZZ=   111.3099
   Eigenvalues:   -52.5760    46.3915   171.9700
     32  H    Isotropic =    24.5925   Anisotropy =     7.2047
   XX=    24.6585   YX=    -2.4694   ZX=     0.7458
   XY=    -2.6212   YY=    27.5120   ZY=     1.0621
   XZ=     1.0688   YZ=     3.8775   ZZ=    21.6071
   Eigenvalues:    19.9956    24.3863    29.3956
     33  C    Isotropic =    53.5116   Anisotropy =   178.2180
   XX=    61.2493   YX=    35.4513   ZX=   -42.6071
   XY=    31.8739   YY=   -37.6243   ZY=   -45.3091
   XZ=   -44.2526   YZ=   -49.7233   ZZ=   136.9100
   Eigenvalues:   -54.3749    42.5862   172.3236
     34  H    Isotropic =    24.3116   Anisotropy =     4.9117
   XX=    26.7177   YX=    -0.1479   ZX=     2.4615
   XY=    -0.3359   YY=    24.8421   ZY=     0.8639
   XZ=     2.1378   YZ=     1.5559   ZZ=    21.3750
   Eigenvalues:    20.2013    25.1475    27.5861
     35  C    Isotropic =    51.3371   Anisotropy =   156.3894
   XX=    -1.7263   YX=    53.6659   ZX=   -52.5937
   XY=    56.2664   YY=    24.8404   ZY=   -14.3702
   XZ=   -43.3243   YZ=   -19.1809   ZZ=   130.8973
   Eigenvalues:   -49.5168    47.9314   155.5967
     36  H    Isotropic =    23.8592   Anisotropy =     7.1834
   XX=    24.3290   YX=     1.2996   ZX=     2.1079
   XY=     1.2451   YY=    27.1457   ZY=     1.9534
   XZ=     1.5912   YZ=     2.8705   ZZ=    20.1029
   Eigenvalues:    18.9702    23.9593    28.6481
     37  Bq   Isotropic =     8.0247   Anisotropy =     6.4801
   XX=     7.4701   YX=    -1.4357   ZX=    -0.5790
   XY=    -1.2310   YY=     6.6519   ZY=     2.3548
   XZ=    -3.9619   YZ=     1.7375   ZZ=     9.9520
   Eigenvalues:     5.5892     6.1401    12.3447
     38  Bq   Isotropic =    -0.5007   Anisotropy =     6.6326
   XX=     0.8888   YX=     0.9982   ZX=    -1.5052
   XY=     0.5466   YY=    -1.5234   ZY=    -2.0622
   XZ=    -3.7473   YZ=    -3.8642   ZZ=    -0.8675
   Eigenvalues:    -4.4908    -0.9323     3.9211
     39  Bq   Isotropic =    -0.3557   Anisotropy =     8.6922
   XX=     1.2773   YX=     1.0761   ZX=    -2.0458
   XY=     0.2844   YY=    -2.3183   ZY=    -2.2510
   XZ=    -5.3652   YZ=    -4.6767   ZZ=    -0.0261
   Eigenvalues:    -5.3318    -1.1744     5.4391
     40  Bq   Isotropic =     0.3157   Anisotropy =    11.0425
   XX=     2.2024   YX=     0.9103   ZX=    -2.8983
   XY=    -0.7210   YY=    -2.8210   ZY=    -1.2875
   XZ=    -7.8875   YZ=    -4.3202   ZZ=     1.5658
   Eigenvalues:    -5.3116    -1.4186     7.6774
     41  Bq   Isotropic =     1.1144   Anisotropy =    12.5346
   XX=     3.4060   YX=     0.1726   ZX=    -3.6266
   XY=    -2.7482   YY=    -1.4660   ZY=     0.5569
   XZ=   -10.3219   YZ=    -2.0958   ZZ=     1.4032
   Eigenvalues:    -5.1887    -0.9388     9.4708
     42  Bq   Isotropic =     0.9368   Anisotropy =    12.6414
   XX=     4.0591   YX=    -0.6411   ZX=    -3.6359
   XY=    -4.1119   YY=     0.6022   ZY=     0.2583
   XZ=   -10.9851   YZ=    -0.8789   ZZ=    -1.8510
   Eigenvalues:    -7.1157     0.5616     9.3644
     43  Bq   Isotropic =     0.3269   Anisotropy =    12.4995
   XX=     4.3219   YX=    -1.4218   ZX=    -3.2952
   XY=    -4.2223   YY=     0.7752   ZY=    -1.3997
   XZ=   -10.6395   YZ=    -1.4706   ZZ=    -4.1164
   Eigenvalues:    -8.7833     1.1041     8.6599
     44  Bq   Isotropic =     0.1392   Anisotropy =    12.2422
   XX=     4.0210   YX=    -2.2027   ZX=    -2.9040
   XY=    -4.1026   YY=     0.1800   ZY=    -2.0359
   XZ=   -10.4365   YZ=    -1.5343   ZZ=    -3.7833
   Eigenvalues:    -8.7257     0.8427     8.3007
     45  Bq   Isotropic =     0.2989   Anisotropy =    12.0920
   XX=     3.4990   YX=    -2.7316   ZX=    -2.5854
   XY=    -4.2958   YY=     0.2410   ZY=    -1.1117
   XZ=    -9.9791   YZ=     0.3274   ZZ=    -2.8433
   Eigenvalues:    -7.3769    -0.0866     8.3602
     46  Bq   Isotropic =     0.0069   Anisotropy =    11.2665
   XX=     2.6307   YX=    -2.9489   ZX=    -1.7480
   XY=    -4.4614   YY=     1.4125   ZY=    -0.0629
   XZ=    -7.9077   YZ=     2.1916   ZZ=    -4.0225
   Eigenvalues:    -6.6478    -0.8494     7.5179
     47  Bq   Isotropic =    -0.6847   Anisotropy =     9.1253
   XX=     1.6154   YX=    -2.3624   ZX=    -0.8127
   XY=    -3.6072   YY=     1.9588   ZY=    -0.4324
   XZ=    -5.2258   YZ=     1.7849   ZZ=    -5.6283
   Eigenvalues:    -6.7405    -0.7124     5.3989
     48  Bq   Isotropic =    -0.5371   Anisotropy =     7.8715
   XX=     1.0583   YX=     0.8906   ZX=    -1.6888
   XY=     0.2525   YY=    -1.9385   ZY=    -2.6290
   XZ=    -4.3063   YZ=    -5.2775   ZZ=    -0.7312
   Eigenvalues:    -5.7223    -0.5996     4.7105
     49  Bq   Isotropic =    -0.2014   Anisotropy =    10.1196
   XX=     1.5671   YX=     0.7743   ZX=    -1.8131
   XY=    -0.2570   YY=    -2.9133   ZY=    -2.9714
   XZ=    -5.9271   YZ=    -6.9006   ZZ=     0.7421
   Eigenvalues:    -6.8851    -0.2640     6.5450
     50  Bq   Isotropic =     1.3202   Anisotropy =    12.7038
   XX=     2.7232   YX=     0.7055   ZX=    -1.8895
   XY=    -1.3909   YY=    -3.3590   ZY=    -1.4658
   XZ=    -8.6787   YZ=    -7.1226   ZZ=     4.5964
   Eigenvalues:    -6.0738     0.2450     9.7894
     51  Bq   Isotropic =     3.8522   Anisotropy =    14.6463
   XX=     4.3402   YX=     0.7393   ZX=    -2.2363
   XY=    -3.5304   YY=    -0.4303   ZY=     1.9173
   XZ=   -12.6402   YZ=    -3.6200   ZZ=     7.6468
   Eigenvalues:    -2.7572     0.6975    13.6164
     52  Bq   Isotropic =     4.6640   Anisotropy =    15.9375
   XX=     5.6479   YX=     0.5536   ZX=    -3.3453
   XY=    -5.3039   YY=     3.5268   ZY=     1.7522
   XZ=   -15.9005   YZ=    -0.2679   ZZ=     4.8175
   Eigenvalues:    -4.5557     3.2588    15.2890
     53  Bq   Isotropic =     3.8772   Anisotropy =    17.1974
   XX=     6.5971   YX=    -1.3743   ZX=    -3.9981
   XY=    -6.4353   YY=     3.9722   ZY=    -0.2863
   XZ=   -16.6633   YZ=     0.0012   ZZ=     1.0622
   Eigenvalues:    -7.4297     3.7191    15.3421
     54  Bq   Isotropic =     3.3515   Anisotropy =    15.8886
   XX=     5.4791   YX=    -3.0632   ZX=    -2.6143
   XY=    -6.8510   YY=     3.8518   ZY=    -1.0496
   XZ=   -15.7056   YZ=     0.0746   ZZ=     0.7236
   Eigenvalues:    -7.4590     3.5696    13.9439
     55  Bq   Isotropic =     3.1525   Anisotropy =    14.0705
   XX=     3.8215   YX=    -2.6558   ZX=    -1.4292
   XY=    -6.0416   YY=     4.1942   ZY=    -0.0447
   XZ=   -13.6003   YZ=     3.2049   ZZ=     1.4417
   Eigenvalues:    -5.2948     2.2194    12.5328
     56  Bq   Isotropic =     1.6268   Anisotropy =    12.6900
   XX=     2.4538   YX=    -1.9135   ZX=    -0.8206
   XY=    -4.8110   YY=     5.1828   ZY=     0.9004
   XZ=    -9.8593   YZ=     5.5619   ZZ=    -2.7563
   Eigenvalues:    -6.1881     0.9817    10.0868
     57  Bq   Isotropic =    -0.3327   Anisotropy =    10.0158
   XX=     1.4265   YX=    -1.2223   ZX=    -0.5878
   XY=    -3.2503   YY=     4.4168   ZY=    -0.4920
   XZ=    -6.6284   YZ=     3.4070   ZZ=    -6.8415
   Eigenvalues:    -8.2226     0.8799     6.3445
     58  Bq   Isotropic =    -0.4372   Anisotropy =     9.5083
   XX=     1.5144   YX=     0.7343   ZX=    -2.2991
   XY=    -0.3142   YY=    -2.4535   ZY=    -2.9027
   XZ=    -5.2651   YZ=    -6.7653   ZZ=    -0.3727
   Eigenvalues:    -7.0006    -0.2128     5.9016
     59  Bq   Isotropic =     0.1599   Anisotropy =    11.8479
   XX=     2.5572   YX=     0.2878   ZX=    -2.1781
   XY=    -1.3491   YY=    -3.3920   ZY=    -3.2128
   XZ=    -6.9968   YZ=    -9.2084   ZZ=     1.3144
   Eigenvalues:    -8.5805     1.0016     8.0585
     60  Bq   Isotropic =     2.7039   Anisotropy =    14.9362
   XX=     4.6764   YX=     0.0763   ZX=    -1.7451
   XY=    -2.5421   YY=    -3.5622   ZY=    -1.2088
   XZ=    -9.7649   YZ=   -10.4290   ZZ=     6.9973
   Eigenvalues:    -7.2679     2.7182    12.6613
     61  Bq   Isotropic =     7.9219   Anisotropy =    18.4774
   XX=     7.5344   YX=     0.1075   ZX=    -1.5542
   XY=    -4.5405   YY=     0.7988   ZY=     3.7014
   XZ=   -14.0771   YZ=    -6.3642   ZZ=    15.4326
   Eigenvalues:    -0.9965     4.5221    20.2402
     62  Bq   Isotropic =    11.7609   Anisotropy =    22.5631
   XX=     9.1206   YX=    -0.0094   ZX=    -2.7390
   XY=    -6.4854   YY=     6.8051   ZY=     4.6457
   XZ=   -18.4251   YZ=     0.7612   ZZ=    19.3571
   Eigenvalues:     2.0595     6.4204    26.8030
     63  Bq   Isotropic =    11.9535   Anisotropy =    24.1716
   XX=     9.8835   YX=    -1.6736   ZX=    -3.5890
   XY=    -7.7337   YY=     9.1592   ZY=     4.7506
   XZ=   -19.8205   YZ=     5.4109   ZZ=    16.8177
   Eigenvalues:     1.0570     6.7355    28.0679
     64  Bq   Isotropic =    10.6629   Anisotropy =    21.5136
   XX=     8.7094   YX=    -2.5875   ZX=    -1.4800
   XY=    -8.1013   YY=    11.3997   ZY=     4.1370
   XZ=   -19.0064   YZ=     6.9500   ZZ=    11.8796
   Eigenvalues:    -0.0941     7.0775    25.0053
     65  Bq   Isotropic =     7.7182   Anisotropy =    16.5097
   XX=     6.6584   YX=    -0.9578   ZX=     0.4435
   XY=    -5.9975   YY=    10.6128   ZY=     1.7570
   XZ=   -15.3494   YZ=     9.2529   ZZ=     5.8835
   Eigenvalues:    -1.4622     5.8921    18.7247
     66  Bq   Isotropic =     2.9221   Anisotropy =    13.0772
   XX=     4.2584   YX=     0.2717   ZX=     0.2352
   XY=    -3.5317   YY=     8.5719   ZY=     0.3220
   XZ=   -10.7109   YZ=     8.7608   ZZ=    -4.0640
   Eigenvalues:    -7.3504     4.4764    11.6402
     67  Bq   Isotropic =    -0.3369   Anisotropy =    10.1046
   XX=     2.4489   YX=     0.4539   ZX=    -0.6161
   XY=    -2.0320   YY=     5.8434   ZY=    -1.7910
   XZ=    -8.3087   YZ=     4.1310   ZZ=    -9.3029
   Eigenvalues:   -10.8496     3.4394     6.3995
     68  Bq   Isotropic =     0.2958   Anisotropy =    11.7487
   XX=     1.7427   YX=     0.5250   ZX=    -3.3076
   XY=    -1.0663   YY=    -2.7191   ZY=    -2.3937
   XZ=    -6.6606   YZ=    -8.1733   ZZ=     1.8638
   Eigenvalues:    -7.3136     0.0728     8.1283
     69  Bq   Isotropic =     1.6977   Anisotropy =    14.0268
   XX=     3.3063   YX=    -0.3324   ZX=    -3.1113
   XY=    -3.1266   YY=    -2.7487   ZY=    -1.9298
   XZ=    -8.8298   YZ=   -10.8584   ZZ=     4.5354
   Eigenvalues:    -8.3765     2.4207    11.0489
     70  Bq   Isotropic =     5.8900   Anisotropy =    18.7845
   XX=     5.8337   YX=    -0.4811   ZX=    -2.7401
   XY=    -4.2543   YY=    -1.5595   ZY=     0.4391
   XZ=   -11.4982   YZ=   -11.9044   ZZ=    13.3958
   Eigenvalues:    -5.6107     4.8678    18.4130
     71  Bq   Isotropic =    12.8348   Anisotropy =    25.5799
   XX=     8.4709   YX=    -1.3664   ZX=    -3.2923
   XY=    -5.1355   YY=     3.6835   ZY=     6.6440
   XZ=   -13.6644   YZ=    -4.8942   ZZ=    26.3501
   Eigenvalues:     1.5098     7.1066    29.8881
     72  Bq   Isotropic =    16.4394   Anisotropy =    30.3558
   XX=     8.0811   YX=    -3.0489   ZX=    -2.7255
   XY=    -6.2227   YY=     9.2591   ZY=     9.0357
   XZ=   -13.1039   YZ=     4.7537   ZZ=    31.9781
   Eigenvalues:     3.8825     8.7592    36.6767
     73  Bq   Isotropic =    16.5229   Anisotropy =    30.4933
   XX=     8.2020   YX=    -1.6240   ZX=    -1.4707
   XY=    -4.8686   YY=    11.3500   ZY=    10.1591
   XZ=   -12.9001   YZ=    10.7069   ZZ=    30.0166
   Eigenvalues:     6.0308     6.6861    36.8518
     74  Bq   Isotropic =    16.0003   Anisotropy =    28.6127
   XX=     8.8768   YX=    -0.2005   ZX=    -2.6453
   XY=    -3.8654   YY=    15.2800   ZY=     9.7241
   XZ=   -15.9698   YZ=    13.7810   ZZ=    23.8442
   Eigenvalues:     2.9435     9.9821    35.0755
     75  Bq   Isotropic =    11.9353   Anisotropy =    22.6792
   XX=     8.7445   YX=    -0.5205   ZX=    -2.0656
   XY=    -4.2187   YY=    15.7049   ZY=     4.3920
   XZ=   -16.5893   YZ=    15.1836   ZZ=    11.3563
   Eigenvalues:    -1.0404     9.7915    27.0547
     76  Bq   Isotropic =     4.2842   Anisotropy =    15.9650
   XX=     6.1361   YX=     0.5759   ZX=    -1.1617
   XY=    -3.0709   YY=    11.9319   ZY=    -0.6477
   XZ=   -14.0686   YZ=    10.8448   ZZ=    -5.2154
   Eigenvalues:    -9.7932     7.7183    14.9275
     77  Bq   Isotropic =     0.0873   Anisotropy =    11.3075
   XX=     4.1224   YX=     0.9287   ZX=    -1.7025
   XY=    -1.8688   YY=     7.2970   ZY=    -3.6617
   XZ=   -12.4396   YZ=     3.9528   ZZ=   -11.1575
   Eigenvalues:   -13.9276     6.5639     7.6256
     78  Bq   Isotropic =     2.0238   Anisotropy =    13.5333
   XX=     1.1685   YX=     0.3856   ZX=    -2.8990
   XY=    -0.9066   YY=    -2.3346   ZY=    -0.7264
   XZ=    -6.1310   YZ=    -9.1727   ZZ=     7.2374
   Eigenvalues:    -5.1995     0.2248    11.0460
     79  Bq   Isotropic =     5.1665   Anisotropy =    15.1787
   XX=     3.7494   YX=    -0.4995   ZX=    -2.5279
   XY=    -3.1894   YY=    -0.3910   ZY=     2.3563
   XZ=    -7.9999   YZ=   -10.7998   ZZ=    12.1409
   Eigenvalues:    -3.4853     3.6991    15.2856
     80  Bq   Isotropic =    11.0807   Anisotropy =    21.4242
   XX=     7.1502   YX=    -0.4558   ZX=    -1.4800
   XY=    -4.1758   YY=     2.5006   ZY=     4.9461
   XZ=    -9.2705   YZ=   -10.4085   ZZ=    23.5913
   Eigenvalues:     0.5469     7.3317    25.3635
     81  Bq   Isotropic =    16.2674   Anisotropy =    30.2289
   XX=     8.5710   YX=    -1.1163   ZX=    -1.5839
   XY=    -3.4500   YY=     5.7407   ZY=     9.9168
   XZ=    -8.4891   YZ=     0.4038   ZZ=    34.4905
   Eigenvalues:     4.2738     8.1085    36.4200
     82  Bq   Isotropic =    14.9109   Anisotropy =    31.1908
   XX=     5.1273   YX=    -2.3308   ZX=    -0.6554
   XY=    -3.3864   YY=     8.2407   ZY=    11.7346
   XZ=    -6.0639   YZ=     8.4215   ZZ=    31.3648
   Eigenvalues:     3.0286     5.9994    35.7048
     83  Bq   Isotropic =    13.2152   Anisotropy =    29.3189
   XX=     3.7563   YX=    -0.9092   ZX=     0.1440
   XY=    -1.9456   YY=     7.8881   ZY=    10.4739
   XZ=    -6.2761   YZ=    10.2026   ZZ=    28.0011
   Eigenvalues:     3.2971     3.5873    32.7611
     84  Bq   Isotropic =    14.4702   Anisotropy =    29.6844
   XX=     5.1146   YX=     0.4169   ZX=    -1.3306
   XY=    -0.8857   YY=    10.5278   ZY=     9.8294
   XZ=   -10.3123   YZ=    12.5674   ZZ=    27.7681
   Eigenvalues:     2.2133     6.9374    34.2597
     85  Bq   Isotropic =    14.6143   Anisotropy =    26.4643
   XX=     7.2946   YX=     0.2246   ZX=    -1.1921
   XY=    -2.0276   YY=    16.0599   ZY=     7.3033
   XZ=   -15.2812   YZ=    16.2933   ZZ=    20.4885
   Eigenvalues:     1.3784    10.2074    32.2572
     86  Bq   Isotropic =     8.5927   Anisotropy =    17.4660
   XX=     6.8853   YX=     1.9822   ZX=    -1.2797
   XY=    -1.8302   YY=    15.9004   ZY=     0.1246
   XZ=   -18.7854   YZ=    12.9638   ZZ=     2.9923
   Eigenvalues:    -6.4834    12.0248    20.2367
     87  Bq   Isotropic =     4.4305   Anisotropy =    14.1368
   XX=     6.9170   YX=     1.4376   ZX=    -2.9127
   XY=    -2.3336   YY=    10.7426   ZY=    -3.4236
   XZ=   -18.7845   YZ=     5.9643   ZZ=    -4.3682
   Eigenvalues:   -10.9875    10.4239    13.8550
     88  Bq   Isotropic =     2.7238   Anisotropy =    13.1175
   XX=     0.9478   YX=     0.5974   ZX=     0.4064
   XY=     1.1431   YY=    -2.2601   ZY=    -0.3428
   XZ=    -1.4232   YZ=    -9.9218   ZZ=     9.4838
   Eigenvalues:    -4.2651     0.9677    11.4689
     89  Bq   Isotropic =     6.8370   Anisotropy =    15.0607
   XX=     4.1358   YX=     1.0170   ZX=    -0.3297
   XY=     1.7447   YY=     0.4389   ZY=     4.0220
   XZ=    -1.8029   YZ=   -11.2412   ZZ=    15.9363
   Eigenvalues:    -0.6285     4.2621    16.8775
     90  Bq   Isotropic =    13.8997   Anisotropy =    22.8331
   XX=     8.6060   YX=     0.0614   ZX=    -1.8020
   XY=     0.5475   YY=     4.3158   ZY=     7.1191
   XZ=    -2.8032   YZ=    -9.9736   ZZ=    28.7772
   Eigenvalues:     4.2259     8.3514    29.1217
     91  Bq   Isotropic =    17.7317   Anisotropy =    31.4059
   XX=     9.6553   YX=    -1.5079   ZX=    -1.9899
   XY=    -1.5794   YY=     6.5278   ZY=    11.0677
   XZ=    -3.1467   YZ=     2.1987   ZZ=    37.0121
   Eigenvalues:     4.9295     9.5967    38.6690
     92  Bq   Isotropic =    13.8552   Anisotropy =    30.0825
   XX=     4.7063   YX=    -1.7878   ZX=    -1.5446
   XY=    -1.7443   YY=     7.4014   ZY=    12.2716
   XZ=    -3.5740   YZ=     8.5498   ZZ=    29.4578
   Eigenvalues:     2.9348     4.7206    33.9101
     93  Bq   Isotropic =    11.3130   Anisotropy =    27.8465
   XX=     2.2235   YX=    -1.4578   ZX=    -1.3480
   XY=    -1.4879   YY=     5.8424   ZY=    10.1088
   XZ=    -5.0044   YZ=     8.2280   ZZ=    25.8730
   Eigenvalues:     1.6982     2.3633    29.8773
     94  Bq   Isotropic =    13.2928   Anisotropy =    29.7644
   XX=     4.3078   YX=    -0.8748   ZX=    -1.2637
   XY=    -1.3528   YY=     6.9184   ZY=     9.7906
   XZ=    -7.7138   YZ=     9.7684   ZZ=    28.6522
   Eigenvalues:     2.7736     3.9690    33.1357
     95  Bq   Isotropic =    17.1792   Anisotropy =    30.0601
   XX=     8.5100   YX=    -0.0514   ZX=    -0.8880
   XY=    -1.4471   YY=    14.1429   ZY=     9.7824
   XZ=   -12.0812   YZ=    15.0503   ZZ=    28.8848
   Eigenvalues:     4.6550     9.6634    37.2193
     96  Bq   Isotropic =    15.8612   Anisotropy =    22.3562
   XX=     9.2266   YX=     1.6651   ZX=    -1.5890
   XY=    -1.0029   YY=    17.1905   ZY=     2.2235
   XZ=   -16.8538   YZ=    15.5735   ZZ=    21.1665
   Eigenvalues:     2.5190    14.2992    30.7653
     97  Bq   Isotropic =    14.2146   Anisotropy =    20.1610
   XX=    10.4755   YX=     1.8325   ZX=    -3.9351
   XY=    -1.4392   YY=    14.9071   ZY=     1.2357
   XZ=   -17.7042   YZ=    12.5219   ZZ=    17.2612
   Eigenvalues:     1.1064    13.8821    27.6553
     98  Bq   Isotropic =     1.3441   Anisotropy =    11.1599
   XX=     1.7690   YX=     0.4384   ZX=     2.0040
   XY=     2.0478   YY=    -2.9768   ZY=    -2.3650
   XZ=     1.3392   YZ=   -10.2778   ZZ=     5.2400
   Eigenvalues:    -6.8255     2.0737     8.7840
     99  Bq   Isotropic =     4.2379   Anisotropy =    14.3000
   XX=     4.0266   YX=     1.3045   ZX=     1.4198
   XY=     3.8805   YY=    -2.0439   ZY=    -0.5084
   XZ=     2.5011   YZ=   -13.1867   ZZ=    10.7310
   Eigenvalues:    -6.0173     4.9598    13.7712
    100  Bq   Isotropic =    11.2049   Anisotropy =    21.1457
   XX=     7.4024   YX=     0.5412   ZX=     0.1806
   XY=     3.1353   YY=     1.8227   ZY=     3.6848
   XZ=     3.2557   YZ=   -12.3831   ZZ=    24.3895
   Eigenvalues:     0.3670     7.9456    25.3020
    101  Bq   Isotropic =    17.6054   Anisotropy =    28.7801
   XX=     8.6397   YX=    -0.0577   ZX=    -0.2309
   XY=     1.3719   YY=     8.1884   ZY=    10.5320
   XZ=     2.4791   YZ=    -1.2668   ZZ=    35.9880
   Eigenvalues:     7.2703     8.7537    36.7921
    102  Bq   Isotropic =    15.6555   Anisotropy =    29.9661
   XX=     4.7645   YX=     0.1049   ZX=    -1.8882
   XY=     1.3813   YY=     9.7661   ZY=    11.9230
   XZ=    -0.8119   YZ=     6.1545   ZZ=    32.4359
   Eigenvalues:     4.1863     7.1474    35.6329
    103  Bq   Isotropic =    13.1594   Anisotropy =    29.2249
   XX=     2.5081   YX=    -1.3876   ZX=    -2.7119
   XY=    -0.2224   YY=     7.6991   ZY=    10.7288
   XZ=    -3.3384   YZ=     6.5976   ZZ=    29.2711
   Eigenvalues:     2.1611     4.6746    32.6427
    104  Bq   Isotropic =    15.1627   Anisotropy =    31.9900
   XX=     3.8200   YX=    -1.3900   ZX=    -1.8841
   XY=    -0.7354   YY=     8.7627   ZY=    10.6618
   XZ=    -4.7551   YZ=     8.0859   ZZ=    32.9055
   Eigenvalues:     3.4460     5.5529    36.4894
    105  Bq   Isotropic =    18.5590   Anisotropy =    33.9868
   XX=     6.5759   YX=    -0.5452   ZX=    -2.5787
   XY=     0.3053   YY=    14.1184   ZY=    10.7713
   XZ=    -5.7554   YZ=    14.1279   ZZ=    34.9826
   Eigenvalues:     5.2650     9.1950    41.2168
    106  Bq   Isotropic =    17.0477   Anisotropy =    28.0972
   XX=     5.6969   YX=    -0.8865   ZX=    -2.5803
   XY=     0.3211   YY=    15.7425   ZY=     5.0833
   XZ=    -5.3820   YZ=    15.9283   ZZ=    29.7038
   Eigenvalues:     4.7646    10.5993    35.7792
    107  Bq   Isotropic =    16.3704   Anisotropy =    24.9286
   XX=     6.6596   YX=     1.1650   ZX=    -2.9527
   XY=     1.8226   YY=    14.3188   ZY=     4.0053
   XZ=    -5.5542   YZ=    14.0834   ZZ=    28.1329
   Eigenvalues:     4.3987    11.7231    32.9895
    108  Bq   Isotropic =     0.3719   Anisotropy =     9.5344
   XX=     2.0105   YX=     0.0667   ZX=     1.0330
   XY=     1.3506   YY=    -3.2227   ZY=    -3.5797
   XZ=     0.7258   YZ=    -9.6003   ZZ=     2.3279
   Eigenvalues:    -7.7172     2.1048     6.7281
    109  Bq   Isotropic =     1.9913   Anisotropy =    12.5996
   XX=     4.1001   YX=     0.4887   ZX=     0.9649
   XY=     2.1588   YY=    -4.1042   ZY=    -2.9674
   XZ=     2.1655   YZ=   -12.8177   ZZ=     5.9780
   Eigenvalues:    -8.7144     4.2973    10.3910
    110  Bq   Isotropic =     7.1832   Anisotropy =    16.1785
   XX=     7.9501   YX=     0.4886   ZX=     1.0715
   XY=     2.2647   YY=    -2.1386   ZY=     1.8884
   XZ=     4.8021   YZ=   -13.1424   ZZ=    15.7381
   Eigenvalues:    -4.1486     7.7293    17.9688
    111  Bq   Isotropic =    14.3691   Anisotropy =    21.1385
   XX=    10.2590   YX=     1.2421   ZX=     1.2897
   XY=     4.0794   YY=     5.6494   ZY=     8.3914
   XZ=     7.8302   YZ=    -6.4409   ZZ=    27.1988
   Eigenvalues:     4.3830    10.2629    28.4614
    112  Bq   Isotropic =    15.8705   Anisotropy =    25.1977
   XX=     7.6481   YX=     1.9700   ZX=    -0.1500
   XY=     5.9192   YY=     9.0624   ZY=     8.9601
   XZ=     7.0874   YZ=     0.8243   ZZ=    30.9011
   Eigenvalues:     4.3374    10.6052    32.6690
    113  Bq   Isotropic =    15.0406   Anisotropy =    26.1968
   XX=     5.5019   YX=     0.3964   ZX=    -0.8863
   XY=     4.1555   YY=     9.3903   ZY=    10.5991
   XZ=     4.7775   YZ=     3.0657   ZZ=    30.2296
   Eigenvalues:     4.3853     8.2314    32.5052
    114  Bq   Isotropic =    16.9599   Anisotropy =    28.8927
   XX=     5.8857   YX=     0.3294   ZX=     0.2846
   XY=     3.3118   YY=    11.4247   ZY=    10.7591
   XZ=     3.6679   YZ=     4.7904   ZZ=    33.5692
   Eigenvalues:     5.3348     9.3231    36.2217
    115  Bq   Isotropic =    17.0537   Anisotropy =    29.9797
   XX=     6.2656   YX=     1.1478   ZX=    -0.5425
   XY=     3.7640   YY=    12.3575   ZY=     9.4015
   XZ=     1.5216   YZ=    11.5016   ZZ=    32.5380
   Eigenvalues:     4.8218     9.2991    37.0402
    116  Bq   Isotropic =    12.7488   Anisotropy =    24.2426
   XX=     3.3704   YX=     0.3741   ZX=    -1.0789
   XY=     2.7985   YY=    11.0487   ZY=     5.9679
   XZ=    -0.2310   YZ=    13.0867   ZZ=    23.8274
   Eigenvalues:     2.5225     6.8135    28.9105
    117  Bq   Isotropic =    11.5941   Anisotropy =    20.5860
   XX=     3.2762   YX=     0.2710   ZX=    -0.7297
   XY=     2.1886   YY=     9.0991   ZY=     3.3591
   XZ=    -1.0594   YZ=    10.3685   ZZ=    22.4070
   Eigenvalues:     2.6515     6.8127    25.3181
    118  Bq   Isotropic =     0.2430   Anisotropy =     8.8468
   XX=     1.5659   YX=    -0.1640   ZX=    -0.0937
   XY=     0.7509   YY=    -2.9597   ZY=    -3.6661
   XZ=    -0.2115   YZ=    -8.3883   ZZ=     2.1227
   Eigenvalues:    -6.9625     1.5506     6.1408
    119  Bq   Isotropic =     1.3394   Anisotropy =    11.1116
   XX=     3.1775   YX=    -0.0156   ZX=    -0.3723
   XY=     1.2480   YY=    -4.3541   ZY=    -3.0054
   XZ=     0.9514   YZ=   -10.6384   ZZ=     5.1948
   Eigenvalues:    -7.9479     3.2189     8.7472
    120  Bq   Isotropic =     4.6965   Anisotropy =    11.6827
   XX=     6.1981   YX=     0.0239   ZX=    -0.8671
   XY=     2.4362   YY=    -3.2807   ZY=     1.6156
   XZ=     3.4790   YZ=   -10.1688   ZZ=    11.1722
   Eigenvalues:    -4.6681     6.2727    12.4849
    121  Bq   Isotropic =     8.3231   Anisotropy =    11.3737
   XX=     7.7716   YX=    -0.0868   ZX=    -0.9825
   XY=     5.2407   YY=     2.8310   ZY=     5.3632
   XZ=     8.0278   YZ=    -6.7889   ZZ=    14.3667
   Eigenvalues:     1.3801     7.6837    15.9055
    122  Bq   Isotropic =     8.6351   Anisotropy =    13.4636
   XX=     7.0354   YX=     0.5080   ZX=     0.5706
   XY=     7.6625   YY=     4.9909   ZY=     3.4574
   XZ=    11.7016   YZ=    -5.4456   ZZ=    13.8790
   Eigenvalues:     0.0760     8.2185    17.6109
    123  Bq   Isotropic =     8.9918   Anisotropy =    14.5448
   XX=     6.9229   YX=     2.4045   ZX=     0.8583
   XY=     8.9137   YY=     5.1174   ZY=     4.8047
   XZ=    11.6183   YZ=    -6.4087   ZZ=    14.9350
   Eigenvalues:    -1.1833     9.4703    18.6883
    124  Bq   Isotropic =    12.3791   Anisotropy =    16.9466
   XX=     7.5027   YX=     2.5211   ZX=    -0.9376
   XY=     8.3899   YY=     7.2000   ZY=     6.4979
   XZ=     8.7774   YZ=    -5.0072   ZZ=    22.4348
   Eigenvalues:     1.6494    11.8111    23.6768
    125  Bq   Isotropic =    14.0024   Anisotropy =    22.2882
   XX=     6.9244   YX=     1.6380   ZX=    -2.0785
   XY=     5.9742   YY=     8.1447   ZY=     7.4260
   XZ=     2.1637   YZ=     4.9797   ZZ=    26.9382
   Eigenvalues:     2.9332    10.2129    28.8612
    126  Bq   Isotropic =    11.1805   Anisotropy =    21.7351
   XX=     4.2968   YX=     0.8679   ZX=    -2.4950
   XY=     3.6239   YY=     7.5737   ZY=     6.4100
   XZ=    -3.3078   YZ=    10.2499   ZZ=    21.6709
   Eigenvalues:     0.6796     7.1913    25.6705
    127  Bq   Isotropic =    10.8855   Anisotropy =    20.3515
   XX=     4.6850   YX=    -0.6005   ZX=    -1.7377
   XY=     1.2374   YY=     6.7570   ZY=     4.5944
   XZ=    -4.5828   YZ=     9.4150   ZZ=    21.2147
   Eigenvalues:     2.6236     5.5799    24.4532
    128  Bq   Isotropic =     0.3962   Anisotropy =     8.2489
   XX=     1.1298   YX=    -0.4316   ZX=    -0.4723
   XY=     0.4500   YY=    -2.5952   ZY=    -3.3550
   XZ=    -0.6099   YZ=    -7.0353   ZZ=     2.6540
   Eigenvalues:    -5.8021     1.0952     5.8954
    129  Bq   Isotropic =     1.0994   Anisotropy =     9.7429
   XX=     2.1301   YX=    -0.4996   ZX=    -0.1485
   XY=     1.0362   YY=    -3.8308   ZY=    -2.7275
   XZ=     0.8240   YZ=    -8.1474   ZZ=     4.9988
   Eigenvalues:    -6.4375     2.1411     7.5946
    130  Bq   Isotropic =     2.7654   Anisotropy =     9.2527
   XX=     3.8600   YX=    -0.1299   ZX=     0.2806
   XY=     3.0139   YY=    -3.2640   ZY=     0.5592
   XZ=     3.3087   YZ=    -6.8938   ZZ=     7.7001
   Eigenvalues:    -4.5314     3.8937     8.9339
    131  Bq   Isotropic =     3.1696   Anisotropy =     7.0563
   XX=     4.5185   YX=     0.4979   ZX=     0.5209
   XY=     5.7802   YY=     0.1133   ZY=     2.1920
   XZ=     5.4955   YZ=    -5.4154   ZZ=     4.8771
   Eigenvalues:    -2.6381     4.2731     7.8738
    132  Bq   Isotropic =     1.5598   Anisotropy =     8.6472
   XX=     4.4861   YX=     1.1172   ZX=     1.2343
   XY=     7.1861   YY=     0.4340   ZY=    -0.4004
   XZ=     6.6060   YZ=    -8.4130   ZZ=    -0.2408
   Eigenvalues:    -7.1222     4.4769     7.3246
    133  Bq   Isotropic =     1.5746   Anisotropy =    10.3578
   XX=     5.2286   YX=     2.7222   ZX=     1.1025
   XY=     8.2010   YY=    -0.8947   ZY=    -1.1939
   XZ=     6.5722   YZ=   -13.3846   ZZ=     0.3897
   Eigenvalues:   -10.3841     6.6280     8.4798
    134  Bq   Isotropic =     6.2033   Anisotropy =    12.6085
   XX=     6.1114   YX=     3.1176   ZX=    -0.3544
   XY=     8.2177   YY=     0.6551   ZY=     1.4493
   XZ=     4.8290   YZ=   -13.8451   ZZ=    11.8433
   Eigenvalues:    -5.3379     9.3388    14.6089
    135  Bq   Isotropic =    12.7437   Anisotropy =    20.3108
   XX=     6.6499   YX=     2.9641   ZX=    -1.2846
   XY=     7.0777   YY=     5.3919   ZY=     5.4507
   XZ=    -0.4929   YZ=    -2.9245   ZZ=    26.1892
   Eigenvalues:     0.8676    11.0792    26.2842
    136  Bq   Isotropic =    14.8320   Anisotropy =    25.9626
   XX=     7.1962   YX=     2.3188   ZX=    -2.9993
   XY=     4.7843   YY=     7.8063   ZY=     6.4003
   XZ=    -6.7061   YZ=     7.7212   ZZ=    29.4935
   Eigenvalues:     1.4191    10.9365    32.1404
    137  Bq   Isotropic =    16.9354   Anisotropy =    26.9429
   XX=     9.6364   YX=    -1.7573   ZX=    -1.3724
   XY=     0.1305   YY=    10.7150   ZY=     7.4304
   XZ=    -7.5197   YZ=    11.0890   ZZ=    30.4547
   Eigenvalues:     6.7026     9.2062    34.8973
 End of Minotr F.D. properties file   721 does not exist.
 End of Minotr F.D. properties file   722 does not exist.
 End of Minotr F.D. properties file   788 does not exist.
 Hyperfine terms turned off by default for NAtoms > 100.

 **********************************************************************

            Population analysis using the SCF density.

 **********************************************************************

 Alpha  occ. eigenvalues --  -10.19519 -10.19478 -10.19029 -10.19029 -10.18896
 Alpha  occ. eigenvalues --  -10.18895 -10.18706 -10.18705 -10.17975 -10.17938
 Alpha  occ. eigenvalues --  -10.17937 -10.17904 -10.17858 -10.17858 -10.17744
 Alpha  occ. eigenvalues --  -10.17743 -10.17670 -10.17670 -10.17548 -10.17548
 Alpha  occ. eigenvalues --  -10.17417 -10.17416  -0.90320  -0.88119  -0.85937
 Alpha  occ. eigenvalues --   -0.83160  -0.80702  -0.79527  -0.76956  -0.75590
 Alpha  occ. eigenvalues --   -0.74411  -0.72712  -0.71872  -0.64912  -0.64545
 Alpha  occ. eigenvalues --   -0.62214  -0.61768  -0.61707  -0.58417  -0.55988
 Alpha  occ. eigenvalues --   -0.53829  -0.53378  -0.50936  -0.50526  -0.49905
 Alpha  occ. eigenvalues --   -0.47316  -0.47011  -0.45836  -0.44023  -0.43956
 Alpha  occ. eigenvalues --   -0.43861  -0.43232  -0.42654  -0.42235  -0.41022
 Alpha  occ. eigenvalues --   -0.40605  -0.39905  -0.39348  -0.37595  -0.37171
 Alpha  occ. eigenvalues --   -0.36929  -0.35577  -0.35098  -0.33983  -0.33391
 Alpha  occ. eigenvalues --   -0.32930  -0.30649  -0.29657  -0.28532  -0.26104
 Alpha  occ. eigenvalues --   -0.23798  -0.21944  -0.21480
 Alpha virt. eigenvalues --   -0.06190  -0.06048  -0.03588  -0.01474   0.00045
 Alpha virt. eigenvalues --    0.00403   0.00776   0.00822   0.01789   0.01908
 Alpha virt. eigenvalues --    0.02260   0.03054   0.03115   0.03427   0.03970
 Alpha virt. eigenvalues --    0.04148   0.05033   0.05261   0.05403   0.05895
 Alpha virt. eigenvalues --    0.06030   0.06849   0.07148   0.07594   0.07804
 Alpha virt. eigenvalues --    0.08569   0.08924   0.09463   0.09496   0.10354
 Alpha virt. eigenvalues --    0.10570   0.10732   0.11408   0.11748   0.12306
 Alpha virt. eigenvalues --    0.12874   0.12935   0.13130   0.13385   0.13945
 Alpha virt. eigenvalues --    0.14237   0.14391   0.14830   0.15470   0.15971
 Alpha virt. eigenvalues --    0.16370   0.16695   0.16750   0.17157   0.17459
 Alpha virt. eigenvalues --    0.17466   0.17772   0.18102   0.18395   0.18613
 Alpha virt. eigenvalues --    0.19142   0.19181   0.19441   0.19725   0.20002
 Alpha virt. eigenvalues --    0.20054   0.20484   0.20789   0.20847   0.20953
 Alpha virt. eigenvalues --    0.21459   0.21966   0.22313   0.22670   0.22674
 Alpha virt. eigenvalues --    0.23072   0.23288   0.23358   0.23739   0.24176
 Alpha virt. eigenvalues --    0.24292   0.24631   0.24928   0.24965   0.25616
 Alpha virt. eigenvalues --    0.25621   0.26241   0.26401   0.26560   0.27084
 Alpha virt. eigenvalues --    0.27711   0.27773   0.28033   0.28455   0.29035
 Alpha virt. eigenvalues --    0.29404   0.29706   0.29857   0.30078   0.30253
 Alpha virt. eigenvalues --    0.30266   0.30649   0.31525   0.31636   0.31758
 Alpha virt. eigenvalues --    0.32239   0.32483   0.32704   0.33195   0.33327
 Alpha virt. eigenvalues --    0.33840   0.34625   0.35488   0.35598   0.36043
 Alpha virt. eigenvalues --    0.38050   0.38109   0.39835   0.40156   0.40471
 Alpha virt. eigenvalues --    0.40903   0.42104   0.44630   0.45266   0.47699
 Alpha virt. eigenvalues --    0.47890   0.48537   0.49021   0.49110   0.50711
 Alpha virt. eigenvalues --    0.52328   0.52559   0.53309   0.53697   0.53977
 Alpha virt. eigenvalues --    0.54277   0.54989   0.55247   0.55788   0.56073
 Alpha virt. eigenvalues --    0.56322   0.56436   0.57288   0.57797   0.57994
 Alpha virt. eigenvalues --    0.58489   0.58829   0.59687   0.59777   0.59998
 Alpha virt. eigenvalues --    0.60789   0.60868   0.61789   0.62257   0.62766
 Alpha virt. eigenvalues --    0.63479   0.64175   0.65147   0.66108   0.66617
 Alpha virt. eigenvalues --    0.67511   0.67973   0.68078   0.69426   0.69894
 Alpha virt. eigenvalues --    0.70261   0.70432   0.71100   0.71532   0.72506
 Alpha virt. eigenvalues --    0.72623   0.72679   0.72826   0.73078   0.74019
 Alpha virt. eigenvalues --    0.74766   0.75246   0.75517   0.75527   0.75825
 Alpha virt. eigenvalues --    0.76469   0.76811   0.77162   0.78212   0.78273
 Alpha virt. eigenvalues --    0.78966   0.80200   0.80250   0.81116   0.82017
 Alpha virt. eigenvalues --    0.82463   0.82753   0.84094   0.84505   0.85228
 Alpha virt. eigenvalues --    0.85345   0.86390   0.87451   0.88386   0.88669
 Alpha virt. eigenvalues --    0.89585   0.89655   0.90216   0.91202   0.91381
 Alpha virt. eigenvalues --    0.91542   0.93345   0.93632   0.94099   0.94269
 Alpha virt. eigenvalues --    0.95618   0.96104   0.96964   0.97583   0.97759
 Alpha virt. eigenvalues --    0.98660   0.98888   0.99995   1.00137   1.01437
 Alpha virt. eigenvalues --    1.02087   1.02133   1.03492   1.03557   1.05029
 Alpha virt. eigenvalues --    1.05108   1.07288   1.07607   1.09453   1.09581
 Alpha virt. eigenvalues --    1.10586   1.11198   1.11331   1.13382   1.13854
 Alpha virt. eigenvalues --    1.14269   1.16458   1.16861   1.17654   1.19397
 Alpha virt. eigenvalues --    1.19547   1.21711   1.22636   1.22894   1.26125
 Alpha virt. eigenvalues --    1.29617   1.31281   1.32829   1.33582   1.36341
 Alpha virt. eigenvalues --    1.37663   1.39484   1.39517   1.42713   1.46210
 Alpha virt. eigenvalues --    1.46584   1.48223   1.48804   1.49143   1.50150
 Alpha virt. eigenvalues --    1.50235   1.51739   1.51768   1.53142   1.53852
 Alpha virt. eigenvalues --    1.54784   1.55164   1.55788   1.56018   1.56909
 Alpha virt. eigenvalues --    1.57369   1.58363   1.59276   1.59830   1.60691
 Alpha virt. eigenvalues --    1.61318   1.61437   1.61530   1.63672   1.64358
 Alpha virt. eigenvalues --    1.65748   1.67463   1.67570   1.69816   1.70530
 Alpha virt. eigenvalues --    1.71032   1.72103   1.72835   1.73613   1.74610
 Alpha virt. eigenvalues --    1.74968   1.75931   1.76093   1.76160   1.78199
 Alpha virt. eigenvalues --    1.78443   1.82205   1.82757   1.83005   1.83265
 Alpha virt. eigenvalues --    1.85144   1.85660   1.85803   1.87132   1.88323
 Alpha virt. eigenvalues --    1.89447   1.89538   1.90393   1.91565   1.92371
 Alpha virt. eigenvalues --    1.92424   1.92653   1.93924   1.94576   1.95166
 Alpha virt. eigenvalues --    1.95369   1.95608   1.97280   1.97532   1.97787
 Alpha virt. eigenvalues --    1.99538   2.01839   2.02734   2.03513   2.04274
 Alpha virt. eigenvalues --    2.05377   2.06329   2.06633   2.08238   2.08245
 Alpha virt. eigenvalues --    2.09663   2.10651   2.10693   2.11950   2.12645
 Alpha virt. eigenvalues --    2.14353   2.15040   2.18293   2.19151   2.20115
 Alpha virt. eigenvalues --    2.21316   2.22335   2.24453   2.26496   2.27023
 Alpha virt. eigenvalues --    2.30750   2.30776   2.32190   2.34589   2.34679
 Alpha virt. eigenvalues --    2.36221   2.40261   2.41010   2.42361   2.42548
 Alpha virt. eigenvalues --    2.43343   2.45214   2.46685   2.46769   2.47872
 Alpha virt. eigenvalues --    2.49371   2.52075   2.54599   2.56304   2.58248
 Alpha virt. eigenvalues --    2.59056   2.65475   2.65678   2.67058   2.69083
 Alpha virt. eigenvalues --    2.69620   2.69758   2.70629   2.71087   2.71942
 Alpha virt. eigenvalues --    2.72192   2.73171   2.73425   2.74326   2.74463
 Alpha virt. eigenvalues --    2.75225   2.75305   2.75525   2.75932   2.76148
 Alpha virt. eigenvalues --    2.76930   2.77514   2.77723   2.78748   2.79193
 Alpha virt. eigenvalues --    2.79815   2.80229   2.82623   2.83434   2.83662
 Alpha virt. eigenvalues --    2.85615   2.86706   2.87188   2.88082   2.88315
 Alpha virt. eigenvalues --    2.88695   2.89199   2.91197   2.94038   2.94128
 Alpha virt. eigenvalues --    2.94895   2.95121   2.97440   2.97682   3.01307
 Alpha virt. eigenvalues --    3.01633   3.04949   3.06617   3.10084   3.11988
 Alpha virt. eigenvalues --    3.14970   3.16481   3.22162   3.23050   3.23283
 Alpha virt. eigenvalues --    3.24797   3.25501   3.29918   3.30518   3.34806
 Alpha virt. eigenvalues --    3.35007   3.36722   3.38733   3.39353   3.40525
 Alpha virt. eigenvalues --    3.44514   3.45139   3.48005   3.50671   3.50767
 Alpha virt. eigenvalues --    3.55406   3.55423   3.57270   3.58232   3.58357
 Alpha virt. eigenvalues --    3.65254   3.65347   3.66170   3.66992   3.73362
 Alpha virt. eigenvalues --    3.75788   3.84163   3.97968   4.04607   4.04614
 Alpha virt. eigenvalues --    4.06100   4.06776   4.08780   4.09572   4.09773
 Alpha virt. eigenvalues --    4.19389   4.20687   4.25014   4.32130   4.41470
 Alpha virt. eigenvalues --    4.60493   4.79189   4.79328   4.79758   4.84284
 Alpha virt. eigenvalues --    4.85797  23.48703  23.65474  23.75492  23.85014
 Alpha virt. eigenvalues --   23.89650  23.94497  23.96407  23.97011  23.97390
 Alpha virt. eigenvalues --   23.98137  23.98920  24.03520  24.03812  24.04041
 Alpha virt. eigenvalues --   24.04301  24.14283  24.14640  24.21696  24.21996
 Alpha virt. eigenvalues --   24.22195  24.22672  24.23049
          Condensed to atoms (all electrons):
 Mulliken charges:
               1
     1  C   -0.379011
     2  H    0.123756
     3  C    0.054362
     4  H    0.115562
     5  C    0.447723
     6  C    0.063661
     7  C   -0.484065
     8  H    0.149708
     9  C   -0.262110
    10  H    0.122290
    11  C   -0.321452
    12  H    0.116208
    13  C   -0.234569
    14  H    0.116516
    15  C    0.651925
    16  C    0.037060
    17  C   -0.434569
    18  H    0.117448
    19  C   -0.434668
    20  H    0.117446
    21  C    0.651883
    22  C    0.036499
    23  C   -0.234337
    24  H    0.116514
    25  C   -0.321384
    26  H    0.116205
    27  C    0.447922
    28  C    0.063287
    29  C   -0.484078
    30  H    0.149729
    31  C   -0.261748
    32  H    0.122280
    33  C   -0.379719
    34  H    0.123755
    35  C    0.054417
    36  H    0.115557
    37  Bq   0.000000
    38  Bq   0.000000
    39  Bq   0.000000
    40  Bq   0.000000
    41  Bq   0.000000
    42  Bq   0.000000
    43  Bq   0.000000
    44  Bq   0.000000
    45  Bq   0.000000
    46  Bq   0.000000
    47  Bq   0.000000
    48  Bq   0.000000
    49  Bq   0.000000
    50  Bq   0.000000
    51  Bq   0.000000
    52  Bq   0.000000
    53  Bq   0.000000
    54  Bq   0.000000
    55  Bq   0.000000
    56  Bq   0.000000
    57  Bq   0.000000
    58  Bq   0.000000
    59  Bq   0.000000
    60  Bq   0.000000
    61  Bq   0.000000
    62  Bq   0.000000
    63  Bq   0.000000
    64  Bq   0.000000
    65  Bq   0.000000
    66  Bq   0.000000
    67  Bq   0.000000
    68  Bq   0.000000
    69  Bq   0.000000
    70  Bq   0.000000
    71  Bq   0.000000
    72  Bq   0.000000
    73  Bq   0.000000
    74  Bq   0.000000
    75  Bq   0.000000
    76  Bq   0.000000
    77  Bq   0.000000
    78  Bq   0.000000
    79  Bq   0.000000
    80  Bq   0.000000
    81  Bq   0.000000
    82  Bq   0.000000
    83  Bq   0.000000
    84  Bq   0.000000
    85  Bq   0.000000
    86  Bq   0.000000
    87  Bq   0.000000
    88  Bq   0.000000
    89  Bq   0.000000
    90  Bq   0.000000
    91  Bq   0.000000
    92  Bq   0.000000
    93  Bq   0.000000
    94  Bq   0.000000
    95  Bq   0.000000
    96  Bq   0.000000
    97  Bq   0.000000
    98  Bq   0.000000
    99  Bq   0.000000
   100  Bq   0.000000
   101  Bq   0.000000
   102  Bq   0.000000
   103  Bq   0.000000
   104  Bq   0.000000
   105  Bq   0.000000
   106  Bq   0.000000
   107  Bq   0.000000
   108  Bq   0.000000
   109  Bq   0.000000
   110  Bq   0.000000
   111  Bq   0.000000
   112  Bq   0.000000
   113  Bq   0.000000
   114  Bq   0.000000
   115  Bq   0.000000
   116  Bq   0.000000
   117  Bq   0.000000
   118  Bq   0.000000
   119  Bq   0.000000
   120  Bq   0.000000
   121  Bq   0.000000
   122  Bq   0.000000
   123  Bq   0.000000
   124  Bq   0.000000
   125  Bq   0.000000
   126  Bq   0.000000
   127  Bq   0.000000
   128  Bq   0.000000
   129  Bq   0.000000
   130  Bq   0.000000
   131  Bq   0.000000
   132  Bq   0.000000
   133  Bq   0.000000
   134  Bq   0.000000
   135  Bq   0.000000
   136  Bq   0.000000
   137  Bq   0.000000
 Sum of Mulliken charges =  -0.00000
 Mulliken charges with hydrogens summed into heavy atoms:
               1
     1  C   -0.379011
     3  C    0.054362
     5  C    0.447723
     6  C    0.063661
     7  C   -0.484065
     9  C   -0.262110
    11  C   -0.205245
    13  C   -0.118054
    15  C    0.651925
    16  C    0.037060
    17  C   -0.317120
    19  C   -0.317222
    21  C    0.651883
    22  C    0.036499
    23  C   -0.117824
    25  C   -0.205179
    27  C    0.447922
    28  C    0.063287
    29  C   -0.334349
    31  C   -0.139468
    33  C   -0.255964
    35  C    0.169974
    37  Bq   0.000000
    38  Bq   0.000000
    39  Bq   0.000000
    40  Bq   0.000000
    41  Bq   0.000000
    42  Bq   0.000000
    43  Bq   0.000000
    44  Bq   0.000000
    45  Bq   0.000000
    46  Bq   0.000000
    47  Bq   0.000000
    48  Bq   0.000000
    49  Bq   0.000000
    50  Bq   0.000000
    51  Bq   0.123756
    52  Bq   0.000000
    53  Bq   0.000000
    54  Bq   0.000000
    55  Bq   0.000000
    56  Bq   0.115562
    57  Bq   0.000000
    58  Bq   0.000000
    59  Bq   0.000000
    60  Bq   0.000000
    61  Bq   0.000000
    62  Bq   0.000000
    63  Bq   0.000000
    64  Bq   0.000000
    65  Bq   0.000000
    66  Bq   0.000000
    67  Bq   0.000000
    68  Bq   0.000000
    69  Bq   0.000000
    70  Bq   0.000000
    71  Bq   0.000000
    72  Bq   0.000000
    73  Bq   0.000000
    74  Bq   0.000000
    75  Bq   0.000000
    76  Bq   0.000000
    77  Bq   0.000000
    78  Bq   0.000000
    79  Bq   0.000000
    80  Bq   0.000000
    81  Bq   0.000000
    82  Bq   0.000000
    83  Bq   0.000000
    84  Bq   0.000000
    85  Bq   0.000000
    86  Bq   0.000000
    87  Bq   0.000000
    88  Bq   0.122290
    89  Bq   0.000000
    90  Bq   0.000000
    91  Bq   0.000000
    92  Bq   0.000000
    93  Bq   0.000000
    94  Bq   0.000000
    95  Bq   0.000000
    96  Bq   0.000000
    97  Bq   0.000000
    98  Bq   0.000000
    99  Bq   0.000000
   100  Bq   0.000000
   101  Bq   0.000000
   102  Bq   0.000000
   103  Bq   0.000000
   104  Bq   0.000000
   105  Bq   0.000000
   106  Bq   0.000000
   107  Bq   0.000000
   108  Bq   0.000000
   109  Bq   0.000000
   110  Bq   0.000000
   111  Bq   0.000000
   112  Bq   0.000000
   113  Bq   0.000000
   114  Bq   0.000000
   115  Bq   0.000000
   116  Bq   0.000000
   117  Bq   0.000000
   118  Bq   0.000000
   119  Bq   0.000000
   120  Bq   0.000000
   121  Bq   0.000000
   122  Bq   0.000000
   123  Bq   0.000000
   124  Bq   0.000000
   125  Bq   0.000000
   126  Bq   0.000000
   127  Bq   0.000000
   128  Bq   0.000000
   129  Bq   0.000000
   130  Bq   0.149708
   131  Bq   0.000000
   132  Bq   0.000000
   133  Bq   0.000000
   134  Bq   0.000000
   135  Bq   0.000000
   136  Bq   0.000000
   137  Bq   0.000000
 Electronic spatial extent (au):  <R**2>=           5736.9270
 Charge=             -0.0000 electrons
 Dipole moment (field-independent basis, Debye):
    X=              0.0480    Y=              0.0854    Z=              0.0027  Tot=              0.0981
 Quadrupole moment (field-independent basis, Debye-Ang):
   XX=           -113.7065   YY=           -113.9465   ZZ=           -133.2659
   XY=             -0.3840   XZ=              3.2088   YZ=             -1.1827
 Traceless Quadrupole moment (field-independent basis, Debye-Ang):
   XX=              6.5998   YY=              6.3598   ZZ=            -12.9596
   XY=             -0.3840   XZ=              3.2088   YZ=             -1.1827
 Octapole moment (field-independent basis, Debye-Ang**2):
  XXX=            -16.4604  YYY=            -16.1937  ZZZ=             -1.7048  XYY=              2.5621
  XXY=             -6.5684  XXZ=             13.6585  XZZ=             -8.9438  YZZ=            -17.7184
  YYZ=            -13.2980  XYZ=              8.8042
 Hexadecapole moment (field-independent basis, Debye-Ang**3):
 XXXX=          -3951.1838 YYYY=          -3112.2266 ZZZZ=           -504.8224 XXXY=            340.6919
 XXXZ=            156.4869 YYYX=            335.5529 YYYZ=            -87.0842 ZZZX=            120.2213
 ZZZY=           -108.7256 XXYY=          -1176.4813 XXZZ=           -856.7341 YYZZ=           -665.7192
 XXYZ=            -68.8903 YYXZ=             48.1509 ZZXY=            153.0341
 N-N= 1.610917622655D+03 E-N=-5.186891081272D+03  KE= 8.436329715391D+02
 1\1\GINC-BRUSEL\SP\RB3LYP\6-311+G(d,p)\C22H14\AARTIGAS\05-Aug-2020\0\\
 # rb3lyp/6-311+g** NMR\\Title\\0,1\C,0,-4.0500558,-0.5771862,0.8136712
 \H,0,-5.0263804,-1.0082727,1.002476\C,0,-3.9381552,0.6617804,0.2400876
 \H,0,-4.8252424,1.233889,-0.0111295\C,0,-2.676841,1.2433246,0.0057578\
 C,0,-1.4974121,0.5051527,0.2848253\C,0,-1.6508332,-0.7338728,0.9404026
 \H,0,-0.7713646,-1.2730967,1.2633753\C,0,-2.8898548,-1.2624035,1.19943
 07\H,0,-2.9683706,-2.2124563,1.7152676\C,0,-2.5773185,2.5963696,-0.419
 293\H,0,-3.4870728,3.1412239,-0.6474055\C,0,-1.3741895,3.2147896,-0.43
 6403\H,0,-1.2997315,4.2742019,-0.6578144\C,0,-0.1719488,2.499409,-0.17
 34588\C,0,-0.2043917,1.1018437,0.0192689\C,0,1.0513491,3.204256,-0.067
 6222\H,0,1.0427344,4.2819499,-0.1896997\C,0,2.1942091,2.5487446,0.2579
 577\H,0,3.1168527,3.0912848,0.4334727\C,0,2.2216473,1.1336562,0.293499
 \C,0,1.0486931,0.3945528,0.0302412\C,0,3.4483363,0.4614633,0.5573939\H
 ,0,4.3095794,1.0606054,0.8334846\C,0,3.5427346,-0.8855926,0.4749463\H,
 0,4.4731467,-1.3939704,0.7038822\C,0,2.4490052,-1.6474447,-0.0196319\C
 ,0,1.2150704,-1.0057258,-0.3013573\C,0,0.2531113,-1.743444,-1.0216591\
 H,0,-0.6541356,-1.2535051,-1.3462847\C,0,0.4494193,-3.0628597,-1.34137
 79\H,0,-0.3083162,-3.5944309,-1.905406\C,0,1.6251726,-3.7207967,-0.955
 2541\H,0,1.7670048,-4.7687404,-1.1927019\C,0,2.6109872,-3.0144177,-0.3
 18305\H,0,3.5525612,-3.4902813,-0.0646367\Bq,0,-2.7838586833,-0.027200
 8,0.5806958667\Bq,0,-5.2916526295,-1.8436584467,2.5584347627\Bq,0,-5.2
 907979682,-1.3934014834,2.3410228576\Bq,0,-5.2899433068,-0.94314452,2.
 1236109524\Bq,0,-5.2890886454,-0.4928875567,1.9061990473\Bq,0,-5.28823
 3984,-0.0426305933,1.6887871421\Bq,0,-5.2873793227,0.40762637,1.471375
 2369\Bq,0,-5.2865246613,0.8578833334,1.2539633318\Bq,0,-5.2856699999,1
 .3081402968,1.0365514266\Bq,0,-5.2848153385,1.7583972601,0.8191395215\
 Bq,0,-5.2839606772,2.2086542235,0.6017276163\Bq,0,-4.7916564928,-1.843
 6584467,2.5604002825\Bq,0,-4.7908018314,-1.3934014834,2.3429883773\Bq,
 0,-4.7899471701,-0.94314452,2.1255764721\Bq,0,-4.7890925087,-0.4928875
 567,1.908164567\Bq,0,-4.7882378473,-0.0426305933,1.6907526618\Bq,0,-4.
 7873831859,0.40762637,1.4733407566\Bq,0,-4.7865285246,0.8578833334,1.2
 559288515\Bq,0,-4.7856738632,1.3081402968,1.0385169463\Bq,0,-4.7848192
 018,1.7583972601,0.8211050412\Bq,0,-4.7839645405,2.2086542235,0.603693
 136\Bq,0,-4.2916603561,-1.8436584467,2.5623658022\Bq,0,-4.2908056947,-
 1.3934014834,2.344953897\Bq,0,-4.2899510334,-0.94314452,2.1275419918\B
 q,0,-4.289096372,-0.4928875567,1.9101300867\Bq,0,-4.2882417106,-0.0426
 305933,1.6927181815\Bq,0,-4.2873870492,0.40762637,1.4753062764\Bq,0,-4
 .2865323879,0.8578833334,1.2578943712\Bq,0,-4.2856777265,1.3081402968,
 1.040482466\Bq,0,-4.2848230651,1.7583972601,0.8230705609\Bq,0,-4.28396
 84037,2.2086542235,0.6056586557\Bq,0,-3.7916642194,-1.8436584467,2.564
 3313219\Bq,0,-3.790809558,-1.3934014834,2.3469194167\Bq,0,-3.789954896
 6,-0.94314452,2.1295075116\Bq,0,-3.7891002353,-0.4928875567,1.91209560
 64\Bq,0,-3.7882455739,-0.0426305933,1.6946837012\Bq,0,-3.7873909125,0.
 40762637,1.4772717961\Bq,0,-3.7865362511,0.8578833334,1.2598598909\Bq,
 0,-3.7856815898,1.3081402968,1.0424479857\Bq,0,-3.7848269284,1.7583972
 601,0.8250360806\Bq,0,-3.783972267,2.2086542235,0.6076241754\Bq,0,-3.2
 916680827,-1.8436584467,2.5662968416\Bq,0,-3.2908134213,-1.3934014834,
 2.3488849364\Bq,0,-3.2899587599,-0.94314452,2.1314730313\Bq,0,-3.28910
 40985,-0.4928875567,1.9140611261\Bq,0,-3.2882494372,-0.0426305933,1.69
 66492209\Bq,0,-3.2873947758,0.40762637,1.4792373158\Bq,0,-3.2865401144
 ,0.8578833334,1.2618254106\Bq,0,-3.285685453,1.3081402968,1.0444135055
 \Bq,0,-3.2848307917,1.7583972601,0.8270016003\Bq,0,-3.2839761303,2.208
 6542235,0.6095896951\Bq,0,-2.7916719459,-1.8436584467,2.5682623613\Bq,
 0,-2.7908172846,-1.3934014834,2.3508504561\Bq,0,-2.7899626232,-0.94314
 452,2.133438551\Bq,0,-2.7891079618,-0.4928875567,1.9160266458\Bq,0,-2.
 7882533005,-0.0426305933,1.6986147407\Bq,0,-2.7873986391,0.40762637,1.
 4812028355\Bq,0,-2.7865439777,0.8578833334,1.2637909303\Bq,0,-2.785689
 3163,1.3081402968,1.0463790252\Bq,0,-2.784834655,1.7583972601,0.828967
 12\Bq,0,-2.7839799936,2.2086542235,0.6115552148\Bq,0,-2.2916758092,-1.
 8436584467,2.570227881\Bq,0,-2.2908211479,-1.3934014834,2.3528159759\B
 q,0,-2.2899664865,-0.94314452,2.1354040707\Bq,0,-2.2891118251,-0.49288
 75567,1.9179921655\Bq,0,-2.2882571637,-0.0426305933,1.7005802604\Bq,0,
 -2.2874025024,0.40762637,1.4831683552\Bq,0,-2.286547841,0.8578833334,1
 .26575645\Bq,0,-2.2856931796,1.3081402968,1.0483445449\Bq,0,-2.2848385
 182,1.7583972601,0.8309326397\Bq,0,-2.2839838569,2.2086542235,0.613520
 7346\Bq,0,-1.7916796725,-1.8436584467,2.5721934007\Bq,0,-1.7908250111,
 -1.3934014834,2.3547814956\Bq,0,-1.7899703498,-0.94314452,2.1373695904
 \Bq,0,-1.7891156884,-0.4928875567,1.9199576852\Bq,0,-1.788261027,-0.04
 26305933,1.7025457801\Bq,0,-1.7874063656,0.40762637,1.4851338749\Bq,0,
 -1.7865517043,0.8578833334,1.2677219698\Bq,0,-1.7856970429,1.308140296
 8,1.0503100646\Bq,0,-1.7848423815,1.7583972601,0.8328981594\Bq,0,-1.78
 39877202,2.2086542235,0.6154862543\Bq,0,-1.2916835358,-1.8436584467,2.
 5741589204\Bq,0,-1.2908288744,-1.3934014834,2.3567470153\Bq,0,-1.28997
 4213,-0.94314452,2.1393351101\Bq,0,-1.2891195517,-0.4928875567,1.92192
 3205\Bq,0,-1.2882648903,-0.0426305933,1.7045112998\Bq,0,-1.2874102289,
 0.40762637,1.4870993946\Bq,0,-1.2865555676,0.8578833334,1.2696874895\B
 q,0,-1.2857009062,1.3081402968,1.0522755843\Bq,0,-1.2848462448,1.75839
 72601,0.8348636791\Bq,0,-1.2839915834,2.2086542235,0.617451774\Bq,0,-0
 .7916873991,-1.8436584467,2.5761244401\Bq,0,-0.7908327377,-1.393401483
 4,2.358712535\Bq,0,-0.7899780763,-0.94314452,2.1413006298\Bq,0,-0.7891
 23415,-0.4928875567,1.9238887247\Bq,0,-0.7882687536,-0.0426305933,1.70
 64768195\Bq,0,-0.7874140922,0.40762637,1.4890649143\Bq,0,-0.7865594308
 ,0.8578833334,1.2716530092\Bq,0,-0.7857047695,1.3081402968,1.054241104
 \Bq,0,-0.7848501081,1.7583972601,0.8368291988\Bq,0,-0.7839954467,2.208
 6542235,0.6194172937\\Version=ES64L-G16RevA.03\HF=-847.0032839\RMSD=7.
 634e-09\Dipole=0.0188975,0.0336152,0.0010509\Quadrupole=4.9068038,4.72
 83337,-9.6351376,-0.2854741,2.3856816,-0.8792762\PG=C01 [X(C22H14)]\\@


 THERE ARE PEOPLE SO ADDICTED TO EXAGERATING THEY
 CAN'T TELL THE TRUTH WITHOUT LYING. -- FORTUNE COOKIE
 Job cpu time:       0 days  1 hours 48 minutes 30.6 seconds.
 Elapsed time:       0 days  0 hours 13 minutes 47.0 seconds.
 File lengths (MBytes):  RWF=    187 Int=      0 D2E=      0 Chk=     26 Scr=      1
 Normal termination of Gaussian 16 at Wed Aug  5 22:31:03 2020.

real	13m47.172s
user	108m28.056s
sys	0m2.614s
