 Entering Gaussian System, Link 0=g09
 Input=input_batch_17400.com
 Output=input_batch_17400.log
 Initial command:
 /share/programs/GAUSSIAN/64/g09/l1.exe "/scratch/aartigas.39078/Gau-33318.inp" -scrdir="/scratch/aartigas.39078/"
 Entering Link 1 = /share/programs/GAUSSIAN/64/g09/l1.exe PID=     33319.
  
 Copyright (c) 1988,1990,1992,1993,1995,1998,2003,2009,2013,
            Gaussian, Inc.  All Rights Reserved.
  
 This is part of the Gaussian(R) 09 program.  It is based on
 the Gaussian(R) 03 system (copyright 2003, Gaussian, Inc.),
 the Gaussian(R) 98 system (copyright 1998, Gaussian, Inc.),
 the Gaussian(R) 94 system (copyright 1995, Gaussian, Inc.),
 the Gaussian 92(TM) system (copyright 1992, Gaussian, Inc.),
 the Gaussian 90(TM) system (copyright 1990, Gaussian, Inc.),
 the Gaussian 88(TM) system (copyright 1988, Gaussian, Inc.),
 the Gaussian 86(TM) system (copyright 1986, Carnegie Mellon
 University), and the Gaussian 82(TM) system (copyright 1983,
 Carnegie Mellon University). Gaussian is a federally registered
 trademark of Gaussian, Inc.
  
 This software contains proprietary and confidential information,
 including trade secrets, belonging to Gaussian, Inc.
  
 This software is provided under written license and may be
 used, copied, transmitted, or stored only in accord with that
 written license.
  
 The following legend is applicable only to US Government
 contracts under FAR:
  
                    RESTRICTED RIGHTS LEGEND
  
 Use, reproduction and disclosure by the US Government is
 subject to restrictions as set forth in subparagraphs (a)
 and (c) of the Commercial Computer Software - Restricted
 Rights clause in FAR 52.227-19.
  
 Gaussian, Inc.
 340 Quinnipiac St., Bldg. 40, Wallingford CT 06492
  
  
 ---------------------------------------------------------------
 Warning -- This program may not be used in any manner that
 competes with the business of Gaussian, Inc. or will provide
 assistance to any competitor of Gaussian, Inc.  The licensee
 of this program is prohibited from giving any competitor of
 Gaussian, Inc. access to this program.  By using this program,
 the user acknowledges that Gaussian, Inc. is engaged in the
 business of creating and licensing software in the field of
 computational chemistry and represents and warrants to the
 licensee that it is not a competitor of Gaussian, Inc. and that
 it will not use this program in any manner prohibited above.
 ---------------------------------------------------------------
  

 Cite this work as:
 Gaussian 09, Revision D.01,
 M. J. Frisch, G. W. Trucks, H. B. Schlegel, G. E. Scuseria, 
 M. A. Robb, J. R. Cheeseman, G. Scalmani, V. Barone, B. Mennucci, 
 G. A. Petersson, H. Nakatsuji, M. Caricato, X. Li, H. P. Hratchian, 
 A. F. Izmaylov, J. Bloino, G. Zheng, J. L. Sonnenberg, M. Hada, 
 M. Ehara, K. Toyota, R. Fukuda, J. Hasegawa, M. Ishida, T. Nakajima, 
 Y. Honda, O. Kitao, H. Nakai, T. Vreven, J. A. Montgomery, Jr., 
 J. E. Peralta, F. Ogliaro, M. Bearpark, J. J. Heyd, E. Brothers, 
 K. N. Kudin, V. N. Staroverov, T. Keith, R. Kobayashi, J. Normand, 
 K. Raghavachari, A. Rendell, J. C. Burant, S. S. Iyengar, J. Tomasi, 
 M. Cossi, N. Rega, J. M. Millam, M. Klene, J. E. Knox, J. B. Cross, 
 V. Bakken, C. Adamo, J. Jaramillo, R. Gomperts, R. E. Stratmann, 
 O. Yazyev, A. J. Austin, R. Cammi, C. Pomelli, J. W. Ochterski, 
 R. L. Martin, K. Morokuma, V. G. Zakrzewski, G. A. Voth, 
 P. Salvador, J. J. Dannenberg, S. Dapprich, A. D. Daniels, 
 O. Farkas, J. B. Foresman, J. V. Ortiz, J. Cioslowski, 
 and D. J. Fox, Gaussian, Inc., Wallingford CT, 2013.
 
 ******************************************
 Gaussian 09:  ES64L-G09RevD.01 24-Apr-2013
                15-Sep-2020 
 ******************************************
 %OldChk=/home/aartigas/chk/5_helicene_spe.chk
 %nproc=8
 Will use up to    8 processors via shared memory.
 %mem=1000MB
 Copying data from "/home/aartigas/chk/5_helicene_spe.chk" to current chk file "/scratch/aartigas.39078/Gau-33319.chk".
 ----------------------------------------------------
 #P rb3lyp/6-311+g** NMR Guess=Read geom=connectivity
 ----------------------------------------------------
 1/38=1,57=2/1;
 2/12=2,17=6,18=5,40=1/2;
 3/5=4,6=6,7=111,11=2,16=1,25=1,30=1,74=-5,116=1/1,2,8,3;
 4/5=1/1;
 5/5=2,38=6/2;
 8/6=1,10=90,11=11/1;
 10/13=100,45=16/2;
 6/7=2,8=2,9=2,10=2,28=1/1;
 99/9=1/99;
 Leave Link    1 at Tue Sep 15 12:37:12 2020, MaxMem=   131072000 cpu:         0.3
 (Enter /share/programs/GAUSSIAN/64/g09/l101.exe)
 -----
 Title
 -----
 Symbolic Z-matrix:
 Charge =  0 Multiplicity = 1
 C                     0.65324   3.25786  -0.20251 
 C                    -0.65324   3.25786   0.20251 
 C                     1.3725    2.03296  -0.32081 
 C                    -1.3725    2.03296   0.32081 
 C                     0.72247   0.79567  -0.05039 
 C                    -0.72247   0.79567   0.05039 
 C                     2.76039   2.05393  -0.67427 
 C                     3.50887   0.91392  -0.67136 
 C                     2.95523  -0.30962  -0.17748 
 C                     1.57472  -0.36111   0.19709 
 H                     1.18343   4.19574  -0.3846 
 H                    -1.18343   4.19574   0.3846 
 H                     3.20628   3.01242  -0.95139 
 H                     4.56002   0.93296  -0.96933 
 C                     3.78302  -1.4431    0.02831 
 C                     1.13743  -1.50753   0.91211 
 C                     1.97369  -2.58435   1.13806 
 C                     3.30185  -2.57159   0.66118 
 H                     4.82575  -1.39123  -0.29548 
 H                     0.12465  -1.53279   1.30847 
 H                     1.60359  -3.44568   1.69898 
 H                     3.95274  -3.43353   0.82513 
 C                    -3.50887   0.91392   0.67136 
 C                    -2.76039   2.05393   0.67427 
 C                    -2.95523  -0.30962   0.17748 
 C                    -1.57472  -0.36111  -0.19709 
 C                    -3.78302  -1.4431   -0.02831 
 C                    -3.30185  -2.57159  -0.66118 
 C                    -1.97369  -2.58435  -1.13806 
 C                    -1.13743  -1.50753  -0.91211 
 H                    -4.56002   0.93295   0.96933 
 H                    -3.20628   3.01242   0.95139 
 H                    -4.82575  -1.39123   0.29548 
 H                    -3.95274  -3.43353  -0.82513 
 H                    -1.60359  -3.44568  -1.69898 
 H                    -0.12465  -1.53279  -1.30847 
 Bq                   -3.94765   0.32058   1.46933 
 Bq                   -3.87296   0.40575   1.46933 
 Bq                   -4.43943   1.84893   1.35202 
 Bq                   -4.56002   1.85683   1.35202 
 Bq                   -4.68061   1.84893   1.35202 
 Bq                   -4.79914   1.82535   1.35202 
 Bq                   -4.91358   1.78651   1.35202 
 Bq                   -5.02196   1.73306   1.35202 
 Bq                   -5.12244   1.66592   1.35202 
 Bq                   -5.2133    1.58624   1.35202 
 Bq                   -5.29298   1.49538   1.35202 
 Bq                   -5.36013   1.39489   1.35202 
 Bq                   -5.41358   1.28651   1.35202 
 Bq                   -5.45242   1.17207   1.35202 
 Bq                   -5.476     1.05354   1.35202 
 Bq                   -5.4839    0.93295   1.35202 
 Bq                   -5.476     0.81236   1.35202 
 Bq                   -5.45242   0.69384   1.35202 
 Bq                   -5.41358   0.5794    1.35202 
 Bq                   -5.36013   0.47101   1.35202 
 Bq                   -5.29298   0.37053   1.35202 
 Bq                   -5.2133    0.27967   1.35202 
 Bq                   -5.12244   0.19999   1.35202 
 Bq                   -5.02196   0.13285   1.35202 
 Bq                   -4.91358   0.0794    1.35202 
 Bq                   -4.79914   0.04055   1.35202 
 Bq                   -4.68061   0.01698   1.35202 
 Bq                   -4.56002   0.00907   1.35202 
 Bq                   -4.43943   0.01698   1.35202 
 Bq                   -4.3209    0.04055   1.35202 
 Bq                   -4.20647   0.0794    1.35202 
 Bq                   -4.09808   0.13285   1.35202 
 Bq                   -3.9976    0.19999   1.35202 
 Bq                   -3.90674   0.27967   1.35202 
 Bq                   -4.43394   1.89062   1.22815 
 Bq                   -4.56002   1.89888   1.22815 
 Bq                   -4.6861    1.89062   1.22815 
 Bq                   -4.81002   1.86597   1.22815 
 Bq                   -4.92967   1.82535   1.22815 
 Bq                   -5.04298   1.76947   1.22815 
 Bq                   -5.14804   1.69927   1.22815 
 Bq                   -5.24303   1.61597   1.22815 
 Bq                   -5.32634   1.52097   1.22815 
 Bq                   -5.39654   1.41592   1.22815 
 Bq                   -5.45242   1.3026    1.22815 
 Bq                   -5.49303   1.18295   1.22815 
 Bq                   -5.51768   1.05903   1.22815 
 Bq                   -5.52595   0.93295   1.22815 
 Bq                   -5.51768   0.80688   1.22815 
 Bq                   -5.49303   0.68295   1.22815 
 Bq                   -5.45242   0.56331   1.22815 
 Bq                   -5.39654   0.44999   1.22815 
 Bq                   -5.32634   0.34494   1.22815 
 Bq                   -5.24303   0.24994   1.22815 
 Bq                   -5.14804   0.16663   1.22815 
 Bq                   -5.04298   0.09644   1.22815 
 Bq                   -4.92967   0.04055   1.22815 
 Bq                   -4.81002  -0.00006   1.22815 
 Bq                   -4.6861   -0.02471   1.22815 
 Bq                   -4.56002  -0.03297   1.22815 
 Bq                   -4.56002   1.9244    1.09986 
 Bq                   -4.68943   1.91592   1.09986 
 Bq                   -4.81663   1.89062   1.09986 
 Bq                   -4.93943   1.84893   1.09986 
 Bq                   -5.05574   1.79157   1.09986 
 Bq                   -5.16358   1.71952   1.09986 
 Bq                   -5.26108   1.63401   1.09986 
 Bq                   -5.34659   1.53651   1.09986 
 Bq                   -5.41864   1.42868   1.09986 
 Bq                   -5.476     1.31236   1.09986 
 Bq                   -5.51768   1.18956   1.09986 
 Bq                   -5.54298   1.06236   1.09986 
 Bq                   -5.55147   0.93295   1.09986 
 Bq                   -5.54298   0.80354   1.09986 
 Bq                   -5.51768   0.67635   1.09986 
 Bq                   -5.476     0.55354   1.09986 
 Bq                   -5.41864   0.43723   1.09986 
 Bq                   -5.34659   0.3294    1.09986 
 Bq                   -5.26108   0.2319    1.09986 
 Bq                   -5.16358   0.14639   1.09986 
 Bq                   -5.05574   0.07434   1.09986 
 Bq                   -4.93943   0.01698   1.09986 
 Bq                   -4.81663  -0.02471   1.09986 
 Bq                   -4.68943  -0.05001   1.09986 
 Bq                   -4.56002   1.93295   0.96933 
 Bq                   -4.69055   1.9244    0.96933 
 Bq                   -4.81884   1.89888   0.96933 
 Bq                   -4.94271   1.85683   0.96933 
 Bq                   -5.06002   1.79898   0.96933 
 Bq                   -5.16878   1.72631   0.96933 
 Bq                   -5.26713   1.64006   0.96933 
 Bq                   -5.35338   1.54172   0.96933 
 Bq                   -5.42605   1.43295   0.96933 
 Bq                   -5.4839    1.31564   0.96933 
 Bq                   -5.52595   1.19177   0.96933 
 Bq                   -5.55147   1.06348   0.96933 
 Bq                   -5.56002   0.93295   0.96933 
 Bq                   -5.55147   0.80243   0.96933 
 Bq                   -5.52595   0.67413   0.96933 
 Bq                   -5.4839    0.55027   0.96933 
 Bq                   -5.42605   0.43295   0.96933 
 Bq                   -5.35338   0.32419   0.96933 
 Bq                   -5.26713   0.22585   0.96933 
 Bq                   -5.16878   0.1396    0.96933 
 Bq                   -5.06002   0.06693   0.96933 
 Bq                   -4.94271   0.00907   0.96933 
 Bq                   -4.81884  -0.03297   0.96933 
 Bq                   -4.56002   1.9244    0.83881 
 Bq                   -4.68943   1.91592   0.83881 
 Bq                   -4.81663   1.89062   0.83881 
 Bq                   -4.93943   1.84893   0.83881 
 Bq                   -5.05574   1.79157   0.83881 
 Bq                   -5.16358   1.71952   0.83881 
 Bq                   -5.26108   1.63401   0.83881 
 Bq                   -5.34659   1.53651   0.83881 
 Bq                   -5.41864   1.42868   0.83881 
 Bq                   -5.476     1.31236   0.83881 
 Bq                   -5.51768   1.18956   0.83881 
 Bq                   -5.54298   1.06236   0.83881 
 Bq                   -5.55147   0.93295   0.83881 
 Bq                   -5.54298   0.80354   0.83881 
 Bq                   -5.51768   0.67635   0.83881 
 Bq                   -5.476     0.55354   0.83881 
 Bq                   -5.41864   0.43723   0.83881 
 Bq                   -5.34659   0.3294    0.83881 
 Bq                   -5.26108   0.2319    0.83881 
 Bq                   -5.16358   0.14639   0.83881 
 Bq                   -5.05574   0.07434   0.83881 
 Bq                   -4.93943   0.01698   0.83881 
 Bq                   -4.81663  -0.02471   0.83881 
 Bq                   -4.56002   1.89888   0.71051 
 Bq                   -4.6861    1.89062   0.71051 
 Bq                   -4.81002   1.86597   0.71051 
 Bq                   -4.92967   1.82535   0.71051 
 Bq                   -5.04298   1.76947   0.71051 
 Bq                   -5.14804   1.69927   0.71051 
 Bq                   -5.24303   1.61597   0.71051 
 Bq                   -5.32634   1.52097   0.71051 
 Bq                   -5.39654   1.41592   0.71051 
 Bq                   -5.45242   1.3026    0.71051 
 Bq                   -5.49303   1.18295   0.71051 
 Bq                   -5.51768   1.05903   0.71051 
 Bq                   -5.52595   0.93295   0.71051 
 Bq                   -5.51768   0.80688   0.71051 
 Bq                   -5.49303   0.68295   0.71051 
 Bq                   -5.45242   0.56331   0.71051 
 Bq                   -5.39654   0.44999   0.71051 
 Bq                   -5.32634   0.34494   0.71051 
 Bq                   -5.24303   0.24994   0.71051 
 Bq                   -5.14804   0.16663   0.71051 
 Bq                   -5.04298   0.09644   0.71051 
 Bq                   -4.92967   0.04055   0.71051 
 Bq                   -4.56002   1.85683   0.58665 
 Bq                   -4.68061   1.84893   0.58665 
 Bq                   -4.79914   1.82535   0.58665 
 Bq                   -4.91358   1.78651   0.58665 
 Bq                   -5.02196   1.73306   0.58665 
 Bq                   -5.12244   1.66592   0.58665 
 Bq                   -5.2133    1.58624   0.58665 
 Bq                   -5.29298   1.49538   0.58665 
 Bq                   -5.36013   1.39489   0.58665 
 Bq                   -5.41358   1.28651   0.58665 
 Bq                   -5.45242   1.17207   0.58665 
 Bq                   -5.476     1.05354   0.58665 
 Bq                   -5.4839    0.93295   0.58665 
 Bq                   -5.476     0.81236   0.58665 
 Bq                   -5.45242   0.69384   0.58665 
 Bq                   -5.41358   0.5794    0.58665 
 Bq                   -5.36013   0.47101   0.58665 
 Bq                   -5.29298   0.37053   0.58665 
 Bq                   -5.2133    0.27967   0.58665 
 Bq                   -5.12244   0.19999   0.58665 
 Bq                   -5.02196   0.13285   0.58665 
 Bq                   -4.91358   0.0794    0.58665 
 Bq                   -4.44698   1.79157   0.46933 
 Bq                   -4.56002   1.79898   0.46933 
 Bq                   -4.67306   1.79157   0.46933 
 Bq                   -4.78417   1.76947   0.46933 
 Bq                   -4.89144   1.73306   0.46933 
 Bq                   -4.99303   1.68295   0.46933 
 Bq                   -5.08722   1.62002   0.46933 
 Bq                   -5.17239   1.54533   0.46933 
 Bq                   -5.24709   1.46016   0.46933 
 Bq                   -5.31002   1.36597   0.46933 
 Bq                   -5.36013   1.26437   0.46933 
 Bq                   -5.39654   1.1571    0.46933 
 Bq                   -5.41864   1.04599   0.46933 
 Bq                   -5.42605   0.93295   0.46933 
 Bq                   -5.41864   0.81992   0.46933 
 Bq                   -5.39654   0.70881   0.46933 
 Bq                   -5.36013   0.60154   0.46933 
 Bq                   -5.31002   0.49994   0.46933 
 Bq                   -5.24709   0.40575   0.46933 
 Bq                   -5.17239   0.32058   0.46933 
 Bq                   -5.08722   0.24589   0.46933 
 Bq                   -4.99303   0.18295   0.46933 
 Bq                   -4.89144   0.13285   0.46933 
 Bq                   -4.45647   1.71952   0.36057 
 Bq                   -4.56002   1.72631   0.36057 
 Bq                   -4.66358   1.71952   0.36057 
 
 NAtoms=    236 NQM=      236 NQMF=       0 NMMI=      0 NMMIF=      0
                NMic=       0 NMicF=      0.
                    Isotopes and Nuclear Properties:
 (Nuclear quadrupole moments (NQMom) in fm**2, nuclear magnetic moments (NMagM)
  in nuclear magnetons)

  Atom         1           2           3           4           5           6           7           8           9          10
 IAtWgt=          12          12          12          12          12          12          12          12          12          12
 AtmWgt=  12.0000000  12.0000000  12.0000000  12.0000000  12.0000000  12.0000000  12.0000000  12.0000000  12.0000000  12.0000000
 NucSpn=           0           0           0           0           0           0           0           0           0           0
 AtZEff=   0.0000000   0.0000000   0.0000000   0.0000000   0.0000000   0.0000000   0.0000000   0.0000000   0.0000000   0.0000000
 NQMom=    0.0000000   0.0000000   0.0000000   0.0000000   0.0000000   0.0000000   0.0000000   0.0000000   0.0000000   0.0000000
 NMagM=    0.0000000   0.0000000   0.0000000   0.0000000   0.0000000   0.0000000   0.0000000   0.0000000   0.0000000   0.0000000
 AtZNuc=   6.0000000   6.0000000   6.0000000   6.0000000   6.0000000   6.0000000   6.0000000   6.0000000   6.0000000   6.0000000

  Atom        11          12          13          14          15          16          17          18          19          20
 IAtWgt=           1           1           1           1          12          12          12          12           1           1
 AtmWgt=   1.0078250   1.0078250   1.0078250   1.0078250  12.0000000  12.0000000  12.0000000  12.0000000   1.0078250   1.0078250
 NucSpn=           1           1           1           1           0           0           0           0           1           1
 AtZEff=   0.0000000   0.0000000   0.0000000   0.0000000   0.0000000   0.0000000   0.0000000   0.0000000   0.0000000   0.0000000
 NQMom=    0.0000000   0.0000000   0.0000000   0.0000000   0.0000000   0.0000000   0.0000000   0.0000000   0.0000000   0.0000000
 NMagM=    2.7928460   2.7928460   2.7928460   2.7928460   0.0000000   0.0000000   0.0000000   0.0000000   2.7928460   2.7928460
 AtZNuc=   1.0000000   1.0000000   1.0000000   1.0000000   6.0000000   6.0000000   6.0000000   6.0000000   1.0000000   1.0000000

  Atom        21          22          23          24          25          26          27          28          29          30
 IAtWgt=           1           1          12          12          12          12          12          12          12          12
 AtmWgt=   1.0078250   1.0078250  12.0000000  12.0000000  12.0000000  12.0000000  12.0000000  12.0000000  12.0000000  12.0000000
 NucSpn=           1           1           0           0           0           0           0           0           0           0
 AtZEff=   0.0000000   0.0000000   0.0000000   0.0000000   0.0000000   0.0000000   0.0000000   0.0000000   0.0000000   0.0000000
 NQMom=    0.0000000   0.0000000   0.0000000   0.0000000   0.0000000   0.0000000   0.0000000   0.0000000   0.0000000   0.0000000
 NMagM=    2.7928460   2.7928460   0.0000000   0.0000000   0.0000000   0.0000000   0.0000000   0.0000000   0.0000000   0.0000000
 AtZNuc=   1.0000000   1.0000000   6.0000000   6.0000000   6.0000000   6.0000000   6.0000000   6.0000000   6.0000000   6.0000000

  Atom        31          32          33          34          35          36          37          38          39          40
 IAtWgt=           1           1           1           1           1           1           0           0           0           0
 AtmWgt=   1.0078250   1.0078250   1.0078250   1.0078250   1.0078250   1.0078250   0.0000000   0.0000000   0.0000000   0.0000000
 NucSpn=           1           1           1           1           1           1           0           0           0           0
 AtZEff=   0.0000000   0.0000000   0.0000000   0.0000000   0.0000000   0.0000000   0.0000000   0.0000000   0.0000000   0.0000000
 NQMom=    0.0000000   0.0000000   0.0000000   0.0000000   0.0000000   0.0000000   0.0000000   0.0000000   0.0000000   0.0000000
 NMagM=    2.7928460   2.7928460   2.7928460   2.7928460   2.7928460   2.7928460   0.0000000   0.0000000   0.0000000   0.0000000
 AtZNuc=   1.0000000   1.0000000   1.0000000   1.0000000   1.0000000   1.0000000   0.0000000   0.0000000   0.0000000   0.0000000

  Atom        41          42          43          44          45          46          47          48          49          50
 IAtWgt=           0           0           0           0           0           0           0           0           0           0
 AtmWgt=   0.0000000   0.0000000   0.0000000   0.0000000   0.0000000   0.0000000   0.0000000   0.0000000   0.0000000   0.0000000
 NucSpn=           0           0           0           0           0           0           0           0           0           0
 AtZEff=   0.0000000   0.0000000   0.0000000   0.0000000   0.0000000   0.0000000   0.0000000   0.0000000   0.0000000   0.0000000
 NQMom=    0.0000000   0.0000000   0.0000000   0.0000000   0.0000000   0.0000000   0.0000000   0.0000000   0.0000000   0.0000000
 NMagM=    0.0000000   0.0000000   0.0000000   0.0000000   0.0000000   0.0000000   0.0000000   0.0000000   0.0000000   0.0000000
 AtZNuc=   0.0000000   0.0000000   0.0000000   0.0000000   0.0000000   0.0000000   0.0000000   0.0000000   0.0000000   0.0000000

  Atom        51          52          53          54          55          56          57          58          59          60
 IAtWgt=           0           0           0           0           0           0           0           0           0           0
 AtmWgt=   0.0000000   0.0000000   0.0000000   0.0000000   0.0000000   0.0000000   0.0000000   0.0000000   0.0000000   0.0000000
 NucSpn=           0           0           0           0           0           0           0           0           0           0
 AtZEff=   0.0000000   0.0000000   0.0000000   0.0000000   0.0000000   0.0000000   0.0000000   0.0000000   0.0000000   0.0000000
 NQMom=    0.0000000   0.0000000   0.0000000   0.0000000   0.0000000   0.0000000   0.0000000   0.0000000   0.0000000   0.0000000
 NMagM=    0.0000000   0.0000000   0.0000000   0.0000000   0.0000000   0.0000000   0.0000000   0.0000000   0.0000000   0.0000000
 AtZNuc=   0.0000000   0.0000000   0.0000000   0.0000000   0.0000000   0.0000000   0.0000000   0.0000000   0.0000000   0.0000000

  Atom        61          62          63          64          65          66          67          68          69          70
 IAtWgt=           0           0           0           0           0           0           0           0           0           0
 AtmWgt=   0.0000000   0.0000000   0.0000000   0.0000000   0.0000000   0.0000000   0.0000000   0.0000000   0.0000000   0.0000000
 NucSpn=           0           0           0           0           0           0           0           0           0           0
 AtZEff=   0.0000000   0.0000000   0.0000000   0.0000000   0.0000000   0.0000000   0.0000000   0.0000000   0.0000000   0.0000000
 NQMom=    0.0000000   0.0000000   0.0000000   0.0000000   0.0000000   0.0000000   0.0000000   0.0000000   0.0000000   0.0000000
 NMagM=    0.0000000   0.0000000   0.0000000   0.0000000   0.0000000   0.0000000   0.0000000   0.0000000   0.0000000   0.0000000
 AtZNuc=   0.0000000   0.0000000   0.0000000   0.0000000   0.0000000   0.0000000   0.0000000   0.0000000   0.0000000   0.0000000

  Atom        71          72          73          74          75          76          77          78          79          80
 IAtWgt=           0           0           0           0           0           0           0           0           0           0
 AtmWgt=   0.0000000   0.0000000   0.0000000   0.0000000   0.0000000   0.0000000   0.0000000   0.0000000   0.0000000   0.0000000
 NucSpn=           0           0           0           0           0           0           0           0           0           0
 AtZEff=   0.0000000   0.0000000   0.0000000   0.0000000   0.0000000   0.0000000   0.0000000   0.0000000   0.0000000   0.0000000
 NQMom=    0.0000000   0.0000000   0.0000000   0.0000000   0.0000000   0.0000000   0.0000000   0.0000000   0.0000000   0.0000000
 NMagM=    0.0000000   0.0000000   0.0000000   0.0000000   0.0000000   0.0000000   0.0000000   0.0000000   0.0000000   0.0000000
 AtZNuc=   0.0000000   0.0000000   0.0000000   0.0000000   0.0000000   0.0000000   0.0000000   0.0000000   0.0000000   0.0000000

  Atom        81          82          83          84          85          86          87          88          89          90
 IAtWgt=           0           0           0           0           0           0           0           0           0           0
 AtmWgt=   0.0000000   0.0000000   0.0000000   0.0000000   0.0000000   0.0000000   0.0000000   0.0000000   0.0000000   0.0000000
 NucSpn=           0           0           0           0           0           0           0           0           0           0
 AtZEff=   0.0000000   0.0000000   0.0000000   0.0000000   0.0000000   0.0000000   0.0000000   0.0000000   0.0000000   0.0000000
 NQMom=    0.0000000   0.0000000   0.0000000   0.0000000   0.0000000   0.0000000   0.0000000   0.0000000   0.0000000   0.0000000
 NMagM=    0.0000000   0.0000000   0.0000000   0.0000000   0.0000000   0.0000000   0.0000000   0.0000000   0.0000000   0.0000000
 AtZNuc=   0.0000000   0.0000000   0.0000000   0.0000000   0.0000000   0.0000000   0.0000000   0.0000000   0.0000000   0.0000000

  Atom        91          92          93          94          95          96          97          98          99         100
 IAtWgt=           0           0           0           0           0           0           0           0           0           0
 AtmWgt=   0.0000000   0.0000000   0.0000000   0.0000000   0.0000000   0.0000000   0.0000000   0.0000000   0.0000000   0.0000000
 NucSpn=           0           0           0           0           0           0           0           0           0           0
 AtZEff=   0.0000000   0.0000000   0.0000000   0.0000000   0.0000000   0.0000000   0.0000000   0.0000000   0.0000000   0.0000000
 NQMom=    0.0000000   0.0000000   0.0000000   0.0000000   0.0000000   0.0000000   0.0000000   0.0000000   0.0000000   0.0000000
 NMagM=    0.0000000   0.0000000   0.0000000   0.0000000   0.0000000   0.0000000   0.0000000   0.0000000   0.0000000   0.0000000
 AtZNuc=   0.0000000   0.0000000   0.0000000   0.0000000   0.0000000   0.0000000   0.0000000   0.0000000   0.0000000   0.0000000

  Atom       101         102         103         104         105         106         107         108         109         110
 IAtWgt=           0           0           0           0           0           0           0           0           0           0
 AtmWgt=   0.0000000   0.0000000   0.0000000   0.0000000   0.0000000   0.0000000   0.0000000   0.0000000   0.0000000   0.0000000
 NucSpn=           0           0           0           0           0           0           0           0           0           0
 AtZEff=   0.0000000   0.0000000   0.0000000   0.0000000   0.0000000   0.0000000   0.0000000   0.0000000   0.0000000   0.0000000
 NQMom=    0.0000000   0.0000000   0.0000000   0.0000000   0.0000000   0.0000000   0.0000000   0.0000000   0.0000000   0.0000000
 NMagM=    0.0000000   0.0000000   0.0000000   0.0000000   0.0000000   0.0000000   0.0000000   0.0000000   0.0000000   0.0000000
 AtZNuc=   0.0000000   0.0000000   0.0000000   0.0000000   0.0000000   0.0000000   0.0000000   0.0000000   0.0000000   0.0000000

  Atom       111         112         113         114         115         116         117         118         119         120
 IAtWgt=           0           0           0           0           0           0           0           0           0           0
 AtmWgt=   0.0000000   0.0000000   0.0000000   0.0000000   0.0000000   0.0000000   0.0000000   0.0000000   0.0000000   0.0000000
 NucSpn=           0           0           0           0           0           0           0           0           0           0
 AtZEff=   0.0000000   0.0000000   0.0000000   0.0000000   0.0000000   0.0000000   0.0000000   0.0000000   0.0000000   0.0000000
 NQMom=    0.0000000   0.0000000   0.0000000   0.0000000   0.0000000   0.0000000   0.0000000   0.0000000   0.0000000   0.0000000
 NMagM=    0.0000000   0.0000000   0.0000000   0.0000000   0.0000000   0.0000000   0.0000000   0.0000000   0.0000000   0.0000000
 AtZNuc=   0.0000000   0.0000000   0.0000000   0.0000000   0.0000000   0.0000000   0.0000000   0.0000000   0.0000000   0.0000000

  Atom       121         122         123         124         125         126         127         128         129         130
 IAtWgt=           0           0           0           0           0           0           0           0           0           0
 AtmWgt=   0.0000000   0.0000000   0.0000000   0.0000000   0.0000000   0.0000000   0.0000000   0.0000000   0.0000000   0.0000000
 NucSpn=           0           0           0           0           0           0           0           0           0           0
 AtZEff=   0.0000000   0.0000000   0.0000000   0.0000000   0.0000000   0.0000000   0.0000000   0.0000000   0.0000000   0.0000000
 NQMom=    0.0000000   0.0000000   0.0000000   0.0000000   0.0000000   0.0000000   0.0000000   0.0000000   0.0000000   0.0000000
 NMagM=    0.0000000   0.0000000   0.0000000   0.0000000   0.0000000   0.0000000   0.0000000   0.0000000   0.0000000   0.0000000
 AtZNuc=   0.0000000   0.0000000   0.0000000   0.0000000   0.0000000   0.0000000   0.0000000   0.0000000   0.0000000   0.0000000

  Atom       131         132         133         134         135         136         137         138         139         140
 IAtWgt=           0           0           0           0           0           0           0           0           0           0
 AtmWgt=   0.0000000   0.0000000   0.0000000   0.0000000   0.0000000   0.0000000   0.0000000   0.0000000   0.0000000   0.0000000
 NucSpn=           0           0           0           0           0           0           0           0           0           0
 AtZEff=   0.0000000   0.0000000   0.0000000   0.0000000   0.0000000   0.0000000   0.0000000   0.0000000   0.0000000   0.0000000
 NQMom=    0.0000000   0.0000000   0.0000000   0.0000000   0.0000000   0.0000000   0.0000000   0.0000000   0.0000000   0.0000000
 NMagM=    0.0000000   0.0000000   0.0000000   0.0000000   0.0000000   0.0000000   0.0000000   0.0000000   0.0000000   0.0000000
 AtZNuc=   0.0000000   0.0000000   0.0000000   0.0000000   0.0000000   0.0000000   0.0000000   0.0000000   0.0000000   0.0000000

  Atom       141         142         143         144         145         146         147         148         149         150
 IAtWgt=           0           0           0           0           0           0           0           0           0           0
 AtmWgt=   0.0000000   0.0000000   0.0000000   0.0000000   0.0000000   0.0000000   0.0000000   0.0000000   0.0000000   0.0000000
 NucSpn=           0           0           0           0           0           0           0           0           0           0
 AtZEff=   0.0000000   0.0000000   0.0000000   0.0000000   0.0000000   0.0000000   0.0000000   0.0000000   0.0000000   0.0000000
 NQMom=    0.0000000   0.0000000   0.0000000   0.0000000   0.0000000   0.0000000   0.0000000   0.0000000   0.0000000   0.0000000
 NMagM=    0.0000000   0.0000000   0.0000000   0.0000000   0.0000000   0.0000000   0.0000000   0.0000000   0.0000000   0.0000000
 AtZNuc=   0.0000000   0.0000000   0.0000000   0.0000000   0.0000000   0.0000000   0.0000000   0.0000000   0.0000000   0.0000000

  Atom       151         152         153         154         155         156         157         158         159         160
 IAtWgt=           0           0           0           0           0           0           0           0           0           0
 AtmWgt=   0.0000000   0.0000000   0.0000000   0.0000000   0.0000000   0.0000000   0.0000000   0.0000000   0.0000000   0.0000000
 NucSpn=           0           0           0           0           0           0           0           0           0           0
 AtZEff=   0.0000000   0.0000000   0.0000000   0.0000000   0.0000000   0.0000000   0.0000000   0.0000000   0.0000000   0.0000000
 NQMom=    0.0000000   0.0000000   0.0000000   0.0000000   0.0000000   0.0000000   0.0000000   0.0000000   0.0000000   0.0000000
 NMagM=    0.0000000   0.0000000   0.0000000   0.0000000   0.0000000   0.0000000   0.0000000   0.0000000   0.0000000   0.0000000
 AtZNuc=   0.0000000   0.0000000   0.0000000   0.0000000   0.0000000   0.0000000   0.0000000   0.0000000   0.0000000   0.0000000

  Atom       161         162         163         164         165         166         167         168         169         170
 IAtWgt=           0           0           0           0           0           0           0           0           0           0
 AtmWgt=   0.0000000   0.0000000   0.0000000   0.0000000   0.0000000   0.0000000   0.0000000   0.0000000   0.0000000   0.0000000
 NucSpn=           0           0           0           0           0           0           0           0           0           0
 AtZEff=   0.0000000   0.0000000   0.0000000   0.0000000   0.0000000   0.0000000   0.0000000   0.0000000   0.0000000   0.0000000
 NQMom=    0.0000000   0.0000000   0.0000000   0.0000000   0.0000000   0.0000000   0.0000000   0.0000000   0.0000000   0.0000000
 NMagM=    0.0000000   0.0000000   0.0000000   0.0000000   0.0000000   0.0000000   0.0000000   0.0000000   0.0000000   0.0000000
 AtZNuc=   0.0000000   0.0000000   0.0000000   0.0000000   0.0000000   0.0000000   0.0000000   0.0000000   0.0000000   0.0000000

  Atom       171         172         173         174         175         176         177         178         179         180
 IAtWgt=           0           0           0           0           0           0           0           0           0           0
 AtmWgt=   0.0000000   0.0000000   0.0000000   0.0000000   0.0000000   0.0000000   0.0000000   0.0000000   0.0000000   0.0000000
 NucSpn=           0           0           0           0           0           0           0           0           0           0
 AtZEff=   0.0000000   0.0000000   0.0000000   0.0000000   0.0000000   0.0000000   0.0000000   0.0000000   0.0000000   0.0000000
 NQMom=    0.0000000   0.0000000   0.0000000   0.0000000   0.0000000   0.0000000   0.0000000   0.0000000   0.0000000   0.0000000
 NMagM=    0.0000000   0.0000000   0.0000000   0.0000000   0.0000000   0.0000000   0.0000000   0.0000000   0.0000000   0.0000000
 AtZNuc=   0.0000000   0.0000000   0.0000000   0.0000000   0.0000000   0.0000000   0.0000000   0.0000000   0.0000000   0.0000000

  Atom       181         182         183         184         185         186         187         188         189         190
 IAtWgt=           0           0           0           0           0           0           0           0           0           0
 AtmWgt=   0.0000000   0.0000000   0.0000000   0.0000000   0.0000000   0.0000000   0.0000000   0.0000000   0.0000000   0.0000000
 NucSpn=           0           0           0           0           0           0           0           0           0           0
 AtZEff=   0.0000000   0.0000000   0.0000000   0.0000000   0.0000000   0.0000000   0.0000000   0.0000000   0.0000000   0.0000000
 NQMom=    0.0000000   0.0000000   0.0000000   0.0000000   0.0000000   0.0000000   0.0000000   0.0000000   0.0000000   0.0000000
 NMagM=    0.0000000   0.0000000   0.0000000   0.0000000   0.0000000   0.0000000   0.0000000   0.0000000   0.0000000   0.0000000
 AtZNuc=   0.0000000   0.0000000   0.0000000   0.0000000   0.0000000   0.0000000   0.0000000   0.0000000   0.0000000   0.0000000

  Atom       191         192         193         194         195         196         197         198         199         200
 IAtWgt=           0           0           0           0           0           0           0           0           0           0
 AtmWgt=   0.0000000   0.0000000   0.0000000   0.0000000   0.0000000   0.0000000   0.0000000   0.0000000   0.0000000   0.0000000
 NucSpn=           0           0           0           0           0           0           0           0           0           0
 AtZEff=   0.0000000   0.0000000   0.0000000   0.0000000   0.0000000   0.0000000   0.0000000   0.0000000   0.0000000   0.0000000
 NQMom=    0.0000000   0.0000000   0.0000000   0.0000000   0.0000000   0.0000000   0.0000000   0.0000000   0.0000000   0.0000000
 NMagM=    0.0000000   0.0000000   0.0000000   0.0000000   0.0000000   0.0000000   0.0000000   0.0000000   0.0000000   0.0000000
 AtZNuc=   0.0000000   0.0000000   0.0000000   0.0000000   0.0000000   0.0000000   0.0000000   0.0000000   0.0000000   0.0000000

  Atom       201         202         203         204         205         206         207         208         209         210
 IAtWgt=           0           0           0           0           0           0           0           0           0           0
 AtmWgt=   0.0000000   0.0000000   0.0000000   0.0000000   0.0000000   0.0000000   0.0000000   0.0000000   0.0000000   0.0000000
 NucSpn=           0           0           0           0           0           0           0           0           0           0
 AtZEff=   0.0000000   0.0000000   0.0000000   0.0000000   0.0000000   0.0000000   0.0000000   0.0000000   0.0000000   0.0000000
 NQMom=    0.0000000   0.0000000   0.0000000   0.0000000   0.0000000   0.0000000   0.0000000   0.0000000   0.0000000   0.0000000
 NMagM=    0.0000000   0.0000000   0.0000000   0.0000000   0.0000000   0.0000000   0.0000000   0.0000000   0.0000000   0.0000000
 AtZNuc=   0.0000000   0.0000000   0.0000000   0.0000000   0.0000000   0.0000000   0.0000000   0.0000000   0.0000000   0.0000000

  Atom       211         212         213         214         215         216         217         218         219         220
 IAtWgt=           0           0           0           0           0           0           0           0           0           0
 AtmWgt=   0.0000000   0.0000000   0.0000000   0.0000000   0.0000000   0.0000000   0.0000000   0.0000000   0.0000000   0.0000000
 NucSpn=           0           0           0           0           0           0           0           0           0           0
 AtZEff=   0.0000000   0.0000000   0.0000000   0.0000000   0.0000000   0.0000000   0.0000000   0.0000000   0.0000000   0.0000000
 NQMom=    0.0000000   0.0000000   0.0000000   0.0000000   0.0000000   0.0000000   0.0000000   0.0000000   0.0000000   0.0000000
 NMagM=    0.0000000   0.0000000   0.0000000   0.0000000   0.0000000   0.0000000   0.0000000   0.0000000   0.0000000   0.0000000
 AtZNuc=   0.0000000   0.0000000   0.0000000   0.0000000   0.0000000   0.0000000   0.0000000   0.0000000   0.0000000   0.0000000

  Atom       221         222         223         224         225         226         227         228         229         230
 IAtWgt=           0           0           0           0           0           0           0           0           0           0
 AtmWgt=   0.0000000   0.0000000   0.0000000   0.0000000   0.0000000   0.0000000   0.0000000   0.0000000   0.0000000   0.0000000
 NucSpn=           0           0           0           0           0           0           0           0           0           0
 AtZEff=   0.0000000   0.0000000   0.0000000   0.0000000   0.0000000   0.0000000   0.0000000   0.0000000   0.0000000   0.0000000
 NQMom=    0.0000000   0.0000000   0.0000000   0.0000000   0.0000000   0.0000000   0.0000000   0.0000000   0.0000000   0.0000000
 NMagM=    0.0000000   0.0000000   0.0000000   0.0000000   0.0000000   0.0000000   0.0000000   0.0000000   0.0000000   0.0000000
 AtZNuc=   0.0000000   0.0000000   0.0000000   0.0000000   0.0000000   0.0000000   0.0000000   0.0000000   0.0000000   0.0000000

  Atom       231         232         233         234         235         236
 IAtWgt=           0           0           0           0           0           0
 AtmWgt=   0.0000000   0.0000000   0.0000000   0.0000000   0.0000000   0.0000000
 NucSpn=           0           0           0           0           0           0
 AtZEff=   0.0000000   0.0000000   0.0000000   0.0000000   0.0000000   0.0000000
 NQMom=    0.0000000   0.0000000   0.0000000   0.0000000   0.0000000   0.0000000
 NMagM=    0.0000000   0.0000000   0.0000000   0.0000000   0.0000000   0.0000000
 AtZNuc=   0.0000000   0.0000000   0.0000000   0.0000000   0.0000000   0.0000000
 Leave Link  101 at Tue Sep 15 12:37:13 2020, MaxMem=   131072000 cpu:         3.0
 (Enter /share/programs/GAUSSIAN/64/g09/l202.exe)
 Symmetry turned off:
 Cannot cope with ghost atoms or with translation vectors.
 Stoichiometry    C22H14
 Framework group  C1[X(C22H14)]
 NUMDOF-- NAT=    36 NAtoms=   236
 Deg. of freedom     0
 Full point group                 C1      NOp   1
                          Input orientation:                          
 ---------------------------------------------------------------------
 Center     Atomic      Atomic             Coordinates (Angstroms)
 Number     Number       Type             X           Y           Z
 ---------------------------------------------------------------------
      1          6           0        0.653241    3.257859   -0.202510
      2          6           0       -0.653243    3.257860    0.202510
      3          6           0        1.372495    2.032956   -0.320807
      4          6           0       -1.372495    2.032956    0.320807
      5          6           0        0.722474    0.795666   -0.050388
      6          6           0       -0.722474    0.795667    0.050387
      7          6           0        2.760385    2.053927   -0.674268
      8          6           0        3.508866    0.913916   -0.671362
      9          6           0        2.955226   -0.309622   -0.177479
     10          6           0        1.574722   -0.361114    0.197094
     11          1           0        1.183427    4.195740   -0.384599
     12          1           0       -1.183429    4.195740    0.384599
     13          1           0        3.206283    3.012423   -0.951392
     14          1           0        4.560023    0.932956   -0.969333
     15          6           0        3.783020   -1.443098    0.028309
     16          6           0        1.137427   -1.507533    0.912109
     17          6           0        1.973691   -2.584349    1.138062
     18          6           0        3.301853   -2.571588    0.661177
     19          1           0        4.825754   -1.391230   -0.295484
     20          1           0        0.124652   -1.532788    1.308472
     21          1           0        1.603586   -3.445682    1.698977
     22          1           0        3.952742   -3.433526    0.825134
     23          6           0       -3.508866    0.913915    0.671362
     24          6           0       -2.760386    2.053926    0.674268
     25          6           0       -2.955226   -0.309623    0.177479
     26          6           0       -1.574722   -0.361114   -0.197094
     27          6           0       -3.783020   -1.443099   -0.028309
     28          6           0       -3.301852   -2.571589   -0.661177
     29          6           0       -1.973690   -2.584349   -1.138061
     30          6           0       -1.137426   -1.507534   -0.912109
     31          1           0       -4.560022    0.932954    0.969334
     32          1           0       -3.206283    3.012421    0.951392
     33          1           0       -4.825754   -1.391232    0.295484
     34          1           0       -3.952741   -3.433528   -0.825134
     35          1           0       -1.603585   -3.445682   -1.698976
     36          1           0       -0.124652   -1.532788   -1.308471
     37          0           0       -3.947650    0.320582    1.469334
     38          0           0       -3.872958    0.405751    1.469334
     39          0           0       -4.439432    1.848930    1.352017
     40          0           0       -4.560022    1.856834    1.352017
     41          0           0       -4.680612    1.848930    1.352017
     42          0           0       -4.799140    1.825353    1.352017
     43          0           0       -4.913575    1.786507    1.352017
     44          0           0       -5.021962    1.733057    1.352017
     45          0           0       -5.122444    1.665917    1.352017
     46          0           0       -5.213303    1.586235    1.352017
     47          0           0       -5.292985    1.495376    1.352017
     48          0           0       -5.360125    1.394894    1.352017
     49          0           0       -5.413575    1.286507    1.352017
     50          0           0       -5.452421    1.172072    1.352017
     51          0           0       -5.475998    1.053544    1.352017
     52          0           0       -5.483902    0.932954    1.352017
     53          0           0       -5.475998    0.812364    1.352017
     54          0           0       -5.452421    0.693836    1.352017
     55          0           0       -5.413575    0.579401    1.352017
     56          0           0       -5.360125    0.471014    1.352017
     57          0           0       -5.292985    0.370532    1.352017
     58          0           0       -5.213303    0.279673    1.352017
     59          0           0       -5.122444    0.199991    1.352017
     60          0           0       -5.021962    0.132851    1.352017
     61          0           0       -4.913575    0.079401    1.352017
     62          0           0       -4.799140    0.040555    1.352017
     63          0           0       -4.680612    0.016978    1.352017
     64          0           0       -4.560022    0.009074    1.352017
     65          0           0       -4.439432    0.016978    1.352017
     66          0           0       -4.320904    0.040555    1.352017
     67          0           0       -4.206469    0.079401    1.352017
     68          0           0       -4.098082    0.132851    1.352017
     69          0           0       -3.997600    0.199991    1.352017
     70          0           0       -3.906741    0.279673    1.352017
     71          0           0       -4.433943    1.890616    1.228153
     72          0           0       -4.560022    1.898880    1.228153
     73          0           0       -4.686101    1.890616    1.228153
     74          0           0       -4.810022    1.865967    1.228153
     75          0           0       -4.929666    1.825353    1.228153
     76          0           0       -5.042985    1.769470    1.228153
     77          0           0       -5.148040    1.699274    1.228153
     78          0           0       -5.243035    1.615967    1.228153
     79          0           0       -5.326342    1.520972    1.228153
     80          0           0       -5.396538    1.415917    1.228153
     81          0           0       -5.452421    1.302598    1.228153
     82          0           0       -5.493035    1.182954    1.228153
     83          0           0       -5.517684    1.059033    1.228153
     84          0           0       -5.525948    0.932954    1.228153
     85          0           0       -5.517684    0.806875    1.228153
     86          0           0       -5.493035    0.682954    1.228153
     87          0           0       -5.452421    0.563310    1.228153
     88          0           0       -5.396538    0.449991    1.228153
     89          0           0       -5.326342    0.344936    1.228153
     90          0           0       -5.243035    0.249941    1.228153
     91          0           0       -5.148040    0.166634    1.228153
     92          0           0       -5.042985    0.096438    1.228153
     93          0           0       -4.929666    0.040555    1.228153
     94          0           0       -4.810022   -0.000059    1.228153
     95          0           0       -4.686101   -0.024708    1.228153
     96          0           0       -4.560022   -0.032972    1.228153
     97          0           0       -4.560022    1.924399    1.099860
     98          0           0       -4.689432    1.915917    1.099860
     99          0           0       -4.816627    1.890616    1.099860
    100          0           0       -4.939432    1.848930    1.099860
    101          0           0       -5.055744    1.791570    1.099860
    102          0           0       -5.163575    1.719520    1.099860
    103          0           0       -5.261079    1.634011    1.099860
    104          0           0       -5.346588    1.536507    1.099860
    105          0           0       -5.418638    1.428676    1.099860
    106          0           0       -5.475998    1.312364    1.099860
    107          0           0       -5.517684    1.189559    1.099860
    108          0           0       -5.542985    1.062364    1.099860
    109          0           0       -5.551467    0.932954    1.099860
    110          0           0       -5.542985    0.803544    1.099860
    111          0           0       -5.517684    0.676349    1.099860
    112          0           0       -5.475998    0.553544    1.099860
    113          0           0       -5.418638    0.437232    1.099860
    114          0           0       -5.346588    0.329401    1.099860
    115          0           0       -5.261079    0.231897    1.099860
    116          0           0       -5.163575    0.146388    1.099860
    117          0           0       -5.055744    0.074338    1.099860
    118          0           0       -4.939432    0.016978    1.099860
    119          0           0       -4.816627   -0.024708    1.099860
    120          0           0       -4.689432   -0.050009    1.099860
    121          0           0       -4.560022    1.932954    0.969334
    122          0           0       -4.690548    1.924399    0.969334
    123          0           0       -4.818841    1.898880    0.969334
    124          0           0       -4.942705    1.856834    0.969334
    125          0           0       -5.060022    1.798979    0.969334
    126          0           0       -5.168783    1.726307    0.969334
    127          0           0       -5.267129    1.640061    0.969334
    128          0           0       -5.353375    1.541715    0.969334
    129          0           0       -5.426047    1.432954    0.969334
    130          0           0       -5.483902    1.315637    0.969334
    131          0           0       -5.525948    1.191773    0.969334
    132          0           0       -5.551467    1.063480    0.969334
    133          0           0       -5.560022    0.932954    0.969334
    134          0           0       -5.551467    0.802428    0.969334
    135          0           0       -5.525948    0.674135    0.969334
    136          0           0       -5.483902    0.550271    0.969334
    137          0           0       -5.426047    0.432954    0.969334
    138          0           0       -5.353375    0.324193    0.969334
    139          0           0       -5.267129    0.225847    0.969334
    140          0           0       -5.168783    0.139601    0.969334
    141          0           0       -5.060022    0.066929    0.969334
    142          0           0       -4.942705    0.009074    0.969334
    143          0           0       -4.818841   -0.032972    0.969334
    144          0           0       -4.560022    1.924399    0.838808
    145          0           0       -4.689432    1.915917    0.838808
    146          0           0       -4.816627    1.890616    0.838808
    147          0           0       -4.939432    1.848930    0.838808
    148          0           0       -5.055744    1.791570    0.838808
    149          0           0       -5.163575    1.719520    0.838808
    150          0           0       -5.261079    1.634011    0.838808
    151          0           0       -5.346588    1.536507    0.838808
    152          0           0       -5.418638    1.428676    0.838808
    153          0           0       -5.475998    1.312364    0.838808
    154          0           0       -5.517684    1.189559    0.838808
    155          0           0       -5.542985    1.062364    0.838808
    156          0           0       -5.551467    0.932954    0.838808
    157          0           0       -5.542985    0.803544    0.838808
    158          0           0       -5.517684    0.676349    0.838808
    159          0           0       -5.475998    0.553544    0.838808
    160          0           0       -5.418638    0.437232    0.838808
    161          0           0       -5.346588    0.329401    0.838808
    162          0           0       -5.261079    0.231897    0.838808
    163          0           0       -5.163575    0.146388    0.838808
    164          0           0       -5.055744    0.074338    0.838808
    165          0           0       -4.939432    0.016978    0.838808
    166          0           0       -4.816627   -0.024708    0.838808
    167          0           0       -4.560022    1.898880    0.710515
    168          0           0       -4.686101    1.890616    0.710515
    169          0           0       -4.810022    1.865967    0.710515
    170          0           0       -4.929666    1.825353    0.710515
    171          0           0       -5.042985    1.769470    0.710515
    172          0           0       -5.148040    1.699274    0.710515
    173          0           0       -5.243035    1.615967    0.710515
    174          0           0       -5.326342    1.520972    0.710515
    175          0           0       -5.396538    1.415917    0.710515
    176          0           0       -5.452421    1.302598    0.710515
    177          0           0       -5.493035    1.182954    0.710515
    178          0           0       -5.517684    1.059033    0.710515
    179          0           0       -5.525948    0.932954    0.710515
    180          0           0       -5.517684    0.806875    0.710515
    181          0           0       -5.493035    0.682954    0.710515
    182          0           0       -5.452421    0.563310    0.710515
    183          0           0       -5.396538    0.449991    0.710515
    184          0           0       -5.326342    0.344936    0.710515
    185          0           0       -5.243035    0.249941    0.710515
    186          0           0       -5.148040    0.166634    0.710515
    187          0           0       -5.042985    0.096438    0.710515
    188          0           0       -4.929666    0.040555    0.710515
    189          0           0       -4.560022    1.856834    0.586651
    190          0           0       -4.680612    1.848930    0.586651
    191          0           0       -4.799140    1.825353    0.586651
    192          0           0       -4.913575    1.786507    0.586651
    193          0           0       -5.021962    1.733057    0.586651
    194          0           0       -5.122444    1.665917    0.586651
    195          0           0       -5.213303    1.586235    0.586651
    196          0           0       -5.292985    1.495376    0.586651
    197          0           0       -5.360125    1.394894    0.586651
    198          0           0       -5.413575    1.286507    0.586651
    199          0           0       -5.452421    1.172072    0.586651
    200          0           0       -5.475998    1.053544    0.586651
    201          0           0       -5.483902    0.932954    0.586651
    202          0           0       -5.475998    0.812364    0.586651
    203          0           0       -5.452421    0.693836    0.586651
    204          0           0       -5.413575    0.579401    0.586651
    205          0           0       -5.360125    0.471014    0.586651
    206          0           0       -5.292985    0.370532    0.586651
    207          0           0       -5.213303    0.279673    0.586651
    208          0           0       -5.122444    0.199991    0.586651
    209          0           0       -5.021962    0.132851    0.586651
    210          0           0       -4.913575    0.079401    0.586651
    211          0           0       -4.446983    1.791570    0.469334
    212          0           0       -4.560022    1.798979    0.469334
    213          0           0       -4.673061    1.791570    0.469334
    214          0           0       -4.784166    1.769470    0.469334
    215          0           0       -4.891436    1.733057    0.469334
    216          0           0       -4.993035    1.682954    0.469334
    217          0           0       -5.087225    1.620018    0.469334
    218          0           0       -5.172394    1.545326    0.469334
    219          0           0       -5.247086    1.460157    0.469334
    220          0           0       -5.310022    1.365967    0.469334
    221          0           0       -5.360125    1.264368    0.469334
    222          0           0       -5.396538    1.157098    0.469334
    223          0           0       -5.418638    1.045993    0.469334
    224          0           0       -5.426047    0.932954    0.469334
    225          0           0       -5.418638    0.819915    0.469334
    226          0           0       -5.396538    0.708810    0.469334
    227          0           0       -5.360125    0.601540    0.469334
    228          0           0       -5.310022    0.499941    0.469334
    229          0           0       -5.247086    0.405751    0.469334
    230          0           0       -5.172394    0.320582    0.469334
    231          0           0       -5.087225    0.245890    0.469334
    232          0           0       -4.993035    0.182954    0.469334
    233          0           0       -4.891436    0.132851    0.469334
    234          0           0       -4.456469    1.719520    0.360573
    235          0           0       -4.560022    1.726307    0.360573
    236          0           0       -4.663575    1.719520    0.360573
 ---------------------------------------------------------------------
 Rotational constants (GHZ):      0.4454681      0.2811480      0.1854303
 Leave Link  202 at Tue Sep 15 12:37:13 2020, MaxMem=   131072000 cpu:         0.0
 (Enter /share/programs/GAUSSIAN/64/g09/l301.exe)
 Standard basis: 6-311+G(d,p) (5D, 7F)
 Warning:  center  37 has no basis functions!
 Warning:  center  38 has no basis functions!
 Warning:  center  39 has no basis functions!
 Warning:  center  40 has no basis functions!
 Warning:  center  41 has no basis functions!
 Warning:  center  42 has no basis functions!
 Warning:  center  43 has no basis functions!
 Warning:  center  44 has no basis functions!
 Warning:  center  45 has no basis functions!
 Warning:  center  46 has no basis functions!
 Warning:  center  47 has no basis functions!
 Warning:  center  48 has no basis functions!
 Warning:  center  49 has no basis functions!
 Warning:  center  50 has no basis functions!
 Warning:  center  51 has no basis functions!
 Warning:  center  52 has no basis functions!
 Warning:  center  53 has no basis functions!
 Warning:  center  54 has no basis functions!
 Warning:  center  55 has no basis functions!
 Warning:  center  56 has no basis functions!
 Warning:  center  57 has no basis functions!
 Warning:  center  58 has no basis functions!
 Warning:  center  59 has no basis functions!
 Warning:  center  60 has no basis functions!
 Warning:  center  61 has no basis functions!
 Warning:  center  62 has no basis functions!
 Warning:  center  63 has no basis functions!
 Warning:  center  64 has no basis functions!
 Warning:  center  65 has no basis functions!
 Warning:  center  66 has no basis functions!
 Warning:  center  67 has no basis functions!
 Warning:  center  68 has no basis functions!
 Warning:  center  69 has no basis functions!
 Warning:  center  70 has no basis functions!
 Warning:  center  71 has no basis functions!
 Warning:  center  72 has no basis functions!
 Warning:  center  73 has no basis functions!
 Warning:  center  74 has no basis functions!
 Warning:  center  75 has no basis functions!
 Warning:  center  76 has no basis functions!
 Warning:  center  77 has no basis functions!
 Warning:  center  78 has no basis functions!
 Warning:  center  79 has no basis functions!
 Warning:  center  80 has no basis functions!
 Warning:  center  81 has no basis functions!
 Warning:  center  82 has no basis functions!
 Warning:  center  83 has no basis functions!
 Warning:  center  84 has no basis functions!
 Warning:  center  85 has no basis functions!
 Warning:  center  86 has no basis functions!
 Warning:  center  87 has no basis functions!
 Warning:  center  88 has no basis functions!
 Warning:  center  89 has no basis functions!
 Warning:  center  90 has no basis functions!
 Warning:  center  91 has no basis functions!
 Warning:  center  92 has no basis functions!
 Warning:  center  93 has no basis functions!
 Warning:  center  94 has no basis functions!
 Warning:  center  95 has no basis functions!
 Warning:  center  96 has no basis functions!
 Warning:  center  97 has no basis functions!
 Warning:  center  98 has no basis functions!
 Warning:  center  99 has no basis functions!
 Warning:  center 100 has no basis functions!
 Warning:  center 101 has no basis functions!
 Warning:  center 102 has no basis functions!
 Warning:  center 103 has no basis functions!
 Warning:  center 104 has no basis functions!
 Warning:  center 105 has no basis functions!
 Warning:  center 106 has no basis functions!
 Warning:  center 107 has no basis functions!
 Warning:  center 108 has no basis functions!
 Warning:  center 109 has no basis functions!
 Warning:  center 110 has no basis functions!
 Warning:  center 111 has no basis functions!
 Warning:  center 112 has no basis functions!
 Warning:  center 113 has no basis functions!
 Warning:  center 114 has no basis functions!
 Warning:  center 115 has no basis functions!
 Warning:  center 116 has no basis functions!
 Warning:  center 117 has no basis functions!
 Warning:  center 118 has no basis functions!
 Warning:  center 119 has no basis functions!
 Warning:  center 120 has no basis functions!
 Warning:  center 121 has no basis functions!
 Warning:  center 122 has no basis functions!
 Warning:  center 123 has no basis functions!
 Warning:  center 124 has no basis functions!
 Warning:  center 125 has no basis functions!
 Warning:  center 126 has no basis functions!
 Warning:  center 127 has no basis functions!
 Warning:  center 128 has no basis functions!
 Warning:  center 129 has no basis functions!
 Warning:  center 130 has no basis functions!
 Warning:  center 131 has no basis functions!
 Warning:  center 132 has no basis functions!
 Warning:  center 133 has no basis functions!
 Warning:  center 134 has no basis functions!
 Warning:  center 135 has no basis functions!
 Warning:  center 136 has no basis functions!
 Warning:  center 137 has no basis functions!
 Warning:  center 138 has no basis functions!
 Warning:  center 139 has no basis functions!
 Warning:  center 140 has no basis functions!
 Warning:  center 141 has no basis functions!
 Warning:  center 142 has no basis functions!
 Warning:  center 143 has no basis functions!
 Warning:  center 144 has no basis functions!
 Warning:  center 145 has no basis functions!
 Warning:  center 146 has no basis functions!
 Warning:  center 147 has no basis functions!
 Warning:  center 148 has no basis functions!
 Warning:  center 149 has no basis functions!
 Warning:  center 150 has no basis functions!
 Warning:  center 151 has no basis functions!
 Warning:  center 152 has no basis functions!
 Warning:  center 153 has no basis functions!
 Warning:  center 154 has no basis functions!
 Warning:  center 155 has no basis functions!
 Warning:  center 156 has no basis functions!
 Warning:  center 157 has no basis functions!
 Warning:  center 158 has no basis functions!
 Warning:  center 159 has no basis functions!
 Warning:  center 160 has no basis functions!
 Warning:  center 161 has no basis functions!
 Warning:  center 162 has no basis functions!
 Warning:  center 163 has no basis functions!
 Warning:  center 164 has no basis functions!
 Warning:  center 165 has no basis functions!
 Warning:  center 166 has no basis functions!
 Warning:  center 167 has no basis functions!
 Warning:  center 168 has no basis functions!
 Warning:  center 169 has no basis functions!
 Warning:  center 170 has no basis functions!
 Warning:  center 171 has no basis functions!
 Warning:  center 172 has no basis functions!
 Warning:  center 173 has no basis functions!
 Warning:  center 174 has no basis functions!
 Warning:  center 175 has no basis functions!
 Warning:  center 176 has no basis functions!
 Warning:  center 177 has no basis functions!
 Warning:  center 178 has no basis functions!
 Warning:  center 179 has no basis functions!
 Warning:  center 180 has no basis functions!
 Warning:  center 181 has no basis functions!
 Warning:  center 182 has no basis functions!
 Warning:  center 183 has no basis functions!
 Warning:  center 184 has no basis functions!
 Warning:  center 185 has no basis functions!
 Warning:  center 186 has no basis functions!
 Warning:  center 187 has no basis functions!
 Warning:  center 188 has no basis functions!
 Warning:  center 189 has no basis functions!
 Warning:  center 190 has no basis functions!
 Warning:  center 191 has no basis functions!
 Warning:  center 192 has no basis functions!
 Warning:  center 193 has no basis functions!
 Warning:  center 194 has no basis functions!
 Warning:  center 195 has no basis functions!
 Warning:  center 196 has no basis functions!
 Warning:  center 197 has no basis functions!
 Warning:  center 198 has no basis functions!
 Warning:  center 199 has no basis functions!
 Warning:  center 200 has no basis functions!
 Warning:  center 201 has no basis functions!
 Warning:  center 202 has no basis functions!
 Warning:  center 203 has no basis functions!
 Warning:  center 204 has no basis functions!
 Warning:  center 205 has no basis functions!
 Warning:  center 206 has no basis functions!
 Warning:  center 207 has no basis functions!
 Warning:  center 208 has no basis functions!
 Warning:  center 209 has no basis functions!
 Warning:  center 210 has no basis functions!
 Warning:  center 211 has no basis functions!
 Warning:  center 212 has no basis functions!
 Warning:  center 213 has no basis functions!
 Warning:  center 214 has no basis functions!
 Warning:  center 215 has no basis functions!
 Warning:  center 216 has no basis functions!
 Warning:  center 217 has no basis functions!
 Warning:  center 218 has no basis functions!
 Warning:  center 219 has no basis functions!
 Warning:  center 220 has no basis functions!
 Warning:  center 221 has no basis functions!
 Warning:  center 222 has no basis functions!
 Warning:  center 223 has no basis functions!
 Warning:  center 224 has no basis functions!
 Warning:  center 225 has no basis functions!
 Warning:  center 226 has no basis functions!
 Warning:  center 227 has no basis functions!
 Warning:  center 228 has no basis functions!
 Warning:  center 229 has no basis functions!
 Warning:  center 230 has no basis functions!
 Warning:  center 231 has no basis functions!
 Warning:  center 232 has no basis functions!
 Warning:  center 233 has no basis functions!
 Warning:  center 234 has no basis functions!
 Warning:  center 235 has no basis functions!
 Warning:  center 236 has no basis functions!
 Ernie: Thresh=  0.10000D-02 Tol=  0.10000D-05 Strict=F.
   568 basis functions,   904 primitive gaussians,   590 cartesian basis functions
    73 alpha electrons       73 beta electrons
       nuclear repulsion energy      1599.9156270972 Hartrees.
 IExCor=  402 DFT=T Ex+Corr=B3LYP ExCW=0 ScaHFX=  0.200000
 ScaDFX=  0.800000  0.720000  1.000000  0.810000 ScalE2=  1.000000  1.000000
 IRadAn=      0 IRanWt=     -1 IRanGd=            0 ICorTp=0 IEmpDi=  4
 NAtoms=  236 NActive=  236 NUniq=  236 SFac= 1.00D+00 NAtFMM=   60 NAOKFM=T Big=T
 Integral buffers will be    131072 words long.
 Raffenetti 2 integral format.
 Two-electron integral symmetry is turned off.
 Leave Link  301 at Tue Sep 15 12:37:13 2020, MaxMem=   131072000 cpu:         0.5
 (Enter /share/programs/GAUSSIAN/64/g09/l302.exe)
 NPDir=0 NMtPBC=     1 NCelOv=     1 NCel=       1 NClECP=     1 NCelD=      1
         NCelK=      1 NCelE2=     1 NClLst=     1 CellRange=     0.0.
 One-electron integrals computed using PRISM.
 NBasis=   568 RedAO= T EigKep=  1.01D-06  NBF=   568
 NBsUse=   557 1.00D-06 EigRej=  9.19D-07 NBFU=   557
 Precomputing XC quadrature grid using
 IXCGrd= 4 IRadAn=           0 IRanWt=          -1 IRanGd=           0 AccXCQ= 0.00D+00.
 Generated NRdTot=       0 NPtTot=           0 NUsed=           0 NTot=          32
 NSgBfM=   587   588   588   589   589 MxSgAt=   236 MxSgA2=    36.
 Leave Link  302 at Tue Sep 15 12:37:15 2020, MaxMem=   131072000 cpu:        14.5
 (Enter /share/programs/GAUSSIAN/64/g09/l308.exe)
 Leave Link  308 at Tue Sep 15 12:37:15 2020, MaxMem=   131072000 cpu:         0.9
 (Enter /share/programs/GAUSSIAN/64/g09/l303.exe)
 DipDrv:  MaxL=1.
 Leave Link  303 at Tue Sep 15 12:37:15 2020, MaxMem=   131072000 cpu:         0.6
 (Enter /share/programs/GAUSSIAN/64/g09/l401.exe)
 Initial guess from the checkpoint file:  "/scratch/aartigas.39078/Gau-33319.chk"
 Skipping rotation of guess because NAtoms(RWF)=  236 differs from NAtoms(Chk)=   36.
 Guess basis will be translated and rotated to current coordinates.
 JPrj=2 DoOrth=T DoCkMO=T.
 Leave Link  401 at Tue Sep 15 12:37:17 2020, MaxMem=   131072000 cpu:        10.0
 (Enter /share/programs/GAUSSIAN/64/g09/l502.exe)
 Closed shell SCF:
 Using DIIS extrapolation, IDIIS=  1040.
 Two-electron integral symmetry not used.
 IVT=     1071582 IEndB=     1071582 NGot=   131072000 MDV=   130365749
 LenX=   130365749 LenY=   130017059
 Requested convergence on RMS density matrix=1.00D-08 within 128 cycles.
 Requested convergence on MAX density matrix=1.00D-06.
 Requested convergence on             energy=1.00D-06.
 No special actions if energy rises.
 Fock matrices will be formed incrementally for  20 cycles.

 Cycle   1  Pass 1  IDiag  1:
 FoFJK:  IHMeth= 1 ICntrl=       0 DoSepK=F KAlg= 0 I1Cent=   0 FoldK=F
 IRaf= 940000000 NMat=   1 IRICut=       1 DoRegI=T DoRafI=F ISym2E= 0.
 FoFCou: FMM=T IPFlag=           0 FMFlag=      100000 FMFlg1=        2001
         NFxFlg=           0 DoJE=F BraDBF=F KetDBF=F FulRan=T
         wScrn=  0.000000 ICntrl=       0 IOpCl=  0 I1Cent=           0 NGrid=           0
         NMat0=    1 NMatS0=      1 NMatT0=    0 NMatD0=    1 NMtDS0=    0 NMtDT0=    0
 Symmetry not used in FoFCou.
 FMM levels:  10  Number of levels for PrismC:   9
 E= -847.003738666967    
 DIIS: error= 5.05D-08 at cycle   1 NSaved=   1.
 NSaved= 1 IEnMin= 1 EnMin= -847.003738666967     IErMin= 1 ErrMin= 5.05D-08
 ErrMax= 5.05D-08  0.00D+00 EMaxC= 1.00D-01 BMatC= 3.55D-12 BMatP= 3.55D-12
 IDIUse=1 WtCom= 1.00D+00 WtEn= 0.00D+00
 Coeff-Com:  0.100D+01
 Coeff:      0.100D+01
 Gap=     0.151 Goal=   None    Shift=    0.000
 RMSDP=2.88D-07 MaxDP=1.33D-05              OVMax= 3.94D-07

 Cycle   2  Pass 1  IDiag  1:
 RMSU=  2.85D-07    CP:  1.00D+00
 E= -847.003738666790     Delta-E=        0.000000000178 Rises=F Damp=F
 DIIS: error= 1.42D-08 at cycle   2 NSaved=   2.
 NSaved= 2 IEnMin= 1 EnMin= -847.003738666967     IErMin= 2 ErrMin= 1.42D-08
 ErrMax= 1.42D-08  0.00D+00 EMaxC= 1.00D-01 BMatC= 2.13D-13 BMatP= 3.55D-12
 IDIUse=1 WtCom= 1.00D+00 WtEn= 0.00D+00
 Coeff-Com:  0.627D-01 0.937D+00
 Coeff:      0.627D-01 0.937D+00
 Gap=     0.151 Goal=   None    Shift=    0.000
 RMSDP=1.58D-08 MaxDP=7.93D-07 DE= 1.78D-10 OVMax= 3.02D-07

 Cycle   3  Pass 1  IDiag  1:
 RMSU=  1.33D-08    CP:  1.00D+00  1.02D+00
 E= -847.003738666828     Delta-E=       -0.000000000039 Rises=F Damp=F
 DIIS: error= 2.51D-08 at cycle   3 NSaved=   3.
 NSaved= 3 IEnMin= 1 EnMin= -847.003738666967     IErMin= 2 ErrMin= 1.42D-08
 ErrMax= 2.51D-08  0.00D+00 EMaxC= 1.00D-01 BMatC= 5.05D-13 BMatP= 2.13D-13
 IDIUse=1 WtCom= 1.00D+00 WtEn= 0.00D+00
 Coeff-Com: -0.107D-01 0.616D+00 0.395D+00
 Coeff:     -0.107D-01 0.616D+00 0.395D+00
 Gap=     0.151 Goal=   None    Shift=    0.000
 RMSDP=1.03D-08 MaxDP=4.22D-07 DE=-3.87D-11 OVMax= 2.17D-07

 Cycle   4  Pass 1  IDiag  1:
 RMSU=  5.86D-09    CP:  1.00D+00  1.02D+00  3.91D-01
 E= -847.003738666802     Delta-E=        0.000000000026 Rises=F Damp=F
 DIIS: error= 8.06D-09 at cycle   4 NSaved=   4.
 NSaved= 4 IEnMin= 1 EnMin= -847.003738666967     IErMin= 4 ErrMin= 8.06D-09
 ErrMax= 8.06D-09  0.00D+00 EMaxC= 1.00D-01 BMatC= 2.06D-14 BMatP= 2.13D-13
 IDIUse=1 WtCom= 1.00D+00 WtEn= 0.00D+00
 Coeff-Com: -0.876D-02 0.309D+00 0.241D+00 0.459D+00
 Coeff:     -0.876D-02 0.309D+00 0.241D+00 0.459D+00
 Gap=     0.151 Goal=   None    Shift=    0.000
 RMSDP=4.16D-09 MaxDP=1.55D-07 DE= 2.64D-11 OVMax= 6.88D-08

 SCF Done:  E(RB3LYP) =  -847.003738667     A.U. after    4 cycles
            NFock=  4  Conv=0.42D-08     -V/T= 2.0049
 KE= 8.428349970567D+02 PE=-5.164192584015D+03 EE= 1.874438221195D+03
 Leave Link  502 at Tue Sep 15 12:38:59 2020, MaxMem=   131072000 cpu:       814.5
 (Enter /share/programs/GAUSSIAN/64/g09/l801.exe)
 DoSCS=F DFT=T ScalE2(SS,OS)=  1.000000  1.000000
 Range of M.O.s used for correlation:     1   557
 NBasis=   568 NAE=    73 NBE=    73 NFC=     0 NFV=     0
 NROrb=    557 NOA=    73 NOB=    73 NVA=   484 NVB=   484

 **** Warning!!: The largest alpha MO coefficient is  0.14271945D+03

 Leave Link  801 at Tue Sep 15 12:38:59 2020, MaxMem=   131072000 cpu:         0.1
 (Enter /share/programs/GAUSSIAN/64/g09/l1002.exe)
 Minotr:  Closed shell wavefunction.
          Direct CPHF calculation.
          Differentiating once with respect to magnetic field using GIAOs.
          Electric field/nuclear overlap derivatives assumed to be zero.
          Requested convergence is 1.0D-08 RMS, and 1.0D-07 maximum.
          Secondary convergence is 1.0D-12 RMS, and 1.0D-12 maximum.
          NewPWx=T KeepS1=F KeepF1=F KeepIn=T MapXYZ=F SortEE=F KeepMc=T.
          MDV=     131069551 using IRadAn=       2.
 Generate precomputed XC quadrature information.
          Solving linear equations simultaneously, MaxMat=      72.
 FoFCou: FMM=F IPFlag=           0 FMFlag=      100000 FMFlg1=        2001
         NFxFlg=           0 DoJE=F BraDBF=F KetDBF=T FulRan=T
         wScrn=  0.000000 ICntrl=    6100 IOpCl=  0 I1Cent=           7 NGrid=         236
         NMat0=    1 NMatS0=      1 NMatT0=    0 NMatD0=    1 NMtDS0=    0 NMtDT0=    0
 Symmetry not used in FoFCou.
 FoFJK:  IHMeth= 1 ICntrl=    6127 DoSepK=F KAlg= 0 I1Cent=   0 FoldK=F
 IRaf=         1 NMat=   1 IRICut=       1 DoRegI=T DoRafI=F ISym2E= 0.
          There are     3 degrees of freedom in the 1st order CPHF.  IDoFFX=0 NUNeed=     3.
      3 vectors produced by pass  0 Test12= 1.18D-12 3.33D-08 XBig12= 1.96D+03 8.77D+00.
 AX will form     3 AO Fock derivatives at one time.
      3 vectors produced by pass  1 Test12= 1.18D-12 3.33D-08 XBig12= 3.18D+00 7.58D-01.
      3 vectors produced by pass  2 Test12= 1.18D-12 3.33D-08 XBig12= 1.86D-02 5.85D-02.
      3 vectors produced by pass  3 Test12= 1.18D-12 3.33D-08 XBig12= 4.29D-05 1.35D-03.
      3 vectors produced by pass  4 Test12= 1.18D-12 3.33D-08 XBig12= 9.75D-08 7.22D-05.
      3 vectors produced by pass  5 Test12= 1.18D-12 3.33D-08 XBig12= 3.97D-10 5.92D-06.
      3 vectors produced by pass  6 Test12= 1.18D-12 3.33D-08 XBig12= 1.51D-12 4.40D-07.
 InvSVY:  IOpt=1 It=  1 EMax= 3.55D-15
 Solved reduced A of dimension    21 with     3 vectors.
 Calculating GIAO nuclear magnetic shielding tensors.
 SCF GIAO Magnetic shielding tensor (ppm):
      1  C    Isotropic =    49.6861   Anisotropy =   149.7970
   XX=    46.3088   YX=   -25.0950   ZX=    31.4786
   XY=   -31.1109   YY=   -39.0339   ZY=    13.2621
   XZ=    24.9178   YZ=     8.9888   ZZ=   141.7833
   Eigenvalues:   -49.3507    48.8581   149.5507
      2  C    Isotropic =    49.6861   Anisotropy =   149.7971
   XX=    46.3088   YX=    25.0953   ZX=    31.4786
   XY=    31.1111   YY=   -39.0339   ZY=   -13.2621
   XZ=    24.9177   YZ=    -8.9889   ZZ=   141.7834
   Eigenvalues:   -49.3508    48.8583   149.5509
      3  C    Isotropic =    44.4899   Anisotropy =   204.7372
   XX=   -22.2199   YX=    10.8075   ZX=    51.2710
   XY=     4.9259   YY=   -14.7126   ZY=    14.7921
   XZ=    32.3655   YZ=    21.2392   ZZ=   170.4022
   Eigenvalues:   -31.9593   -15.5523   180.9814
      4  C    Isotropic =    44.4899   Anisotropy =   204.7373
   XX=   -22.2198   YX=   -10.8075   ZX=    51.2710
   XY=    -4.9256   YY=   -14.7126   ZY=   -14.7922
   XZ=    32.3656   YZ=   -21.2393   ZZ=   170.4023
   Eigenvalues:   -31.9592   -15.5524   180.9815
      5  C    Isotropic =    48.5420   Anisotropy =   189.5490
   XX=   -14.6790   YX=     4.7342   ZX=     8.4333
   XY=    20.3759   YY=    -5.5375   ZY=    31.5121
   XZ=    65.1218   YZ=     0.8640   ZZ=   165.8426
   Eigenvalues:   -26.3226    -2.9593   174.9080
      6  C    Isotropic =    48.5421   Anisotropy =   189.5489
   XX=   -14.6789   YX=    -4.7340   ZX=     8.4335
   XY=   -20.3758   YY=    -5.5374   ZY=   -31.5121
   XZ=    65.1218   YZ=    -0.8638   ZZ=   165.8426
   Eigenvalues:   -26.3224    -2.9594   174.9080
      7  C    Isotropic =    50.1907   Anisotropy =   149.2089
   XX=    19.7303   YX=   -44.2755   ZX=    41.2886
   XY=   -38.0437   YY=    -2.7069   ZY=    36.9011
   XZ=    36.5866   YZ=    37.5458   ZZ=   133.5487
   Eigenvalues:   -49.6656    50.5744   149.6633
      8  C    Isotropic =    48.9362   Anisotropy =   152.4339
   XX=   -31.5093   YX=   -11.4921   ZX=    54.7730
   XY=   -19.0468   YY=    46.5898   ZY=    27.5522
   XZ=    42.2451   YZ=    29.8391   ZZ=   131.7282
   Eigenvalues:   -50.1461    46.3960   150.5589
      9  C    Isotropic =    44.4204   Anisotropy =   209.3981
   XX=   -10.1987   YX=    16.7536   ZX=    44.4888
   XY=     8.9342   YY=    -7.7270   ZY=    61.4651
   XZ=    43.3269   YZ=    64.9792   ZZ=   151.1869
   Eigenvalues:   -30.3689   -20.3891   184.0192
     10  C    Isotropic =    45.3894   Anisotropy =   198.3236
   XX=    -5.9706   YX=    23.3819   ZX=    35.6519
   XY=    38.1954   YY=     1.7271   ZY=    73.1370
   XZ=    54.0013   YZ=    45.7045   ZZ=   140.4116
   Eigenvalues:   -33.5315    -7.9055   177.6051
     11  H    Isotropic =    23.8179   Anisotropy =     7.5674
   XX=    27.2191   YX=    -1.9090   ZX=    -2.2602
   XY=    -1.7961   YY=    24.8722   ZY=    -0.1966
   XZ=    -3.3763   YZ=    -0.1950   ZZ=    19.3625
   Eigenvalues:    18.3647    24.2263    28.8628
     12  H    Isotropic =    23.8179   Anisotropy =     7.5674
   XX=    27.2191   YX=     1.9090   ZX=    -2.2602
   XY=     1.7961   YY=    24.8722   ZY=     0.1966
   XZ=    -3.3763   YZ=     0.1950   ZZ=    19.3625
   Eigenvalues:    18.3647    24.2263    28.8628
     13  H    Isotropic =    23.8548   Anisotropy =     7.5124
[...]
   131  Bq   0.000000
   132  Bq   0.000000
   133  Bq   0.000000
   134  Bq   0.000000
   135  Bq   0.000000
   136  Bq   0.000000
   137  Bq   0.000000
   138  Bq   0.000000
   139  Bq   0.000000
   140  Bq   0.000000
   141  Bq   0.000000
   142  Bq   0.000000
   143  Bq   0.000000
   144  Bq   0.000000
   145  Bq   0.000000
   146  Bq   0.000000
   147  Bq   0.000000
   148  Bq   0.000000
   149  Bq   0.000000
   150  Bq   0.000000
   151  Bq   0.000000
   152  Bq   0.000000
   153  Bq   0.000000
   154  Bq   0.000000
   155  Bq   0.000000
   156  Bq   0.000000
   157  Bq   0.000000
   158  Bq   0.000000
   159  Bq   0.000000
   160  Bq   0.000000
   161  Bq   0.000000
   162  Bq   0.000000
   163  Bq   0.000000
   164  Bq   0.000000
   165  Bq   0.000000
   166  Bq   0.000000
   167  Bq   0.000000
   168  Bq   0.000000
   169  Bq   0.000000
   170  Bq   0.000000
   171  Bq   0.000000
   172  Bq   0.000000
   173  Bq   0.000000
   174  Bq   0.000000
   175  Bq   0.000000
   176  Bq   0.000000
   177  Bq   0.000000
   178  Bq   0.000000
   179  Bq   0.000000
   180  Bq   0.000000
   181  Bq   0.000000
   182  Bq   0.000000
   183  Bq   0.000000
   184  Bq   0.000000
   185  Bq   0.000000
   186  Bq   0.000000
   187  Bq   0.000000
   188  Bq   0.000000
   189  Bq   0.000000
   190  Bq   0.000000
   191  Bq   0.000000
   192  Bq   0.000000
   193  Bq   0.000000
   194  Bq   0.000000
   195  Bq   0.000000
   196  Bq   0.000000
   197  Bq   0.000000
   198  Bq   0.000000
   199  Bq   0.000000
   200  Bq   0.000000
   201  Bq   0.000000
   202  Bq   0.000000
   203  Bq   0.000000
   204  Bq   0.000000
   205  Bq   0.000000
   206  Bq   0.000000
   207  Bq   0.000000
   208  Bq   0.000000
   209  Bq   0.000000
   210  Bq   0.000000
   211  Bq   0.000000
   212  Bq   0.000000
   213  Bq   0.000000
   214  Bq   0.000000
   215  Bq   0.000000
   216  Bq   0.000000
   217  Bq   0.000000
   218  Bq   0.000000
   219  Bq   0.000000
   220  Bq   0.000000
   221  Bq   0.000000
   222  Bq   0.000000
   223  Bq   0.000000
   224  Bq   0.000000
   225  Bq   0.000000
   226  Bq   0.000000
   227  Bq   0.000000
   228  Bq   0.000000
   229  Bq   0.000000
   230  Bq   0.000000
   231  Bq   0.000000
   232  Bq   0.000000
   233  Bq   0.000000
   234  Bq   0.000000
   235  Bq   0.000000
   236  Bq   0.000000
 Sum of Mulliken charges =   0.00000
 Mulliken charges with hydrogens summed into heavy atoms:
               1
     1  C   -0.262865
     2  C   -0.262866
     3  C    0.737923
     4  C    0.737922
     5  C   -0.039994
     6  C   -0.040001
     7  C    0.075155
     8  C   -0.330147
     9  C    0.780501
    10  C   -0.200782
    15  C    0.249272
    16  C   -0.533462
    17  C   -0.189405
    18  C   -0.286191
    23  C   -0.449357
    24  C    0.075154
    25  C    0.780496
    26  C   -0.200782
    27  C    0.249273
    28  C   -0.286192
    29  C   -0.189403
    30  C   -0.533462
    37  Bq   0.000000
    38  Bq   0.000000
    39  Bq   0.000000
    40  Bq   0.000000
    41  Bq   0.000000
    42  Bq   0.000000
    43  Bq   0.000000
    44  Bq   0.000000
    45  Bq   0.000000
    46  Bq   0.000000
    47  Bq   0.000000
    48  Bq   0.000000
    49  Bq   0.000000
    50  Bq   0.000000
    51  Bq   0.000000
    52  Bq   0.000000
    53  Bq   0.000000
    54  Bq   0.000000
    55  Bq   0.000000
    56  Bq   0.000000
    57  Bq   0.000000
    58  Bq   0.000000
    59  Bq   0.000000
    60  Bq   0.000000
    61  Bq   0.000000
    62  Bq   0.000000
    63  Bq   0.000000
    64  Bq   0.000000
    65  Bq   0.000000
    66  Bq   0.000000
    67  Bq   0.000000
    68  Bq   0.000000
    69  Bq   0.000000
    70  Bq   0.000000
    71  Bq   0.000000
    72  Bq   0.000000
    73  Bq   0.000000
    74  Bq   0.000000
    75  Bq   0.000000
    76  Bq   0.000000
    77  Bq   0.000000
    78  Bq   0.000000
    79  Bq   0.000000
    80  Bq   0.000000
    81  Bq   0.000000
    82  Bq   0.000000
    83  Bq   0.000000
    84  Bq   0.000000
    85  Bq   0.000000
    86  Bq   0.000000
    87  Bq   0.000000
    88  Bq   0.000000
    89  Bq   0.000000
    90  Bq   0.000000
    91  Bq   0.000000
    92  Bq   0.000000
    93  Bq   0.000000
    94  Bq   0.000000
    95  Bq   0.000000
    96  Bq   0.000000
    97  Bq   0.000000
    98  Bq   0.000000
    99  Bq   0.000000
   100  Bq   0.000000
   101  Bq   0.000000
   102  Bq   0.000000
   103  Bq   0.119212
   104  Bq   0.000000
   105  Bq   0.000000
   106  Bq   0.000000
   107  Bq   0.000000
   108  Bq   0.000000
   109  Bq   0.000000
   110  Bq   0.000000
   111  Bq   0.000000
   112  Bq   0.000000
   113  Bq   0.000000
   114  Bq   0.000000
   115  Bq   0.000000
   116  Bq   0.000000
   117  Bq   0.000000
   118  Bq   0.000000
   119  Bq   0.000000
   120  Bq   0.000000
   121  Bq   0.000000
   122  Bq   0.000000
   123  Bq   0.000000
   124  Bq   0.000000
   125  Bq   0.000000
   126  Bq   0.000000
   127  Bq   0.000000
   128  Bq   0.000000
   129  Bq   0.000000
   130  Bq   0.000000
   131  Bq   0.000000
   132  Bq   0.000000
   133  Bq   0.000000
   134  Bq   0.000000
   135  Bq   0.000000
   136  Bq   0.000000
   137  Bq   0.000000
   138  Bq   0.000000
   139  Bq   0.000000
   140  Bq   0.000000
   141  Bq   0.000000
   142  Bq   0.000000
   143  Bq   0.000000
   144  Bq   0.000000
   145  Bq   0.000000
   146  Bq   0.000000
   147  Bq   0.000000
   148  Bq   0.000000
   149  Bq   0.000000
   150  Bq   0.000000
   151  Bq   0.000000
   152  Bq   0.000000
   153  Bq   0.000000
   154  Bq   0.000000
   155  Bq   0.000000
   156  Bq   0.000000
   157  Bq   0.000000
   158  Bq   0.000000
   159  Bq   0.000000
   160  Bq   0.000000
   161  Bq   0.000000
   162  Bq   0.000000
   163  Bq   0.000000
   164  Bq   0.000000
   165  Bq   0.000000
   166  Bq   0.000000
   167  Bq   0.000000
   168  Bq   0.000000
   169  Bq   0.000000
   170  Bq   0.000000
   171  Bq   0.000000
   172  Bq   0.000000
   173  Bq   0.000000
   174  Bq   0.000000
   175  Bq   0.000000
   176  Bq   0.000000
   177  Bq   0.000000
   178  Bq   0.000000
   179  Bq   0.000000
   180  Bq   0.000000
   181  Bq   0.000000
   182  Bq   0.000000
   183  Bq   0.000000
   184  Bq   0.000000
   185  Bq   0.000000
   186  Bq   0.000000
   187  Bq   0.000000
   188  Bq   0.000000
   189  Bq   0.000000
   190  Bq   0.000000
   191  Bq   0.000000
   192  Bq   0.000000
   193  Bq   0.000000
   194  Bq   0.000000
   195  Bq   0.000000
   196  Bq   0.000000
   197  Bq   0.000000
   198  Bq   0.000000
   199  Bq   0.000000
   200  Bq   0.000000
   201  Bq   0.000000
   202  Bq   0.000000
   203  Bq   0.000000
   204  Bq   0.000000
   205  Bq   0.000000
   206  Bq   0.000000
   207  Bq   0.000000
   208  Bq   0.000000
   209  Bq   0.000000
   210  Bq   0.000000
   211  Bq   0.000000
   212  Bq   0.000000
   213  Bq   0.000000
   214  Bq   0.000000
   215  Bq   0.000000
   216  Bq   0.000000
   217  Bq   0.000000
   218  Bq   0.000000
   219  Bq   0.000000
   220  Bq   0.000000
   221  Bq   0.000000
   222  Bq   0.000000
   223  Bq   0.000000
   224  Bq   0.000000
   225  Bq   0.000000
   226  Bq   0.000000
   227  Bq   0.000000
   228  Bq   0.000000
   229  Bq   0.000000
   230  Bq   0.000000
   231  Bq   0.000000
   232  Bq   0.000000
   233  Bq   0.000000
   234  Bq   0.000000
   235  Bq   0.000000
   236  Bq   0.000000
 Electronic spatial extent (au):  <R**2>=           5804.3227
 Charge=              0.0000 electrons
 Dipole moment (field-independent basis, Debye):
    X=              0.0000    Y=              0.0732    Z=              0.0000  Tot=              0.0732
 Quadrupole moment (field-independent basis, Debye-Ang):
   XX=           -113.9137   YY=           -113.9781   ZZ=           -133.4378
   XY=              0.0000   XZ=             -4.8717   YZ=              0.0000
 Traceless Quadrupole moment (field-independent basis, Debye-Ang):
   XX=              6.5295   YY=              6.4651   ZZ=            -12.9946
   XY=              0.0000   XZ=             -4.8717   YZ=              0.0000
 Octapole moment (field-independent basis, Debye-Ang**2):
  XXX=              0.0000  YYY=             11.7108  ZZZ=              0.0000  XYY=              0.0000
  XXY=             -6.4067  XXZ=              0.0000  XZZ=              0.0000  YZZ=             -7.8695
  YYZ=              0.0000  XYZ=            -16.2862
 Hexadecapole moment (field-independent basis, Debye-Ang**3):
 XXXX=          -4416.4021 YYYY=          -2784.9756 ZZZZ=           -481.5690 XXXY=              0.0001
 XXXZ=           -124.3517 YYYX=             -0.0003 YYYZ=              0.0001 ZZZX=             -4.4782
 ZZZY=              0.0001 XXYY=          -1189.3576 XXZZ=           -942.9016 YYZZ=           -589.4012
 XXYZ=              0.0000 YYXZ=              7.8297 ZZXY=             -0.0001
 N-N= 1.599915627097D+03 E-N=-5.164192587538D+03  KE= 8.428349970567D+02
 Leave Link  601 at Tue Sep 15 12:47:01 2020, MaxMem=   131072000 cpu:         0.6
 (Enter /share/programs/GAUSSIAN/64/g09/l9999.exe)
 1\1\GINC-PAHRY\SP\RB3LYP\6-311+G(d,p)\C22H14\AARTIGAS\15-Sep-2020\0\\#
 P rb3lyp/6-311+g** NMR Guess=Read geom=connectivity\\Title\\0,1\C,0,0.
 653241,3.257859,-0.20251\C,0,-0.653243,3.25786,0.20251\C,0,1.372495,2.
 032956,-0.320807\C,0,-1.372495,2.032956,0.320807\C,0,0.722474,0.795666
 ,-0.050388\C,0,-0.722474,0.795667,0.050387\C,0,2.760385,2.053927,-0.67
 4268\C,0,3.508866,0.913916,-0.671362\C,0,2.955226,-0.309622,-0.177479\
 C,0,1.574722,-0.361114,0.197094\H,0,1.183427,4.19574,-0.384599\H,0,-1.
 183429,4.19574,0.384599\H,0,3.206283,3.012423,-0.951392\H,0,4.560023,0
 .932956,-0.969333\C,0,3.78302,-1.443098,0.028309\C,0,1.137427,-1.50753
 3,0.912109\C,0,1.973691,-2.584349,1.138062\C,0,3.301853,-2.571588,0.66
 1177\H,0,4.825754,-1.39123,-0.295484\H,0,0.124652,-1.532788,1.308472\H
 ,0,1.603586,-3.445682,1.698977\H,0,3.952742,-3.433526,0.825134\C,0,-3.
 508866,0.913915,0.671362\C,0,-2.760386,2.053926,0.674268\C,0,-2.955226
 ,-0.309623,0.177479\C,0,-1.574722,-0.361114,-0.197094\C,0,-3.78302,-1.
 443099,-0.028309\C,0,-3.301852,-2.571589,-0.661177\C,0,-1.97369,-2.584
 349,-1.138061\C,0,-1.137426,-1.507534,-0.912109\H,0,-4.560022,0.932954
 ,0.969334\H,0,-3.206283,3.012421,0.951392\H,0,-4.825754,-1.391232,0.29
 5484\H,0,-3.952741,-3.433528,-0.825134\H,0,-1.603585,-3.445682,-1.6989
 76\H,0,-0.124652,-1.532788,-1.308471\Bq,0,-3.9476495643,0.3205815643,1
 .469334\Bq,0,-3.8729578531,0.4057511376,1.469334\Bq,0,-4.4394315226,1.
 848929615,1.3520174324\Bq,0,-4.560022,1.8568335325,1.3520174324\Bq,0,-
 4.6806124774,1.848929615,1.3520174324\Bq,0,-4.7991396184,1.8253531008,
 1.3520174324\Bq,0,-4.9135753906,1.7865073906,1.3520174324\Bq,0,-5.0219
 617663,1.7330571452,1.3520174324\Bq,0,-5.1224442244,1.6659169131,1.352
 0174324\Bq,0,-5.2133034824,1.5862354824,1.3520174324\Bq,0,-5.292984913
 1,1.4953762244,1.3520174324\Bq,0,-5.3601251452,1.3948937663,1.35201743
 24\Bq,0,-5.4135753906,1.2865073906,1.3520174324\Bq,0,-5.4524211008,1.1
 720716184,1.3520174324\Bq,0,-5.475997615,1.0535444774,1.3520174324\Bq,
 0,-5.4839015325,0.932954,1.3520174324\Bq,0,-5.475997615,0.8123635226,1
 .3520174324\Bq,0,-5.4524211008,0.6938363816,1.3520174324\Bq,0,-5.41357
 53906,0.5794006094,1.3520174324\Bq,0,-5.3601251452,0.4710142337,1.3520
 174324\Bq,0,-5.2929849131,0.3705317756,1.3520174324\Bq,0,-5.2133034824
 ,0.2796725176,1.3520174324\Bq,0,-5.1224442244,0.1999910869,1.352017432
 4\Bq,0,-5.0219617663,0.1328508548,1.3520174324\Bq,0,-4.9135753906,0.07
 94006094,1.3520174324\Bq,0,-4.7991396184,0.0405548992,1.3520174324\Bq,
 0,-4.6806124774,0.016978385,1.3520174324\Bq,0,-4.560022,0.0090744675,1
 .3520174324\Bq,0,-4.4394315226,0.016978385,1.3520174324\Bq,0,-4.320904
 3816,0.0405548992,1.3520174324\Bq,0,-4.2064686094,0.0794006094,1.35201
 74324\Bq,0,-4.0980822337,0.1328508548,1.3520174324\Bq,0,-3.9975997756,
 0.1999910869,1.3520174324\Bq,0,-3.9067405176,0.2796725176,1.3520174324
 \Bq,0,-4.4339433799,1.8906161969,1.2281530451\Bq,0,-4.560022,1.8988798
 263,1.2281530451\Bq,0,-4.6861006201,1.8906161969,1.2281530451\Bq,0,-4.
 810022,1.8659667019,1.2281530451\Bq,0,-4.9296658106,1.8253531008,1.228
 1530451\Bq,0,-5.0429849131,1.7694703037,1.2281530451\Bq,0,-5.148040386
 3,1.6992744808,1.2281530451\Bq,0,-5.2430347019,1.6159667019,1.22815304
 51\Bq,0,-5.3263424808,1.5209723863,1.2281530451\Bq,0,-5.3965383037,1.4
 159169131,1.2281530451\Bq,0,-5.4524211008,1.3025978106,1.2281530451\Bq
 ,0,-5.4930347019,1.182954,1.2281530451\Bq,0,-5.5176841969,1.0590326201
 ,1.2281530451\Bq,0,-5.5259478263,0.932954,1.2281530451\Bq,0,-5.5176841
 969,0.8068753799,1.2281530451\Bq,0,-5.4930347019,0.682954,1.2281530451
 \Bq,0,-5.4524211008,0.5633101894,1.2281530451\Bq,0,-5.3965383037,0.449
 9910869,1.2281530451\Bq,0,-5.3263424808,0.3449356137,1.2281530451\Bq,0
 ,-5.2430347019,0.2499412981,1.2281530451\Bq,0,-5.1480403863,0.16663351
 92,1.2281530451\Bq,0,-5.0429849131,0.0964376963,1.2281530451\Bq,0,-4.9
 296658106,0.0405548992,1.2281530451\Bq,0,-4.810022,-0.0000587019,1.228
 1530451\Bq,0,-4.6861006201,-0.0247081969,1.2281530451\Bq,0,-4.560022,-
 0.0329718263,1.2281530451\Bq,0,-4.560022,1.9243988614,1.0998601922\Bq,
 0,-4.6894315226,1.9159169131,1.0998601922\Bq,0,-4.8166268123,1.8906161
 969,1.0998601922\Bq,0,-4.9394315226,1.848929615,1.0998601922\Bq,0,-5.0
 557444307,1.7915704364,1.0998601922\Bq,0,-5.1635753906,1.7195200925,1.
 0998601922\Bq,0,-5.2610793846,1.6340113846,1.0998601922\Bq,0,-5.346588
 0925,1.5365073906,1.0998601922\Bq,0,-5.4186384364,1.4286764307,1.09986
 01922\Bq,0,-5.475997615,1.3123635226,1.0998601922\Bq,0,-5.5176841969,1
 .1895588123,1.0998601922\Bq,0,-5.5429849131,1.0623635226,1.0998601922\
 Bq,0,-5.5514668614,0.932954,1.0998601922\Bq,0,-5.5429849131,0.80354447
 74,1.0998601922\Bq,0,-5.5176841969,0.6763491877,1.0998601922\Bq,0,-5.4
 75997615,0.5535444774,1.0998601922\Bq,0,-5.4186384364,0.4372315693,1.0
 998601922\Bq,0,-5.3465880925,0.3294006094,1.0998601922\Bq,0,-5.2610793
 846,0.2318966154,1.0998601922\Bq,0,-5.1635753906,0.1463879075,1.099860
 1922\Bq,0,-5.0557444307,0.0743375636,1.0998601922\Bq,0,-4.9394315226,0
 .016978385,1.0998601922\Bq,0,-4.8166268123,-0.0247081969,1.0998601922\
 Bq,0,-4.6894315226,-0.0500089131,1.0998601922\Bq,0,-4.560022,1.932954,
 0.969334\Bq,0,-4.6905481922,1.9243988614,0.969334\Bq,0,-4.8188410451,1
 .8988798263,0.969334\Bq,0,-4.9427054324,1.8568335325,0.969334\Bq,0,-5.
 060022,1.7989794038,0.969334\Bq,0,-5.168783429,1.7263073403,0.969334\B
 q,0,-5.2671287812,1.6400607812,0.969334\Bq,0,-5.3533753403,1.541715429
 ,0.969334\Bq,0,-5.4260474038,1.432954,0.969334\Bq,0,-5.4839015325,1.31
 56374324,0.969334\Bq,0,-5.5259478263,1.1917730451,0.969334\Bq,0,-5.551
 4668614,1.0634801922,0.969334\Bq,0,-5.560022,0.932954,0.969334\Bq,0,-5
 .5514668614,0.8024278078,0.969334\Bq,0,-5.5259478263,0.6741349549,0.96
 9334\Bq,0,-5.4839015325,0.5502705676,0.969334\Bq,0,-5.4260474038,0.432
 954,0.969334\Bq,0,-5.3533753403,0.324192571,0.969334\Bq,0,-5.267128781
 2,0.2258472188,0.969334\Bq,0,-5.168783429,0.1396006597,0.969334\Bq,0,-
 5.060022,0.0669285962,0.969334\Bq,0,-4.9427054324,0.0090744675,0.96933
 4\Bq,0,-4.8188410451,-0.0329718263,0.969334\Bq,0,-4.560022,1.924398861
 4,0.8388078078\Bq,0,-4.6894315226,1.9159169131,0.8388078078\Bq,0,-4.81
 66268123,1.8906161969,0.8388078078\Bq,0,-4.9394315226,1.848929615,0.83
 88078078\Bq,0,-5.0557444307,1.7915704364,0.8388078078\Bq,0,-5.16357539
 06,1.7195200925,0.8388078078\Bq,0,-5.2610793846,1.6340113846,0.8388078
 078\Bq,0,-5.3465880925,1.5365073906,0.8388078078\Bq,0,-5.4186384364,1.
 4286764307,0.8388078078\Bq,0,-5.475997615,1.3123635226,0.8388078078\Bq
 ,0,-5.5176841969,1.1895588123,0.8388078078\Bq,0,-5.5429849131,1.062363
 5226,0.8388078078\Bq,0,-5.5514668614,0.932954,0.8388078078\Bq,0,-5.542
 9849131,0.8035444774,0.8388078078\Bq,0,-5.5176841969,0.6763491877,0.83
 88078078\Bq,0,-5.475997615,0.5535444774,0.8388078078\Bq,0,-5.418638436
 4,0.4372315693,0.8388078078\Bq,0,-5.3465880925,0.3294006094,0.83880780
 78\Bq,0,-5.2610793846,0.2318966154,0.8388078078\Bq,0,-5.1635753906,0.1
 463879075,0.8388078078\Bq,0,-5.0557444307,0.0743375636,0.8388078078\Bq
 ,0,-4.9394315226,0.016978385,0.8388078078\Bq,0,-4.8166268123,-0.024708
 1969,0.8388078078\Bq,0,-4.560022,1.8988798263,0.7105149549\Bq,0,-4.686
 1006201,1.8906161969,0.7105149549\Bq,0,-4.810022,1.8659667019,0.710514
 9549\Bq,0,-4.9296658106,1.8253531008,0.7105149549\Bq,0,-5.0429849131,1
 .7694703037,0.7105149549\Bq,0,-5.1480403863,1.6992744808,0.7105149549\
 Bq,0,-5.2430347019,1.6159667019,0.7105149549\Bq,0,-5.3263424808,1.5209
 723863,0.7105149549\Bq,0,-5.3965383037,1.4159169131,0.7105149549\Bq,0,
 -5.4524211008,1.3025978106,0.7105149549\Bq,0,-5.4930347019,1.182954,0.
 7105149549\Bq,0,-5.5176841969,1.0590326201,0.7105149549\Bq,0,-5.525947
 8263,0.932954,0.7105149549\Bq,0,-5.5176841969,0.8068753799,0.710514954
 9\Bq,0,-5.4930347019,0.682954,0.7105149549\Bq,0,-5.4524211008,0.563310
 1894,0.7105149549\Bq,0,-5.3965383037,0.4499910869,0.7105149549\Bq,0,-5
 .3263424808,0.3449356137,0.7105149549\Bq,0,-5.2430347019,0.2499412981,
 0.7105149549\Bq,0,-5.1480403863,0.1666335192,0.7105149549\Bq,0,-5.0429
 849131,0.0964376963,0.7105149549\Bq,0,-4.9296658106,0.0405548992,0.710
 5149549\Bq,0,-4.560022,1.8568335325,0.5866505676\Bq,0,-4.6806124774,1.
 848929615,0.5866505676\Bq,0,-4.7991396184,1.8253531008,0.5866505676\Bq
 ,0,-4.9135753906,1.7865073906,0.5866505676\Bq,0,-5.0219617663,1.733057
 1452,0.5866505676\Bq,0,-5.1224442244,1.6659169131,0.5866505676\Bq,0,-5
 .2133034824,1.5862354824,0.5866505676\Bq,0,-5.2929849131,1.4953762244,
 0.5866505676\Bq,0,-5.3601251452,1.3948937663,0.5866505676\Bq,0,-5.4135
 753906,1.2865073906,0.5866505676\Bq,0,-5.4524211008,1.1720716184,0.586
 6505676\Bq,0,-5.475997615,1.0535444774,0.5866505676\Bq,0,-5.4839015325
 ,0.932954,0.5866505676\Bq,0,-5.475997615,0.8123635226,0.5866505676\Bq,
 0,-5.4524211008,0.6938363816,0.5866505676\Bq,0,-5.4135753906,0.5794006
 094,0.5866505676\Bq,0,-5.3601251452,0.4710142337,0.5866505676\Bq,0,-5.
 2929849131,0.3705317756,0.5866505676\Bq,0,-5.2133034824,0.2796725176,0
 .5866505676\Bq,0,-5.1224442244,0.1999910869,0.5866505676\Bq,0,-5.02196
 17663,0.1328508548,0.5866505676\Bq,0,-4.9135753906,0.0794006094,0.5866
 505676\Bq,0,-4.4469830017,1.7915704364,0.469334\Bq,0,-4.560022,1.79897
 94038,0.469334\Bq,0,-4.6730609983,1.7915704364,0.469334\Bq,0,-4.784165
 868,1.7694703037,0.469334\Bq,0,-4.891435574,1.7330571452,0.469334\Bq,0
 ,-4.9930347019,1.682954,0.469334\Bq,0,-5.0872248624,1.6200181469,0.469
 334\Bq,0,-5.1723944357,1.5453264357,0.469334\Bq,0,-5.2470861469,1.4601
 568624,0.469334\Bq,0,-5.310022,1.3659667019,0.469334\Bq,0,-5.360125145
 2,1.264367574,0.469334\Bq,0,-5.3965383037,1.157097868,0.469334\Bq,0,-5
 .4186384364,1.0459929983,0.469334\Bq,0,-5.4260474038,0.932954,0.469334
 \Bq,0,-5.4186384364,0.8199150017,0.469334\Bq,0,-5.3965383037,0.7088101
 32,0.469334\Bq,0,-5.3601251452,0.601540426,0.469334\Bq,0,-5.310022,0.4
 999412981,0.469334\Bq,0,-5.2470861469,0.4057511376,0.469334\Bq,0,-5.17
 23944357,0.3205815643,0.469334\Bq,0,-5.0872248624,0.2458898531,0.46933
 4\Bq,0,-4.9930347019,0.182954,0.469334\Bq,0,-4.891435574,0.1328508548,
 0.469334\Bq,0,-4.4564686094,1.7195200925,0.360572571\Bq,0,-4.560022,1.
 7263073403,0.360572571\Bq,0,-4.6635753906,1.7195200925,0.360572571\\Ve
 rsion=ES64L-G09RevD.01\HF=-847.0037387\RMSD=4.161e-09\Dipole=0.0000004
 ,0.0287843,0.0000009\Quadrupole=4.8545288,4.8066247,-9.6611535,-0.0000
 047,-3.6219991,-0.000002\PG=C01 [X(C22H14)]\\@


      THE ONE-EYED VIEW OF OUR UNIVERSE SAYS YOU MUST NOT LOOK
      FAR AFIELD FOR PROBLEMS.  SUCH PROBLEMS MAY NEVER ARRIVE. 
      INSTEAD, TEND TO THE WOLF WITHIN YOUR FENCES.
      THE PACKS RANGING OUTSIDE MAY NOT EVEN EXIST.

                              -- THE AZHAR BOOK SHAMRA I:4
                                 CHILDREN OF DUNE, BY FRANK HERBERT
 Job cpu time:       0 days  1 hours 16 minutes 30.3 seconds.
 File lengths (MBytes):  RWF=    184 Int=      0 D2E=      0 Chk=     21 Scr=      1
 Normal termination of Gaussian 09 at Tue Sep 15 12:47:01 2020.
