 Entering Gaussian System, Link 0=g09
 Input=input_batch_24600.com
 Output=input_batch_24600.log
 Initial command:
 /share/programs/GAUSSIAN/64/g09/l1.exe "/scratch/aartigas.39162/Gau-3683221.inp" -scrdir="/scratch/aartigas.39162/"
 Entering Link 1 = /share/programs/GAUSSIAN/64/g09/l1.exe PID=   3683222.
  
 Copyright (c) 1988,1990,1992,1993,1995,1998,2003,2009,2013,
            Gaussian, Inc.  All Rights Reserved.
  
 This is part of the Gaussian(R) 09 program.  It is based on
 the Gaussian(R) 03 system (copyright 2003, Gaussian, Inc.),
 the Gaussian(R) 98 system (copyright 1998, Gaussian, Inc.),
 the Gaussian(R) 94 system (copyright 1995, Gaussian, Inc.),
 the Gaussian 92(TM) system (copyright 1992, Gaussian, Inc.),
 the Gaussian 90(TM) system (copyright 1990, Gaussian, Inc.),
 the Gaussian 88(TM) system (copyright 1988, Gaussian, Inc.),
 the Gaussian 86(TM) system (copyright 1986, Carnegie Mellon
 University), and the Gaussian 82(TM) system (copyright 1983,
 Carnegie Mellon University). Gaussian is a federally registered
 trademark of Gaussian, Inc.
  
 This software contains proprietary and confidential information,
 including trade secrets, belonging to Gaussian, Inc.
  
 This software is provided under written license and may be
 used, copied, transmitted, or stored only in accord with that
 written license.
  
 The following legend is applicable only to US Government
 contracts under FAR:
  
                    RESTRICTED RIGHTS LEGEND
  
 Use, reproduction and disclosure by the US Government is
 subject to restrictions as set forth in subparagraphs (a)
 and (c) of the Commercial Computer Software - Restricted
 Rights clause in FAR 52.227-19.
  
 Gaussian, Inc.
 340 Quinnipiac St., Bldg. 40, Wallingford CT 06492
  
  
 ---------------------------------------------------------------
 Warning -- This program may not be used in any manner that
 competes with the business of Gaussian, Inc. or will provide
 assistance to any competitor of Gaussian, Inc.  The licensee
 of this program is prohibited from giving any competitor of
 Gaussian, Inc. access to this program.  By using this program,
 the user acknowledges that Gaussian, Inc. is engaged in the
 business of creating and licensing software in the field of
 computational chemistry and represents and warrants to the
 licensee that it is not a competitor of Gaussian, Inc. and that
 it will not use this program in any manner prohibited above.
 ---------------------------------------------------------------
  

 Cite this work as:
 Gaussian 09, Revision D.01,
 M. J. Frisch, G. W. Trucks, H. B. Schlegel, G. E. Scuseria, 
 M. A. Robb, J. R. Cheeseman, G. Scalmani, V. Barone, B. Mennucci, 
 G. A. Petersson, H. Nakatsuji, M. Caricato, X. Li, H. P. Hratchian, 
 A. F. Izmaylov, J. Bloino, G. Zheng, J. L. Sonnenberg, M. Hada, 
 M. Ehara, K. Toyota, R. Fukuda, J. Hasegawa, M. Ishida, T. Nakajima, 
 Y. Honda, O. Kitao, H. Nakai, T. Vreven, J. A. Montgomery, Jr., 
 J. E. Peralta, F. Ogliaro, M. Bearpark, J. J. Heyd, E. Brothers, 
 K. N. Kudin, V. N. Staroverov, T. Keith, R. Kobayashi, J. Normand, 
 K. Raghavachari, A. Rendell, J. C. Burant, S. S. Iyengar, J. Tomasi, 
 M. Cossi, N. Rega, J. M. Millam, M. Klene, J. E. Knox, J. B. Cross, 
 V. Bakken, C. Adamo, J. Jaramillo, R. Gomperts, R. E. Stratmann, 
 O. Yazyev, A. J. Austin, R. Cammi, C. Pomelli, J. W. Ochterski, 
 R. L. Martin, K. Morokuma, V. G. Zakrzewski, G. A. Voth, 
 P. Salvador, J. J. Dannenberg, S. Dapprich, A. D. Daniels, 
 O. Farkas, J. B. Foresman, J. V. Ortiz, J. Cioslowski, 
 and D. J. Fox, Gaussian, Inc., Wallingford CT, 2013.
 
 ******************************************
 Gaussian 09:  ES64L-G09RevD.01 24-Apr-2013
                15-Sep-2020 
 ******************************************
 %OldChk=/home/aartigas/chk/5_helicene_spe.chk
 %nproc=8
 Will use up to    8 processors via shared memory.
 %mem=1000MB
 Copying data from "/home/aartigas/chk/5_helicene_spe.chk" to current chk file "/scratch/aartigas.39162/Gau-3683222.chk".
 ----------------------------------------------------
 #P rb3lyp/6-311+g** NMR Guess=Read geom=connectivity
 ----------------------------------------------------
 1/38=1,57=2/1;
 2/12=2,17=6,18=5,40=1/2;
 3/5=4,6=6,7=111,11=2,16=1,25=1,30=1,74=-5,116=1/1,2,8,3;
 4/5=1/1;
 5/5=2,38=6/2;
 8/6=1,10=90,11=11/1;
 10/13=100,45=16/2;
 6/7=2,8=2,9=2,10=2,28=1/1;
 99/9=1/99;
 Leave Link    1 at Tue Sep 15 13:36:28 2020, MaxMem=   131072000 cpu:         0.5
 (Enter /share/programs/GAUSSIAN/64/g09/l101.exe)
 -----
 Title
 -----
 Symbolic Z-matrix:
 Charge =  0 Multiplicity = 1
 C                     0.65324   3.25786  -0.20251 
 C                    -0.65324   3.25786   0.20251 
 C                     1.3725    2.03296  -0.32081 
 C                    -1.3725    2.03296   0.32081 
 C                     0.72247   0.79567  -0.05039 
 C                    -0.72247   0.79567   0.05039 
 C                     2.76039   2.05393  -0.67427 
 C                     3.50887   0.91392  -0.67136 
 C                     2.95523  -0.30962  -0.17748 
 C                     1.57472  -0.36111   0.19709 
 H                     1.18343   4.19574  -0.3846 
 H                    -1.18343   4.19574   0.3846 
 H                     3.20628   3.01242  -0.95139 
 H                     4.56002   0.93296  -0.96933 
 C                     3.78302  -1.4431    0.02831 
 C                     1.13743  -1.50753   0.91211 
 C                     1.97369  -2.58435   1.13806 
 C                     3.30185  -2.57159   0.66118 
 H                     4.82575  -1.39123  -0.29548 
 H                     0.12465  -1.53279   1.30847 
 H                     1.60359  -3.44568   1.69898 
 H                     3.95274  -3.43353   0.82513 
 C                    -3.50887   0.91392   0.67136 
 C                    -2.76039   2.05393   0.67427 
 C                    -2.95523  -0.30962   0.17748 
 C                    -1.57472  -0.36111  -0.19709 
 C                    -3.78302  -1.4431   -0.02831 
 C                    -3.30185  -2.57159  -0.66118 
 C                    -1.97369  -2.58435  -1.13806 
 C                    -1.13743  -1.50753  -0.91211 
 H                    -4.56002   0.93295   0.96933 
 H                    -3.20628   3.01242   0.95139 
 H                    -4.82575  -1.39123   0.29548 
 H                    -3.95274  -3.43353  -0.82513 
 H                    -1.60359  -3.44568  -1.69898 
 H                    -0.12465  -1.53279  -1.30847 
 Bq                    4.38852  -0.45076   0.44896 
 Bq                    4.40954  -0.38883   0.44896 
 Bq                    4.4223   -0.32468   0.44896 
 Bq                    4.53534  -0.25942   0.37628 
 Bq                    4.53013  -0.17996   0.37628 
 Bq                    4.5146   -0.10186   0.37628 
 Bq                    4.489    -0.02645   0.37628 
 Bq                    4.45378   0.04497   0.37628 
 Bq                    4.40954   0.11117   0.37628 
 Bq                    4.35704   0.17104   0.37628 
 Bq                    4.29717   0.22355   0.37628 
 Bq                    4.23096   0.26779   0.37628 
 Bq                    4.15954   0.30301   0.37628 
 Bq                    4.08414   0.3286    0.37628 
 Bq                    4.00604   0.34414   0.37628 
 Bq                    3.92658   0.34935   0.37628 
 Bq                    3.84712   0.34414   0.37628 
 Bq                    3.76902   0.3286    0.37628 
 Bq                    3.69361   0.30301   0.37628 
 Bq                    3.6222    0.26779   0.37628 
 Bq                    4.35704  -0.68987   0.37628 
 Bq                    4.40954  -0.63001   0.37628 
 Bq                    4.45378  -0.5638    0.37628 
 Bq                    4.489    -0.49238   0.37628 
 Bq                    4.5146   -0.41697   0.37628 
 Bq                    4.53013  -0.33887   0.37628 
 Bq                    4.63368  -0.25942   0.29004 
 Bq                    4.62764  -0.16712   0.29004 
 Bq                    4.60959  -0.0764    0.29004 
 Bq                    4.57986   0.01118   0.29004 
 Bq                    4.53895   0.09414   0.29004 
 Bq                    4.48756   0.17104   0.29004 
 Bq                    4.42658   0.24058   0.29004 
 Bq                    4.35704   0.30157   0.29004 
 Bq                    4.28013   0.35296   0.29004 
 Bq                    4.19718   0.39387   0.29004 
 Bq                    4.10959   0.4236    0.29004 
 Bq                    4.01887   0.44164   0.29004 
 Bq                    3.92658   0.44769   0.29004 
 Bq                    3.83428   0.44164   0.29004 
 Bq                    3.74357   0.4236    0.29004 
 Bq                    3.65598   0.39387   0.29004 
 Bq                    3.57302   0.35296   0.29004 
 Bq                    4.53895  -0.61297   0.29004 
 Bq                    4.57986  -0.53001   0.29004 
 Bq                    4.60959  -0.44243   0.29004 
 Bq                    4.62764  -0.35171   0.29004 
 Bq                    4.71993  -0.25942   0.19169 
 Bq                    4.71314  -0.15586   0.19169 
 Bq                    4.6929   -0.05408   0.19169 
 Bq                    4.65954   0.04419   0.19169 
 Bq                    4.61364   0.13726   0.19169 
 Bq                    4.55599   0.22355   0.19169 
 Bq                    4.48756   0.30157   0.19169 
 Bq                    4.40954   0.36999   0.19169 
 Bq                    4.32325   0.42765   0.19169 
 Bq                    4.23018   0.47355   0.19169 
 Bq                    4.13191   0.5069    0.19169 
 Bq                    4.03013   0.52715   0.19169 
 Bq                    3.92658   0.53394   0.19169 
 Bq                    4.6929   -0.46475   0.19169 
 Bq                    4.71314  -0.36297   0.19169 
 Bq                    4.7926   -0.25942   0.08293 
 Bq                    4.78519  -0.14638   0.08293 
 Bq                    4.76309  -0.03527   0.08293 
 Bq                    4.72668   0.072     0.08293 
 Bq                    4.67658   0.1736    0.08293 
 Bq                    4.61364   0.26779   0.08293 
 Bq                    4.53895   0.35296   0.08293 
 Bq                    4.45378   0.42765   0.08293 
 Bq                    4.35959   0.49058   0.08293 
 Bq                    4.25799   0.54069   0.08293 
 Bq                    4.15072   0.5771    0.08293 
 Bq                    4.78519  -0.37245   0.08293 
 Bq                    4.85046  -0.25942  -0.03439 
 Bq                    4.84255  -0.13883  -0.03439 
 Bq                    4.81898  -0.0203   -0.03439 
 Bq                    4.78013   0.09414  -0.03439 
 Bq                    4.72668   0.20252  -0.03439 
 Bq                    4.65954   0.30301  -0.03439 
 Bq                    4.57986   0.39387  -0.03439 
 Bq                    4.489     0.47355  -0.03439 
 Bq                    4.38852   0.54069  -0.03439 
 Bq                    4.28013   0.59414  -0.03439 
 Bq                    4.84255  -0.38001  -0.03439 
 Bq                    4.8925   -0.25942  -0.15825 
 Bq                    4.88424  -0.13334  -0.15825 
 Bq                    4.85959  -0.00942  -0.15825 
 Bq                    4.81898   0.11023  -0.15825 
 Bq                    4.76309   0.22355  -0.15825 
 Bq                    4.6929    0.3286   -0.15825 
 Bq                    4.88424  -0.38549  -0.15825 
 Bq                    4.91802  -0.25942  -0.28654 
 Bq                    4.90954  -0.13001  -0.28654 
 Bq                    4.88424  -0.00281  -0.28654 
 Bq                    4.84255   0.11999  -0.28654 
 Bq                    4.78519   0.23631  -0.28654 
 Bq                    4.90954  -0.38883  -0.28654 
 Bq                    4.92658  -0.25942  -0.41707 
 Bq                    4.91802  -0.12889  -0.41707 
 Bq                    4.8925   -0.0006   -0.41707 
 Bq                    4.85046   0.12327  -0.41707 
 Bq                    4.91802  -0.38994  -0.41707 
 Bq                    4.91802  -0.25942  -0.5476 
 Bq                    4.90954  -0.13001  -0.5476 
 Bq                    4.88424  -0.00281  -0.5476 
 Bq                    4.90954  -0.38883  -0.5476 
 Bq                    4.8925   -0.25942  -0.67589 
 Bq                    4.88424  -0.13334  -0.67589 
 Bq                    4.85959  -0.00942  -0.67589 
 Bq                    4.88424  -0.38549  -0.67589 
 Bq                    4.85046  -0.25942  -0.79975 
 Bq                    4.84255  -0.13883  -0.79975 
 Bq                    4.81898  -0.0203   -0.79975 
 Bq                    3.36416  -0.99238  -0.79975 
 Bq                    4.81898  -0.49853  -0.79975 
 Bq                    4.84255  -0.38001  -0.79975 
 Bq                    4.7926   -0.25942  -0.91707 
 Bq                    4.78519  -0.14638  -0.91707 
 Bq                    3.39937  -0.94648  -0.91707 
 Bq                    3.49357  -1.00942  -0.91707 
 Bq                    3.59516  -1.05952  -0.91707 
 Bq                    3.70243  -1.09593  -0.91707 
 Bq                    3.81354  -1.11803  -0.91707 
 Bq                    3.92658  -1.12544  -0.91707 
 Bq                    4.03962  -1.11803  -0.91707 
 Bq                    4.72668  -0.59083  -0.91707 
 Bq                    4.76309  -0.48356  -0.91707 
 Bq                    4.78519  -0.37245  -0.91707 
 Bq                    4.71993  -0.25942  -1.02583 
 Bq                    4.71314  -0.15586  -1.02583 
 Bq                    3.29717  -0.74238  -1.02583 
 Bq                    3.36559  -0.8204   -1.02583 
 Bq                    3.44361  -0.88883  -1.02583 
 Bq                    3.5299   -0.94648  -1.02583 
 Bq                    3.62297  -0.99238  -1.02583 
 Bq                    3.72124  -1.02574  -1.02583 
 Bq                    3.82302  -1.04598  -1.02583 
 Bq                    3.92658  -1.05277  -1.02583 
 Bq                    4.03013  -1.04598  -1.02583 
 Bq                    4.13191  -1.02574  -1.02583 
 Bq                    4.23018  -0.99238  -1.02583 
 Bq                    4.55599  -0.74238  -1.02583 
 Bq                    4.61364  -0.65609  -1.02583 
 Bq                    4.65954  -0.56302  -1.02583 
 Bq                    4.6929   -0.46475  -1.02583 
 Bq                    4.71314  -0.36297  -1.02583 
 Bq                    4.63368  -0.25942  -1.12418 
 Bq                    4.62764  -0.16712  -1.12418 
 Bq                    4.60959  -0.0764   -1.12418 
 Bq                    3.2733    0.01118  -1.12418 
 Bq                    3.24357  -0.0764   -1.12418 
 Bq                    3.2733   -0.53001  -1.12418 
 Bq                    3.31421  -0.61297  -1.12418 
 Bq                    3.36559  -0.68987  -1.12418 
 Bq                    3.42658  -0.75942  -1.12418 
 Bq                    3.49612  -0.8204   -1.12418 
 Bq                    3.57302  -0.87179  -1.12418 
 Bq                    3.65598  -0.9127   -1.12418 
 Bq                    3.74357  -0.94243  -1.12418 
 Bq                    3.83428  -0.96047  -1.12418 
 Bq                    3.92658  -0.96652  -1.12418 
 Bq                    4.01887  -0.96047  -1.12418 
 Bq                    4.10959  -0.94243  -1.12418 
 Bq                    4.19718  -0.9127   -1.12418 
 Bq                    4.28013  -0.87179  -1.12418 
 Bq                    4.35704  -0.8204   -1.12418 
 Bq                    4.42658  -0.75942  -1.12418 
 Bq                    4.48756  -0.68987  -1.12418 
 Bq                    4.53895  -0.61297  -1.12418 
 Bq                    4.57986  -0.53001  -1.12418 
 Bq                    4.60959  -0.44243  -1.12418 
 Bq                    4.62764  -0.35171  -1.12418 
 Bq                    4.53534  -0.25942  -1.21042 
 Bq                    4.53013  -0.17996  -1.21042 
 Bq                    4.5146   -0.10186  -1.21042 
 Bq                    3.39937   0.04497  -1.21042 
 Bq                    3.36416  -0.02645  -1.21042 
 Bq                    3.33856  -0.10186  -1.21042 
 Bq                    3.32302  -0.17996  -1.21042 
 Bq                    3.31782  -0.25942  -1.21042 
 Bq                    3.32302  -0.33887  -1.21042 
 Bq                    3.33856  -0.41697  -1.21042 
 Bq                    3.36416  -0.49238  -1.21042 
 Bq                    3.39937  -0.5638   -1.21042 
 Bq                    3.44361  -0.63001  -1.21042 
 Bq                    3.49612  -0.68987  -1.21042 
 Bq                    3.55599  -0.74238  -1.21042 
 Bq                    3.6222   -0.78662  -1.21042 
 Bq                    3.69361  -0.82184  -1.21042 
 Bq                    3.76902  -0.84743  -1.21042 
 Bq                    3.84712  -0.86297  -1.21042 
 Bq                    3.92658  -0.86818  -1.21042 
 Bq                    4.00604  -0.86297  -1.21042 
 Bq                    4.08414  -0.84743  -1.21042 
 Bq                    4.15954  -0.82184  -1.21042 
 Bq                    4.23096  -0.78662  -1.21042 
 Bq                    4.29717  -0.74238  -1.21042 
 Bq                    4.35704  -0.68987  -1.21042 
 Bq                    4.40954  -0.63001  -1.21042 
 
 NAtoms=    236 NQM=      236 NQMF=       0 NMMI=      0 NMMIF=      0
                NMic=       0 NMicF=      0.
                    Isotopes and Nuclear Properties:
 (Nuclear quadrupole moments (NQMom) in fm**2, nuclear magnetic moments (NMagM)
  in nuclear magnetons)

  Atom         1           2           3           4           5           6           7           8           9          10
 IAtWgt=          12          12          12          12          12          12          12          12          12          12
 AtmWgt=  12.0000000  12.0000000  12.0000000  12.0000000  12.0000000  12.0000000  12.0000000  12.0000000  12.0000000  12.0000000
 NucSpn=           0           0           0           0           0           0           0           0           0           0
 AtZEff=   0.0000000   0.0000000   0.0000000   0.0000000   0.0000000   0.0000000   0.0000000   0.0000000   0.0000000   0.0000000
 NQMom=    0.0000000   0.0000000   0.0000000   0.0000000   0.0000000   0.0000000   0.0000000   0.0000000   0.0000000   0.0000000
 NMagM=    0.0000000   0.0000000   0.0000000   0.0000000   0.0000000   0.0000000   0.0000000   0.0000000   0.0000000   0.0000000
 AtZNuc=   6.0000000   6.0000000   6.0000000   6.0000000   6.0000000   6.0000000   6.0000000   6.0000000   6.0000000   6.0000000

  Atom        11          12          13          14          15          16          17          18          19          20
 IAtWgt=           1           1           1           1          12          12          12          12           1           1
 AtmWgt=   1.0078250   1.0078250   1.0078250   1.0078250  12.0000000  12.0000000  12.0000000  12.0000000   1.0078250   1.0078250
 NucSpn=           1           1           1           1           0           0           0           0           1           1
 AtZEff=   0.0000000   0.0000000   0.0000000   0.0000000   0.0000000   0.0000000   0.0000000   0.0000000   0.0000000   0.0000000
 NQMom=    0.0000000   0.0000000   0.0000000   0.0000000   0.0000000   0.0000000   0.0000000   0.0000000   0.0000000   0.0000000
 NMagM=    2.7928460   2.7928460   2.7928460   2.7928460   0.0000000   0.0000000   0.0000000   0.0000000   2.7928460   2.7928460
 AtZNuc=   1.0000000   1.0000000   1.0000000   1.0000000   6.0000000   6.0000000   6.0000000   6.0000000   1.0000000   1.0000000

  Atom        21          22          23          24          25          26          27          28          29          30
 IAtWgt=           1           1          12          12          12          12          12          12          12          12
 AtmWgt=   1.0078250   1.0078250  12.0000000  12.0000000  12.0000000  12.0000000  12.0000000  12.0000000  12.0000000  12.0000000
 NucSpn=           1           1           0           0           0           0           0           0           0           0
 AtZEff=   0.0000000   0.0000000   0.0000000   0.0000000   0.0000000   0.0000000   0.0000000   0.0000000   0.0000000   0.0000000
 NQMom=    0.0000000   0.0000000   0.0000000   0.0000000   0.0000000   0.0000000   0.0000000   0.0000000   0.0000000   0.0000000
 NMagM=    2.7928460   2.7928460   0.0000000   0.0000000   0.0000000   0.0000000   0.0000000   0.0000000   0.0000000   0.0000000
 AtZNuc=   1.0000000   1.0000000   6.0000000   6.0000000   6.0000000   6.0000000   6.0000000   6.0000000   6.0000000   6.0000000

  Atom        31          32          33          34          35          36          37          38          39          40
 IAtWgt=           1           1           1           1           1           1           0           0           0           0
 AtmWgt=   1.0078250   1.0078250   1.0078250   1.0078250   1.0078250   1.0078250   0.0000000   0.0000000   0.0000000   0.0000000
 NucSpn=           1           1           1           1           1           1           0           0           0           0
 AtZEff=   0.0000000   0.0000000   0.0000000   0.0000000   0.0000000   0.0000000   0.0000000   0.0000000   0.0000000   0.0000000
 NQMom=    0.0000000   0.0000000   0.0000000   0.0000000   0.0000000   0.0000000   0.0000000   0.0000000   0.0000000   0.0000000
 NMagM=    2.7928460   2.7928460   2.7928460   2.7928460   2.7928460   2.7928460   0.0000000   0.0000000   0.0000000   0.0000000
 AtZNuc=   1.0000000   1.0000000   1.0000000   1.0000000   1.0000000   1.0000000   0.0000000   0.0000000   0.0000000   0.0000000

  Atom        41          42          43          44          45          46          47          48          49          50
 IAtWgt=           0           0           0           0           0           0           0           0           0           0
 AtmWgt=   0.0000000   0.0000000   0.0000000   0.0000000   0.0000000   0.0000000   0.0000000   0.0000000   0.0000000   0.0000000
 NucSpn=           0           0           0           0           0           0           0           0           0           0
 AtZEff=   0.0000000   0.0000000   0.0000000   0.0000000   0.0000000   0.0000000   0.0000000   0.0000000   0.0000000   0.0000000
 NQMom=    0.0000000   0.0000000   0.0000000   0.0000000   0.0000000   0.0000000   0.0000000   0.0000000   0.0000000   0.0000000
 NMagM=    0.0000000   0.0000000   0.0000000   0.0000000   0.0000000   0.0000000   0.0000000   0.0000000   0.0000000   0.0000000
 AtZNuc=   0.0000000   0.0000000   0.0000000   0.0000000   0.0000000   0.0000000   0.0000000   0.0000000   0.0000000   0.0000000

  Atom        51          52          53          54          55          56          57          58          59          60
 IAtWgt=           0           0           0           0           0           0           0           0           0           0
 AtmWgt=   0.0000000   0.0000000   0.0000000   0.0000000   0.0000000   0.0000000   0.0000000   0.0000000   0.0000000   0.0000000
 NucSpn=           0           0           0           0           0           0           0           0           0           0
 AtZEff=   0.0000000   0.0000000   0.0000000   0.0000000   0.0000000   0.0000000   0.0000000   0.0000000   0.0000000   0.0000000
 NQMom=    0.0000000   0.0000000   0.0000000   0.0000000   0.0000000   0.0000000   0.0000000   0.0000000   0.0000000   0.0000000
 NMagM=    0.0000000   0.0000000   0.0000000   0.0000000   0.0000000   0.0000000   0.0000000   0.0000000   0.0000000   0.0000000
 AtZNuc=   0.0000000   0.0000000   0.0000000   0.0000000   0.0000000   0.0000000   0.0000000   0.0000000   0.0000000   0.0000000

  Atom        61          62          63          64          65          66          67          68          69          70
 IAtWgt=           0           0           0           0           0           0           0           0           0           0
 AtmWgt=   0.0000000   0.0000000   0.0000000   0.0000000   0.0000000   0.0000000   0.0000000   0.0000000   0.0000000   0.0000000
 NucSpn=           0           0           0           0           0           0           0           0           0           0
 AtZEff=   0.0000000   0.0000000   0.0000000   0.0000000   0.0000000   0.0000000   0.0000000   0.0000000   0.0000000   0.0000000
 NQMom=    0.0000000   0.0000000   0.0000000   0.0000000   0.0000000   0.0000000   0.0000000   0.0000000   0.0000000   0.0000000
 NMagM=    0.0000000   0.0000000   0.0000000   0.0000000   0.0000000   0.0000000   0.0000000   0.0000000   0.0000000   0.0000000
 AtZNuc=   0.0000000   0.0000000   0.0000000   0.0000000   0.0000000   0.0000000   0.0000000   0.0000000   0.0000000   0.0000000

  Atom        71          72          73          74          75          76          77          78          79          80
 IAtWgt=           0           0           0           0           0           0           0           0           0           0
 AtmWgt=   0.0000000   0.0000000   0.0000000   0.0000000   0.0000000   0.0000000   0.0000000   0.0000000   0.0000000   0.0000000
 NucSpn=           0           0           0           0           0           0           0           0           0           0
 AtZEff=   0.0000000   0.0000000   0.0000000   0.0000000   0.0000000   0.0000000   0.0000000   0.0000000   0.0000000   0.0000000
 NQMom=    0.0000000   0.0000000   0.0000000   0.0000000   0.0000000   0.0000000   0.0000000   0.0000000   0.0000000   0.0000000
 NMagM=    0.0000000   0.0000000   0.0000000   0.0000000   0.0000000   0.0000000   0.0000000   0.0000000   0.0000000   0.0000000
 AtZNuc=   0.0000000   0.0000000   0.0000000   0.0000000   0.0000000   0.0000000   0.0000000   0.0000000   0.0000000   0.0000000

  Atom        81          82          83          84          85          86          87          88          89          90
 IAtWgt=           0           0           0           0           0           0           0           0           0           0
 AtmWgt=   0.0000000   0.0000000   0.0000000   0.0000000   0.0000000   0.0000000   0.0000000   0.0000000   0.0000000   0.0000000
 NucSpn=           0           0           0           0           0           0           0           0           0           0
 AtZEff=   0.0000000   0.0000000   0.0000000   0.0000000   0.0000000   0.0000000   0.0000000   0.0000000   0.0000000   0.0000000
 NQMom=    0.0000000   0.0000000   0.0000000   0.0000000   0.0000000   0.0000000   0.0000000   0.0000000   0.0000000   0.0000000
 NMagM=    0.0000000   0.0000000   0.0000000   0.0000000   0.0000000   0.0000000   0.0000000   0.0000000   0.0000000   0.0000000
 AtZNuc=   0.0000000   0.0000000   0.0000000   0.0000000   0.0000000   0.0000000   0.0000000   0.0000000   0.0000000   0.0000000

  Atom        91          92          93          94          95          96          97          98          99         100
 IAtWgt=           0           0           0           0           0           0           0           0           0           0
 AtmWgt=   0.0000000   0.0000000   0.0000000   0.0000000   0.0000000   0.0000000   0.0000000   0.0000000   0.0000000   0.0000000
 NucSpn=           0           0           0           0           0           0           0           0           0           0
 AtZEff=   0.0000000   0.0000000   0.0000000   0.0000000   0.0000000   0.0000000   0.0000000   0.0000000   0.0000000   0.0000000
 NQMom=    0.0000000   0.0000000   0.0000000   0.0000000   0.0000000   0.0000000   0.0000000   0.0000000   0.0000000   0.0000000
 NMagM=    0.0000000   0.0000000   0.0000000   0.0000000   0.0000000   0.0000000   0.0000000   0.0000000   0.0000000   0.0000000
 AtZNuc=   0.0000000   0.0000000   0.0000000   0.0000000   0.0000000   0.0000000   0.0000000   0.0000000   0.0000000   0.0000000

  Atom       101         102         103         104         105         106         107         108         109         110
 IAtWgt=           0           0           0           0           0           0           0           0           0           0
 AtmWgt=   0.0000000   0.0000000   0.0000000   0.0000000   0.0000000   0.0000000   0.0000000   0.0000000   0.0000000   0.0000000
 NucSpn=           0           0           0           0           0           0           0           0           0           0
 AtZEff=   0.0000000   0.0000000   0.0000000   0.0000000   0.0000000   0.0000000   0.0000000   0.0000000   0.0000000   0.0000000
 NQMom=    0.0000000   0.0000000   0.0000000   0.0000000   0.0000000   0.0000000   0.0000000   0.0000000   0.0000000   0.0000000
 NMagM=    0.0000000   0.0000000   0.0000000   0.0000000   0.0000000   0.0000000   0.0000000   0.0000000   0.0000000   0.0000000
 AtZNuc=   0.0000000   0.0000000   0.0000000   0.0000000   0.0000000   0.0000000   0.0000000   0.0000000   0.0000000   0.0000000

  Atom       111         112         113         114         115         116         117         118         119         120
 IAtWgt=           0           0           0           0           0           0           0           0           0           0
 AtmWgt=   0.0000000   0.0000000   0.0000000   0.0000000   0.0000000   0.0000000   0.0000000   0.0000000   0.0000000   0.0000000
 NucSpn=           0           0           0           0           0           0           0           0           0           0
 AtZEff=   0.0000000   0.0000000   0.0000000   0.0000000   0.0000000   0.0000000   0.0000000   0.0000000   0.0000000   0.0000000
 NQMom=    0.0000000   0.0000000   0.0000000   0.0000000   0.0000000   0.0000000   0.0000000   0.0000000   0.0000000   0.0000000
 NMagM=    0.0000000   0.0000000   0.0000000   0.0000000   0.0000000   0.0000000   0.0000000   0.0000000   0.0000000   0.0000000
 AtZNuc=   0.0000000   0.0000000   0.0000000   0.0000000   0.0000000   0.0000000   0.0000000   0.0000000   0.0000000   0.0000000

  Atom       121         122         123         124         125         126         127         128         129         130
 IAtWgt=           0           0           0           0           0           0           0           0           0           0
 AtmWgt=   0.0000000   0.0000000   0.0000000   0.0000000   0.0000000   0.0000000   0.0000000   0.0000000   0.0000000   0.0000000
 NucSpn=           0           0           0           0           0           0           0           0           0           0
 AtZEff=   0.0000000   0.0000000   0.0000000   0.0000000   0.0000000   0.0000000   0.0000000   0.0000000   0.0000000   0.0000000
 NQMom=    0.0000000   0.0000000   0.0000000   0.0000000   0.0000000   0.0000000   0.0000000   0.0000000   0.0000000   0.0000000
 NMagM=    0.0000000   0.0000000   0.0000000   0.0000000   0.0000000   0.0000000   0.0000000   0.0000000   0.0000000   0.0000000
 AtZNuc=   0.0000000   0.0000000   0.0000000   0.0000000   0.0000000   0.0000000   0.0000000   0.0000000   0.0000000   0.0000000

  Atom       131         132         133         134         135         136         137         138         139         140
 IAtWgt=           0           0           0           0           0           0           0           0           0           0
 AtmWgt=   0.0000000   0.0000000   0.0000000   0.0000000   0.0000000   0.0000000   0.0000000   0.0000000   0.0000000   0.0000000
 NucSpn=           0           0           0           0           0           0           0           0           0           0
 AtZEff=   0.0000000   0.0000000   0.0000000   0.0000000   0.0000000   0.0000000   0.0000000   0.0000000   0.0000000   0.0000000
 NQMom=    0.0000000   0.0000000   0.0000000   0.0000000   0.0000000   0.0000000   0.0000000   0.0000000   0.0000000   0.0000000
 NMagM=    0.0000000   0.0000000   0.0000000   0.0000000   0.0000000   0.0000000   0.0000000   0.0000000   0.0000000   0.0000000
 AtZNuc=   0.0000000   0.0000000   0.0000000   0.0000000   0.0000000   0.0000000   0.0000000   0.0000000   0.0000000   0.0000000

  Atom       141         142         143         144         145         146         147         148         149         150
 IAtWgt=           0           0           0           0           0           0           0           0           0           0
 AtmWgt=   0.0000000   0.0000000   0.0000000   0.0000000   0.0000000   0.0000000   0.0000000   0.0000000   0.0000000   0.0000000
 NucSpn=           0           0           0           0           0           0           0           0           0           0
 AtZEff=   0.0000000   0.0000000   0.0000000   0.0000000   0.0000000   0.0000000   0.0000000   0.0000000   0.0000000   0.0000000
 NQMom=    0.0000000   0.0000000   0.0000000   0.0000000   0.0000000   0.0000000   0.0000000   0.0000000   0.0000000   0.0000000
 NMagM=    0.0000000   0.0000000   0.0000000   0.0000000   0.0000000   0.0000000   0.0000000   0.0000000   0.0000000   0.0000000
 AtZNuc=   0.0000000   0.0000000   0.0000000   0.0000000   0.0000000   0.0000000   0.0000000   0.0000000   0.0000000   0.0000000

  Atom       151         152         153         154         155         156         157         158         159         160
 IAtWgt=           0           0           0           0           0           0           0           0           0           0
 AtmWgt=   0.0000000   0.0000000   0.0000000   0.0000000   0.0000000   0.0000000   0.0000000   0.0000000   0.0000000   0.0000000
 NucSpn=           0           0           0           0           0           0           0           0           0           0
 AtZEff=   0.0000000   0.0000000   0.0000000   0.0000000   0.0000000   0.0000000   0.0000000   0.0000000   0.0000000   0.0000000
 NQMom=    0.0000000   0.0000000   0.0000000   0.0000000   0.0000000   0.0000000   0.0000000   0.0000000   0.0000000   0.0000000
 NMagM=    0.0000000   0.0000000   0.0000000   0.0000000   0.0000000   0.0000000   0.0000000   0.0000000   0.0000000   0.0000000
 AtZNuc=   0.0000000   0.0000000   0.0000000   0.0000000   0.0000000   0.0000000   0.0000000   0.0000000   0.0000000   0.0000000

  Atom       161         162         163         164         165         166         167         168         169         170
 IAtWgt=           0           0           0           0           0           0           0           0           0           0
 AtmWgt=   0.0000000   0.0000000   0.0000000   0.0000000   0.0000000   0.0000000   0.0000000   0.0000000   0.0000000   0.0000000
 NucSpn=           0           0           0           0           0           0           0           0           0           0
 AtZEff=   0.0000000   0.0000000   0.0000000   0.0000000   0.0000000   0.0000000   0.0000000   0.0000000   0.0000000   0.0000000
 NQMom=    0.0000000   0.0000000   0.0000000   0.0000000   0.0000000   0.0000000   0.0000000   0.0000000   0.0000000   0.0000000
 NMagM=    0.0000000   0.0000000   0.0000000   0.0000000   0.0000000   0.0000000   0.0000000   0.0000000   0.0000000   0.0000000
 AtZNuc=   0.0000000   0.0000000   0.0000000   0.0000000   0.0000000   0.0000000   0.0000000   0.0000000   0.0000000   0.0000000

  Atom       171         172         173         174         175         176         177         178         179         180
 IAtWgt=           0           0           0           0           0           0           0           0           0           0
 AtmWgt=   0.0000000   0.0000000   0.0000000   0.0000000   0.0000000   0.0000000   0.0000000   0.0000000   0.0000000   0.0000000
 NucSpn=           0           0           0           0           0           0           0           0           0           0
 AtZEff=   0.0000000   0.0000000   0.0000000   0.0000000   0.0000000   0.0000000   0.0000000   0.0000000   0.0000000   0.0000000
 NQMom=    0.0000000   0.0000000   0.0000000   0.0000000   0.0000000   0.0000000   0.0000000   0.0000000   0.0000000   0.0000000
 NMagM=    0.0000000   0.0000000   0.0000000   0.0000000   0.0000000   0.0000000   0.0000000   0.0000000   0.0000000   0.0000000
 AtZNuc=   0.0000000   0.0000000   0.0000000   0.0000000   0.0000000   0.0000000   0.0000000   0.0000000   0.0000000   0.0000000

  Atom       181         182         183         184         185         186         187         188         189         190
 IAtWgt=           0           0           0           0           0           0           0           0           0           0
 AtmWgt=   0.0000000   0.0000000   0.0000000   0.0000000   0.0000000   0.0000000   0.0000000   0.0000000   0.0000000   0.0000000
 NucSpn=           0           0           0           0           0           0           0           0           0           0
 AtZEff=   0.0000000   0.0000000   0.0000000   0.0000000   0.0000000   0.0000000   0.0000000   0.0000000   0.0000000   0.0000000
 NQMom=    0.0000000   0.0000000   0.0000000   0.0000000   0.0000000   0.0000000   0.0000000   0.0000000   0.0000000   0.0000000
 NMagM=    0.0000000   0.0000000   0.0000000   0.0000000   0.0000000   0.0000000   0.0000000   0.0000000   0.0000000   0.0000000
 AtZNuc=   0.0000000   0.0000000   0.0000000   0.0000000   0.0000000   0.0000000   0.0000000   0.0000000   0.0000000   0.0000000

  Atom       191         192         193         194         195         196         197         198         199         200
 IAtWgt=           0           0           0           0           0           0           0           0           0           0
 AtmWgt=   0.0000000   0.0000000   0.0000000   0.0000000   0.0000000   0.0000000   0.0000000   0.0000000   0.0000000   0.0000000
 NucSpn=           0           0           0           0           0           0           0           0           0           0
 AtZEff=   0.0000000   0.0000000   0.0000000   0.0000000   0.0000000   0.0000000   0.0000000   0.0000000   0.0000000   0.0000000
 NQMom=    0.0000000   0.0000000   0.0000000   0.0000000   0.0000000   0.0000000   0.0000000   0.0000000   0.0000000   0.0000000
 NMagM=    0.0000000   0.0000000   0.0000000   0.0000000   0.0000000   0.0000000   0.0000000   0.0000000   0.0000000   0.0000000
 AtZNuc=   0.0000000   0.0000000   0.0000000   0.0000000   0.0000000   0.0000000   0.0000000   0.0000000   0.0000000   0.0000000

  Atom       201         202         203         204         205         206         207         208         209         210
 IAtWgt=           0           0           0           0           0           0           0           0           0           0
 AtmWgt=   0.0000000   0.0000000   0.0000000   0.0000000   0.0000000   0.0000000   0.0000000   0.0000000   0.0000000   0.0000000
 NucSpn=           0           0           0           0           0           0           0           0           0           0
 AtZEff=   0.0000000   0.0000000   0.0000000   0.0000000   0.0000000   0.0000000   0.0000000   0.0000000   0.0000000   0.0000000
 NQMom=    0.0000000   0.0000000   0.0000000   0.0000000   0.0000000   0.0000000   0.0000000   0.0000000   0.0000000   0.0000000
 NMagM=    0.0000000   0.0000000   0.0000000   0.0000000   0.0000000   0.0000000   0.0000000   0.0000000   0.0000000   0.0000000
 AtZNuc=   0.0000000   0.0000000   0.0000000   0.0000000   0.0000000   0.0000000   0.0000000   0.0000000   0.0000000   0.0000000

  Atom       211         212         213         214         215         216         217         218         219         220
 IAtWgt=           0           0           0           0           0           0           0           0           0           0
 AtmWgt=   0.0000000   0.0000000   0.0000000   0.0000000   0.0000000   0.0000000   0.0000000   0.0000000   0.0000000   0.0000000
 NucSpn=           0           0           0           0           0           0           0           0           0           0
 AtZEff=   0.0000000   0.0000000   0.0000000   0.0000000   0.0000000   0.0000000   0.0000000   0.0000000   0.0000000   0.0000000
 NQMom=    0.0000000   0.0000000   0.0000000   0.0000000   0.0000000   0.0000000   0.0000000   0.0000000   0.0000000   0.0000000
 NMagM=    0.0000000   0.0000000   0.0000000   0.0000000   0.0000000   0.0000000   0.0000000   0.0000000   0.0000000   0.0000000
 AtZNuc=   0.0000000   0.0000000   0.0000000   0.0000000   0.0000000   0.0000000   0.0000000   0.0000000   0.0000000   0.0000000

  Atom       221         222         223         224         225         226         227         228         229         230
 IAtWgt=           0           0           0           0           0           0           0           0           0           0
 AtmWgt=   0.0000000   0.0000000   0.0000000   0.0000000   0.0000000   0.0000000   0.0000000   0.0000000   0.0000000   0.0000000
 NucSpn=           0           0           0           0           0           0           0           0           0           0
 AtZEff=   0.0000000   0.0000000   0.0000000   0.0000000   0.0000000   0.0000000   0.0000000   0.0000000   0.0000000   0.0000000
 NQMom=    0.0000000   0.0000000   0.0000000   0.0000000   0.0000000   0.0000000   0.0000000   0.0000000   0.0000000   0.0000000
 NMagM=    0.0000000   0.0000000   0.0000000   0.0000000   0.0000000   0.0000000   0.0000000   0.0000000   0.0000000   0.0000000
 AtZNuc=   0.0000000   0.0000000   0.0000000   0.0000000   0.0000000   0.0000000   0.0000000   0.0000000   0.0000000   0.0000000

  Atom       231         232         233         234         235         236
 IAtWgt=           0           0           0           0           0           0
 AtmWgt=   0.0000000   0.0000000   0.0000000   0.0000000   0.0000000   0.0000000
 NucSpn=           0           0           0           0           0           0
 AtZEff=   0.0000000   0.0000000   0.0000000   0.0000000   0.0000000   0.0000000
 NQMom=    0.0000000   0.0000000   0.0000000   0.0000000   0.0000000   0.0000000
 NMagM=    0.0000000   0.0000000   0.0000000   0.0000000   0.0000000   0.0000000
 AtZNuc=   0.0000000   0.0000000   0.0000000   0.0000000   0.0000000   0.0000000
 Leave Link  101 at Tue Sep 15 13:36:29 2020, MaxMem=   131072000 cpu:         4.1
 (Enter /share/programs/GAUSSIAN/64/g09/l202.exe)
 Symmetry turned off:
 Cannot cope with ghost atoms or with translation vectors.
 Stoichiometry    C22H14
 Framework group  C1[X(C22H14)]
 NUMDOF-- NAT=    36 NAtoms=   236
 Deg. of freedom     0
 Full point group                 C1      NOp   1
                          Input orientation:                          
 ---------------------------------------------------------------------
 Center     Atomic      Atomic             Coordinates (Angstroms)
 Number     Number       Type             X           Y           Z
 ---------------------------------------------------------------------
      1          6           0        0.653241    3.257859   -0.202510
      2          6           0       -0.653243    3.257860    0.202510
      3          6           0        1.372495    2.032956   -0.320807
      4          6           0       -1.372495    2.032956    0.320807
      5          6           0        0.722474    0.795666   -0.050388
      6          6           0       -0.722474    0.795667    0.050387
      7          6           0        2.760385    2.053927   -0.674268
      8          6           0        3.508866    0.913916   -0.671362
      9          6           0        2.955226   -0.309622   -0.177479
     10          6           0        1.574722   -0.361114    0.197094
     11          1           0        1.183427    4.195740   -0.384599
     12          1           0       -1.183429    4.195740    0.384599
     13          1           0        3.206283    3.012423   -0.951392
     14          1           0        4.560023    0.932956   -0.969333
     15          6           0        3.783020   -1.443098    0.028309
     16          6           0        1.137427   -1.507533    0.912109
     17          6           0        1.973691   -2.584349    1.138062
     18          6           0        3.301853   -2.571588    0.661177
     19          1           0        4.825754   -1.391230   -0.295484
     20          1           0        0.124652   -1.532788    1.308472
     21          1           0        1.603586   -3.445682    1.698977
     22          1           0        3.952742   -3.433526    0.825134
     23          6           0       -3.508866    0.913915    0.671362
     24          6           0       -2.760386    2.053926    0.674268
     25          6           0       -2.955226   -0.309623    0.177479
     26          6           0       -1.574722   -0.361114   -0.197094
     27          6           0       -3.783020   -1.443099   -0.028309
     28          6           0       -3.301852   -2.571589   -0.661177
     29          6           0       -1.973690   -2.584349   -1.138061
     30          6           0       -1.137426   -1.507534   -0.912109
     31          1           0       -4.560022    0.932954    0.969334
     32          1           0       -3.206283    3.012421    0.951392
     33          1           0       -4.825754   -1.391232    0.295484
     34          1           0       -3.952741   -3.433528   -0.825134
     35          1           0       -1.603585   -3.445682   -1.698976
     36          1           0       -0.124652   -1.532788   -1.308471
     37          0           0        4.388518   -0.450757    0.448956
     38          0           0        4.409541   -0.388825    0.448956
     39          0           0        4.422300   -0.324679    0.448956
     40          0           0        4.535339   -0.259416    0.376284
     41          0           0        4.530131   -0.179956    0.376284
     42          0           0        4.514596   -0.101857    0.376284
     43          0           0        4.489000   -0.026453    0.376284
     44          0           0        4.453781    0.044965    0.376284
     45          0           0        4.409541    0.111175    0.376284
     46          0           0        4.357037    0.171044    0.376284
     47          0           0        4.297168    0.223547    0.376284
     48          0           0        4.230959    0.267787    0.376284
     49          0           0        4.159541    0.303007    0.376284
     50          0           0        4.084137    0.328603    0.376284
     51          0           0        4.006037    0.344138    0.376284
     52          0           0        3.926578    0.349346    0.376284
     53          0           0        3.847118    0.344138    0.376284
     54          0           0        3.769019    0.328603    0.376284
     55          0           0        3.693615    0.303007    0.376284
     56          0           0        3.622197    0.267787    0.376284
     57          0           0        4.357037   -0.689875    0.376284
     58          0           0        4.409541   -0.630006    0.376284
     59          0           0        4.453781   -0.563796    0.376284
     60          0           0        4.489000   -0.492379    0.376284
     61          0           0        4.514596   -0.416975    0.376284
     62          0           0        4.530131   -0.338875    0.376284
     63          0           0        4.633685   -0.259416    0.290037
     64          0           0        4.627635   -0.167120    0.290037
     65          0           0        4.609591   -0.076403    0.290037
     66          0           0        4.579859    0.011182    0.290037
     67          0           0        4.538950    0.094138    0.290037
     68          0           0        4.487563    0.171044    0.290037
     69          0           0        4.426578    0.240584    0.290037
     70          0           0        4.357037    0.301570    0.290037
     71          0           0        4.280131    0.352957    0.290037
     72          0           0        4.197176    0.393866    0.290037
     73          0           0        4.109591    0.423597    0.290037
     74          0           0        4.018874    0.441642    0.290037
     75          0           0        3.926578    0.447691    0.290037
     76          0           0        3.834282    0.441642    0.290037
     77          0           0        3.743565    0.423597    0.290037
     78          0           0        3.655980    0.393866    0.290037
     79          0           0        3.573024    0.352957    0.290037
     80          0           0        4.538950   -0.612969    0.290037
     81          0           0        4.579859   -0.530014    0.290037
     82          0           0        4.609591   -0.442428    0.290037
     83          0           0        4.627635   -0.351712    0.290037
     84          0           0        4.719931   -0.259416    0.191692
     85          0           0        4.713144   -0.155862    0.191692
     86          0           0        4.692898   -0.054081    0.191692
     87          0           0        4.659541    0.044188    0.191692
     88          0           0        4.613642    0.137261    0.191692
     89          0           0        4.555987    0.223547    0.191692
     90          0           0        4.487563    0.301570    0.191692
     91          0           0        4.409541    0.369994    0.191692
     92          0           0        4.323254    0.427649    0.191692
     93          0           0        4.230181    0.473547    0.191692
     94          0           0        4.131913    0.506905    0.191692
     95          0           0        4.030131    0.527150    0.191692
     96          0           0        3.926578    0.533938    0.191692
     97          0           0        4.692898   -0.464751    0.191692
     98          0           0        4.713144   -0.362969    0.191692
     99          0           0        4.792603   -0.259416    0.082930
    100          0           0        4.785194   -0.146377    0.082930
    101          0           0        4.763094   -0.035272    0.082930
    102          0           0        4.726681    0.071998    0.082930
    103          0           0        4.676578    0.173597    0.082930
    104          0           0        4.613642    0.267787    0.082930
    105          0           0        4.538950    0.352957    0.082930
    106          0           0        4.453781    0.427649    0.082930
    107          0           0        4.359591    0.490584    0.082930
    108          0           0        4.257991    0.540688    0.082930
    109          0           0        4.150722    0.577101    0.082930
    110          0           0        4.785194   -0.372455    0.082930
    111          0           0        4.850457   -0.259416   -0.034386
    112          0           0        4.842553   -0.138825   -0.034386
    113          0           0        4.818977   -0.020298   -0.034386
    114          0           0        4.780131    0.094138   -0.034386
    115          0           0        4.726681    0.202524   -0.034386
    116          0           0        4.659541    0.303007   -0.034386
    117          0           0        4.579859    0.393866   -0.034386
    118          0           0        4.489000    0.473547   -0.034386
    119          0           0        4.388518    0.540688   -0.034386
    120          0           0        4.280131    0.594138   -0.034386
    121          0           0        4.842553   -0.380006   -0.034386
    122          0           0        4.892504   -0.259416   -0.158251
    123          0           0        4.884240   -0.133337   -0.158251
    124          0           0        4.859591   -0.009416   -0.158251
    125          0           0        4.818977    0.110228   -0.158251
    126          0           0        4.763094    0.223547   -0.158251
    127          0           0        4.692898    0.328603   -0.158251
    128          0           0        4.884240   -0.385494   -0.158251
    129          0           0        4.918023   -0.259416   -0.286544
    130          0           0        4.909541   -0.130006   -0.286544
    131          0           0        4.884240   -0.002811   -0.286544
    132          0           0        4.842553    0.119994   -0.286544
    133          0           0        4.785194    0.236307   -0.286544
    134          0           0        4.909541   -0.388825   -0.286544
    135          0           0        4.926578   -0.259416   -0.417070
    136          0           0        4.918023   -0.128889   -0.417070
    137          0           0        4.892504   -0.000597   -0.417070
    138          0           0        4.850457    0.123268   -0.417070
    139          0           0        4.918023   -0.389942   -0.417070
    140          0           0        4.918023   -0.259416   -0.547596
    141          0           0        4.909541   -0.130006   -0.547596
    142          0           0        4.884240   -0.002811   -0.547596
    143          0           0        4.909541   -0.388825   -0.547596
    144          0           0        4.892504   -0.259416   -0.675889
    145          0           0        4.884240   -0.133337   -0.675889
    146          0           0        4.859591   -0.009416   -0.675889
    147          0           0        4.884240   -0.385494   -0.675889
    148          0           0        4.850457   -0.259416   -0.799753
    149          0           0        4.842553   -0.138825   -0.799753
    150          0           0        4.818977   -0.020298   -0.799753
    151          0           0        3.364156   -0.992379   -0.799753
    152          0           0        4.818977   -0.498533   -0.799753
    153          0           0        4.842553   -0.380006   -0.799753
    154          0           0        4.792603   -0.259416   -0.917070
    155          0           0        4.785194   -0.146377   -0.917070
    156          0           0        3.399375   -0.946480   -0.917070
    157          0           0        3.493565   -1.009416   -0.917070
    158          0           0        3.595164   -1.059519   -0.917070
    159          0           0        3.702434   -1.095932   -0.917070
    160          0           0        3.813539   -1.118032   -0.917070
    161          0           0        3.926578   -1.125441   -0.917070
    162          0           0        4.039617   -1.118032   -0.917070
    163          0           0        4.726681   -0.590829   -0.917070
    164          0           0        4.763094   -0.483559   -0.917070
    165          0           0        4.785194   -0.372455   -0.917070
    166          0           0        4.719931   -0.259416   -1.025831
    167          0           0        4.713144   -0.155862   -1.025831
    168          0           0        3.297168   -0.742379   -1.025831
    169          0           0        3.365592   -0.820401   -1.025831
    170          0           0        3.443615   -0.888825   -1.025831
    171          0           0        3.529901   -0.946480   -1.025831
    172          0           0        3.622975   -0.992379   -1.025831
    173          0           0        3.721243   -1.025736   -1.025831
    174          0           0        3.823024   -1.045982   -1.025831
    175          0           0        3.926578   -1.052769   -1.025831
    176          0           0        4.030131   -1.045982   -1.025831
    177          0           0        4.131913   -1.025736   -1.025831
    178          0           0        4.230181   -0.992379   -1.025831
    179          0           0        4.555987   -0.742379   -1.025831
    180          0           0        4.613642   -0.656092   -1.025831
    181          0           0        4.659541   -0.563019   -1.025831
    182          0           0        4.692898   -0.464751   -1.025831
    183          0           0        4.713144   -0.362969   -1.025831
    184          0           0        4.633685   -0.259416   -1.124177
    185          0           0        4.627635   -0.167120   -1.124177
    186          0           0        4.609591   -0.076403   -1.124177
    187          0           0        3.273296    0.011182   -1.124177
    188          0           0        3.243565   -0.076403   -1.124177
    189          0           0        3.273296   -0.530014   -1.124177
    190          0           0        3.314205   -0.612969   -1.124177
    191          0           0        3.365592   -0.689875   -1.124177
    192          0           0        3.426578   -0.759416   -1.124177
    193          0           0        3.496118   -0.820401   -1.124177
    194          0           0        3.573024   -0.871788   -1.124177
    195          0           0        3.655980   -0.912697   -1.124177
    196          0           0        3.743565   -0.942428   -1.124177
    197          0           0        3.834282   -0.960473   -1.124177
    198          0           0        3.926578   -0.966522   -1.124177
    199          0           0        4.018874   -0.960473   -1.124177
    200          0           0        4.109591   -0.942428   -1.124177
    201          0           0        4.197176   -0.912697   -1.124177
    202          0           0        4.280131   -0.871788   -1.124177
    203          0           0        4.357037   -0.820401   -1.124177
    204          0           0        4.426578   -0.759416   -1.124177
    205          0           0        4.487563   -0.689875   -1.124177
    206          0           0        4.538950   -0.612969   -1.124177
    207          0           0        4.579859   -0.530014   -1.124177
    208          0           0        4.609591   -0.442428   -1.124177
    209          0           0        4.627635   -0.351712   -1.124177
    210          0           0        4.535339   -0.259416   -1.210423
    211          0           0        4.530131   -0.179956   -1.210423
    212          0           0        4.514596   -0.101857   -1.210423
    213          0           0        3.399375    0.044965   -1.210423
    214          0           0        3.364156   -0.026453   -1.210423
    215          0           0        3.338559   -0.101857   -1.210423
    216          0           0        3.323024   -0.179956   -1.210423
    217          0           0        3.317816   -0.259416   -1.210423
    218          0           0        3.323024   -0.338875   -1.210423
    219          0           0        3.338559   -0.416975   -1.210423
    220          0           0        3.364156   -0.492379   -1.210423
    221          0           0        3.399375   -0.563796   -1.210423
    222          0           0        3.443615   -0.630006   -1.210423
    223          0           0        3.496118   -0.689875   -1.210423
    224          0           0        3.555987   -0.742379   -1.210423
    225          0           0        3.622197   -0.786618   -1.210423
    226          0           0        3.693615   -0.821838   -1.210423
    227          0           0        3.769019   -0.847434   -1.210423
    228          0           0        3.847118   -0.862969   -1.210423
    229          0           0        3.926578   -0.868177   -1.210423
    230          0           0        4.006037   -0.862969   -1.210423
    231          0           0        4.084137   -0.847434   -1.210423
    232          0           0        4.159541   -0.821838   -1.210423
    233          0           0        4.230959   -0.786618   -1.210423
    234          0           0        4.297168   -0.742379   -1.210423
    235          0           0        4.357037   -0.689875   -1.210423
    236          0           0        4.409541   -0.630006   -1.210423
 ---------------------------------------------------------------------
 Rotational constants (GHZ):      0.4454681      0.2811480      0.1854303
 Leave Link  202 at Tue Sep 15 13:36:29 2020, MaxMem=   131072000 cpu:         0.1
 (Enter /share/programs/GAUSSIAN/64/g09/l301.exe)
 Standard basis: 6-311+G(d,p) (5D, 7F)
 Warning:  center  37 has no basis functions!
 Warning:  center  38 has no basis functions!
 Warning:  center  39 has no basis functions!
 Warning:  center  40 has no basis functions!
 Warning:  center  41 has no basis functions!
 Warning:  center  42 has no basis functions!
 Warning:  center  43 has no basis functions!
 Warning:  center  44 has no basis functions!
 Warning:  center  45 has no basis functions!
 Warning:  center  46 has no basis functions!
 Warning:  center  47 has no basis functions!
 Warning:  center  48 has no basis functions!
 Warning:  center  49 has no basis functions!
 Warning:  center  50 has no basis functions!
 Warning:  center  51 has no basis functions!
 Warning:  center  52 has no basis functions!
 Warning:  center  53 has no basis functions!
 Warning:  center  54 has no basis functions!
 Warning:  center  55 has no basis functions!
 Warning:  center  56 has no basis functions!
 Warning:  center  57 has no basis functions!
 Warning:  center  58 has no basis functions!
 Warning:  center  59 has no basis functions!
 Warning:  center  60 has no basis functions!
 Warning:  center  61 has no basis functions!
 Warning:  center  62 has no basis functions!
 Warning:  center  63 has no basis functions!
 Warning:  center  64 has no basis functions!
 Warning:  center  65 has no basis functions!
 Warning:  center  66 has no basis functions!
 Warning:  center  67 has no basis functions!
 Warning:  center  68 has no basis functions!
 Warning:  center  69 has no basis functions!
 Warning:  center  70 has no basis functions!
 Warning:  center  71 has no basis functions!
 Warning:  center  72 has no basis functions!
 Warning:  center  73 has no basis functions!
 Warning:  center  74 has no basis functions!
 Warning:  center  75 has no basis functions!
 Warning:  center  76 has no basis functions!
 Warning:  center  77 has no basis functions!
 Warning:  center  78 has no basis functions!
 Warning:  center  79 has no basis functions!
 Warning:  center  80 has no basis functions!
 Warning:  center  81 has no basis functions!
 Warning:  center  82 has no basis functions!
 Warning:  center  83 has no basis functions!
 Warning:  center  84 has no basis functions!
 Warning:  center  85 has no basis functions!
 Warning:  center  86 has no basis functions!
 Warning:  center  87 has no basis functions!
 Warning:  center  88 has no basis functions!
 Warning:  center  89 has no basis functions!
 Warning:  center  90 has no basis functions!
 Warning:  center  91 has no basis functions!
 Warning:  center  92 has no basis functions!
 Warning:  center  93 has no basis functions!
 Warning:  center  94 has no basis functions!
 Warning:  center  95 has no basis functions!
 Warning:  center  96 has no basis functions!
 Warning:  center  97 has no basis functions!
 Warning:  center  98 has no basis functions!
 Warning:  center  99 has no basis functions!
 Warning:  center 100 has no basis functions!
 Warning:  center 101 has no basis functions!
 Warning:  center 102 has no basis functions!
 Warning:  center 103 has no basis functions!
 Warning:  center 104 has no basis functions!
 Warning:  center 105 has no basis functions!
 Warning:  center 106 has no basis functions!
 Warning:  center 107 has no basis functions!
 Warning:  center 108 has no basis functions!
 Warning:  center 109 has no basis functions!
 Warning:  center 110 has no basis functions!
 Warning:  center 111 has no basis functions!
 Warning:  center 112 has no basis functions!
 Warning:  center 113 has no basis functions!
 Warning:  center 114 has no basis functions!
 Warning:  center 115 has no basis functions!
 Warning:  center 116 has no basis functions!
 Warning:  center 117 has no basis functions!
 Warning:  center 118 has no basis functions!
 Warning:  center 119 has no basis functions!
 Warning:  center 120 has no basis functions!
 Warning:  center 121 has no basis functions!
 Warning:  center 122 has no basis functions!
 Warning:  center 123 has no basis functions!
 Warning:  center 124 has no basis functions!
 Warning:  center 125 has no basis functions!
 Warning:  center 126 has no basis functions!
 Warning:  center 127 has no basis functions!
 Warning:  center 128 has no basis functions!
 Warning:  center 129 has no basis functions!
 Warning:  center 130 has no basis functions!
 Warning:  center 131 has no basis functions!
 Warning:  center 132 has no basis functions!
 Warning:  center 133 has no basis functions!
 Warning:  center 134 has no basis functions!
 Warning:  center 135 has no basis functions!
 Warning:  center 136 has no basis functions!
 Warning:  center 137 has no basis functions!
 Warning:  center 138 has no basis functions!
 Warning:  center 139 has no basis functions!
 Warning:  center 140 has no basis functions!
 Warning:  center 141 has no basis functions!
 Warning:  center 142 has no basis functions!
 Warning:  center 143 has no basis functions!
 Warning:  center 144 has no basis functions!
 Warning:  center 145 has no basis functions!
 Warning:  center 146 has no basis functions!
 Warning:  center 147 has no basis functions!
 Warning:  center 148 has no basis functions!
 Warning:  center 149 has no basis functions!
 Warning:  center 150 has no basis functions!
 Warning:  center 151 has no basis functions!
 Warning:  center 152 has no basis functions!
 Warning:  center 153 has no basis functions!
 Warning:  center 154 has no basis functions!
 Warning:  center 155 has no basis functions!
 Warning:  center 156 has no basis functions!
 Warning:  center 157 has no basis functions!
 Warning:  center 158 has no basis functions!
 Warning:  center 159 has no basis functions!
 Warning:  center 160 has no basis functions!
 Warning:  center 161 has no basis functions!
 Warning:  center 162 has no basis functions!
 Warning:  center 163 has no basis functions!
 Warning:  center 164 has no basis functions!
 Warning:  center 165 has no basis functions!
 Warning:  center 166 has no basis functions!
 Warning:  center 167 has no basis functions!
 Warning:  center 168 has no basis functions!
 Warning:  center 169 has no basis functions!
 Warning:  center 170 has no basis functions!
 Warning:  center 171 has no basis functions!
 Warning:  center 172 has no basis functions!
 Warning:  center 173 has no basis functions!
 Warning:  center 174 has no basis functions!
 Warning:  center 175 has no basis functions!
 Warning:  center 176 has no basis functions!
 Warning:  center 177 has no basis functions!
 Warning:  center 178 has no basis functions!
 Warning:  center 179 has no basis functions!
 Warning:  center 180 has no basis functions!
 Warning:  center 181 has no basis functions!
 Warning:  center 182 has no basis functions!
 Warning:  center 183 has no basis functions!
 Warning:  center 184 has no basis functions!
 Warning:  center 185 has no basis functions!
 Warning:  center 186 has no basis functions!
 Warning:  center 187 has no basis functions!
 Warning:  center 188 has no basis functions!
 Warning:  center 189 has no basis functions!
 Warning:  center 190 has no basis functions!
 Warning:  center 191 has no basis functions!
 Warning:  center 192 has no basis functions!
 Warning:  center 193 has no basis functions!
 Warning:  center 194 has no basis functions!
 Warning:  center 195 has no basis functions!
 Warning:  center 196 has no basis functions!
 Warning:  center 197 has no basis functions!
 Warning:  center 198 has no basis functions!
 Warning:  center 199 has no basis functions!
 Warning:  center 200 has no basis functions!
 Warning:  center 201 has no basis functions!
 Warning:  center 202 has no basis functions!
 Warning:  center 203 has no basis functions!
 Warning:  center 204 has no basis functions!
 Warning:  center 205 has no basis functions!
 Warning:  center 206 has no basis functions!
 Warning:  center 207 has no basis functions!
 Warning:  center 208 has no basis functions!
 Warning:  center 209 has no basis functions!
 Warning:  center 210 has no basis functions!
 Warning:  center 211 has no basis functions!
 Warning:  center 212 has no basis functions!
 Warning:  center 213 has no basis functions!
 Warning:  center 214 has no basis functions!
 Warning:  center 215 has no basis functions!
 Warning:  center 216 has no basis functions!
 Warning:  center 217 has no basis functions!
 Warning:  center 218 has no basis functions!
 Warning:  center 219 has no basis functions!
 Warning:  center 220 has no basis functions!
 Warning:  center 221 has no basis functions!
 Warning:  center 222 has no basis functions!
 Warning:  center 223 has no basis functions!
 Warning:  center 224 has no basis functions!
 Warning:  center 225 has no basis functions!
 Warning:  center 226 has no basis functions!
 Warning:  center 227 has no basis functions!
 Warning:  center 228 has no basis functions!
 Warning:  center 229 has no basis functions!
 Warning:  center 230 has no basis functions!
 Warning:  center 231 has no basis functions!
 Warning:  center 232 has no basis functions!
 Warning:  center 233 has no basis functions!
 Warning:  center 234 has no basis functions!
 Warning:  center 235 has no basis functions!
 Warning:  center 236 has no basis functions!
 Ernie: Thresh=  0.10000D-02 Tol=  0.10000D-05 Strict=F.
   568 basis functions,   904 primitive gaussians,   590 cartesian basis functions
    73 alpha electrons       73 beta electrons
       nuclear repulsion energy      1599.9156270972 Hartrees.
 IExCor=  402 DFT=T Ex+Corr=B3LYP ExCW=0 ScaHFX=  0.200000
 ScaDFX=  0.800000  0.720000  1.000000  0.810000 ScalE2=  1.000000  1.000000
 IRadAn=      0 IRanWt=     -1 IRanGd=            0 ICorTp=0 IEmpDi=  4
 NAtoms=  236 NActive=  236 NUniq=  236 SFac= 1.00D+00 NAtFMM=   60 NAOKFM=T Big=T
 Integral buffers will be    131072 words long.
 Raffenetti 2 integral format.
 Two-electron integral symmetry is turned off.
 Leave Link  301 at Tue Sep 15 13:36:29 2020, MaxMem=   131072000 cpu:         0.4
 (Enter /share/programs/GAUSSIAN/64/g09/l302.exe)
 NPDir=0 NMtPBC=     1 NCelOv=     1 NCel=       1 NClECP=     1 NCelD=      1
         NCelK=      1 NCelE2=     1 NClLst=     1 CellRange=     0.0.
 One-electron integrals computed using PRISM.
 NBasis=   568 RedAO= T EigKep=  1.01D-06  NBF=   568
 NBsUse=   557 1.00D-06 EigRej=  9.19D-07 NBFU=   557
 Precomputing XC quadrature grid using
 IXCGrd= 4 IRadAn=           0 IRanWt=          -1 IRanGd=           0 AccXCQ= 0.00D+00.
 Generated NRdTot=       0 NPtTot=           0 NUsed=           0 NTot=          32
 NSgBfM=   587   588   588   589   589 MxSgAt=   236 MxSgA2=    36.
 Leave Link  302 at Tue Sep 15 13:36:31 2020, MaxMem=   131072000 cpu:        17.5
 (Enter /share/programs/GAUSSIAN/64/g09/l308.exe)
 Leave Link  308 at Tue Sep 15 13:36:31 2020, MaxMem=   131072000 cpu:         0.8
 (Enter /share/programs/GAUSSIAN/64/g09/l303.exe)
 DipDrv:  MaxL=1.
 Leave Link  303 at Tue Sep 15 13:36:31 2020, MaxMem=   131072000 cpu:         0.6
 (Enter /share/programs/GAUSSIAN/64/g09/l401.exe)
 Initial guess from the checkpoint file:  "/scratch/aartigas.39162/Gau-3683222.chk"
 Skipping rotation of guess because NAtoms(RWF)=  236 differs from NAtoms(Chk)=   36.
 Guess basis will be translated and rotated to current coordinates.
 JPrj=2 DoOrth=T DoCkMO=T.
 Leave Link  401 at Tue Sep 15 13:36:33 2020, MaxMem=   131072000 cpu:        11.2
 (Enter /share/programs/GAUSSIAN/64/g09/l502.exe)
 Closed shell SCF:
 Using DIIS extrapolation, IDIIS=  1040.
 Two-electron integral symmetry not used.
 IVT=     1071582 IEndB=     1071582 NGot=   131072000 MDV=   130365749
 LenX=   130365749 LenY=   130017059
 Requested convergence on RMS density matrix=1.00D-08 within 128 cycles.
 Requested convergence on MAX density matrix=1.00D-06.
 Requested convergence on             energy=1.00D-06.
 No special actions if energy rises.
 Fock matrices will be formed incrementally for  20 cycles.

 Cycle   1  Pass 1  IDiag  1:
 FoFJK:  IHMeth= 1 ICntrl=       0 DoSepK=F KAlg= 0 I1Cent=   0 FoldK=F
 IRaf= 940000000 NMat=   1 IRICut=       1 DoRegI=T DoRafI=F ISym2E= 0.
 FoFCou: FMM=T IPFlag=           0 FMFlag=      100000 FMFlg1=        2001
         NFxFlg=           0 DoJE=F BraDBF=F KetDBF=F FulRan=T
         wScrn=  0.000000 ICntrl=       0 IOpCl=  0 I1Cent=           0 NGrid=           0
         NMat0=    1 NMatS0=      1 NMatT0=    0 NMatD0=    1 NMtDS0=    0 NMtDT0=    0
 Symmetry not used in FoFCou.
 FMM levels:  10  Number of levels for PrismC:   9
 E= -847.003738666967    
 DIIS: error= 5.05D-08 at cycle   1 NSaved=   1.
 NSaved= 1 IEnMin= 1 EnMin= -847.003738666967     IErMin= 1 ErrMin= 5.05D-08
 ErrMax= 5.05D-08  0.00D+00 EMaxC= 1.00D-01 BMatC= 3.55D-12 BMatP= 3.55D-12
 IDIUse=1 WtCom= 1.00D+00 WtEn= 0.00D+00
 Coeff-Com:  0.100D+01
 Coeff:      0.100D+01
 Gap=     0.151 Goal=   None    Shift=    0.000
 RMSDP=2.88D-07 MaxDP=1.32D-05              OVMax= 3.94D-07

 Cycle   2  Pass 1  IDiag  1:
 RMSU=  2.84D-07    CP:  1.00D+00
 E= -847.003738666816     Delta-E=        0.000000000152 Rises=F Damp=F
 DIIS: error= 1.42D-08 at cycle   2 NSaved=   2.
 NSaved= 2 IEnMin= 1 EnMin= -847.003738666967     IErMin= 2 ErrMin= 1.42D-08
 ErrMax= 1.42D-08  0.00D+00 EMaxC= 1.00D-01 BMatC= 2.13D-13 BMatP= 3.55D-12
 IDIUse=1 WtCom= 1.00D+00 WtEn= 0.00D+00
 Coeff-Com:  0.627D-01 0.937D+00
 Coeff:      0.627D-01 0.937D+00
 Gap=     0.151 Goal=   None    Shift=    0.000
 RMSDP=1.58D-08 MaxDP=7.96D-07 DE= 1.52D-10 OVMax= 3.02D-07

 Cycle   3  Pass 1  IDiag  1:
 RMSU=  1.33D-08    CP:  1.00D+00  1.02D+00
 E= -847.003738666894     Delta-E=       -0.000000000078 Rises=F Damp=F
 DIIS: error= 2.51D-08 at cycle   3 NSaved=   3.
 NSaved= 3 IEnMin= 1 EnMin= -847.003738666967     IErMin= 2 ErrMin= 1.42D-08
 ErrMax= 2.51D-08  0.00D+00 EMaxC= 1.00D-01 BMatC= 5.05D-13 BMatP= 2.13D-13
 IDIUse=1 WtCom= 1.00D+00 WtEn= 0.00D+00
 Coeff-Com: -0.107D-01 0.616D+00 0.395D+00
 Coeff:     -0.107D-01 0.616D+00 0.395D+00
 Gap=     0.151 Goal=   None    Shift=    0.000
 RMSDP=1.03D-08 MaxDP=4.08D-07 DE=-7.82D-11 OVMax= 2.17D-07

 Cycle   4  Pass 1  IDiag  1:
 RMSU=  5.90D-09    CP:  1.00D+00  1.02D+00  3.95D-01
 E= -847.003738666843     Delta-E=        0.000000000050 Rises=F Damp=F
 DIIS: error= 8.06D-09 at cycle   4 NSaved=   4.
 NSaved= 4 IEnMin= 1 EnMin= -847.003738666967     IErMin= 4 ErrMin= 8.06D-09
 ErrMax= 8.06D-09  0.00D+00 EMaxC= 1.00D-01 BMatC= 2.06D-14 BMatP= 2.13D-13
 IDIUse=1 WtCom= 1.00D+00 WtEn= 0.00D+00
 Coeff-Com: -0.876D-02 0.309D+00 0.241D+00 0.459D+00
 Coeff:     -0.876D-02 0.309D+00 0.241D+00 0.459D+00
 Gap=     0.151 Goal=   None    Shift=    0.000
 RMSDP=4.08D-09 MaxDP=1.52D-07 DE= 5.05D-11 OVMax= 6.88D-08

 SCF Done:  E(RB3LYP) =  -847.003738667     A.U. after    4 cycles
            NFock=  4  Conv=0.41D-08     -V/T= 2.0049
 KE= 8.428349970566D+02 PE=-5.164192584015D+03 EE= 1.874438221195D+03
 Leave Link  502 at Tue Sep 15 13:38:16 2020, MaxMem=   131072000 cpu:       819.1
 (Enter /share/programs/GAUSSIAN/64/g09/l801.exe)
 DoSCS=F DFT=T ScalE2(SS,OS)=  1.000000  1.000000
 Range of M.O.s used for correlation:     1   557
 NBasis=   568 NAE=    73 NBE=    73 NFC=     0 NFV=     0
 NROrb=    557 NOA=    73 NOB=    73 NVA=   484 NVB=   484

 **** Warning!!: The largest alpha MO coefficient is  0.14271943D+03

 Leave Link  801 at Tue Sep 15 13:38:16 2020, MaxMem=   131072000 cpu:         0.2
 (Enter /share/programs/GAUSSIAN/64/g09/l1002.exe)
 Minotr:  Closed shell wavefunction.
          Direct CPHF calculation.
          Differentiating once with respect to magnetic field using GIAOs.
          Electric field/nuclear overlap derivatives assumed to be zero.
          Requested convergence is 1.0D-08 RMS, and 1.0D-07 maximum.
          Secondary convergence is 1.0D-12 RMS, and 1.0D-12 maximum.
          NewPWx=T KeepS1=F KeepF1=F KeepIn=T MapXYZ=F SortEE=F KeepMc=T.
          MDV=     131069551 using IRadAn=       2.
 Generate precomputed XC quadrature information.
          Solving linear equations simultaneously, MaxMat=      72.
 FoFCou: FMM=F IPFlag=           0 FMFlag=      100000 FMFlg1=        2001
         NFxFlg=           0 DoJE=F BraDBF=F KetDBF=T FulRan=T
         wScrn=  0.000000 ICntrl=    6100 IOpCl=  0 I1Cent=           7 NGrid=         236
         NMat0=    1 NMatS0=      1 NMatT0=    0 NMatD0=    1 NMtDS0=    0 NMtDT0=    0
 Symmetry not used in FoFCou.
 FoFJK:  IHMeth= 1 ICntrl=    6127 DoSepK=F KAlg= 0 I1Cent=   0 FoldK=F
 IRaf=         1 NMat=   1 IRICut=       1 DoRegI=T DoRafI=F ISym2E= 0.
          There are     3 degrees of freedom in the 1st order CPHF.  IDoFFX=0 NUNeed=     3.
      3 vectors produced by pass  0 Test12= 1.18D-12 3.33D-08 XBig12= 1.96D+03 8.77D+00.
 AX will form     3 AO Fock derivatives at one time.
      3 vectors produced by pass  1 Test12= 1.18D-12 3.33D-08 XBig12= 3.18D+00 7.58D-01.
      3 vectors produced by pass  2 Test12= 1.18D-12 3.33D-08 XBig12= 1.86D-02 5.85D-02.
      3 vectors produced by pass  3 Test12= 1.18D-12 3.33D-08 XBig12= 4.29D-05 1.35D-03.
      3 vectors produced by pass  4 Test12= 1.18D-12 3.33D-08 XBig12= 9.75D-08 7.22D-05.
      3 vectors produced by pass  5 Test12= 1.18D-12 3.33D-08 XBig12= 3.97D-10 5.92D-06.
      3 vectors produced by pass  6 Test12= 1.18D-12 3.33D-08 XBig12= 1.51D-12 4.40D-07.
 InvSVY:  IOpt=1 It=  1 EMax= 3.55D-15
 Solved reduced A of dimension    21 with     3 vectors.
 Calculating GIAO nuclear magnetic shielding tensors.
 SCF GIAO Magnetic shielding tensor (ppm):
      1  C    Isotropic =    49.6861   Anisotropy =   149.7970
   XX=    46.3088   YX=   -25.0950   ZX=    31.4786
   XY=   -31.1109   YY=   -39.0339   ZY=    13.2621
   XZ=    24.9178   YZ=     8.9888   ZZ=   141.7833
   Eigenvalues:   -49.3507    48.8581   149.5507
      2  C    Isotropic =    49.6861   Anisotropy =   149.7971
   XX=    46.3088   YX=    25.0953   ZX=    31.4786
   XY=    31.1111   YY=   -39.0339   ZY=   -13.2621
   XZ=    24.9177   YZ=    -8.9889   ZZ=   141.7834
   Eigenvalues:   -49.3508    48.8583   149.5509
      3  C    Isotropic =    44.4899   Anisotropy =   204.7372
   XX=   -22.2199   YX=    10.8075   ZX=    51.2710
   XY=     4.9259   YY=   -14.7126   ZY=    14.7921
   XZ=    32.3655   YZ=    21.2392   ZZ=   170.4022
   Eigenvalues:   -31.9593   -15.5523   180.9814
      4  C    Isotropic =    44.4899   Anisotropy =   204.7373
   XX=   -22.2198   YX=   -10.8075   ZX=    51.2710
   XY=    -4.9256   YY=   -14.7126   ZY=   -14.7922
   XZ=    32.3656   YZ=   -21.2393   ZZ=   170.4023
   Eigenvalues:   -31.9592   -15.5524   180.9815
      5  C    Isotropic =    48.5420   Anisotropy =   189.5490
   XX=   -14.6790   YX=     4.7342   ZX=     8.4333
   XY=    20.3759   YY=    -5.5375   ZY=    31.5121
   XZ=    65.1218   YZ=     0.8640   ZZ=   165.8426
   Eigenvalues:   -26.3226    -2.9593   174.9080
      6  C    Isotropic =    48.5421   Anisotropy =   189.5489
   XX=   -14.6789   YX=    -4.7340   ZX=     8.4335
   XY=   -20.3758   YY=    -5.5374   ZY=   -31.5121
   XZ=    65.1218   YZ=    -0.8638   ZZ=   165.8426
   Eigenvalues:   -26.3224    -2.9594   174.9080
      7  C    Isotropic =    50.1907   Anisotropy =   149.2089
   XX=    19.7303   YX=   -44.2755   ZX=    41.2886
   XY=   -38.0437   YY=    -2.7069   ZY=    36.9011
   XZ=    36.5866   YZ=    37.5458   ZZ=   133.5487
   Eigenvalues:   -49.6656    50.5744   149.6633
      8  C    Isotropic =    48.9362   Anisotropy =   152.4339
   XX=   -31.5093   YX=   -11.4921   ZX=    54.7730
   XY=   -19.0468   YY=    46.5898   ZY=    27.5522
   XZ=    42.2451   YZ=    29.8391   ZZ=   131.7282
   Eigenvalues:   -50.1461    46.3960   150.5589
      9  C    Isotropic =    44.4204   Anisotropy =   209.3981
   XX=   -10.1987   YX=    16.7536   ZX=    44.4888
   XY=     8.9342   YY=    -7.7270   ZY=    61.4651
   XZ=    43.3269   YZ=    64.9792   ZZ=   151.1869
   Eigenvalues:   -30.3689   -20.3891   184.0192
     10  C    Isotropic =    45.3894   Anisotropy =   198.3236
   XX=    -5.9706   YX=    23.3819   ZX=    35.6519
   XY=    38.1954   YY=     1.7271   ZY=    73.1370
   XZ=    54.0013   YZ=    45.7045   ZZ=   140.4116
   Eigenvalues:   -33.5315    -7.9055   177.6051
     11  H    Isotropic =    23.8179   Anisotropy =     7.5674
   XX=    27.2191   YX=    -1.9090   ZX=    -2.2602
   XY=    -1.7961   YY=    24.8722   ZY=    -0.1966
   XZ=    -3.3763   YZ=    -0.1950   ZZ=    19.3625
   Eigenvalues:    18.3647    24.2263    28.8628
     12  H    Isotropic =    23.8179   Anisotropy =     7.5674
   XX=    27.2191   YX=     1.9090   ZX=    -2.2602
   XY=     1.7961   YY=    24.8722   ZY=     0.1966
   XZ=    -3.3763   YZ=     0.1950   ZZ=    19.3625
   Eigenvalues:    18.3647    24.2263    28.8628
     13  H    Isotropic =    23.8548   Anisotropy =     7.5124
[...]
   127  Bq   0.000000
   128  Bq   0.000000
   129  Bq   0.000000
   130  Bq   0.000000
   131  Bq   0.000000
   132  Bq   0.000000
   133  Bq   0.000000
   134  Bq   0.000000
   135  Bq   0.000000
   136  Bq   0.000000
   137  Bq   0.000000
   138  Bq   0.000000
   139  Bq   0.000000
   140  Bq   0.000000
   141  Bq   0.000000
   142  Bq   0.000000
   143  Bq   0.000000
   144  Bq   0.000000
   145  Bq   0.000000
   146  Bq   0.000000
   147  Bq   0.000000
   148  Bq   0.000000
   149  Bq   0.000000
   150  Bq   0.000000
   151  Bq   0.000000
   152  Bq   0.000000
   153  Bq   0.000000
   154  Bq   0.000000
   155  Bq   0.000000
   156  Bq   0.000000
   157  Bq   0.000000
   158  Bq   0.000000
   159  Bq   0.000000
   160  Bq   0.000000
   161  Bq   0.000000
   162  Bq   0.000000
   163  Bq   0.000000
   164  Bq   0.000000
   165  Bq   0.000000
   166  Bq   0.000000
   167  Bq   0.000000
   168  Bq   0.000000
   169  Bq   0.000000
   170  Bq   0.000000
   171  Bq   0.000000
   172  Bq   0.000000
   173  Bq   0.000000
   174  Bq   0.000000
   175  Bq   0.000000
   176  Bq   0.000000
   177  Bq   0.000000
   178  Bq   0.000000
   179  Bq   0.000000
   180  Bq   0.000000
   181  Bq   0.000000
   182  Bq   0.000000
   183  Bq   0.000000
   184  Bq   0.000000
   185  Bq   0.000000
   186  Bq   0.000000
   187  Bq   0.000000
   188  Bq   0.000000
   189  Bq   0.000000
   190  Bq   0.000000
   191  Bq   0.000000
   192  Bq   0.000000
   193  Bq   0.000000
   194  Bq   0.000000
   195  Bq   0.000000
   196  Bq   0.000000
   197  Bq   0.000000
   198  Bq   0.000000
   199  Bq   0.000000
   200  Bq   0.000000
   201  Bq   0.000000
   202  Bq   0.000000
   203  Bq   0.000000
   204  Bq   0.000000
   205  Bq   0.000000
   206  Bq   0.000000
   207  Bq   0.000000
   208  Bq   0.000000
   209  Bq   0.000000
   210  Bq   0.000000
   211  Bq   0.000000
   212  Bq   0.000000
   213  Bq   0.000000
   214  Bq   0.000000
   215  Bq   0.000000
   216  Bq   0.000000
   217  Bq   0.000000
   218  Bq   0.000000
   219  Bq   0.000000
   220  Bq   0.000000
   221  Bq   0.000000
   222  Bq   0.000000
   223  Bq   0.000000
   224  Bq   0.000000
   225  Bq   0.000000
   226  Bq   0.000000
   227  Bq   0.000000
   228  Bq   0.000000
   229  Bq   0.000000
   230  Bq   0.000000
   231  Bq   0.000000
   232  Bq   0.000000
   233  Bq   0.000000
   234  Bq   0.000000
   235  Bq   0.000000
   236  Bq   0.000000
 Sum of Mulliken charges =   0.00000
 Mulliken charges with hydrogens summed into heavy atoms:
               1
     1  C   -0.262865
     2  C   -0.262866
     3  C    0.737923
     4  C    0.737922
     5  C   -0.039994
     6  C   -0.040001
     7  C    0.075155
     8  C   -0.449359
     9  C    0.780501
    10  C   -0.200782
    15  C    0.130592
    16  C   -0.533462
    17  C   -0.189404
    18  C   -0.286191
    23  C   -0.330145
    24  C    0.075154
    25  C    0.780496
    26  C   -0.200782
    27  C    0.249273
    28  C   -0.286192
    29  C   -0.189403
    30  C   -0.533462
    37  Bq   0.000000
    38  Bq   0.000000
    39  Bq   0.000000
    40  Bq   0.000000
    41  Bq   0.000000
    42  Bq   0.000000
    43  Bq   0.000000
    44  Bq   0.000000
    45  Bq   0.000000
    46  Bq   0.000000
    47  Bq   0.000000
    48  Bq   0.000000
    49  Bq   0.000000
    50  Bq   0.000000
    51  Bq   0.000000
    52  Bq   0.000000
    53  Bq   0.000000
    54  Bq   0.000000
    55  Bq   0.000000
    56  Bq   0.000000
    57  Bq   0.000000
    58  Bq   0.000000
    59  Bq   0.000000
    60  Bq   0.000000
    61  Bq   0.000000
    62  Bq   0.000000
    63  Bq   0.000000
    64  Bq   0.000000
    65  Bq   0.000000
    66  Bq   0.000000
    67  Bq   0.000000
    68  Bq   0.000000
    69  Bq   0.000000
    70  Bq   0.000000
    71  Bq   0.000000
    72  Bq   0.000000
    73  Bq   0.000000
    74  Bq   0.000000
    75  Bq   0.000000
    76  Bq   0.000000
    77  Bq   0.000000
    78  Bq   0.000000
    79  Bq   0.000000
    80  Bq   0.000000
    81  Bq   0.000000
    82  Bq   0.000000
    83  Bq   0.000000
    84  Bq   0.000000
    85  Bq   0.000000
    86  Bq   0.000000
    87  Bq   0.000000
    88  Bq   0.000000
    89  Bq   0.000000
    90  Bq   0.000000
    91  Bq   0.000000
    92  Bq   0.000000
    93  Bq   0.000000
    94  Bq   0.000000
    95  Bq   0.000000
    96  Bq   0.000000
    97  Bq   0.000000
    98  Bq   0.000000
    99  Bq   0.000000
   100  Bq   0.000000
   101  Bq   0.000000
   102  Bq   0.000000
   103  Bq   0.000000
   104  Bq   0.000000
   105  Bq   0.000000
   106  Bq   0.000000
   107  Bq   0.000000
   108  Bq   0.000000
   109  Bq   0.000000
   110  Bq   0.000000
   111  Bq   0.000000
   112  Bq   0.000000
   113  Bq   0.000000
   114  Bq   0.000000
   115  Bq   0.000000
   116  Bq   0.000000
   117  Bq   0.000000
   118  Bq   0.000000
   119  Bq   0.000000
   120  Bq   0.000000
   121  Bq   0.000000
   122  Bq   0.000000
   123  Bq   0.000000
   124  Bq   0.000000
   125  Bq   0.000000
   126  Bq   0.000000
   127  Bq   0.000000
   128  Bq   0.000000
   129  Bq   0.000000
   130  Bq   0.000000
   131  Bq   0.000000
   132  Bq   0.000000
   133  Bq   0.119212
   134  Bq   0.118681
   135  Bq   0.000000
   136  Bq   0.000000
   137  Bq   0.000000
   138  Bq   0.000000
   139  Bq   0.000000
   140  Bq   0.000000
   141  Bq   0.000000
   142  Bq   0.000000
   143  Bq   0.000000
   144  Bq   0.000000
   145  Bq   0.000000
   146  Bq   0.000000
   147  Bq   0.000000
   148  Bq   0.000000
   149  Bq   0.000000
   150  Bq   0.000000
   151  Bq   0.000000
   152  Bq   0.000000
   153  Bq   0.000000
   154  Bq   0.000000
   155  Bq   0.000000
   156  Bq   0.000000
   157  Bq   0.000000
   158  Bq   0.000000
   159  Bq   0.000000
   160  Bq   0.000000
   161  Bq   0.000000
   162  Bq   0.000000
   163  Bq   0.000000
   164  Bq   0.000000
   165  Bq   0.000000
   166  Bq   0.000000
   167  Bq   0.000000
   168  Bq   0.000000
   169  Bq   0.000000
   170  Bq   0.000000
   171  Bq   0.000000
   172  Bq   0.000000
   173  Bq   0.000000
   174  Bq   0.000000
   175  Bq   0.000000
   176  Bq   0.000000
   177  Bq   0.000000
   178  Bq   0.000000
   179  Bq   0.000000
   180  Bq   0.000000
   181  Bq   0.000000
   182  Bq   0.000000
   183  Bq   0.000000
   184  Bq   0.000000
   185  Bq   0.000000
   186  Bq   0.000000
   187  Bq   0.000000
   188  Bq   0.000000
   189  Bq   0.000000
   190  Bq   0.000000
   191  Bq   0.000000
   192  Bq   0.000000
   193  Bq   0.000000
   194  Bq   0.000000
   195  Bq   0.000000
   196  Bq   0.000000
   197  Bq   0.000000
   198  Bq   0.000000
   199  Bq   0.000000
   200  Bq   0.000000
   201  Bq   0.000000
   202  Bq   0.000000
   203  Bq   0.000000
   204  Bq   0.000000
   205  Bq   0.000000
   206  Bq   0.000000
   207  Bq   0.000000
   208  Bq   0.000000
   209  Bq   0.000000
   210  Bq   0.000000
   211  Bq   0.000000
   212  Bq   0.000000
   213  Bq   0.000000
   214  Bq   0.000000
   215  Bq   0.000000
   216  Bq   0.000000
   217  Bq   0.000000
   218  Bq   0.000000
   219  Bq   0.000000
   220  Bq   0.000000
   221  Bq   0.000000
   222  Bq   0.000000
   223  Bq   0.000000
   224  Bq   0.000000
   225  Bq   0.000000
   226  Bq   0.000000
   227  Bq   0.000000
   228  Bq   0.000000
   229  Bq   0.000000
   230  Bq   0.000000
   231  Bq   0.000000
   232  Bq   0.000000
   233  Bq   0.000000
   234  Bq   0.000000
   235  Bq   0.000000
   236  Bq   0.000000
 Electronic spatial extent (au):  <R**2>=           5804.3227
 Charge=              0.0000 electrons
 Dipole moment (field-independent basis, Debye):
    X=              0.0000    Y=              0.0732    Z=              0.0000  Tot=              0.0732
 Quadrupole moment (field-independent basis, Debye-Ang):
   XX=           -113.9137   YY=           -113.9781   ZZ=           -133.4378
   XY=              0.0000   XZ=             -4.8717   YZ=              0.0000
 Traceless Quadrupole moment (field-independent basis, Debye-Ang):
   XX=              6.5295   YY=              6.4651   ZZ=            -12.9946
   XY=              0.0000   XZ=             -4.8717   YZ=              0.0000
 Octapole moment (field-independent basis, Debye-Ang**2):
  XXX=              0.0000  YYY=             11.7108  ZZZ=              0.0000  XYY=              0.0000
  XXY=             -6.4067  XXZ=              0.0000  XZZ=              0.0000  YZZ=             -7.8695
  YYZ=              0.0000  XYZ=            -16.2862
 Hexadecapole moment (field-independent basis, Debye-Ang**3):
 XXXX=          -4416.4021 YYYY=          -2784.9756 ZZZZ=           -481.5690 XXXY=              0.0001
 XXXZ=           -124.3517 YYYX=             -0.0003 YYYZ=              0.0001 ZZZX=             -4.4782
 ZZZY=              0.0001 XXYY=          -1189.3576 XXZZ=           -942.9016 YYZZ=           -589.4012
 XXYZ=              0.0000 YYXZ=              7.8297 ZZXY=             -0.0001
 N-N= 1.599915627097D+03 E-N=-5.164192587538D+03  KE= 8.428349970566D+02
 Leave Link  601 at Tue Sep 15 13:46:33 2020, MaxMem=   131072000 cpu:         0.9
 (Enter /share/programs/GAUSSIAN/64/g09/l9999.exe)
 1\1\GINC-MUHKA\SP\RB3LYP\6-311+G(d,p)\C22H14\AARTIGAS\15-Sep-2020\0\\#
 P rb3lyp/6-311+g** NMR Guess=Read geom=connectivity\\Title\\0,1\C,0,0.
 653241,3.257859,-0.20251\C,0,-0.653243,3.25786,0.20251\C,0,1.372495,2.
 032956,-0.320807\C,0,-1.372495,2.032956,0.320807\C,0,0.722474,0.795666
 ,-0.050388\C,0,-0.722474,0.795667,0.050387\C,0,2.760385,2.053927,-0.67
 4268\C,0,3.508866,0.913916,-0.671362\C,0,2.955226,-0.309622,-0.177479\
 C,0,1.574722,-0.361114,0.197094\H,0,1.183427,4.19574,-0.384599\H,0,-1.
 183429,4.19574,0.384599\H,0,3.206283,3.012423,-0.951392\H,0,4.560023,0
 .932956,-0.969333\C,0,3.78302,-1.443098,0.028309\C,0,1.137427,-1.50753
 3,0.912109\C,0,1.973691,-2.584349,1.138062\C,0,3.301853,-2.571588,0.66
 1177\H,0,4.825754,-1.39123,-0.295484\H,0,0.124652,-1.532788,1.308472\H
 ,0,1.603586,-3.445682,1.698977\H,0,3.952742,-3.433526,0.825134\C,0,-3.
 508866,0.913915,0.671362\C,0,-2.760386,2.053926,0.674268\C,0,-2.955226
 ,-0.309623,0.177479\C,0,-1.574722,-0.361114,-0.197094\C,0,-3.78302,-1.
 443099,-0.028309\C,0,-3.301852,-2.571589,-0.661177\C,0,-1.97369,-2.584
 349,-1.138061\C,0,-1.137426,-1.507534,-0.912109\H,0,-4.560022,0.932954
 ,0.969334\H,0,-3.206283,3.012421,0.951392\H,0,-4.825754,-1.391232,0.29
 5484\H,0,-3.952741,-3.433528,-0.825134\H,0,-1.603585,-3.445682,-1.6989
 76\H,0,-0.124652,-1.532788,-1.308471\Bq,0,4.3885175663,-0.4507573162,0
 .4489556038\Bq,0,4.4095407131,-0.3888251226,0.4489556038\Bq,0,4.422300
 2307,-0.3246786961,0.4489556038\Bq,0,4.535339229,-0.2594156,0.37628354
 03\Bq,0,4.5301311906,-0.1799562887,0.3762835403\Bq,0,4.5145961863,-0.1
 018565482,0.3762835403\Bq,0,4.4890000244,-0.0264526869,0.3762835403\Bq
 ,0,4.4537806624,0.0449651145,0.3762835403\Bq,0,4.4095407131,0.11117487
 74,0.3762835403\Bq,0,4.3570371346,0.1710437346,0.3762835403\Bq,0,4.297
 1682774,0.2235473131,0.3762835403\Bq,0,4.2309585145,0.2677872624,0.376
 2835403\Bq,0,4.1595407131,0.3030066244,0.3762835403\Bq,0,4.0841368518,
 0.3286027863,0.3762835403\Bq,0,4.0060371113,0.3441377906,0.3762835403\
 Bq,0,3.9265778,0.349345829,0.3762835403\Bq,0,3.8471184887,0.3441377906
 ,0.3762835403\Bq,0,3.7690187482,0.3286027863,0.3762835403\Bq,0,3.69361
 48869,0.3030066244,0.3762835403\Bq,0,3.6221970855,0.2677872624,0.37628
 35403\Bq,0,4.3570371346,-0.6898749346,0.3762835403\Bq,0,4.4095407131,-
 0.6300060774,0.3762835403\Bq,0,4.4537806624,-0.5637963145,0.3762835403
 \Bq,0,4.4890000244,-0.4923785131,0.3762835403\Bq,0,4.5145961863,-0.416
 9746518,0.3762835403\Bq,0,4.5301311906,-0.3388749113,0.3762835403\Bq,0
 ,4.6336845812,-0.2594156,0.2900369812\Bq,0,4.6276351846,-0.1671196444,
 0.2900369812\Bq,0,4.6095905019,-0.0764028981,0.2900369812\Bq,0,4.57985
 92824,0.0111824501,0.2900369812\Bq,0,4.5389502357,0.0941377906,0.29003
 69812\Bq,0,4.4875633268,0.1710437346,0.2900369812\Bq,0,4.4265778,0.240
 5844,0.2900369812\Bq,0,4.3570371346,0.3015699268,0.2900369812\Bq,0,4.2
 801311906,0.3529568357,0.2900369812\Bq,0,4.1971758501,0.3938658824,0.2
 900369812\Bq,0,4.1095905019,0.4235971019,0.2900369812\Bq,0,4.018873755
 6,0.4416417846,0.2900369812\Bq,0,3.9265778,0.4476911812,0.2900369812\B
 q,0,3.8342818444,0.4416417846,0.2900369812\Bq,0,3.7435650981,0.4235971
 019,0.2900369812\Bq,0,3.6559797499,0.3938658824,0.2900369812\Bq,0,3.57
 30244094,0.3529568357,0.2900369812\Bq,0,4.5389502357,-0.6129689906,0.2
 900369812\Bq,0,4.5798592824,-0.5300136501,0.2900369812\Bq,0,4.60959050
 19,-0.4424283019,0.2900369812\Bq,0,4.6276351846,-0.3517115556,0.290036
 9812\Bq,0,4.7199311403,-0.2594156,0.191691629\Bq,0,4.7131438925,-0.155
 8622094,0.191691629\Bq,0,4.6928982808,-0.054080646,0.191691629\Bq,0,4.
 6595407131,0.0441875793,0.191691629\Bq,0,4.6136419469,0.1372610701,0.1
 91691629\Bq,0,4.5559873226,0.2235473131,0.191691629\Bq,0,4.4875633268,
 0.3015699268,0.191691629\Bq,0,4.4095407131,0.3699939226,0.191691629\Bq
 ,0,4.3232544701,0.4276485469,0.191691629\Bq,0,4.2301809793,0.473547313
 1,0.191691629\Bq,0,4.131912754,0.5069048808,0.191691629\Bq,0,4.0301311
 906,0.5271504925,0.191691629\Bq,0,3.9265778,0.5339377403,0.191691629\B
 q,0,4.6928982808,-0.464750554,0.191691629\Bq,0,4.7131438925,-0.3629689
 906,0.191691629\Bq,0,4.7926032038,-0.2594156,0.0829302\Bq,0,4.78519423
 64,-0.1463766017,0.0829302\Bq,0,4.7630941037,-0.035271732,0.0829302\Bq
 ,0,4.7266809452,0.071997974,0.0829302\Bq,0,4.6765778,0.1735971019,0.08
 29302\Bq,0,4.6136419469,0.2677872624,0.0829302\Bq,0,4.5389502357,0.352
 9568357,0.0829302\Bq,0,4.4537806624,0.4276485469,0.0829302\Bq,0,4.3595
 905019,0.4905844,0.0829302\Bq,0,4.257991374,0.5406875452,0.0829302\Bq,
 0,4.150721668,0.5771007037,0.0829302\Bq,0,4.7851942364,-0.3724545983,0
 .0829302\Bq,0,4.8504573325,-0.2594156,-0.0343863676\Bq,0,4.842553415,-
 0.1388251226,-0.0343863676\Bq,0,4.8189769008,-0.0202979816,-0.03438636
 76\Bq,0,4.7801311906,0.0941377906,-0.0343863676\Bq,0,4.7266809452,0.20
 25241663,-0.0343863676\Bq,0,4.6595407131,0.3030066244,-0.0343863676\Bq
 ,0,4.5798592824,0.3938658824,-0.0343863676\Bq,0,4.4890000244,0.4735473
 131,-0.0343863676\Bq,0,4.3885175663,0.5406875452,-0.0343863676\Bq,0,4.
 2801311906,0.5941377906,-0.0343863676\Bq,0,4.842553415,-0.3800060774,-
 0.0343863676\Bq,0,4.8925036263,-0.2594156,-0.1582507549\Bq,0,4.8842399
 969,-0.1333369799,-0.1582507549\Bq,0,4.8595905019,-0.0094156,-0.158250
 7549\Bq,0,4.8189769008,0.1102282106,-0.1582507549\Bq,0,4.7630941037,0.
 2235473131,-0.1582507549\Bq,0,4.6928982808,0.3286027863,-0.1582507549\
 Bq,0,4.8842399969,-0.3854942201,-0.1582507549\Bq,0,4.9180226614,-0.259
 4156,-0.2865436078\Bq,0,4.9095407131,-0.1300060774,-0.2865436078\Bq,0,
 4.8842399969,-0.0028107877,-0.2865436078\Bq,0,4.842553415,0.1199939226
 ,-0.2865436078\Bq,0,4.7851942364,0.2363068307,-0.2865436078\Bq,0,4.909
 5407131,-0.3888251226,-0.2865436078\Bq,0,4.9265778,-0.2594156,-0.41706
 98\Bq,0,4.9180226614,-0.1288894078,-0.4170698\Bq,0,4.8925036263,-0.000
 5965549,-0.4170698\Bq,0,4.8504573325,0.1232678324,-0.4170698\Bq,0,4.91
 80226614,-0.3899417922,-0.4170698\Bq,0,4.9180226614,-0.2594156,-0.5475
 959922\Bq,0,4.9095407131,-0.1300060774,-0.5475959922\Bq,0,4.8842399969
 ,-0.0028107877,-0.5475959922\Bq,0,4.9095407131,-0.3888251226,-0.547595
 9922\Bq,0,4.8925036263,-0.2594156,-0.6758888451\Bq,0,4.8842399969,-0.1
 333369799,-0.6758888451\Bq,0,4.8595905019,-0.0094156,-0.6758888451\Bq,
 0,4.8842399969,-0.3854942201,-0.6758888451\Bq,0,4.8504573325,-0.259415
 6,-0.7997532324\Bq,0,4.842553415,-0.1388251226,-0.7997532324\Bq,0,4.81
 89769008,-0.0202979816,-0.7997532324\Bq,0,3.3641555756,-0.9923785131,-
 0.7997532324\Bq,0,4.8189769008,-0.4985332184,-0.7997532324\Bq,0,4.8425
 53415,-0.3800060774,-0.7997532324\Bq,0,4.7926032038,-0.2594156,-0.9170
 698\Bq,0,4.7851942364,-0.1463766017,-0.9170698\Bq,0,3.3993749376,-0.94
 64797469,-0.9170698\Bq,0,3.4935650981,-1.0094156,-0.9170698\Bq,0,3.595
 164226,-1.0595187452,-0.9170698\Bq,0,3.702433932,-1.0959319037,-0.9170
 698\Bq,0,3.8135388017,-1.1180320364,-0.9170698\Bq,0,3.9265778,-1.12544
 10038,-0.9170698\Bq,0,4.0396167983,-1.1180320364,-0.9170698\Bq,0,4.726
 6809452,-0.590829174,-0.9170698\Bq,0,4.7630941037,-0.483559468,-0.9170
 698\Bq,0,4.7851942364,-0.3724545983,-0.9170698\Bq,0,4.7199311403,-0.25
 94156,-1.025831229\Bq,0,4.7131438925,-0.1558622094,-1.025831229\Bq,0,3
 .2971682774,-0.7423785131,-1.025831229\Bq,0,3.3655922732,-0.8204011268
 ,-1.025831229\Bq,0,3.4436148869,-0.8888251226,-1.025831229\Bq,0,3.5299
 011299,-0.9464797469,-1.025831229\Bq,0,3.6229746207,-0.9923785131,-1.0
 25831229\Bq,0,3.721242846,-1.0257360808,-1.025831229\Bq,0,3.8230244094
 ,-1.0459816925,-1.025831229\Bq,0,3.9265778,-1.0527689403,-1.025831229\
 Bq,0,4.0301311906,-1.0459816925,-1.025831229\Bq,0,4.131912754,-1.02573
 60808,-1.025831229\Bq,0,4.2301809793,-0.9923785131,-1.025831229\Bq,0,4
 .5559873226,-0.7423785131,-1.025831229\Bq,0,4.6136419469,-0.6560922701
 ,-1.025831229\Bq,0,4.6595407131,-0.5630187793,-1.025831229\Bq,0,4.6928
 982808,-0.464750554,-1.025831229\Bq,0,4.7131438925,-0.3629689906,-1.02
 5831229\Bq,0,4.6336845812,-0.2594156,-1.1241765812\Bq,0,4.6276351846,-
 0.1671196444,-1.1241765812\Bq,0,4.6095905019,-0.0764028981,-1.12417658
 12\Bq,0,3.2732963176,0.0111824501,-1.1241765812\Bq,0,3.2435650981,-0.0
 764028981,-1.1241765812\Bq,0,3.2732963176,-0.5300136501,-1.1241765812\
 Bq,0,3.3142053643,-0.6129689906,-1.1241765812\Bq,0,3.3655922732,-0.689
 8749346,-1.1241765812\Bq,0,3.4265778,-0.7594156,-1.1241765812\Bq,0,3.4
 961184654,-0.8204011268,-1.1241765812\Bq,0,3.5730244094,-0.8717880357,
 -1.1241765812\Bq,0,3.6559797499,-0.9126970824,-1.1241765812\Bq,0,3.743
 5650981,-0.9424283019,-1.1241765812\Bq,0,3.8342818444,-0.9604729846,-1
 .1241765812\Bq,0,3.9265778,-0.9665223812,-1.1241765812\Bq,0,4.01887375
 56,-0.9604729846,-1.1241765812\Bq,0,4.1095905019,-0.9424283019,-1.1241
 765812\Bq,0,4.1971758501,-0.9126970824,-1.1241765812\Bq,0,4.2801311906
 ,-0.8717880357,-1.1241765812\Bq,0,4.3570371346,-0.8204011268,-1.124176
 5812\Bq,0,4.4265778,-0.7594156,-1.1241765812\Bq,0,4.4875633268,-0.6898
 749346,-1.1241765812\Bq,0,4.5389502357,-0.6129689906,-1.1241765812\Bq,
 0,4.5798592824,-0.5300136501,-1.1241765812\Bq,0,4.6095905019,-0.442428
 3019,-1.1241765812\Bq,0,4.6276351846,-0.3517115556,-1.1241765812\Bq,0,
 4.535339229,-0.2594156,-1.2104231403\Bq,0,4.5301311906,-0.1799562887,-
 1.2104231403\Bq,0,4.5145961863,-0.1018565482,-1.2104231403\Bq,0,3.3993
 749376,0.0449651145,-1.2104231403\Bq,0,3.3641555756,-0.0264526869,-1.2
 104231403\Bq,0,3.3385594137,-0.1018565482,-1.2104231403\Bq,0,3.3230244
 094,-0.1799562887,-1.2104231403\Bq,0,3.317816371,-0.2594156,-1.2104231
 403\Bq,0,3.3230244094,-0.3388749113,-1.2104231403\Bq,0,3.3385594137,-0
 .4169746518,-1.2104231403\Bq,0,3.3641555756,-0.4923785131,-1.210423140
 3\Bq,0,3.3993749376,-0.5637963145,-1.2104231403\Bq,0,3.4436148869,-0.6
 300060774,-1.2104231403\Bq,0,3.4961184654,-0.6898749346,-1.2104231403\
 Bq,0,3.5559873226,-0.7423785131,-1.2104231403\Bq,0,3.6221970855,-0.786
 6184624,-1.2104231403\Bq,0,3.6936148869,-0.8218378244,-1.2104231403\Bq
 ,0,3.7690187482,-0.8474339863,-1.2104231403\Bq,0,3.8471184887,-0.86296
 89906,-1.2104231403\Bq,0,3.9265778,-0.868177029,-1.2104231403\Bq,0,4.0
 060371113,-0.8629689906,-1.2104231403\Bq,0,4.0841368518,-0.8474339863,
 -1.2104231403\Bq,0,4.1595407131,-0.8218378244,-1.2104231403\Bq,0,4.230
 9585145,-0.7866184624,-1.2104231403\Bq,0,4.2971682774,-0.7423785131,-1
 .2104231403\Bq,0,4.3570371346,-0.6898749346,-1.2104231403\Bq,0,4.40954
 07131,-0.6300060774,-1.2104231403\\Version=ES64L-G09RevD.01\HF=-847.00
 37387\RMSD=4.077e-09\Dipole=0.0000004,0.0287843,0.0000009\Quadrupole=4
 .8545288,4.8066247,-9.6611535,-0.0000047,-3.6219991,-0.000002\PG=C01 [
 X(C22H14)]\\@


 KNOWLEDGE IS EXPERIMENT'S DAUGHTER.
 -- LEONARDO DA VINCI, IN "PENSIERI" CA. 1492
 Job cpu time:       0 days  1 hours 18 minutes 13.1 seconds.
 File lengths (MBytes):  RWF=    184 Int=      0 D2E=      0 Chk=     21 Scr=      1
 Normal termination of Gaussian 09 at Tue Sep 15 13:46:33 2020.
