 Entering Gaussian System, Link 0=g09
 Input=input_batch_15600.com
 Output=input_batch_15600.log
 Initial command:
 /share/programs/GAUSSIAN/64/g09/l1.exe "/scratch/aartigas.39048/Gau-1557750.inp" -scrdir="/scratch/aartigas.39048/"
 Entering Link 1 = /share/programs/GAUSSIAN/64/g09/l1.exe PID=   1557751.
  
 Copyright (c) 1988,1990,1992,1993,1995,1998,2003,2009,2013,
            Gaussian, Inc.  All Rights Reserved.
  
 This is part of the Gaussian(R) 09 program.  It is based on
 the Gaussian(R) 03 system (copyright 2003, Gaussian, Inc.),
 the Gaussian(R) 98 system (copyright 1998, Gaussian, Inc.),
 the Gaussian(R) 94 system (copyright 1995, Gaussian, Inc.),
 the Gaussian 92(TM) system (copyright 1992, Gaussian, Inc.),
 the Gaussian 90(TM) system (copyright 1990, Gaussian, Inc.),
 the Gaussian 88(TM) system (copyright 1988, Gaussian, Inc.),
 the Gaussian 86(TM) system (copyright 1986, Carnegie Mellon
 University), and the Gaussian 82(TM) system (copyright 1983,
 Carnegie Mellon University). Gaussian is a federally registered
 trademark of Gaussian, Inc.
  
 This software contains proprietary and confidential information,
 including trade secrets, belonging to Gaussian, Inc.
  
 This software is provided under written license and may be
 used, copied, transmitted, or stored only in accord with that
 written license.
  
 The following legend is applicable only to US Government
 contracts under FAR:
  
                    RESTRICTED RIGHTS LEGEND
  
 Use, reproduction and disclosure by the US Government is
 subject to restrictions as set forth in subparagraphs (a)
 and (c) of the Commercial Computer Software - Restricted
 Rights clause in FAR 52.227-19.
  
 Gaussian, Inc.
 340 Quinnipiac St., Bldg. 40, Wallingford CT 06492
  
  
 ---------------------------------------------------------------
 Warning -- This program may not be used in any manner that
 competes with the business of Gaussian, Inc. or will provide
 assistance to any competitor of Gaussian, Inc.  The licensee
 of this program is prohibited from giving any competitor of
 Gaussian, Inc. access to this program.  By using this program,
 the user acknowledges that Gaussian, Inc. is engaged in the
 business of creating and licensing software in the field of
 computational chemistry and represents and warrants to the
 licensee that it is not a competitor of Gaussian, Inc. and that
 it will not use this program in any manner prohibited above.
 ---------------------------------------------------------------
  

 Cite this work as:
 Gaussian 09, Revision D.01,
 M. J. Frisch, G. W. Trucks, H. B. Schlegel, G. E. Scuseria, 
 M. A. Robb, J. R. Cheeseman, G. Scalmani, V. Barone, B. Mennucci, 
 G. A. Petersson, H. Nakatsuji, M. Caricato, X. Li, H. P. Hratchian, 
 A. F. Izmaylov, J. Bloino, G. Zheng, J. L. Sonnenberg, M. Hada, 
 M. Ehara, K. Toyota, R. Fukuda, J. Hasegawa, M. Ishida, T. Nakajima, 
 Y. Honda, O. Kitao, H. Nakai, T. Vreven, J. A. Montgomery, Jr., 
 J. E. Peralta, F. Ogliaro, M. Bearpark, J. J. Heyd, E. Brothers, 
 K. N. Kudin, V. N. Staroverov, T. Keith, R. Kobayashi, J. Normand, 
 K. Raghavachari, A. Rendell, J. C. Burant, S. S. Iyengar, J. Tomasi, 
 M. Cossi, N. Rega, J. M. Millam, M. Klene, J. E. Knox, J. B. Cross, 
 V. Bakken, C. Adamo, J. Jaramillo, R. Gomperts, R. E. Stratmann, 
 O. Yazyev, A. J. Austin, R. Cammi, C. Pomelli, J. W. Ochterski, 
 R. L. Martin, K. Morokuma, V. G. Zakrzewski, G. A. Voth, 
 P. Salvador, J. J. Dannenberg, S. Dapprich, A. D. Daniels, 
 O. Farkas, J. B. Foresman, J. V. Ortiz, J. Cioslowski, 
 and D. J. Fox, Gaussian, Inc., Wallingford CT, 2013.
 
 ******************************************
 Gaussian 09:  ES64L-G09RevD.01 24-Apr-2013
                15-Sep-2020 
 ******************************************
 %OldChk=/home/aartigas/chk/5_helicene_spe.chk
 %nproc=8
 Will use up to    8 processors via shared memory.
 %mem=1000MB
 Copying data from "/home/aartigas/chk/5_helicene_spe.chk" to current chk file "/scratch/aartigas.39048/Gau-1557751.chk".
 ----------------------------------------------------
 #P rb3lyp/6-311+g** NMR Guess=Read geom=connectivity
 ----------------------------------------------------
 1/38=1,57=2/1;
 2/12=2,17=6,18=5,40=1/2;
 3/5=4,6=6,7=111,11=2,16=1,25=1,30=1,74=-5,116=1/1,2,8,3;
 4/5=1/1;
 5/5=2,38=6/2;
 8/6=1,10=90,11=11/1;
 10/13=100,45=16/2;
 6/7=2,8=2,9=2,10=2,28=1/1;
 99/9=1/99;
 Leave Link    1 at Tue Sep 15 12:25:12 2020, MaxMem=   131072000 cpu:         1.0
 (Enter /share/programs/GAUSSIAN/64/g09/l101.exe)
 -----
 Title
 -----
 Symbolic Z-matrix:
 Charge =  0 Multiplicity = 1
 C                     0.65324   3.25786  -0.20251 
 C                    -0.65324   3.25786   0.20251 
 C                     1.3725    2.03296  -0.32081 
 C                    -1.3725    2.03296   0.32081 
 C                     0.72247   0.79567  -0.05039 
 C                    -0.72247   0.79567   0.05039 
 C                     2.76039   2.05393  -0.67427 
 C                     3.50887   0.91392  -0.67136 
 C                     2.95523  -0.30962  -0.17748 
 C                     1.57472  -0.36111   0.19709 
 H                     1.18343   4.19574  -0.3846 
 H                    -1.18343   4.19574   0.3846 
 H                     3.20628   3.01242  -0.95139 
 H                     4.56002   0.93296  -0.96933 
 C                     3.78302  -1.4431    0.02831 
 C                     1.13743  -1.50753   0.91211 
 C                     1.97369  -2.58435   1.13806 
 C                     3.30185  -2.57159   0.66118 
 H                     4.82575  -1.39123  -0.29548 
 H                     0.12465  -1.53279   1.30847 
 H                     1.60359  -3.44568   1.69898 
 H                     3.95274  -3.43353   0.82513 
 C                    -3.50887   0.91392   0.67136 
 C                    -2.76039   2.05393   0.67427 
 C                    -2.95523  -0.30962   0.17748 
 C                    -1.57472  -0.36111  -0.19709 
 C                    -3.78302  -1.4431   -0.02831 
 C                    -3.30185  -2.57159  -0.66118 
 C                    -1.97369  -2.58435  -1.13806 
 C                    -1.13743  -1.50753  -0.91211 
 H                    -4.56002   0.93295   0.96933 
 H                    -3.20628   3.01242   0.95139 
 H                    -4.82575  -1.39123   0.29548 
 H                    -3.95274  -3.43353  -0.82513 
 H                    -1.60359  -3.44568  -1.69898 
 H                    -0.12465  -1.53279  -1.30847 
 Bq                   -3.59168  -1.11169   0.89557 
 Bq                   -3.63657  -1.08955   0.89557 
 Bq                   -4.01598  -1.1395    0.89557 
 Bq                   -4.05362  -1.1725    0.89557 
 Bq                   -4.05362  -1.7137    0.89557 
 Bq                   -4.01598  -1.7467    0.89557 
 Bq                   -3.97436  -1.77451   0.89557 
 Bq                   -3.92947  -1.79665   0.89557 
 Bq                   -3.88207  -1.81274   0.89557 
 Bq                   -3.83297  -1.82251   0.89557 
 Bq                   -3.78302  -1.82578   0.89557 
 Bq                   -3.73307  -1.82251   0.89557 
 Bq                   -3.68397  -1.81274   0.89557 
 Bq                   -3.63657  -1.79665   0.89557 
 Bq                   -3.59168  -1.77451   0.89557 
 Bq                   -3.55006  -1.7467    0.89557 
 Bq                   -3.51242  -1.7137    0.89557 
 Bq                   -3.47942  -1.67606   0.89557 
 Bq                   -3.45161  -1.63444   0.89557 
 Bq                   -3.42947  -1.58955   0.89557 
 Bq                   -3.41338  -1.54214   0.89557 
 Bq                   -3.40361  -1.49305   0.89557 
 Bq                   -3.28302  -1.4431    0.83772 
 Bq                   -3.2873   -1.37784   0.83772 
 Bq                   -3.30006  -1.31369   0.83772 
 Bq                   -3.32108  -1.25176   0.83772 
 Bq                   -3.35001  -1.1931    0.83772 
 Bq                   -3.38634  -1.13872   0.83772 
 Bq                   -3.42947  -1.08955   0.83772 
 Bq                   -4.0874   -1.83978   0.83772 
 Bq                   -4.03302  -1.87611   0.83772 
 Bq                   -3.97436  -1.90504   0.83772 
 Bq                   -3.91243  -1.92606   0.83772 
 Bq                   -3.84828  -1.93882   0.83772 
 Bq                   -3.78302  -1.9431    0.83772 
 Bq                   -3.71776  -1.93882   0.83772 
 Bq                   -3.65361  -1.92606   0.83772 
 Bq                   -3.59168  -1.90504   0.83772 
 Bq                   -3.53302  -1.87611   0.83772 
 Bq                   -3.47864  -1.83978   0.83772 
 Bq                   -3.42947  -1.79665   0.83772 
 Bq                   -3.38634  -1.74748   0.83772 
 Bq                   -3.35001  -1.6931    0.83772 
 Bq                   -3.32108  -1.63444   0.83772 
 Bq                   -3.30006  -1.57251   0.83772 
 Bq                   -3.2873   -1.50836   0.83772 
 Bq                   -3.17426  -1.4431    0.76504 
 Bq                   -3.17947  -1.36364   0.76504 
 Bq                   -3.195    -1.28554   0.76504 
 Bq                   -3.2206   -1.21014   0.76504 
 Bq                   -3.25582  -1.13872   0.76504 
 Bq                   -3.30006  -1.07251   0.76504 
 Bq                   -4.0874   -1.9703    0.76504 
 Bq                   -4.01598  -2.00552   0.76504 
 Bq                   -3.94058  -2.03112   0.76504 
 Bq                   -3.86248  -2.04665   0.76504 
 Bq                   -3.78302  -2.05186   0.76504 
 Bq                   -3.70356  -2.04665   0.76504 
 Bq                   -3.62546  -2.03112   0.76504 
 Bq                   -3.55006  -2.00552   0.76504 
 Bq                   -3.47864  -1.9703    0.76504 
 Bq                   -3.41243  -1.92606   0.76504 
 Bq                   -3.35256  -1.87356   0.76504 
 Bq                   -3.30006  -1.81369   0.76504 
 Bq                   -3.25582  -1.74748   0.76504 
 Bq                   -3.2206   -1.67606   0.76504 
 Bq                   -3.195    -1.60066   0.76504 
 Bq                   -3.17947  -1.52256   0.76504 
 Bq                   -3.07591  -1.4431    0.6788 
 Bq                   -3.08196  -1.3508    0.6788 
 Bq                   -3.10001  -1.26009   0.6788 
 Bq                   -3.12974  -1.1725    0.6788 
 Bq                   -4.13657  -2.05547   0.6788 
 Bq                   -3.78302  -2.15021   0.6788 
 Bq                   -3.69072  -2.14416   0.6788 
 Bq                   -3.60001  -2.12611   0.6788 
 Bq                   -3.51242  -2.09638   0.6788 
 Bq                   -3.42947  -2.05547   0.6788 
 Bq                   -3.35256  -2.00408   0.6788 
 Bq                   -3.28302  -1.9431    0.6788 
 Bq                   -3.22203  -1.87356   0.6788 
 Bq                   -3.17065  -1.79665   0.6788 
 Bq                   -3.12974  -1.7137    0.6788 
 Bq                   -3.10001  -1.62611   0.6788 
 Bq                   -3.08196  -1.53539   0.6788 
 Bq                   -2.98967  -1.4431    0.58045 
 Bq                   -2.99645  -1.33955   0.58045 
 Bq                   -3.0167   -1.23776   0.58045 
 Bq                   -3.47942  -2.17606   0.58045 
 Bq                   -3.38634  -2.13016   0.58045 
 Bq                   -3.30006  -2.07251   0.58045 
 Bq                   -3.22203  -2.00408   0.58045 
 Bq                   -3.15361  -1.92606   0.58045 
 Bq                   -3.09596  -1.83978   0.58045 
 Bq                   -3.05006  -1.7467    0.58045 
 Bq                   -3.0167   -1.64843   0.58045 
 Bq                   -2.99645  -1.54665   0.58045 
 Bq                   -2.91699  -1.4431    0.47169 
 Bq                   -2.9244   -1.33006   0.47169 
 Bq                   -3.25582  -2.13016   0.47169 
 Bq                   -3.17065  -2.05547   0.47169 
 Bq                   -3.09596  -1.9703    0.47169 
 Bq                   -3.03302  -1.87611   0.47169 
 Bq                   -2.98292  -1.77451   0.47169 
 Bq                   -2.9465   -1.66724   0.47169 
 Bq                   -2.9244   -1.55614   0.47169 
 Bq                   -3.12974  -2.09638   0.35437 
 Bq                   -3.05006  -2.00552   0.35437 
 Bq                   -2.98292  -1.90504   0.35437 
 Bq                   -2.92947  -1.79665   0.35437 
 Bq                   -3.10001  -2.12611   0.23051 
 Bq                   -3.0167   -2.03112   0.23051 
 Bq                   -4.34544  -0.71014  -0.41099 
 Bq                   -4.4363   -0.78982  -0.41099 
 Bq                   -3.66998  -0.58448  -0.52831 
 Bq                   -3.78302  -0.57707  -0.52831 
 Bq                   -3.89606  -0.58448  -0.52831 
 Bq                   -4.00716  -0.60658  -0.52831 
 Bq                   -4.11443  -0.643    -0.52831 
 Bq                   -4.21603  -0.6931   -0.52831 
 Bq                   -4.31022  -0.75603  -0.52831 
 Bq                   -4.39539  -0.83073  -0.52831 
 Bq                   -4.47008  -0.9159   -0.52831 
 Bq                   -3.30006  -0.81369  -0.63707 
 Bq                   -3.38634  -0.75603  -0.63707 
 Bq                   -3.47942  -0.71014  -0.63707 
 Bq                   -3.57769  -0.67678  -0.63707 
 Bq                   -3.67947  -0.65653  -0.63707 
 Bq                   -3.78302  -0.64975  -0.63707 
 Bq                   -3.88657  -0.65653  -0.63707 
 Bq                   -3.98835  -0.67678  -0.63707 
 Bq                   -4.08662  -0.71014  -0.63707 
 Bq                   -4.1797   -0.75603  -0.63707 
 Bq                   -4.26598  -0.81369  -0.63707 
 Bq                   -4.34401  -0.88211  -0.63707 
 Bq                   -4.41243  -0.96014  -0.63707 
 Bq                   -4.47008  -1.04642  -0.63707 
 Bq                   -4.51598  -1.1395   -0.63707 
 Bq                   -3.28302  -0.9431   -0.73542 
 Bq                   -3.35256  -0.88211  -0.73542 
 Bq                   -3.42947  -0.83073  -0.73542 
 Bq                   -3.51242  -0.78982  -0.73542 
 Bq                   -3.60001  -0.76009  -0.73542 
 Bq                   -3.69072  -0.74204  -0.73542 
 Bq                   -3.78302  -0.73599  -0.73542 
 Bq                   -3.87532  -0.74204  -0.73542 
 Bq                   -3.96603  -0.76009  -0.73542 
 Bq                   -4.05362  -0.78982  -0.73542 
 Bq                   -4.13657  -0.83073  -0.73542 
 Bq                   -4.21348  -0.88211  -0.73542 
 Bq                   -4.28302  -0.9431   -0.73542 
 Bq                   -4.34401  -1.01264  -0.73542 
 Bq                   -4.39539  -1.08955  -0.73542 
 Bq                   -4.4363   -1.1725   -0.73542 
 Bq                   -4.46603  -1.26009  -0.73542 
 Bq                   -4.48408  -1.3508   -0.73542 
 Bq                   -4.49013  -1.4431   -0.73542 
 Bq                   -3.35256  -1.01264  -0.82166 
 Bq                   -3.41243  -0.96014  -0.82166 
 Bq                   -3.47864  -0.9159   -0.82166 
 Bq                   -3.55006  -0.88068  -0.82166 
 Bq                   -3.62546  -0.85508  -0.82166 
 Bq                   -3.70356  -0.83955  -0.82166 
 Bq                   -3.78302  -0.83434  -0.82166 
 Bq                   -3.86248  -0.83955  -0.82166 
 Bq                   -3.94058  -0.85508  -0.82166 
 Bq                   -4.01598  -0.88068  -0.82166 
 Bq                   -4.0874   -0.9159   -0.82166 
 Bq                   -4.15361  -0.96014  -0.82166 
 Bq                   -4.21348  -1.01264  -0.82166 
 Bq                   -4.26598  -1.07251  -0.82166 
 Bq                   -4.31022  -1.13872  -0.82166 
 Bq                   -4.34544  -1.21014  -0.82166 
 Bq                   -4.37104  -1.28554  -0.82166 
 Bq                   -4.38657  -1.36364  -0.82166 
 Bq                   -4.39178  -1.4431   -0.82166 
 Bq                   -3.35001  -1.1931   -0.89433 
 Bq                   -3.38634  -1.13872  -0.89433 
 Bq                   -3.42947  -1.08955  -0.89433 
 Bq                   -3.47864  -1.04642  -0.89433 
 Bq                   -3.53302  -1.01009  -0.89433 
 Bq                   -3.59168  -0.98116  -0.89433 
 Bq                   -3.65361  -0.96014  -0.89433 
 Bq                   -3.71776  -0.94738  -0.89433 
 Bq                   -3.78302  -0.9431   -0.89433 
 Bq                   -3.84828  -0.94738  -0.89433 
 Bq                   -3.91243  -0.96014  -0.89433 
 Bq                   -3.97436  -0.98116  -0.89433 
 Bq                   -4.03302  -1.01009  -0.89433 
 Bq                   -4.0874   -1.04642  -0.89433 
 Bq                   -4.13657  -1.08955  -0.89433 
 Bq                   -4.1797   -1.13872  -0.89433 
 Bq                   -4.21603  -1.1931   -0.89433 
 Bq                   -4.24496  -1.25176  -0.89433 
 Bq                   -4.26598  -1.31369  -0.89433 
 Bq                   -4.27874  -1.37784  -0.89433 
 Bq                   -4.28302  -1.4431   -0.89433 
 Bq                   -3.40034  -1.4431   -0.95219 
 Bq                   -3.40361  -1.39315  -0.95219 
 Bq                   -3.41338  -1.34405  -0.95219 
 
 NAtoms=    236 NQM=      236 NQMF=       0 NMMI=      0 NMMIF=      0
                NMic=       0 NMicF=      0.
                    Isotopes and Nuclear Properties:
 (Nuclear quadrupole moments (NQMom) in fm**2, nuclear magnetic moments (NMagM)
  in nuclear magnetons)

  Atom         1           2           3           4           5           6           7           8           9          10
 IAtWgt=          12          12          12          12          12          12          12          12          12          12
 AtmWgt=  12.0000000  12.0000000  12.0000000  12.0000000  12.0000000  12.0000000  12.0000000  12.0000000  12.0000000  12.0000000
 NucSpn=           0           0           0           0           0           0           0           0           0           0
 AtZEff=   0.0000000   0.0000000   0.0000000   0.0000000   0.0000000   0.0000000   0.0000000   0.0000000   0.0000000   0.0000000
 NQMom=    0.0000000   0.0000000   0.0000000   0.0000000   0.0000000   0.0000000   0.0000000   0.0000000   0.0000000   0.0000000
 NMagM=    0.0000000   0.0000000   0.0000000   0.0000000   0.0000000   0.0000000   0.0000000   0.0000000   0.0000000   0.0000000
 AtZNuc=   6.0000000   6.0000000   6.0000000   6.0000000   6.0000000   6.0000000   6.0000000   6.0000000   6.0000000   6.0000000

  Atom        11          12          13          14          15          16          17          18          19          20
 IAtWgt=           1           1           1           1          12          12          12          12           1           1
 AtmWgt=   1.0078250   1.0078250   1.0078250   1.0078250  12.0000000  12.0000000  12.0000000  12.0000000   1.0078250   1.0078250
 NucSpn=           1           1           1           1           0           0           0           0           1           1
 AtZEff=   0.0000000   0.0000000   0.0000000   0.0000000   0.0000000   0.0000000   0.0000000   0.0000000   0.0000000   0.0000000
 NQMom=    0.0000000   0.0000000   0.0000000   0.0000000   0.0000000   0.0000000   0.0000000   0.0000000   0.0000000   0.0000000
 NMagM=    2.7928460   2.7928460   2.7928460   2.7928460   0.0000000   0.0000000   0.0000000   0.0000000   2.7928460   2.7928460
 AtZNuc=   1.0000000   1.0000000   1.0000000   1.0000000   6.0000000   6.0000000   6.0000000   6.0000000   1.0000000   1.0000000

  Atom        21          22          23          24          25          26          27          28          29          30
 IAtWgt=           1           1          12          12          12          12          12          12          12          12
 AtmWgt=   1.0078250   1.0078250  12.0000000  12.0000000  12.0000000  12.0000000  12.0000000  12.0000000  12.0000000  12.0000000
 NucSpn=           1           1           0           0           0           0           0           0           0           0
 AtZEff=   0.0000000   0.0000000   0.0000000   0.0000000   0.0000000   0.0000000   0.0000000   0.0000000   0.0000000   0.0000000
 NQMom=    0.0000000   0.0000000   0.0000000   0.0000000   0.0000000   0.0000000   0.0000000   0.0000000   0.0000000   0.0000000
 NMagM=    2.7928460   2.7928460   0.0000000   0.0000000   0.0000000   0.0000000   0.0000000   0.0000000   0.0000000   0.0000000
 AtZNuc=   1.0000000   1.0000000   6.0000000   6.0000000   6.0000000   6.0000000   6.0000000   6.0000000   6.0000000   6.0000000

  Atom        31          32          33          34          35          36          37          38          39          40
 IAtWgt=           1           1           1           1           1           1           0           0           0           0
 AtmWgt=   1.0078250   1.0078250   1.0078250   1.0078250   1.0078250   1.0078250   0.0000000   0.0000000   0.0000000   0.0000000
 NucSpn=           1           1           1           1           1           1           0           0           0           0
 AtZEff=   0.0000000   0.0000000   0.0000000   0.0000000   0.0000000   0.0000000   0.0000000   0.0000000   0.0000000   0.0000000
 NQMom=    0.0000000   0.0000000   0.0000000   0.0000000   0.0000000   0.0000000   0.0000000   0.0000000   0.0000000   0.0000000
 NMagM=    2.7928460   2.7928460   2.7928460   2.7928460   2.7928460   2.7928460   0.0000000   0.0000000   0.0000000   0.0000000
 AtZNuc=   1.0000000   1.0000000   1.0000000   1.0000000   1.0000000   1.0000000   0.0000000   0.0000000   0.0000000   0.0000000

  Atom        41          42          43          44          45          46          47          48          49          50
 IAtWgt=           0           0           0           0           0           0           0           0           0           0
 AtmWgt=   0.0000000   0.0000000   0.0000000   0.0000000   0.0000000   0.0000000   0.0000000   0.0000000   0.0000000   0.0000000
 NucSpn=           0           0           0           0           0           0           0           0           0           0
 AtZEff=   0.0000000   0.0000000   0.0000000   0.0000000   0.0000000   0.0000000   0.0000000   0.0000000   0.0000000   0.0000000
 NQMom=    0.0000000   0.0000000   0.0000000   0.0000000   0.0000000   0.0000000   0.0000000   0.0000000   0.0000000   0.0000000
 NMagM=    0.0000000   0.0000000   0.0000000   0.0000000   0.0000000   0.0000000   0.0000000   0.0000000   0.0000000   0.0000000
 AtZNuc=   0.0000000   0.0000000   0.0000000   0.0000000   0.0000000   0.0000000   0.0000000   0.0000000   0.0000000   0.0000000

  Atom        51          52          53          54          55          56          57          58          59          60
 IAtWgt=           0           0           0           0           0           0           0           0           0           0
 AtmWgt=   0.0000000   0.0000000   0.0000000   0.0000000   0.0000000   0.0000000   0.0000000   0.0000000   0.0000000   0.0000000
 NucSpn=           0           0           0           0           0           0           0           0           0           0
 AtZEff=   0.0000000   0.0000000   0.0000000   0.0000000   0.0000000   0.0000000   0.0000000   0.0000000   0.0000000   0.0000000
 NQMom=    0.0000000   0.0000000   0.0000000   0.0000000   0.0000000   0.0000000   0.0000000   0.0000000   0.0000000   0.0000000
 NMagM=    0.0000000   0.0000000   0.0000000   0.0000000   0.0000000   0.0000000   0.0000000   0.0000000   0.0000000   0.0000000
 AtZNuc=   0.0000000   0.0000000   0.0000000   0.0000000   0.0000000   0.0000000   0.0000000   0.0000000   0.0000000   0.0000000

  Atom        61          62          63          64          65          66          67          68          69          70
 IAtWgt=           0           0           0           0           0           0           0           0           0           0
 AtmWgt=   0.0000000   0.0000000   0.0000000   0.0000000   0.0000000   0.0000000   0.0000000   0.0000000   0.0000000   0.0000000
 NucSpn=           0           0           0           0           0           0           0           0           0           0
 AtZEff=   0.0000000   0.0000000   0.0000000   0.0000000   0.0000000   0.0000000   0.0000000   0.0000000   0.0000000   0.0000000
 NQMom=    0.0000000   0.0000000   0.0000000   0.0000000   0.0000000   0.0000000   0.0000000   0.0000000   0.0000000   0.0000000
 NMagM=    0.0000000   0.0000000   0.0000000   0.0000000   0.0000000   0.0000000   0.0000000   0.0000000   0.0000000   0.0000000
 AtZNuc=   0.0000000   0.0000000   0.0000000   0.0000000   0.0000000   0.0000000   0.0000000   0.0000000   0.0000000   0.0000000

  Atom        71          72          73          74          75          76          77          78          79          80
 IAtWgt=           0           0           0           0           0           0           0           0           0           0
 AtmWgt=   0.0000000   0.0000000   0.0000000   0.0000000   0.0000000   0.0000000   0.0000000   0.0000000   0.0000000   0.0000000
 NucSpn=           0           0           0           0           0           0           0           0           0           0
 AtZEff=   0.0000000   0.0000000   0.0000000   0.0000000   0.0000000   0.0000000   0.0000000   0.0000000   0.0000000   0.0000000
 NQMom=    0.0000000   0.0000000   0.0000000   0.0000000   0.0000000   0.0000000   0.0000000   0.0000000   0.0000000   0.0000000
 NMagM=    0.0000000   0.0000000   0.0000000   0.0000000   0.0000000   0.0000000   0.0000000   0.0000000   0.0000000   0.0000000
 AtZNuc=   0.0000000   0.0000000   0.0000000   0.0000000   0.0000000   0.0000000   0.0000000   0.0000000   0.0000000   0.0000000

  Atom        81          82          83          84          85          86          87          88          89          90
 IAtWgt=           0           0           0           0           0           0           0           0           0           0
 AtmWgt=   0.0000000   0.0000000   0.0000000   0.0000000   0.0000000   0.0000000   0.0000000   0.0000000   0.0000000   0.0000000
 NucSpn=           0           0           0           0           0           0           0           0           0           0
 AtZEff=   0.0000000   0.0000000   0.0000000   0.0000000   0.0000000   0.0000000   0.0000000   0.0000000   0.0000000   0.0000000
 NQMom=    0.0000000   0.0000000   0.0000000   0.0000000   0.0000000   0.0000000   0.0000000   0.0000000   0.0000000   0.0000000
 NMagM=    0.0000000   0.0000000   0.0000000   0.0000000   0.0000000   0.0000000   0.0000000   0.0000000   0.0000000   0.0000000
 AtZNuc=   0.0000000   0.0000000   0.0000000   0.0000000   0.0000000   0.0000000   0.0000000   0.0000000   0.0000000   0.0000000

  Atom        91          92          93          94          95          96          97          98          99         100
 IAtWgt=           0           0           0           0           0           0           0           0           0           0
 AtmWgt=   0.0000000   0.0000000   0.0000000   0.0000000   0.0000000   0.0000000   0.0000000   0.0000000   0.0000000   0.0000000
 NucSpn=           0           0           0           0           0           0           0           0           0           0
 AtZEff=   0.0000000   0.0000000   0.0000000   0.0000000   0.0000000   0.0000000   0.0000000   0.0000000   0.0000000   0.0000000
 NQMom=    0.0000000   0.0000000   0.0000000   0.0000000   0.0000000   0.0000000   0.0000000   0.0000000   0.0000000   0.0000000
 NMagM=    0.0000000   0.0000000   0.0000000   0.0000000   0.0000000   0.0000000   0.0000000   0.0000000   0.0000000   0.0000000
 AtZNuc=   0.0000000   0.0000000   0.0000000   0.0000000   0.0000000   0.0000000   0.0000000   0.0000000   0.0000000   0.0000000

  Atom       101         102         103         104         105         106         107         108         109         110
 IAtWgt=           0           0           0           0           0           0           0           0           0           0
 AtmWgt=   0.0000000   0.0000000   0.0000000   0.0000000   0.0000000   0.0000000   0.0000000   0.0000000   0.0000000   0.0000000
 NucSpn=           0           0           0           0           0           0           0           0           0           0
 AtZEff=   0.0000000   0.0000000   0.0000000   0.0000000   0.0000000   0.0000000   0.0000000   0.0000000   0.0000000   0.0000000
 NQMom=    0.0000000   0.0000000   0.0000000   0.0000000   0.0000000   0.0000000   0.0000000   0.0000000   0.0000000   0.0000000
 NMagM=    0.0000000   0.0000000   0.0000000   0.0000000   0.0000000   0.0000000   0.0000000   0.0000000   0.0000000   0.0000000
 AtZNuc=   0.0000000   0.0000000   0.0000000   0.0000000   0.0000000   0.0000000   0.0000000   0.0000000   0.0000000   0.0000000

  Atom       111         112         113         114         115         116         117         118         119         120
 IAtWgt=           0           0           0           0           0           0           0           0           0           0
 AtmWgt=   0.0000000   0.0000000   0.0000000   0.0000000   0.0000000   0.0000000   0.0000000   0.0000000   0.0000000   0.0000000
 NucSpn=           0           0           0           0           0           0           0           0           0           0
 AtZEff=   0.0000000   0.0000000   0.0000000   0.0000000   0.0000000   0.0000000   0.0000000   0.0000000   0.0000000   0.0000000
 NQMom=    0.0000000   0.0000000   0.0000000   0.0000000   0.0000000   0.0000000   0.0000000   0.0000000   0.0000000   0.0000000
 NMagM=    0.0000000   0.0000000   0.0000000   0.0000000   0.0000000   0.0000000   0.0000000   0.0000000   0.0000000   0.0000000
 AtZNuc=   0.0000000   0.0000000   0.0000000   0.0000000   0.0000000   0.0000000   0.0000000   0.0000000   0.0000000   0.0000000

  Atom       121         122         123         124         125         126         127         128         129         130
 IAtWgt=           0           0           0           0           0           0           0           0           0           0
 AtmWgt=   0.0000000   0.0000000   0.0000000   0.0000000   0.0000000   0.0000000   0.0000000   0.0000000   0.0000000   0.0000000
 NucSpn=           0           0           0           0           0           0           0           0           0           0
 AtZEff=   0.0000000   0.0000000   0.0000000   0.0000000   0.0000000   0.0000000   0.0000000   0.0000000   0.0000000   0.0000000
 NQMom=    0.0000000   0.0000000   0.0000000   0.0000000   0.0000000   0.0000000   0.0000000   0.0000000   0.0000000   0.0000000
 NMagM=    0.0000000   0.0000000   0.0000000   0.0000000   0.0000000   0.0000000   0.0000000   0.0000000   0.0000000   0.0000000
 AtZNuc=   0.0000000   0.0000000   0.0000000   0.0000000   0.0000000   0.0000000   0.0000000   0.0000000   0.0000000   0.0000000

  Atom       131         132         133         134         135         136         137         138         139         140
 IAtWgt=           0           0           0           0           0           0           0           0           0           0
 AtmWgt=   0.0000000   0.0000000   0.0000000   0.0000000   0.0000000   0.0000000   0.0000000   0.0000000   0.0000000   0.0000000
 NucSpn=           0           0           0           0           0           0           0           0           0           0
 AtZEff=   0.0000000   0.0000000   0.0000000   0.0000000   0.0000000   0.0000000   0.0000000   0.0000000   0.0000000   0.0000000
 NQMom=    0.0000000   0.0000000   0.0000000   0.0000000   0.0000000   0.0000000   0.0000000   0.0000000   0.0000000   0.0000000
 NMagM=    0.0000000   0.0000000   0.0000000   0.0000000   0.0000000   0.0000000   0.0000000   0.0000000   0.0000000   0.0000000
 AtZNuc=   0.0000000   0.0000000   0.0000000   0.0000000   0.0000000   0.0000000   0.0000000   0.0000000   0.0000000   0.0000000

  Atom       141         142         143         144         145         146         147         148         149         150
 IAtWgt=           0           0           0           0           0           0           0           0           0           0
 AtmWgt=   0.0000000   0.0000000   0.0000000   0.0000000   0.0000000   0.0000000   0.0000000   0.0000000   0.0000000   0.0000000
 NucSpn=           0           0           0           0           0           0           0           0           0           0
 AtZEff=   0.0000000   0.0000000   0.0000000   0.0000000   0.0000000   0.0000000   0.0000000   0.0000000   0.0000000   0.0000000
 NQMom=    0.0000000   0.0000000   0.0000000   0.0000000   0.0000000   0.0000000   0.0000000   0.0000000   0.0000000   0.0000000
 NMagM=    0.0000000   0.0000000   0.0000000   0.0000000   0.0000000   0.0000000   0.0000000   0.0000000   0.0000000   0.0000000
 AtZNuc=   0.0000000   0.0000000   0.0000000   0.0000000   0.0000000   0.0000000   0.0000000   0.0000000   0.0000000   0.0000000

  Atom       151         152         153         154         155         156         157         158         159         160
 IAtWgt=           0           0           0           0           0           0           0           0           0           0
 AtmWgt=   0.0000000   0.0000000   0.0000000   0.0000000   0.0000000   0.0000000   0.0000000   0.0000000   0.0000000   0.0000000
 NucSpn=           0           0           0           0           0           0           0           0           0           0
 AtZEff=   0.0000000   0.0000000   0.0000000   0.0000000   0.0000000   0.0000000   0.0000000   0.0000000   0.0000000   0.0000000
 NQMom=    0.0000000   0.0000000   0.0000000   0.0000000   0.0000000   0.0000000   0.0000000   0.0000000   0.0000000   0.0000000
 NMagM=    0.0000000   0.0000000   0.0000000   0.0000000   0.0000000   0.0000000   0.0000000   0.0000000   0.0000000   0.0000000
 AtZNuc=   0.0000000   0.0000000   0.0000000   0.0000000   0.0000000   0.0000000   0.0000000   0.0000000   0.0000000   0.0000000

  Atom       161         162         163         164         165         166         167         168         169         170
 IAtWgt=           0           0           0           0           0           0           0           0           0           0
 AtmWgt=   0.0000000   0.0000000   0.0000000   0.0000000   0.0000000   0.0000000   0.0000000   0.0000000   0.0000000   0.0000000
 NucSpn=           0           0           0           0           0           0           0           0           0           0
 AtZEff=   0.0000000   0.0000000   0.0000000   0.0000000   0.0000000   0.0000000   0.0000000   0.0000000   0.0000000   0.0000000
 NQMom=    0.0000000   0.0000000   0.0000000   0.0000000   0.0000000   0.0000000   0.0000000   0.0000000   0.0000000   0.0000000
 NMagM=    0.0000000   0.0000000   0.0000000   0.0000000   0.0000000   0.0000000   0.0000000   0.0000000   0.0000000   0.0000000
 AtZNuc=   0.0000000   0.0000000   0.0000000   0.0000000   0.0000000   0.0000000   0.0000000   0.0000000   0.0000000   0.0000000

  Atom       171         172         173         174         175         176         177         178         179         180
 IAtWgt=           0           0           0           0           0           0           0           0           0           0
 AtmWgt=   0.0000000   0.0000000   0.0000000   0.0000000   0.0000000   0.0000000   0.0000000   0.0000000   0.0000000   0.0000000
 NucSpn=           0           0           0           0           0           0           0           0           0           0
 AtZEff=   0.0000000   0.0000000   0.0000000   0.0000000   0.0000000   0.0000000   0.0000000   0.0000000   0.0000000   0.0000000
 NQMom=    0.0000000   0.0000000   0.0000000   0.0000000   0.0000000   0.0000000   0.0000000   0.0000000   0.0000000   0.0000000
 NMagM=    0.0000000   0.0000000   0.0000000   0.0000000   0.0000000   0.0000000   0.0000000   0.0000000   0.0000000   0.0000000
 AtZNuc=   0.0000000   0.0000000   0.0000000   0.0000000   0.0000000   0.0000000   0.0000000   0.0000000   0.0000000   0.0000000

  Atom       181         182         183         184         185         186         187         188         189         190
 IAtWgt=           0           0           0           0           0           0           0           0           0           0
 AtmWgt=   0.0000000   0.0000000   0.0000000   0.0000000   0.0000000   0.0000000   0.0000000   0.0000000   0.0000000   0.0000000
 NucSpn=           0           0           0           0           0           0           0           0           0           0
 AtZEff=   0.0000000   0.0000000   0.0000000   0.0000000   0.0000000   0.0000000   0.0000000   0.0000000   0.0000000   0.0000000
 NQMom=    0.0000000   0.0000000   0.0000000   0.0000000   0.0000000   0.0000000   0.0000000   0.0000000   0.0000000   0.0000000
 NMagM=    0.0000000   0.0000000   0.0000000   0.0000000   0.0000000   0.0000000   0.0000000   0.0000000   0.0000000   0.0000000
 AtZNuc=   0.0000000   0.0000000   0.0000000   0.0000000   0.0000000   0.0000000   0.0000000   0.0000000   0.0000000   0.0000000

  Atom       191         192         193         194         195         196         197         198         199         200
 IAtWgt=           0           0           0           0           0           0           0           0           0           0
 AtmWgt=   0.0000000   0.0000000   0.0000000   0.0000000   0.0000000   0.0000000   0.0000000   0.0000000   0.0000000   0.0000000
 NucSpn=           0           0           0           0           0           0           0           0           0           0
 AtZEff=   0.0000000   0.0000000   0.0000000   0.0000000   0.0000000   0.0000000   0.0000000   0.0000000   0.0000000   0.0000000
 NQMom=    0.0000000   0.0000000   0.0000000   0.0000000   0.0000000   0.0000000   0.0000000   0.0000000   0.0000000   0.0000000
 NMagM=    0.0000000   0.0000000   0.0000000   0.0000000   0.0000000   0.0000000   0.0000000   0.0000000   0.0000000   0.0000000
 AtZNuc=   0.0000000   0.0000000   0.0000000   0.0000000   0.0000000   0.0000000   0.0000000   0.0000000   0.0000000   0.0000000

  Atom       201         202         203         204         205         206         207         208         209         210
 IAtWgt=           0           0           0           0           0           0           0           0           0           0
 AtmWgt=   0.0000000   0.0000000   0.0000000   0.0000000   0.0000000   0.0000000   0.0000000   0.0000000   0.0000000   0.0000000
 NucSpn=           0           0           0           0           0           0           0           0           0           0
 AtZEff=   0.0000000   0.0000000   0.0000000   0.0000000   0.0000000   0.0000000   0.0000000   0.0000000   0.0000000   0.0000000
 NQMom=    0.0000000   0.0000000   0.0000000   0.0000000   0.0000000   0.0000000   0.0000000   0.0000000   0.0000000   0.0000000
 NMagM=    0.0000000   0.0000000   0.0000000   0.0000000   0.0000000   0.0000000   0.0000000   0.0000000   0.0000000   0.0000000
 AtZNuc=   0.0000000   0.0000000   0.0000000   0.0000000   0.0000000   0.0000000   0.0000000   0.0000000   0.0000000   0.0000000

  Atom       211         212         213         214         215         216         217         218         219         220
 IAtWgt=           0           0           0           0           0           0           0           0           0           0
 AtmWgt=   0.0000000   0.0000000   0.0000000   0.0000000   0.0000000   0.0000000   0.0000000   0.0000000   0.0000000   0.0000000
 NucSpn=           0           0           0           0           0           0           0           0           0           0
 AtZEff=   0.0000000   0.0000000   0.0000000   0.0000000   0.0000000   0.0000000   0.0000000   0.0000000   0.0000000   0.0000000
 NQMom=    0.0000000   0.0000000   0.0000000   0.0000000   0.0000000   0.0000000   0.0000000   0.0000000   0.0000000   0.0000000
 NMagM=    0.0000000   0.0000000   0.0000000   0.0000000   0.0000000   0.0000000   0.0000000   0.0000000   0.0000000   0.0000000
 AtZNuc=   0.0000000   0.0000000   0.0000000   0.0000000   0.0000000   0.0000000   0.0000000   0.0000000   0.0000000   0.0000000

  Atom       221         222         223         224         225         226         227         228         229         230
 IAtWgt=           0           0           0           0           0           0           0           0           0           0
 AtmWgt=   0.0000000   0.0000000   0.0000000   0.0000000   0.0000000   0.0000000   0.0000000   0.0000000   0.0000000   0.0000000
 NucSpn=           0           0           0           0           0           0           0           0           0           0
 AtZEff=   0.0000000   0.0000000   0.0000000   0.0000000   0.0000000   0.0000000   0.0000000   0.0000000   0.0000000   0.0000000
 NQMom=    0.0000000   0.0000000   0.0000000   0.0000000   0.0000000   0.0000000   0.0000000   0.0000000   0.0000000   0.0000000
 NMagM=    0.0000000   0.0000000   0.0000000   0.0000000   0.0000000   0.0000000   0.0000000   0.0000000   0.0000000   0.0000000
 AtZNuc=   0.0000000   0.0000000   0.0000000   0.0000000   0.0000000   0.0000000   0.0000000   0.0000000   0.0000000   0.0000000

  Atom       231         232         233         234         235         236
 IAtWgt=           0           0           0           0           0           0
 AtmWgt=   0.0000000   0.0000000   0.0000000   0.0000000   0.0000000   0.0000000
 NucSpn=           0           0           0           0           0           0
 AtZEff=   0.0000000   0.0000000   0.0000000   0.0000000   0.0000000   0.0000000
 NQMom=    0.0000000   0.0000000   0.0000000   0.0000000   0.0000000   0.0000000
 NMagM=    0.0000000   0.0000000   0.0000000   0.0000000   0.0000000   0.0000000
 AtZNuc=   0.0000000   0.0000000   0.0000000   0.0000000   0.0000000   0.0000000
 Leave Link  101 at Tue Sep 15 12:25:13 2020, MaxMem=   131072000 cpu:         5.3
 (Enter /share/programs/GAUSSIAN/64/g09/l202.exe)
 Symmetry turned off:
 Cannot cope with ghost atoms or with translation vectors.
 Stoichiometry    C22H14
 Framework group  C1[X(C22H14)]
 NUMDOF-- NAT=    36 NAtoms=   236
 Deg. of freedom     0
 Full point group                 C1      NOp   1
                          Input orientation:                          
 ---------------------------------------------------------------------
 Center     Atomic      Atomic             Coordinates (Angstroms)
 Number     Number       Type             X           Y           Z
 ---------------------------------------------------------------------
      1          6           0        0.653241    3.257859   -0.202510
      2          6           0       -0.653243    3.257860    0.202510
      3          6           0        1.372495    2.032956   -0.320807
      4          6           0       -1.372495    2.032956    0.320807
      5          6           0        0.722474    0.795666   -0.050388
      6          6           0       -0.722474    0.795667    0.050387
      7          6           0        2.760385    2.053927   -0.674268
      8          6           0        3.508866    0.913916   -0.671362
      9          6           0        2.955226   -0.309622   -0.177479
     10          6           0        1.574722   -0.361114    0.197094
     11          1           0        1.183427    4.195740   -0.384599
     12          1           0       -1.183429    4.195740    0.384599
     13          1           0        3.206283    3.012423   -0.951392
     14          1           0        4.560023    0.932956   -0.969333
     15          6           0        3.783020   -1.443098    0.028309
     16          6           0        1.137427   -1.507533    0.912109
     17          6           0        1.973691   -2.584349    1.138062
     18          6           0        3.301853   -2.571588    0.661177
     19          1           0        4.825754   -1.391230   -0.295484
     20          1           0        0.124652   -1.532788    1.308472
     21          1           0        1.603586   -3.445682    1.698977
     22          1           0        3.952742   -3.433526    0.825134
     23          6           0       -3.508866    0.913915    0.671362
     24          6           0       -2.760386    2.053926    0.674268
     25          6           0       -2.955226   -0.309623    0.177479
     26          6           0       -1.574722   -0.361114   -0.197094
     27          6           0       -3.783020   -1.443099   -0.028309
     28          6           0       -3.301852   -2.571589   -0.661177
     29          6           0       -1.973690   -2.584349   -1.138061
     30          6           0       -1.137426   -1.507534   -0.912109
     31          1           0       -4.560022    0.932954    0.969334
     32          1           0       -3.206283    3.012421    0.951392
     33          1           0       -4.825754   -1.391232    0.295484
     34          1           0       -3.952741   -3.433528   -0.825134
     35          1           0       -1.603585   -3.445682   -1.698976
     36          1           0       -0.124652   -1.532788   -1.308471
     37          0           0       -3.591678   -1.111685    0.895571
     38          0           0       -3.636573   -1.089546    0.895571
     39          0           0       -4.015983   -1.139496    0.895571
     40          0           0       -4.053618   -1.172501    0.895571
     41          0           0       -4.053618   -1.713697    0.895571
     42          0           0       -4.015983   -1.746702    0.895571
     43          0           0       -3.974362   -1.774513    0.895571
     44          0           0       -3.929467   -1.796652    0.895571
     45          0           0       -3.882066   -1.812743    0.895571
     46          0           0       -3.832970   -1.822509    0.895571
     47          0           0       -3.783020   -1.825782    0.895571
     48          0           0       -3.733070   -1.822509    0.895571
     49          0           0       -3.683974   -1.812743    0.895571
     50          0           0       -3.636573   -1.796652    0.895571
     51          0           0       -3.591678   -1.774513    0.895571
     52          0           0       -3.550057   -1.746702    0.895571
     53          0           0       -3.512422   -1.713697    0.895571
     54          0           0       -3.479417   -1.676062    0.895571
     55          0           0       -3.451606   -1.634441    0.895571
     56          0           0       -3.429467   -1.589546    0.895571
     57          0           0       -3.413376   -1.542145    0.895571
     58          0           0       -3.403610   -1.493049    0.895571
     59          0           0       -3.283020   -1.443099    0.837716
     60          0           0       -3.287298   -1.377836    0.837716
     61          0           0       -3.300057   -1.313689    0.837716
     62          0           0       -3.321080   -1.251757    0.837716
     63          0           0       -3.350007   -1.193099    0.837716
     64          0           0       -3.386343   -1.138718    0.837716
     65          0           0       -3.429467   -1.089546    0.837716
     66          0           0       -4.087401   -1.839776    0.837716
     67          0           0       -4.033020   -1.876112    0.837716
     68          0           0       -3.974362   -1.905039    0.837716
     69          0           0       -3.912430   -1.926062    0.837716
     70          0           0       -3.848283   -1.938821    0.837716
     71          0           0       -3.783020   -1.943099    0.837716
     72          0           0       -3.717757   -1.938821    0.837716
     73          0           0       -3.653610   -1.926062    0.837716
     74          0           0       -3.591678   -1.905039    0.837716
     75          0           0       -3.533020   -1.876112    0.837716
     76          0           0       -3.478639   -1.839776    0.837716
     77          0           0       -3.429467   -1.796652    0.837716
     78          0           0       -3.386343   -1.747480    0.837716
     79          0           0       -3.350007   -1.693099    0.837716
     80          0           0       -3.321080   -1.634441    0.837716
     81          0           0       -3.300057   -1.572509    0.837716
     82          0           0       -3.287298   -1.508362    0.837716
     83          0           0       -3.174259   -1.443099    0.765044
     84          0           0       -3.179467   -1.363640    0.765044
     85          0           0       -3.195002   -1.285540    0.765044
     86          0           0       -3.220598   -1.210136    0.765044
     87          0           0       -3.255817   -1.138718    0.765044
     88          0           0       -3.300057   -1.072509    0.765044
     89          0           0       -4.087401   -1.970302    0.765044
     90          0           0       -4.015983   -2.005521    0.765044
     91          0           0       -3.940579   -2.031117    0.765044
     92          0           0       -3.862479   -2.046652    0.765044
     93          0           0       -3.783020   -2.051860    0.765044
     94          0           0       -3.703561   -2.046652    0.765044
     95          0           0       -3.625461   -2.031117    0.765044
     96          0           0       -3.550057   -2.005521    0.765044
     97          0           0       -3.478639   -1.970302    0.765044
     98          0           0       -3.412430   -1.926062    0.765044
     99          0           0       -3.352561   -1.873558    0.765044
    100          0           0       -3.300057   -1.813689    0.765044
    101          0           0       -3.255817   -1.747480    0.765044
    102          0           0       -3.220598   -1.676062    0.765044
    103          0           0       -3.195002   -1.600658    0.765044
    104          0           0       -3.179467   -1.522558    0.765044
    105          0           0       -3.075913   -1.443099    0.678798
    106          0           0       -3.081963   -1.350803    0.678798
    107          0           0       -3.100007   -1.260086    0.678798
    108          0           0       -3.129739   -1.172501    0.678798
    109          0           0       -4.136573   -2.055471    0.678798
    110          0           0       -3.783020   -2.150206    0.678798
    111          0           0       -3.690724   -2.144156    0.678798
    112          0           0       -3.600007   -2.126112    0.678798
    113          0           0       -3.512422   -2.096380    0.678798
    114          0           0       -3.429467   -2.055471    0.678798
    115          0           0       -3.352561   -2.004085    0.678798
    116          0           0       -3.283020   -1.943099    0.678798
    117          0           0       -3.222034   -1.873558    0.678798
    118          0           0       -3.170648   -1.796652    0.678798
    119          0           0       -3.129739   -1.713697    0.678798
    120          0           0       -3.100007   -1.626112    0.678798
    121          0           0       -3.081963   -1.535395    0.678798
    122          0           0       -2.989667   -1.443099    0.580452
    123          0           0       -2.996454   -1.339546    0.580452
    124          0           0       -3.016700   -1.237764    0.580452
    125          0           0       -3.479417   -2.176062    0.580452
    126          0           0       -3.386343   -2.130163    0.580452
    127          0           0       -3.300057   -2.072509    0.580452
    128          0           0       -3.222034   -2.004085    0.580452
    129          0           0       -3.153610   -1.926062    0.580452
    130          0           0       -3.095956   -1.839776    0.580452
    131          0           0       -3.050057   -1.746702    0.580452
    132          0           0       -3.016700   -1.648434    0.580452
    133          0           0       -2.996454   -1.546652    0.580452
    134          0           0       -2.916995   -1.443099    0.471691
    135          0           0       -2.924404   -1.330060    0.471691
    136          0           0       -3.255817   -2.130163    0.471691
    137          0           0       -3.170648   -2.055471    0.471691
    138          0           0       -3.095956   -1.970302    0.471691
    139          0           0       -3.033020   -1.876112    0.471691
    140          0           0       -2.982917   -1.774513    0.471691
    141          0           0       -2.946504   -1.667243    0.471691
    142          0           0       -2.924404   -1.556138    0.471691
    143          0           0       -3.129739   -2.096380    0.354374
    144          0           0       -3.050057   -2.005521    0.354374
    145          0           0       -2.982917   -1.905039    0.354374
    146          0           0       -2.929467   -1.796652    0.354374
    147          0           0       -3.100007   -2.126112    0.230510
    148          0           0       -3.016700   -2.031117    0.230510
    149          0           0       -4.345442   -0.710136   -0.410992
    150          0           0       -4.436301   -0.789818   -0.410992
    151          0           0       -3.669981   -0.584483   -0.528309
    152          0           0       -3.783020   -0.577074   -0.528309
    153          0           0       -3.896059   -0.584483   -0.528309
    154          0           0       -4.007164   -0.606583   -0.528309
    155          0           0       -4.114434   -0.642996   -0.528309
    156          0           0       -4.216033   -0.693099   -0.528309
    157          0           0       -4.310223   -0.756035   -0.528309
    158          0           0       -4.395392   -0.830727   -0.528309
    159          0           0       -4.470084   -0.915896   -0.528309
    160          0           0       -3.300057   -0.813689   -0.637070
    161          0           0       -3.386343   -0.756035   -0.637070
    162          0           0       -3.479417   -0.710136   -0.637070
    163          0           0       -3.577685   -0.676779   -0.637070
    164          0           0       -3.679467   -0.656533   -0.637070
    165          0           0       -3.783020   -0.649746   -0.637070
    166          0           0       -3.886573   -0.656533   -0.637070
    167          0           0       -3.988355   -0.676779   -0.637070
    168          0           0       -4.086623   -0.710136   -0.637070
    169          0           0       -4.179697   -0.756035   -0.637070
    170          0           0       -4.265983   -0.813689   -0.637070
    171          0           0       -4.344006   -0.882113   -0.637070
    172          0           0       -4.412430   -0.960136   -0.637070
    173          0           0       -4.470084   -1.046422   -0.637070
    174          0           0       -4.515983   -1.139496   -0.637070
    175          0           0       -3.283020   -0.943099   -0.735416
    176          0           0       -3.352561   -0.882113   -0.735416
    177          0           0       -3.429467   -0.830727   -0.735416
    178          0           0       -3.512422   -0.789818   -0.735416
    179          0           0       -3.600007   -0.760086   -0.735416
    180          0           0       -3.690724   -0.742042   -0.735416
    181          0           0       -3.783020   -0.735992   -0.735416
    182          0           0       -3.875316   -0.742042   -0.735416
    183          0           0       -3.966033   -0.760086   -0.735416
    184          0           0       -4.053618   -0.789818   -0.735416
    185          0           0       -4.136573   -0.830727   -0.735416
    186          0           0       -4.213479   -0.882113   -0.735416
    187          0           0       -4.283020   -0.943099   -0.735416
    188          0           0       -4.344006   -1.012640   -0.735416
    189          0           0       -4.395392   -1.089546   -0.735416
    190          0           0       -4.436301   -1.172501   -0.735416
    191          0           0       -4.466033   -1.260086   -0.735416
    192          0           0       -4.484077   -1.350803   -0.735416
    193          0           0       -4.490127   -1.443099   -0.735416
    194          0           0       -3.352561   -1.012640   -0.821662
    195          0           0       -3.412430   -0.960136   -0.821662
    196          0           0       -3.478639   -0.915896   -0.821662
    197          0           0       -3.550057   -0.880677   -0.821662
    198          0           0       -3.625461   -0.855081   -0.821662
    199          0           0       -3.703561   -0.839546   -0.821662
    200          0           0       -3.783020   -0.834338   -0.821662
    201          0           0       -3.862479   -0.839546   -0.821662
    202          0           0       -3.940579   -0.855081   -0.821662
    203          0           0       -4.015983   -0.880677   -0.821662
    204          0           0       -4.087401   -0.915896   -0.821662
    205          0           0       -4.153610   -0.960136   -0.821662
    206          0           0       -4.213479   -1.012640   -0.821662
    207          0           0       -4.265983   -1.072509   -0.821662
    208          0           0       -4.310223   -1.138718   -0.821662
    209          0           0       -4.345442   -1.210136   -0.821662
    210          0           0       -4.371038   -1.285540   -0.821662
    211          0           0       -4.386573   -1.363640   -0.821662
    212          0           0       -4.391781   -1.443099   -0.821662
    213          0           0       -3.350007   -1.193099   -0.894334
    214          0           0       -3.386343   -1.138718   -0.894334
    215          0           0       -3.429467   -1.089546   -0.894334
    216          0           0       -3.478639   -1.046422   -0.894334
    217          0           0       -3.533020   -1.010086   -0.894334
    218          0           0       -3.591678   -0.981159   -0.894334
    219          0           0       -3.653610   -0.960136   -0.894334
    220          0           0       -3.717757   -0.947377   -0.894334
    221          0           0       -3.783020   -0.943099   -0.894334
    222          0           0       -3.848283   -0.947377   -0.894334
    223          0           0       -3.912430   -0.960136   -0.894334
    224          0           0       -3.974362   -0.981159   -0.894334
    225          0           0       -4.033020   -1.010086   -0.894334
    226          0           0       -4.087401   -1.046422   -0.894334
    227          0           0       -4.136573   -1.089546   -0.894334
    228          0           0       -4.179697   -1.138718   -0.894334
    229          0           0       -4.216033   -1.193099   -0.894334
    230          0           0       -4.244960   -1.251757   -0.894334
    231          0           0       -4.265983   -1.313689   -0.894334
    232          0           0       -4.278742   -1.377836   -0.894334
    233          0           0       -4.283020   -1.443099   -0.894334
    234          0           0       -3.400337   -1.443099   -0.952189
    235          0           0       -3.403610   -1.393149   -0.952189
    236          0           0       -3.413376   -1.344053   -0.952189
 ---------------------------------------------------------------------
 Rotational constants (GHZ):      0.4454681      0.2811480      0.1854303
 Leave Link  202 at Tue Sep 15 12:25:13 2020, MaxMem=   131072000 cpu:         0.0
 (Enter /share/programs/GAUSSIAN/64/g09/l301.exe)
 Standard basis: 6-311+G(d,p) (5D, 7F)
 Warning:  center  37 has no basis functions!
 Warning:  center  38 has no basis functions!
 Warning:  center  39 has no basis functions!
 Warning:  center  40 has no basis functions!
 Warning:  center  41 has no basis functions!
 Warning:  center  42 has no basis functions!
 Warning:  center  43 has no basis functions!
 Warning:  center  44 has no basis functions!
 Warning:  center  45 has no basis functions!
 Warning:  center  46 has no basis functions!
 Warning:  center  47 has no basis functions!
 Warning:  center  48 has no basis functions!
 Warning:  center  49 has no basis functions!
 Warning:  center  50 has no basis functions!
 Warning:  center  51 has no basis functions!
 Warning:  center  52 has no basis functions!
 Warning:  center  53 has no basis functions!
 Warning:  center  54 has no basis functions!
 Warning:  center  55 has no basis functions!
 Warning:  center  56 has no basis functions!
 Warning:  center  57 has no basis functions!
 Warning:  center  58 has no basis functions!
 Warning:  center  59 has no basis functions!
 Warning:  center  60 has no basis functions!
 Warning:  center  61 has no basis functions!
 Warning:  center  62 has no basis functions!
 Warning:  center  63 has no basis functions!
 Warning:  center  64 has no basis functions!
 Warning:  center  65 has no basis functions!
 Warning:  center  66 has no basis functions!
 Warning:  center  67 has no basis functions!
 Warning:  center  68 has no basis functions!
 Warning:  center  69 has no basis functions!
 Warning:  center  70 has no basis functions!
 Warning:  center  71 has no basis functions!
 Warning:  center  72 has no basis functions!
 Warning:  center  73 has no basis functions!
 Warning:  center  74 has no basis functions!
 Warning:  center  75 has no basis functions!
 Warning:  center  76 has no basis functions!
 Warning:  center  77 has no basis functions!
 Warning:  center  78 has no basis functions!
 Warning:  center  79 has no basis functions!
 Warning:  center  80 has no basis functions!
 Warning:  center  81 has no basis functions!
 Warning:  center  82 has no basis functions!
 Warning:  center  83 has no basis functions!
 Warning:  center  84 has no basis functions!
 Warning:  center  85 has no basis functions!
 Warning:  center  86 has no basis functions!
 Warning:  center  87 has no basis functions!
 Warning:  center  88 has no basis functions!
 Warning:  center  89 has no basis functions!
 Warning:  center  90 has no basis functions!
 Warning:  center  91 has no basis functions!
 Warning:  center  92 has no basis functions!
 Warning:  center  93 has no basis functions!
 Warning:  center  94 has no basis functions!
 Warning:  center  95 has no basis functions!
 Warning:  center  96 has no basis functions!
 Warning:  center  97 has no basis functions!
 Warning:  center  98 has no basis functions!
 Warning:  center  99 has no basis functions!
 Warning:  center 100 has no basis functions!
 Warning:  center 101 has no basis functions!
 Warning:  center 102 has no basis functions!
 Warning:  center 103 has no basis functions!
 Warning:  center 104 has no basis functions!
 Warning:  center 105 has no basis functions!
 Warning:  center 106 has no basis functions!
 Warning:  center 107 has no basis functions!
 Warning:  center 108 has no basis functions!
 Warning:  center 109 has no basis functions!
 Warning:  center 110 has no basis functions!
 Warning:  center 111 has no basis functions!
 Warning:  center 112 has no basis functions!
 Warning:  center 113 has no basis functions!
 Warning:  center 114 has no basis functions!
 Warning:  center 115 has no basis functions!
 Warning:  center 116 has no basis functions!
 Warning:  center 117 has no basis functions!
 Warning:  center 118 has no basis functions!
 Warning:  center 119 has no basis functions!
 Warning:  center 120 has no basis functions!
 Warning:  center 121 has no basis functions!
 Warning:  center 122 has no basis functions!
 Warning:  center 123 has no basis functions!
 Warning:  center 124 has no basis functions!
 Warning:  center 125 has no basis functions!
 Warning:  center 126 has no basis functions!
 Warning:  center 127 has no basis functions!
 Warning:  center 128 has no basis functions!
 Warning:  center 129 has no basis functions!
 Warning:  center 130 has no basis functions!
 Warning:  center 131 has no basis functions!
 Warning:  center 132 has no basis functions!
 Warning:  center 133 has no basis functions!
 Warning:  center 134 has no basis functions!
 Warning:  center 135 has no basis functions!
 Warning:  center 136 has no basis functions!
 Warning:  center 137 has no basis functions!
 Warning:  center 138 has no basis functions!
 Warning:  center 139 has no basis functions!
 Warning:  center 140 has no basis functions!
 Warning:  center 141 has no basis functions!
 Warning:  center 142 has no basis functions!
 Warning:  center 143 has no basis functions!
 Warning:  center 144 has no basis functions!
 Warning:  center 145 has no basis functions!
 Warning:  center 146 has no basis functions!
 Warning:  center 147 has no basis functions!
 Warning:  center 148 has no basis functions!
 Warning:  center 149 has no basis functions!
 Warning:  center 150 has no basis functions!
 Warning:  center 151 has no basis functions!
 Warning:  center 152 has no basis functions!
 Warning:  center 153 has no basis functions!
 Warning:  center 154 has no basis functions!
 Warning:  center 155 has no basis functions!
 Warning:  center 156 has no basis functions!
 Warning:  center 157 has no basis functions!
 Warning:  center 158 has no basis functions!
 Warning:  center 159 has no basis functions!
 Warning:  center 160 has no basis functions!
 Warning:  center 161 has no basis functions!
 Warning:  center 162 has no basis functions!
 Warning:  center 163 has no basis functions!
 Warning:  center 164 has no basis functions!
 Warning:  center 165 has no basis functions!
 Warning:  center 166 has no basis functions!
 Warning:  center 167 has no basis functions!
 Warning:  center 168 has no basis functions!
 Warning:  center 169 has no basis functions!
 Warning:  center 170 has no basis functions!
 Warning:  center 171 has no basis functions!
 Warning:  center 172 has no basis functions!
 Warning:  center 173 has no basis functions!
 Warning:  center 174 has no basis functions!
 Warning:  center 175 has no basis functions!
 Warning:  center 176 has no basis functions!
 Warning:  center 177 has no basis functions!
 Warning:  center 178 has no basis functions!
 Warning:  center 179 has no basis functions!
 Warning:  center 180 has no basis functions!
 Warning:  center 181 has no basis functions!
 Warning:  center 182 has no basis functions!
 Warning:  center 183 has no basis functions!
 Warning:  center 184 has no basis functions!
 Warning:  center 185 has no basis functions!
 Warning:  center 186 has no basis functions!
 Warning:  center 187 has no basis functions!
 Warning:  center 188 has no basis functions!
 Warning:  center 189 has no basis functions!
 Warning:  center 190 has no basis functions!
 Warning:  center 191 has no basis functions!
 Warning:  center 192 has no basis functions!
 Warning:  center 193 has no basis functions!
 Warning:  center 194 has no basis functions!
 Warning:  center 195 has no basis functions!
 Warning:  center 196 has no basis functions!
 Warning:  center 197 has no basis functions!
 Warning:  center 198 has no basis functions!
 Warning:  center 199 has no basis functions!
 Warning:  center 200 has no basis functions!
 Warning:  center 201 has no basis functions!
 Warning:  center 202 has no basis functions!
 Warning:  center 203 has no basis functions!
 Warning:  center 204 has no basis functions!
 Warning:  center 205 has no basis functions!
 Warning:  center 206 has no basis functions!
 Warning:  center 207 has no basis functions!
 Warning:  center 208 has no basis functions!
 Warning:  center 209 has no basis functions!
 Warning:  center 210 has no basis functions!
 Warning:  center 211 has no basis functions!
 Warning:  center 212 has no basis functions!
 Warning:  center 213 has no basis functions!
 Warning:  center 214 has no basis functions!
 Warning:  center 215 has no basis functions!
 Warning:  center 216 has no basis functions!
 Warning:  center 217 has no basis functions!
 Warning:  center 218 has no basis functions!
 Warning:  center 219 has no basis functions!
 Warning:  center 220 has no basis functions!
 Warning:  center 221 has no basis functions!
 Warning:  center 222 has no basis functions!
 Warning:  center 223 has no basis functions!
 Warning:  center 224 has no basis functions!
 Warning:  center 225 has no basis functions!
 Warning:  center 226 has no basis functions!
 Warning:  center 227 has no basis functions!
 Warning:  center 228 has no basis functions!
 Warning:  center 229 has no basis functions!
 Warning:  center 230 has no basis functions!
 Warning:  center 231 has no basis functions!
 Warning:  center 232 has no basis functions!
 Warning:  center 233 has no basis functions!
 Warning:  center 234 has no basis functions!
 Warning:  center 235 has no basis functions!
 Warning:  center 236 has no basis functions!
 Ernie: Thresh=  0.10000D-02 Tol=  0.10000D-05 Strict=F.
   568 basis functions,   904 primitive gaussians,   590 cartesian basis functions
    73 alpha electrons       73 beta electrons
       nuclear repulsion energy      1599.9156270972 Hartrees.
 IExCor=  402 DFT=T Ex+Corr=B3LYP ExCW=0 ScaHFX=  0.200000
 ScaDFX=  0.800000  0.720000  1.000000  0.810000 ScalE2=  1.000000  1.000000
 IRadAn=      0 IRanWt=     -1 IRanGd=            0 ICorTp=0 IEmpDi=  4
 NAtoms=  236 NActive=  236 NUniq=  236 SFac= 1.00D+00 NAtFMM=   60 NAOKFM=T Big=T
 Integral buffers will be    131072 words long.
 Raffenetti 2 integral format.
 Two-electron integral symmetry is turned off.
 Leave Link  301 at Tue Sep 15 12:25:13 2020, MaxMem=   131072000 cpu:         0.6
 (Enter /share/programs/GAUSSIAN/64/g09/l302.exe)
 NPDir=0 NMtPBC=     1 NCelOv=     1 NCel=       1 NClECP=     1 NCelD=      1
         NCelK=      1 NCelE2=     1 NClLst=     1 CellRange=     0.0.
 One-electron integrals computed using PRISM.
 NBasis=   568 RedAO= T EigKep=  1.01D-06  NBF=   568
 NBsUse=   557 1.00D-06 EigRej=  9.19D-07 NBFU=   557
 Precomputing XC quadrature grid using
 IXCGrd= 4 IRadAn=           0 IRanWt=          -1 IRanGd=           0 AccXCQ= 0.00D+00.
 Generated NRdTot=       0 NPtTot=           0 NUsed=           0 NTot=          32
 NSgBfM=   587   588   588   589   589 MxSgAt=   236 MxSgA2=    36.
 Leave Link  302 at Tue Sep 15 12:25:16 2020, MaxMem=   131072000 cpu:        24.5
 (Enter /share/programs/GAUSSIAN/64/g09/l308.exe)
 Leave Link  308 at Tue Sep 15 12:25:17 2020, MaxMem=   131072000 cpu:         2.4
 (Enter /share/programs/GAUSSIAN/64/g09/l303.exe)
 DipDrv:  MaxL=1.
 Leave Link  303 at Tue Sep 15 12:25:17 2020, MaxMem=   131072000 cpu:         1.1
 (Enter /share/programs/GAUSSIAN/64/g09/l401.exe)
 Initial guess from the checkpoint file:  "/scratch/aartigas.39048/Gau-1557751.chk"
 Skipping rotation of guess because NAtoms(RWF)=  236 differs from NAtoms(Chk)=   36.
 Guess basis will be translated and rotated to current coordinates.
 JPrj=2 DoOrth=T DoCkMO=T.
 Leave Link  401 at Tue Sep 15 12:25:21 2020, MaxMem=   131072000 cpu:        20.3
 (Enter /share/programs/GAUSSIAN/64/g09/l502.exe)
 Closed shell SCF:
 Using DIIS extrapolation, IDIIS=  1040.
 Two-electron integral symmetry not used.
 IVT=     1071582 IEndB=     1071582 NGot=   131072000 MDV=   130365749
 LenX=   130365749 LenY=   130017059
 Requested convergence on RMS density matrix=1.00D-08 within 128 cycles.
 Requested convergence on MAX density matrix=1.00D-06.
 Requested convergence on             energy=1.00D-06.
 No special actions if energy rises.
 Fock matrices will be formed incrementally for  20 cycles.

 Cycle   1  Pass 1  IDiag  1:
 FoFJK:  IHMeth= 1 ICntrl=       0 DoSepK=F KAlg= 0 I1Cent=   0 FoldK=F
 IRaf= 940000000 NMat=   1 IRICut=       1 DoRegI=T DoRafI=F ISym2E= 0.
 FoFCou: FMM=T IPFlag=           0 FMFlag=      100000 FMFlg1=        2001
         NFxFlg=           0 DoJE=F BraDBF=F KetDBF=F FulRan=T
         wScrn=  0.000000 ICntrl=       0 IOpCl=  0 I1Cent=           0 NGrid=           0
         NMat0=    1 NMatS0=      1 NMatT0=    0 NMatD0=    1 NMtDS0=    0 NMtDT0=    0
 Symmetry not used in FoFCou.
 FMM levels:  10  Number of levels for PrismC:   9
 E= -847.003738666969    
 DIIS: error= 5.05D-08 at cycle   1 NSaved=   1.
 NSaved= 1 IEnMin= 1 EnMin= -847.003738666969     IErMin= 1 ErrMin= 5.05D-08
 ErrMax= 5.05D-08  0.00D+00 EMaxC= 1.00D-01 BMatC= 3.55D-12 BMatP= 3.55D-12
 IDIUse=1 WtCom= 1.00D+00 WtEn= 0.00D+00
 Coeff-Com:  0.100D+01
 Coeff:      0.100D+01
 Gap=     0.151 Goal=   None    Shift=    0.000
 RMSDP=2.89D-07 MaxDP=1.34D-05              OVMax= 3.94D-07

 Cycle   2  Pass 1  IDiag  1:
 RMSU=  2.85D-07    CP:  1.00D+00
 E= -847.003738666837     Delta-E=        0.000000000132 Rises=F Damp=F
 DIIS: error= 1.42D-08 at cycle   2 NSaved=   2.
 NSaved= 2 IEnMin= 1 EnMin= -847.003738666969     IErMin= 2 ErrMin= 1.42D-08
 ErrMax= 1.42D-08  0.00D+00 EMaxC= 1.00D-01 BMatC= 2.13D-13 BMatP= 3.55D-12
 IDIUse=1 WtCom= 1.00D+00 WtEn= 0.00D+00
 Coeff-Com:  0.627D-01 0.937D+00
 Coeff:      0.627D-01 0.937D+00
 Gap=     0.151 Goal=   None    Shift=    0.000
 RMSDP=1.57D-08 MaxDP=7.79D-07 DE= 1.32D-10 OVMax= 3.02D-07

 Cycle   3  Pass 1  IDiag  1:
 RMSU=  1.32D-08    CP:  1.00D+00  1.02D+00
 E= -847.003738666909     Delta-E=       -0.000000000072 Rises=F Damp=F
 DIIS: error= 2.51D-08 at cycle   3 NSaved=   3.
 NSaved= 3 IEnMin= 1 EnMin= -847.003738666969     IErMin= 2 ErrMin= 1.42D-08
 ErrMax= 2.51D-08  0.00D+00 EMaxC= 1.00D-01 BMatC= 5.05D-13 BMatP= 2.13D-13
 IDIUse=1 WtCom= 1.00D+00 WtEn= 0.00D+00
 Coeff-Com: -0.107D-01 0.616D+00 0.395D+00
 Coeff:     -0.107D-01 0.616D+00 0.395D+00
 Gap=     0.151 Goal=   None    Shift=    0.000
 RMSDP=1.03D-08 MaxDP=4.16D-07 DE=-7.19D-11 OVMax= 2.17D-07

 Cycle   4  Pass 1  IDiag  1:
 RMSU=  5.87D-09    CP:  1.00D+00  1.02D+00  3.90D-01
 E= -847.003738666816     Delta-E=        0.000000000093 Rises=F Damp=F
 DIIS: error= 8.06D-09 at cycle   4 NSaved=   4.
 NSaved= 4 IEnMin= 1 EnMin= -847.003738666969     IErMin= 4 ErrMin= 8.06D-09
 ErrMax= 8.06D-09  0.00D+00 EMaxC= 1.00D-01 BMatC= 2.06D-14 BMatP= 2.13D-13
 IDIUse=1 WtCom= 1.00D+00 WtEn= 0.00D+00
 Coeff-Com: -0.876D-02 0.309D+00 0.241D+00 0.459D+00
 Coeff:     -0.876D-02 0.309D+00 0.241D+00 0.459D+00
 Gap=     0.151 Goal=   None    Shift=    0.000
 RMSDP=4.05D-09 MaxDP=1.50D-07 DE= 9.32D-11 OVMax= 6.88D-08

 SCF Done:  E(RB3LYP) =  -847.003738667     A.U. after    4 cycles
            NFock=  4  Conv=0.41D-08     -V/T= 2.0049
 KE= 8.428349970566D+02 PE=-5.164192584015D+03 EE= 1.874438221195D+03
 Leave Link  502 at Tue Sep 15 12:28:58 2020, MaxMem=   131072000 cpu:      1717.3
 (Enter /share/programs/GAUSSIAN/64/g09/l801.exe)
 DoSCS=F DFT=T ScalE2(SS,OS)=  1.000000  1.000000
 Range of M.O.s used for correlation:     1   557
 NBasis=   568 NAE=    73 NBE=    73 NFC=     0 NFV=     0
 NROrb=    557 NOA=    73 NOB=    73 NVA=   484 NVB=   484

 **** Warning!!: The largest alpha MO coefficient is  0.14271945D+03

 Leave Link  801 at Tue Sep 15 12:28:58 2020, MaxMem=   131072000 cpu:         0.3
 (Enter /share/programs/GAUSSIAN/64/g09/l1002.exe)
 Minotr:  Closed shell wavefunction.
          Direct CPHF calculation.
          Differentiating once with respect to magnetic field using GIAOs.
          Electric field/nuclear overlap derivatives assumed to be zero.
          Requested convergence is 1.0D-08 RMS, and 1.0D-07 maximum.
          Secondary convergence is 1.0D-12 RMS, and 1.0D-12 maximum.
          NewPWx=T KeepS1=F KeepF1=F KeepIn=T MapXYZ=F SortEE=F KeepMc=T.
          MDV=     131069551 using IRadAn=       2.
 Generate precomputed XC quadrature information.
          Solving linear equations simultaneously, MaxMat=      72.
 FoFCou: FMM=F IPFlag=           0 FMFlag=      100000 FMFlg1=        2001
         NFxFlg=           0 DoJE=F BraDBF=F KetDBF=T FulRan=T
         wScrn=  0.000000 ICntrl=    6100 IOpCl=  0 I1Cent=           7 NGrid=         236
         NMat0=    1 NMatS0=      1 NMatT0=    0 NMatD0=    1 NMtDS0=    0 NMtDT0=    0
 Symmetry not used in FoFCou.
 FoFJK:  IHMeth= 1 ICntrl=    6127 DoSepK=F KAlg= 0 I1Cent=   0 FoldK=F
 IRaf=         1 NMat=   1 IRICut=       1 DoRegI=T DoRafI=F ISym2E= 0.
          There are     3 degrees of freedom in the 1st order CPHF.  IDoFFX=0 NUNeed=     3.
      3 vectors produced by pass  0 Test12= 1.18D-12 3.33D-08 XBig12= 1.96D+03 8.77D+00.
 AX will form     3 AO Fock derivatives at one time.
      3 vectors produced by pass  1 Test12= 1.18D-12 3.33D-08 XBig12= 3.18D+00 7.58D-01.
      3 vectors produced by pass  2 Test12= 1.18D-12 3.33D-08 XBig12= 1.86D-02 5.85D-02.
      3 vectors produced by pass  3 Test12= 1.18D-12 3.33D-08 XBig12= 4.29D-05 1.35D-03.
      3 vectors produced by pass  4 Test12= 1.18D-12 3.33D-08 XBig12= 9.75D-08 7.22D-05.
      3 vectors produced by pass  5 Test12= 1.18D-12 3.33D-08 XBig12= 3.97D-10 5.92D-06.
      3 vectors produced by pass  6 Test12= 1.18D-12 3.33D-08 XBig12= 1.51D-12 4.40D-07.
 InvSVY:  IOpt=1 It=  1 EMax= 7.11D-15
 Solved reduced A of dimension    21 with     3 vectors.
 Calculating GIAO nuclear magnetic shielding tensors.
 SCF GIAO Magnetic shielding tensor (ppm):
      1  C    Isotropic =    49.6861   Anisotropy =   149.7970
   XX=    46.3088   YX=   -25.0950   ZX=    31.4786
   XY=   -31.1109   YY=   -39.0339   ZY=    13.2621
   XZ=    24.9178   YZ=     8.9888   ZZ=   141.7833
   Eigenvalues:   -49.3507    48.8581   149.5507
      2  C    Isotropic =    49.6861   Anisotropy =   149.7971
   XX=    46.3088   YX=    25.0953   ZX=    31.4786
   XY=    31.1111   YY=   -39.0339   ZY=   -13.2621
   XZ=    24.9177   YZ=    -8.9889   ZZ=   141.7834
   Eigenvalues:   -49.3508    48.8583   149.5509
      3  C    Isotropic =    44.4899   Anisotropy =   204.7372
   XX=   -22.2199   YX=    10.8075   ZX=    51.2710
   XY=     4.9259   YY=   -14.7126   ZY=    14.7921
   XZ=    32.3655   YZ=    21.2392   ZZ=   170.4022
   Eigenvalues:   -31.9593   -15.5523   180.9814
      4  C    Isotropic =    44.4899   Anisotropy =   204.7373
   XX=   -22.2198   YX=   -10.8075   ZX=    51.2710
   XY=    -4.9256   YY=   -14.7126   ZY=   -14.7922
   XZ=    32.3656   YZ=   -21.2393   ZZ=   170.4023
   Eigenvalues:   -31.9592   -15.5524   180.9815
      5  C    Isotropic =    48.5420   Anisotropy =   189.5490
   XX=   -14.6790   YX=     4.7342   ZX=     8.4333
   XY=    20.3759   YY=    -5.5375   ZY=    31.5121
   XZ=    65.1218   YZ=     0.8640   ZZ=   165.8426
   Eigenvalues:   -26.3226    -2.9593   174.9080
      6  C    Isotropic =    48.5421   Anisotropy =   189.5489
   XX=   -14.6789   YX=    -4.7340   ZX=     8.4335
   XY=   -20.3758   YY=    -5.5374   ZY=   -31.5121
   XZ=    65.1218   YZ=    -0.8638   ZZ=   165.8426
   Eigenvalues:   -26.3224    -2.9594   174.9080
      7  C    Isotropic =    50.1907   Anisotropy =   149.2089
   XX=    19.7303   YX=   -44.2755   ZX=    41.2886
   XY=   -38.0437   YY=    -2.7069   ZY=    36.9011
   XZ=    36.5866   YZ=    37.5458   ZZ=   133.5487
   Eigenvalues:   -49.6656    50.5744   149.6633
      8  C    Isotropic =    48.9362   Anisotropy =   152.4339
   XX=   -31.5093   YX=   -11.4921   ZX=    54.7730
   XY=   -19.0468   YY=    46.5898   ZY=    27.5522
   XZ=    42.2451   YZ=    29.8391   ZZ=   131.7282
   Eigenvalues:   -50.1461    46.3960   150.5589
      9  C    Isotropic =    44.4204   Anisotropy =   209.3981
   XX=   -10.1987   YX=    16.7536   ZX=    44.4888
   XY=     8.9342   YY=    -7.7270   ZY=    61.4651
   XZ=    43.3269   YZ=    64.9792   ZZ=   151.1869
   Eigenvalues:   -30.3689   -20.3891   184.0192
     10  C    Isotropic =    45.3894   Anisotropy =   198.3236
   XX=    -5.9706   YX=    23.3819   ZX=    35.6519
   XY=    38.1954   YY=     1.7271   ZY=    73.1370
   XZ=    54.0013   YZ=    45.7045   ZZ=   140.4116
   Eigenvalues:   -33.5315    -7.9055   177.6051
     11  H    Isotropic =    23.8179   Anisotropy =     7.5674
   XX=    27.2191   YX=    -1.9090   ZX=    -2.2602
   XY=    -1.7961   YY=    24.8722   ZY=    -0.1966
   XZ=    -3.3763   YZ=    -0.1950   ZZ=    19.3625
   Eigenvalues:    18.3647    24.2263    28.8628
     12  H    Isotropic =    23.8179   Anisotropy =     7.5674
   XX=    27.2191   YX=     1.9090   ZX=    -2.2602
   XY=     1.7961   YY=    24.8722   ZY=     0.1966
   XZ=    -3.3763   YZ=     0.1950   ZZ=    19.3625
   Eigenvalues:    18.3647    24.2263    28.8628
     13  H    Isotropic =    23.8548   Anisotropy =     7.5124
   XX=    26.7195   YX=    -2.1358   ZX=    -2.0755
[...]
   136  Bq   0.000000
   137  Bq   0.000000
   138  Bq   0.000000
   139  Bq   0.000000
   140  Bq   0.000000
   141  Bq   0.000000
   142  Bq   0.000000
   143  Bq   0.000000
   144  Bq   0.000000
   145  Bq   0.000000
   146  Bq   0.000000
   147  Bq   0.000000
   148  Bq   0.000000
   149  Bq   0.000000
   150  Bq   0.000000
   151  Bq   0.000000
   152  Bq   0.000000
   153  Bq   0.000000
   154  Bq   0.000000
   155  Bq   0.000000
   156  Bq   0.000000
   157  Bq   0.000000
   158  Bq   0.000000
   159  Bq   0.000000
   160  Bq   0.000000
   161  Bq   0.000000
   162  Bq   0.000000
   163  Bq   0.000000
   164  Bq   0.000000
   165  Bq   0.000000
   166  Bq   0.000000
   167  Bq   0.000000
   168  Bq   0.000000
   169  Bq   0.000000
   170  Bq   0.000000
   171  Bq   0.000000
   172  Bq   0.000000
   173  Bq   0.000000
   174  Bq   0.000000
   175  Bq   0.000000
   176  Bq   0.000000
   177  Bq   0.000000
   178  Bq   0.000000
   179  Bq   0.000000
   180  Bq   0.000000
   181  Bq   0.000000
   182  Bq   0.000000
   183  Bq   0.000000
   184  Bq   0.000000
   185  Bq   0.000000
   186  Bq   0.000000
   187  Bq   0.000000
   188  Bq   0.000000
   189  Bq   0.000000
   190  Bq   0.000000
   191  Bq   0.000000
   192  Bq   0.000000
   193  Bq   0.000000
   194  Bq   0.000000
   195  Bq   0.000000
   196  Bq   0.000000
   197  Bq   0.000000
   198  Bq   0.000000
   199  Bq   0.000000
   200  Bq   0.000000
   201  Bq   0.000000
   202  Bq   0.000000
   203  Bq   0.000000
   204  Bq   0.000000
   205  Bq   0.000000
   206  Bq   0.000000
   207  Bq   0.000000
   208  Bq   0.000000
   209  Bq   0.000000
   210  Bq   0.000000
   211  Bq   0.000000
   212  Bq   0.000000
   213  Bq   0.000000
   214  Bq   0.000000
   215  Bq   0.000000
   216  Bq   0.000000
   217  Bq   0.000000
   218  Bq   0.000000
   219  Bq   0.000000
   220  Bq   0.000000
   221  Bq   0.000000
   222  Bq   0.000000
   223  Bq   0.000000
   224  Bq   0.000000
   225  Bq   0.000000
   226  Bq   0.000000
   227  Bq   0.000000
   228  Bq   0.000000
   229  Bq   0.000000
   230  Bq   0.000000
   231  Bq   0.000000
   232  Bq   0.000000
   233  Bq   0.000000
   234  Bq   0.000000
   235  Bq   0.000000
   236  Bq   0.000000
 Sum of Mulliken charges =   0.00000
 Mulliken charges with hydrogens summed into heavy atoms:
               1
     1  C   -0.262865
     2  C   -0.262866
     3  C    0.737923
     4  C    0.737922
     5  C   -0.039994
     6  C   -0.040001
     7  C    0.075155
     8  C   -0.330147
     9  C    0.780501
    10  C   -0.200782
    15  C    0.249272
    16  C   -0.533462
    17  C   -0.189404
    18  C   -0.286191
    23  C   -0.330145
    24  C    0.075154
    25  C    0.780496
    26  C   -0.200782
    27  C    0.130592
    28  C   -0.286192
    29  C   -0.189403
    30  C   -0.533462
    37  Bq   0.000000
    38  Bq   0.000000
    39  Bq   0.000000
    40  Bq   0.118681
    41  Bq   0.000000
    42  Bq   0.000000
    43  Bq   0.000000
    44  Bq   0.000000
    45  Bq   0.000000
    46  Bq   0.000000
    47  Bq   0.000000
    48  Bq   0.000000
    49  Bq   0.000000
    50  Bq   0.000000
    51  Bq   0.000000
    52  Bq   0.000000
    53  Bq   0.000000
    54  Bq   0.000000
    55  Bq   0.000000
    56  Bq   0.000000
    57  Bq   0.000000
    58  Bq   0.000000
    59  Bq   0.000000
    60  Bq   0.000000
    61  Bq   0.000000
    62  Bq   0.000000
    63  Bq   0.000000
    64  Bq   0.000000
    65  Bq   0.000000
    66  Bq   0.000000
    67  Bq   0.000000
    68  Bq   0.000000
    69  Bq   0.000000
    70  Bq   0.000000
    71  Bq   0.000000
    72  Bq   0.000000
    73  Bq   0.000000
    74  Bq   0.000000
    75  Bq   0.000000
    76  Bq   0.000000
    77  Bq   0.000000
    78  Bq   0.000000
    79  Bq   0.000000
    80  Bq   0.000000
    81  Bq   0.000000
    82  Bq   0.000000
    83  Bq   0.000000
    84  Bq   0.000000
    85  Bq   0.000000
    86  Bq   0.000000
    87  Bq   0.000000
    88  Bq   0.000000
    89  Bq   0.000000
    90  Bq   0.000000
    91  Bq   0.000000
    92  Bq   0.000000
    93  Bq   0.000000
    94  Bq   0.000000
    95  Bq   0.000000
    96  Bq   0.000000
    97  Bq   0.000000
    98  Bq   0.000000
    99  Bq   0.000000
   100  Bq   0.000000
   101  Bq   0.000000
   102  Bq   0.000000
   103  Bq   0.000000
   104  Bq   0.000000
   105  Bq   0.000000
   106  Bq   0.000000
   107  Bq   0.000000
   108  Bq   0.000000
   109  Bq   0.000000
   110  Bq   0.000000
   111  Bq   0.000000
   112  Bq   0.000000
   113  Bq   0.000000
   114  Bq   0.000000
   115  Bq   0.000000
   116  Bq   0.000000
   117  Bq   0.000000
   118  Bq   0.000000
   119  Bq   0.000000
   120  Bq   0.000000
   121  Bq   0.000000
   122  Bq   0.000000
   123  Bq   0.000000
   124  Bq   0.000000
   125  Bq   0.000000
   126  Bq   0.000000
   127  Bq   0.000000
   128  Bq   0.000000
   129  Bq   0.000000
   130  Bq   0.000000
   131  Bq   0.000000
   132  Bq   0.000000
   133  Bq   0.000000
   134  Bq   0.000000
   135  Bq   0.000000
   136  Bq   0.000000
   137  Bq   0.000000
   138  Bq   0.000000
   139  Bq   0.000000
   140  Bq   0.000000
   141  Bq   0.000000
   142  Bq   0.000000
   143  Bq   0.000000
   144  Bq   0.000000
   145  Bq   0.000000
   146  Bq   0.000000
   147  Bq   0.000000
   148  Bq   0.000000
   149  Bq   0.000000
   150  Bq   0.000000
   151  Bq   0.000000
   152  Bq   0.000000
   153  Bq   0.000000
   154  Bq   0.000000
   155  Bq   0.000000
   156  Bq   0.000000
   157  Bq   0.000000
   158  Bq   0.000000
   159  Bq   0.000000
   160  Bq   0.000000
   161  Bq   0.000000
   162  Bq   0.000000
   163  Bq   0.000000
   164  Bq   0.000000
   165  Bq   0.000000
   166  Bq   0.000000
   167  Bq   0.000000
   168  Bq   0.000000
   169  Bq   0.000000
   170  Bq   0.000000
   171  Bq   0.000000
   172  Bq   0.000000
   173  Bq   0.000000
   174  Bq   0.000000
   175  Bq   0.000000
   176  Bq   0.000000
   177  Bq   0.000000
   178  Bq   0.000000
   179  Bq   0.000000
   180  Bq   0.000000
   181  Bq   0.000000
   182  Bq   0.000000
   183  Bq   0.000000
   184  Bq   0.000000
   185  Bq   0.000000
   186  Bq   0.000000
   187  Bq   0.000000
   188  Bq   0.000000
   189  Bq   0.000000
   190  Bq   0.000000
   191  Bq   0.000000
   192  Bq   0.000000
   193  Bq   0.000000
   194  Bq   0.000000
   195  Bq   0.000000
   196  Bq   0.000000
   197  Bq   0.000000
   198  Bq   0.000000
   199  Bq   0.000000
   200  Bq   0.000000
   201  Bq   0.000000
   202  Bq   0.000000
   203  Bq   0.000000
   204  Bq   0.000000
   205  Bq   0.000000
   206  Bq   0.000000
   207  Bq   0.000000
   208  Bq   0.000000
   209  Bq   0.000000
   210  Bq   0.000000
   211  Bq   0.000000
   212  Bq   0.000000
   213  Bq   0.000000
   214  Bq   0.000000
   215  Bq   0.000000
   216  Bq   0.000000
   217  Bq   0.000000
   218  Bq   0.000000
   219  Bq   0.000000
   220  Bq   0.000000
   221  Bq   0.000000
   222  Bq   0.000000
   223  Bq   0.000000
   224  Bq   0.000000
   225  Bq   0.000000
   226  Bq   0.000000
   227  Bq   0.000000
   228  Bq   0.000000
   229  Bq   0.000000
   230  Bq   0.000000
   231  Bq   0.000000
   232  Bq   0.000000
   233  Bq   0.000000
   234  Bq   0.000000
   235  Bq   0.000000
   236  Bq   0.000000
 Electronic spatial extent (au):  <R**2>=           5804.3227
 Charge=              0.0000 electrons
 Dipole moment (field-independent basis, Debye):
    X=              0.0000    Y=              0.0732    Z=              0.0000  Tot=              0.0732
 Quadrupole moment (field-independent basis, Debye-Ang):
   XX=           -113.9137   YY=           -113.9781   ZZ=           -133.4378
   XY=              0.0000   XZ=             -4.8717   YZ=              0.0000
 Traceless Quadrupole moment (field-independent basis, Debye-Ang):
   XX=              6.5295   YY=              6.4651   ZZ=            -12.9946
   XY=              0.0000   XZ=             -4.8717   YZ=              0.0000
 Octapole moment (field-independent basis, Debye-Ang**2):
  XXX=              0.0000  YYY=             11.7108  ZZZ=              0.0000  XYY=              0.0000
  XXY=             -6.4067  XXZ=              0.0000  XZZ=              0.0000  YZZ=             -7.8695
  YYZ=              0.0000  XYZ=            -16.2862
 Hexadecapole moment (field-independent basis, Debye-Ang**3):
 XXXX=          -4416.4021 YYYY=          -2784.9756 ZZZZ=           -481.5690 XXXY=              0.0001
 XXXZ=           -124.3517 YYYX=             -0.0003 YYYZ=              0.0001 ZZZX=             -4.4782
 ZZZY=              0.0001 XXYY=          -1189.3576 XXZZ=           -942.9016 YYZZ=           -589.4012
 XXYZ=              0.0000 YYXZ=              7.8297 ZZXY=             -0.0001
 N-N= 1.599915627097D+03 E-N=-5.164192587538D+03  KE= 8.428349970566D+02
 Leave Link  601 at Tue Sep 15 12:37:01 2020, MaxMem=   131072000 cpu:         0.8
 (Enter /share/programs/GAUSSIAN/64/g09/l9999.exe)
 1\1\GINC-BRUSEL\SP\RB3LYP\6-311+G(d,p)\C22H14\AARTIGAS\15-Sep-2020\0\\
 #P rb3lyp/6-311+g** NMR Guess=Read geom=connectivity\\Title\\0,1\C,0,0
 .653241,3.257859,-0.20251\C,0,-0.653243,3.25786,0.20251\C,0,1.372495,2
 .032956,-0.320807\C,0,-1.372495,2.032956,0.320807\C,0,0.722474,0.79566
 6,-0.050388\C,0,-0.722474,0.795667,0.050387\C,0,2.760385,2.053927,-0.6
 74268\C,0,3.508866,0.913916,-0.671362\C,0,2.955226,-0.309622,-0.177479
 \C,0,1.574722,-0.361114,0.197094\H,0,1.183427,4.19574,-0.384599\H,0,-1
 .183429,4.19574,0.384599\H,0,3.206283,3.012423,-0.951392\H,0,4.560023,
 0.932956,-0.969333\C,0,3.78302,-1.443098,0.028309\C,0,1.137427,-1.5075
 33,0.912109\C,0,1.973691,-2.584349,1.138062\C,0,3.301853,-2.571588,0.6
 61177\H,0,4.825754,-1.39123,-0.295484\H,0,0.124652,-1.532788,1.308472\
 H,0,1.603586,-3.445682,1.698977\H,0,3.952742,-3.433526,0.825134\C,0,-3
 .508866,0.913915,0.671362\C,0,-2.760386,2.053926,0.674268\C,0,-2.95522
 6,-0.309623,0.177479\C,0,-1.574722,-0.361114,-0.197094\C,0,-3.78302,-1
 .443099,-0.028309\C,0,-3.301852,-2.571589,-0.661177\C,0,-1.97369,-2.58
 4349,-1.138061\C,0,-1.137426,-1.507534,-0.912109\H,0,-4.560022,0.93295
 4,0.969334\H,0,-3.206283,3.012421,0.951392\H,0,-4.825754,-1.391232,0.2
 95484\H,0,-3.952741,-3.433528,-0.825134\H,0,-1.603585,-3.445682,-1.698
 976\H,0,-0.124652,-1.532788,-1.308471\Bq,0,-3.5916782838,-1.111685426,
 0.8955705325\Bq,0,-3.6365733906,-1.0895456094,0.8955705325\Bq,0,-4.015
 9829131,-1.1394958207,0.8955705325\Bq,0,-4.0536180501,-1.1725009499,0.
 8955705325\Bq,0,-4.0536180501,-1.7136970501,0.8955705325\Bq,0,-4.01598
 29131,-1.7467021793,0.8955705325\Bq,0,-3.9743617162,-1.774512574,0.895
 5705325\Bq,0,-3.9294666094,-1.7966523906,0.8955705325\Bq,0,-3.88206576
 05,-1.8127428106,0.8955705325\Bq,0,-3.8329702113,-1.8225085226,0.89557
 05325\Bq,0,-3.78302,-1.8257824324,0.8955705325\Bq,0,-3.7330697887,-1.8
 225085226,0.8955705325\Bq,0,-3.6839742395,-1.8127428106,0.8955705325\B
 q,0,-3.6365733906,-1.7966523906,0.8955705325\Bq,0,-3.5916782838,-1.774
 512574,0.8955705325\Bq,0,-3.5500570869,-1.7467021793,0.8955705325\Bq,0
 ,-3.5124219499,-1.7136970501,0.8955705325\Bq,0,-3.4794168207,-1.676061
 9131,0.8955705325\Bq,0,-3.451606426,-1.6344407162,0.8955705325\Bq,0,-3
 .4294666094,-1.5895456094,0.8955705325\Bq,0,-3.4133761894,-1.542144760
 5,0.8955705325\Bq,0,-3.4036104774,-1.4930492113,0.8955705325\Bq,0,-3.2
 8302,-1.443099,0.8377164038\Bq,0,-3.2872975693,-1.3778359039,0.8377164
 038\Bq,0,-3.3000570869,-1.3136894774,0.8377164038\Bq,0,-3.3210802337,-
 1.2517572838,0.8377164038\Bq,0,-3.3500072981,-1.193099,0.8377164038\Bq
 ,0,-3.3863433299,-1.1387182855,0.8377164038\Bq,0,-3.4294666094,-1.0895
 456094,0.8377164038\Bq,0,-4.0874007145,-1.8397756701,0.8377164038\Bq,0
 ,-4.03302,-1.8761117019,0.8377164038\Bq,0,-3.9743617162,-1.9050387663,
 0.8377164038\Bq,0,-3.9124295226,-1.9260619131,0.8377164038\Bq,0,-3.848
 2830961,-1.9388214307,0.8377164038\Bq,0,-3.78302,-1.943099,0.837716403
 8\Bq,0,-3.7177569039,-1.9388214307,0.8377164038\Bq,0,-3.6536104774,-1.
 9260619131,0.8377164038\Bq,0,-3.5916782838,-1.9050387663,0.8377164038\
 Bq,0,-3.53302,-1.8761117019,0.8377164038\Bq,0,-3.4786392855,-1.8397756
 701,0.8377164038\Bq,0,-3.4294666094,-1.7966523906,0.8377164038\Bq,0,-3
 .3863433299,-1.7474797145,0.8377164038\Bq,0,-3.3500072981,-1.693099,0.
 8377164038\Bq,0,-3.3210802337,-1.6344407162,0.8377164038\Bq,0,-3.30005
 70869,-1.5725085226,0.8377164038\Bq,0,-3.2872975693,-1.5083620961,0.83
 77164038\Bq,0,-3.174258571,-1.443099,0.7650443403\Bq,0,-3.1794666094,-
 1.3636396887,0.7650443403\Bq,0,-3.1950016137,-1.2855399482,0.765044340
 3\Bq,0,-3.2205977756,-1.2101360869,0.7650443403\Bq,0,-3.2558171376,-1.
 1387182855,0.7650443403\Bq,0,-3.3000570869,-1.0725085226,0.7650443403\
 Bq,0,-4.0874007145,-1.9703018624,0.7650443403\Bq,0,-4.0159829131,-2.00
 55212244,0.7650443403\Bq,0,-3.9405790518,-2.0311173863,0.7650443403\Bq
 ,0,-3.8624793113,-2.0466523906,0.7650443403\Bq,0,-3.78302,-2.051860429
 ,0.7650443403\Bq,0,-3.7035606887,-2.0466523906,0.7650443403\Bq,0,-3.62
 54609482,-2.0311173863,0.7650443403\Bq,0,-3.5500570869,-2.0055212244,0
 .7650443403\Bq,0,-3.4786392855,-1.9703018624,0.7650443403\Bq,0,-3.4124
 295226,-1.9260619131,0.7650443403\Bq,0,-3.3525606654,-1.8735583346,0.7
 650443403\Bq,0,-3.3000570869,-1.8136894774,0.7650443403\Bq,0,-3.255817
 1376,-1.7474797145,0.7650443403\Bq,0,-3.2205977756,-1.6760619131,0.765
 0443403\Bq,0,-3.1950016137,-1.6006580518,0.7650443403\Bq,0,-3.17946660
 94,-1.5225583113,0.7650443403\Bq,0,-3.0759132188,-1.443099,0.678797781
 2\Bq,0,-3.0819626154,-1.3508030444,0.6787977812\Bq,0,-3.1000072981,-1.
 2600862981,0.6787977812\Bq,0,-3.1297385176,-1.1725009499,0.6787977812\
 Bq,0,-4.1365733906,-2.0554714357,0.6787977812\Bq,0,-3.78302,-2.1502057
 812,0.6787977812\Bq,0,-3.6907240444,-2.1441563846,0.6787977812\Bq,0,-3
 .6000072981,-2.1261117019,0.6787977812\Bq,0,-3.5124219499,-2.096380482
 4,0.6787977812\Bq,0,-3.4294666094,-2.0554714357,0.6787977812\Bq,0,-3.3
 525606654,-2.0040845268,0.6787977812\Bq,0,-3.28302,-1.943099,0.6787977
 812\Bq,0,-3.2220344732,-1.8735583346,0.6787977812\Bq,0,-3.1706475643,-
 1.7966523906,0.6787977812\Bq,0,-3.1297385176,-1.7136970501,0.678797781
 2\Bq,0,-3.1000072981,-1.6261117019,0.6787977812\Bq,0,-3.0819626154,-1.
 5353949556,0.6787977812\Bq,0,-2.9896666597,-1.443099,0.580452429\Bq,0,
 -2.9964539075,-1.3395456094,0.580452429\Bq,0,-3.0166995192,-1.23776404
 6,0.580452429\Bq,0,-3.4794168207,-2.1760619131,0.580452429\Bq,0,-3.386
 3433299,-2.1301631469,0.580452429\Bq,0,-3.3000570869,-2.0725085226,0.5
 80452429\Bq,0,-3.2220344732,-2.0040845268,0.580452429\Bq,0,-3.15361047
 74,-1.9260619131,0.580452429\Bq,0,-3.0959558531,-1.8397756701,0.580452
 429\Bq,0,-3.0500570869,-1.7467021793,0.580452429\Bq,0,-3.0166995192,-1
 .648433954,0.580452429\Bq,0,-2.9964539075,-1.5466523906,0.580452429\Bq
 ,0,-2.9169945962,-1.443099,0.471691\Bq,0,-2.9244035636,-1.3300600017,0
 .471691\Bq,0,-3.2558171376,-2.1301631469,0.471691\Bq,0,-3.1706475643,-
 2.0554714357,0.471691\Bq,0,-3.0959558531,-1.9703018624,0.471691\Bq,0,-
 3.03302,-1.8761117019,0.471691\Bq,0,-2.9829168548,-1.774512574,0.47169
 1\Bq,0,-2.9465036963,-1.667242868,0.471691\Bq,0,-2.9244035636,-1.55613
 79983,0.471691\Bq,0,-3.1297385176,-2.0963804824,0.3543744324\Bq,0,-3.0
 500570869,-2.0055212244,0.3543744324\Bq,0,-2.9829168548,-1.9050387663,
 0.3543744324\Bq,0,-2.9294666094,-1.7966523906,0.3543744324\Bq,0,-3.100
 0072981,-2.1261117019,0.2305100451\Bq,0,-3.0166995192,-2.0311173863,0.
 2305100451\Bq,0,-4.3454422244,-0.7101360869,-0.4109924324\Bq,0,-4.4363
 014824,-0.7898175176,-0.4109924324\Bq,0,-3.6699810017,-0.5844825636,-0
 .528309\Bq,0,-3.78302,-0.5770735962,-0.528309\Bq,0,-3.8960589983,-0.58
 44825636,-0.528309\Bq,0,-4.007163868,-0.6065826963,-0.528309\Bq,0,-4.1
 14433574,-0.6429958548,-0.528309\Bq,0,-4.2160327019,-0.693099,-0.52830
 9\Bq,0,-4.3102228624,-0.7560348531,-0.528309\Bq,0,-4.3953924357,-0.830
 7265643,-0.528309\Bq,0,-4.4700841469,-0.9158961376,-0.528309\Bq,0,-3.3
 000570869,-0.8136894774,-0.637070429\Bq,0,-3.3863433299,-0.7560348531,
 -0.637070429\Bq,0,-3.4794168207,-0.7101360869,-0.637070429\Bq,0,-3.577
 685046,-0.6767785192,-0.637070429\Bq,0,-3.6794666094,-0.6565329075,-0.
 637070429\Bq,0,-3.78302,-0.6497456597,-0.637070429\Bq,0,-3.8865733906,
 -0.6565329075,-0.637070429\Bq,0,-3.988354954,-0.6767785192,-0.63707042
 9\Bq,0,-4.0866231793,-0.7101360869,-0.637070429\Bq,0,-4.1796966701,-0.
 7560348531,-0.637070429\Bq,0,-4.2659829131,-0.8136894774,-0.637070429\
 Bq,0,-4.3440055268,-0.8821134732,-0.637070429\Bq,0,-4.4124295226,-0.96
 01360869,-0.637070429\Bq,0,-4.4700841469,-1.0464223299,-0.637070429\Bq
 ,0,-4.5159829131,-1.1394958207,-0.637070429\Bq,0,-3.28302,-0.943099,-0
 .7354157812\Bq,0,-3.3525606654,-0.8821134732,-0.7354157812\Bq,0,-3.429
 4666094,-0.8307265643,-0.7354157812\Bq,0,-3.5124219499,-0.7898175176,-
 0.7354157812\Bq,0,-3.6000072981,-0.7600862981,-0.7354157812\Bq,0,-3.69
 07240444,-0.7420416154,-0.7354157812\Bq,0,-3.78302,-0.7359922188,-0.73
 54157812\Bq,0,-3.8753159556,-0.7420416154,-0.7354157812\Bq,0,-3.966032
 7019,-0.7600862981,-0.7354157812\Bq,0,-4.0536180501,-0.7898175176,-0.7
 354157812\Bq,0,-4.1365733906,-0.8307265643,-0.7354157812\Bq,0,-4.21347
 93346,-0.8821134732,-0.7354157812\Bq,0,-4.28302,-0.943099,-0.735415781
 2\Bq,0,-4.3440055268,-1.0126396654,-0.7354157812\Bq,0,-4.3953924357,-1
 .0895456094,-0.7354157812\Bq,0,-4.4363014824,-1.1725009499,-0.73541578
 12\Bq,0,-4.4660327019,-1.2600862981,-0.7354157812\Bq,0,-4.4840773846,-
 1.3508030444,-0.7354157812\Bq,0,-4.4901267812,-1.443099,-0.7354157812\
 Bq,0,-3.3525606654,-1.0126396654,-0.8216623403\Bq,0,-3.4124295226,-0.9
 601360869,-0.8216623403\Bq,0,-3.4786392855,-0.9158961376,-0.8216623403
 \Bq,0,-3.5500570869,-0.8806767756,-0.8216623403\Bq,0,-3.6254609482,-0.
 8550806137,-0.8216623403\Bq,0,-3.7035606887,-0.8395456094,-0.821662340
 3\Bq,0,-3.78302,-0.834337571,-0.8216623403\Bq,0,-3.8624793113,-0.83954
 56094,-0.8216623403\Bq,0,-3.9405790518,-0.8550806137,-0.8216623403\Bq,
 0,-4.0159829131,-0.8806767756,-0.8216623403\Bq,0,-4.0874007145,-0.9158
 961376,-0.8216623403\Bq,0,-4.1536104774,-0.9601360869,-0.8216623403\Bq
 ,0,-4.2134793346,-1.0126396654,-0.8216623403\Bq,0,-4.2659829131,-1.072
 5085226,-0.8216623403\Bq,0,-4.3102228624,-1.1387182855,-0.8216623403\B
 q,0,-4.3454422244,-1.2101360869,-0.8216623403\Bq,0,-4.3710383863,-1.28
 55399482,-0.8216623403\Bq,0,-4.3865733906,-1.3636396887,-0.8216623403\
 Bq,0,-4.391781429,-1.443099,-0.8216623403\Bq,0,-3.3500072981,-1.193099
 ,-0.8943344038\Bq,0,-3.3863433299,-1.1387182855,-0.8943344038\Bq,0,-3.
 4294666094,-1.0895456094,-0.8943344038\Bq,0,-3.4786392855,-1.046422329
 9,-0.8943344038\Bq,0,-3.53302,-1.0100862981,-0.8943344038\Bq,0,-3.5916
 782838,-0.9811592337,-0.8943344038\Bq,0,-3.6536104774,-0.9601360869,-0
 .8943344038\Bq,0,-3.7177569039,-0.9473765693,-0.8943344038\Bq,0,-3.783
 02,-0.943099,-0.8943344038\Bq,0,-3.8482830961,-0.9473765693,-0.8943344
 038\Bq,0,-3.9124295226,-0.9601360869,-0.8943344038\Bq,0,-3.9743617162,
 -0.9811592337,-0.8943344038\Bq,0,-4.03302,-1.0100862981,-0.8943344038\
 Bq,0,-4.0874007145,-1.0464223299,-0.8943344038\Bq,0,-4.1365733906,-1.0
 895456094,-0.8943344038\Bq,0,-4.1796966701,-1.1387182855,-0.8943344038
 \Bq,0,-4.2160327019,-1.193099,-0.8943344038\Bq,0,-4.2449597663,-1.2517
 572838,-0.8943344038\Bq,0,-4.2659829131,-1.3136894774,-0.8943344038\Bq
 ,0,-4.2787424307,-1.3778359039,-0.8943344038\Bq,0,-4.28302,-1.443099,-
 0.8943344038\Bq,0,-3.4003365676,-1.443099,-0.9521885325\Bq,0,-3.403610
 4774,-1.3931487887,-0.9521885325\Bq,0,-3.4133761894,-1.3440532395,-0.9
 521885325\\Version=ES64L-G09RevD.01\HF=-847.0037387\RMSD=4.055e-09\Dip
 ole=0.0000004,0.0287843,0.0000009\Quadrupole=4.8545288,4.8066247,-9.66
 11535,-0.0000047,-3.6219991,-0.000002\PG=C01 [X(C22H14)]\\@


 GOORD'S AXIOM:  A MEETING IS AN EVENT AT WHICH
 THE MINUTES ARE KEPT AND THE HOURS ARE LOST.
 Job cpu time:       0 days  1 hours 31 minutes 50.4 seconds.
 File lengths (MBytes):  RWF=    184 Int=      0 D2E=      0 Chk=     21 Scr=      1
 Normal termination of Gaussian 09 at Tue Sep 15 12:37:01 2020.
