 Entering Gaussian System, Link 0=g09
 Input=input_batch_05800.com
 Output=input_batch_05800.log
 Initial command:
 /share/programs/GAUSSIAN/64/g09/l1.exe "/scratch/aartigas.38843/Gau-3249944.inp" -scrdir="/scratch/aartigas.38843/"
 Entering Link 1 = /share/programs/GAUSSIAN/64/g09/l1.exe PID=   3249945.
  
 Copyright (c) 1988,1990,1992,1993,1995,1998,2003,2009,2013,
            Gaussian, Inc.  All Rights Reserved.
  
 This is part of the Gaussian(R) 09 program.  It is based on
 the Gaussian(R) 03 system (copyright 2003, Gaussian, Inc.),
 the Gaussian(R) 98 system (copyright 1998, Gaussian, Inc.),
 the Gaussian(R) 94 system (copyright 1995, Gaussian, Inc.),
 the Gaussian 92(TM) system (copyright 1992, Gaussian, Inc.),
 the Gaussian 90(TM) system (copyright 1990, Gaussian, Inc.),
 the Gaussian 88(TM) system (copyright 1988, Gaussian, Inc.),
 the Gaussian 86(TM) system (copyright 1986, Carnegie Mellon
 University), and the Gaussian 82(TM) system (copyright 1983,
 Carnegie Mellon University). Gaussian is a federally registered
 trademark of Gaussian, Inc.
  
 This software contains proprietary and confidential information,
 including trade secrets, belonging to Gaussian, Inc.
  
 This software is provided under written license and may be
 used, copied, transmitted, or stored only in accord with that
 written license.
  
 The following legend is applicable only to US Government
 contracts under FAR:
  
                    RESTRICTED RIGHTS LEGEND
  
 Use, reproduction and disclosure by the US Government is
 subject to restrictions as set forth in subparagraphs (a)
 and (c) of the Commercial Computer Software - Restricted
 Rights clause in FAR 52.227-19.
  
 Gaussian, Inc.
 340 Quinnipiac St., Bldg. 40, Wallingford CT 06492
  
  
 ---------------------------------------------------------------
 Warning -- This program may not be used in any manner that
 competes with the business of Gaussian, Inc. or will provide
 assistance to any competitor of Gaussian, Inc.  The licensee
 of this program is prohibited from giving any competitor of
 Gaussian, Inc. access to this program.  By using this program,
 the user acknowledges that Gaussian, Inc. is engaged in the
 business of creating and licensing software in the field of
 computational chemistry and represents and warrants to the
 licensee that it is not a competitor of Gaussian, Inc. and that
 it will not use this program in any manner prohibited above.
 ---------------------------------------------------------------
  

 Cite this work as:
 Gaussian 09, Revision D.01,
 M. J. Frisch, G. W. Trucks, H. B. Schlegel, G. E. Scuseria, 
 M. A. Robb, J. R. Cheeseman, G. Scalmani, V. Barone, B. Mennucci, 
 G. A. Petersson, H. Nakatsuji, M. Caricato, X. Li, H. P. Hratchian, 
 A. F. Izmaylov, J. Bloino, G. Zheng, J. L. Sonnenberg, M. Hada, 
 M. Ehara, K. Toyota, R. Fukuda, J. Hasegawa, M. Ishida, T. Nakajima, 
 Y. Honda, O. Kitao, H. Nakai, T. Vreven, J. A. Montgomery, Jr., 
 J. E. Peralta, F. Ogliaro, M. Bearpark, J. J. Heyd, E. Brothers, 
 K. N. Kudin, V. N. Staroverov, T. Keith, R. Kobayashi, J. Normand, 
 K. Raghavachari, A. Rendell, J. C. Burant, S. S. Iyengar, J. Tomasi, 
 M. Cossi, N. Rega, J. M. Millam, M. Klene, J. E. Knox, J. B. Cross, 
 V. Bakken, C. Adamo, J. Jaramillo, R. Gomperts, R. E. Stratmann, 
 O. Yazyev, A. J. Austin, R. Cammi, C. Pomelli, J. W. Ochterski, 
 R. L. Martin, K. Morokuma, V. G. Zakrzewski, G. A. Voth, 
 P. Salvador, J. J. Dannenberg, S. Dapprich, A. D. Daniels, 
 O. Farkas, J. B. Foresman, J. V. Ortiz, J. Cioslowski, 
 and D. J. Fox, Gaussian, Inc., Wallingford CT, 2013.
 
 ******************************************
 Gaussian 09:  ES64L-G09RevD.01 24-Apr-2013
                15-Sep-2020 
 ******************************************
 %OldChk=/home/aartigas/chk/5_helicene_spe.chk
 %nproc=8
 Will use up to    8 processors via shared memory.
 %mem=1000MB
 Copying data from "/home/aartigas/chk/5_helicene_spe.chk" to current chk file "/scratch/aartigas.38843/Gau-3249945.chk".
 ----------------------------------------------------
 #P rb3lyp/6-311+g** NMR Guess=Read geom=connectivity
 ----------------------------------------------------
 1/38=1,57=2/1;
 2/12=2,17=6,18=5,40=1/2;
 3/5=4,6=6,7=111,11=2,16=1,25=1,30=1,74=-5,116=1/1,2,8,3;
 4/5=1/1;
 5/5=2,38=6/2;
 8/6=1,10=90,11=11/1;
 10/13=100,45=16/2;
 6/7=2,8=2,9=2,10=2,28=1/1;
 99/9=1/99;
 Leave Link    1 at Tue Sep 15 11:01:43 2020, MaxMem=   131072000 cpu:         0.5
 (Enter /share/programs/GAUSSIAN/64/g09/l101.exe)
 -----
 Title
 -----
 Symbolic Z-matrix:
 Charge =  0 Multiplicity = 1
 C                     0.65324   3.25786  -0.20251 
 C                    -0.65324   3.25786   0.20251 
 C                     1.3725    2.03296  -0.32081 
 C                    -1.3725    2.03296   0.32081 
 C                     0.72247   0.79567  -0.05039 
 C                    -0.72247   0.79567   0.05039 
 C                     2.76039   2.05393  -0.67427 
 C                     3.50887   0.91392  -0.67136 
 C                     2.95523  -0.30962  -0.17748 
 C                     1.57472  -0.36111   0.19709 
 H                     1.18343   4.19574  -0.3846 
 H                    -1.18343   4.19574   0.3846 
 H                     3.20628   3.01242  -0.95139 
 H                     4.56002   0.93296  -0.96933 
 C                     3.78302  -1.4431    0.02831 
 C                     1.13743  -1.50753   0.91211 
 C                     1.97369  -2.58435   1.13806 
 C                     3.30185  -2.57159   0.66118 
 H                     4.82575  -1.39123  -0.29548 
 H                     0.12465  -1.53279   1.30847 
 H                     1.60359  -3.44568   1.69898 
 H                     3.95274  -3.43353   0.82513 
 C                    -3.50887   0.91392   0.67136 
 C                    -2.76039   2.05393   0.67427 
 C                    -2.95523  -0.30962   0.17748 
 C                    -1.57472  -0.36111  -0.19709 
 C                    -3.78302  -1.4431   -0.02831 
 C                    -3.30185  -2.57159  -0.66118 
 C                    -1.97369  -2.58435  -1.13806 
 C                    -1.13743  -1.50753  -0.91211 
 H                    -4.56002   0.93295   0.96933 
 H                    -3.20628   3.01242   0.95139 
 H                    -4.82575  -1.39123   0.29548 
 H                    -3.95274  -3.43353  -0.82513 
 H                    -1.60359  -3.44568  -1.69898 
 H                    -0.12465  -1.53279  -1.30847 
 Bq                    1.61389   4.6262   -1.17795 
 Bq                    1.55402   4.6787   -1.17795 
 Bq                    1.48781   4.72294  -1.17795 
 Bq                    1.41639   4.75816  -1.17795 
 Bq                    1.34099   4.78376  -1.17795 
 Bq                    1.26289   4.79929  -1.17795 
 Bq                    1.18343   4.8045   -1.17795 
 Bq                    1.10397   4.79929  -1.17795 
 Bq                    1.02587   4.78376  -1.17795 
 Bq                    0.95046   4.75816  -1.17795 
 Bq                    0.87905   4.72294  -1.17795 
 Bq                    0.81284   4.6787   -1.17795 
 Bq                    0.75297   4.6262   -1.17795 
 Bq                    0.70046   4.56633  -1.17795 
 Bq                    0.65622   4.50012  -1.17795 
 Bq                    0.621     4.4287   -1.17795 
 Bq                    0.59541   4.3533   -1.17795 
 Bq                    0.57987   4.2752   -1.17795 
 Bq                    0.57467   4.19574  -1.17795 
 Bq                    0.57987   4.11628  -1.17795 
 Bq                    0.59541   4.03818  -1.17795 
 Bq                    0.621     3.96278  -1.17795 
 Bq                    0.65622   3.89136  -1.17795 
 Bq                    0.70046   3.82515  -1.17795 
 Bq                    0.75297   3.76528  -1.17795 
 Bq                    0.81284   3.71278  -1.17795 
 Bq                    0.87905   3.66854  -1.17795 
 Bq                    0.95046   3.63332  -1.17795 
 Bq                    1.02587   3.60772  -1.17795 
 Bq                    1.10397   3.59219  -1.17795 
 Bq                    1.18343   3.58698  -1.17795 
 Bq                    1.26289   3.59219  -1.17795 
 Bq                    1.34099   3.60772  -1.17795 
 Bq                    1.41639   3.63332  -1.17795 
 Bq                    1.48781   3.66854  -1.17795 
 Bq                    1.55402   3.71278  -1.17795 
 Bq                    1.61389   3.76528  -1.17795 
 Bq                    1.66639   3.82515  -1.17795 
 Bq                    1.71063   3.89136  -1.17795 
 Bq                    1.74585   3.96278  -1.17795 
 Bq                    1.77145   4.03818  -1.17795 
 Bq                    1.78698   4.11628  -1.17795 
 Bq                    1.68343   4.19574  -1.25062 
 Bq                    1.67915   4.261    -1.25062 
 Bq                    1.66639   4.32515  -1.25062 
 Bq                    1.64537   4.38708  -1.25062 
 Bq                    1.61644   4.44574  -1.25062 
 Bq                    1.5801    4.50012  -1.25062 
 Bq                    1.53698   4.54929  -1.25062 
 Bq                    1.48781   4.59242  -1.25062 
 Bq                    1.43343   4.62875  -1.25062 
 Bq                    1.37477   4.65768  -1.25062 
 Bq                    1.31284   4.6787   -1.25062 
 Bq                    1.24869   4.69146  -1.25062 
 Bq                    1.18343   4.69574  -1.25062 
 Bq                    1.11816   4.69146  -1.25062 
 Bq                    1.05402   4.6787   -1.25062 
 Bq                    0.99209   4.65768  -1.25062 
 Bq                    0.93343   4.62875  -1.25062 
 Bq                    0.87905   4.59242  -1.25062 
 Bq                    0.82987   4.54929  -1.25062 
 Bq                    0.78675   4.50012  -1.25062 
 Bq                    0.75041   4.44574  -1.25062 
 Bq                    0.72149   4.38708  -1.25062 
 Bq                    0.70046   4.32515  -1.25062 
 Bq                    0.6877    4.261    -1.25062 
 Bq                    0.68343   4.19574  -1.25062 
 Bq                    0.6877    4.13048  -1.25062 
 Bq                    0.70046   4.06633  -1.25062 
 Bq                    0.72149   4.0044   -1.25062 
 Bq                    0.75041   3.94574  -1.25062 
 Bq                    0.78675   3.89136  -1.25062 
 Bq                    0.82987   3.84219  -1.25062 
 Bq                    0.87905   3.79906  -1.25062 
 Bq                    0.93343   3.76273  -1.25062 
 Bq                    0.99209   3.7338   -1.25062 
 Bq                    1.05402   3.71278  -1.25062 
 Bq                    1.11816   3.70002  -1.25062 
 Bq                    1.18343   3.69574  -1.25062 
 Bq                    1.24869   3.70002  -1.25062 
 Bq                    1.31284   3.71278  -1.25062 
 Bq                    1.37477   3.7338   -1.25062 
 Bq                    1.43343   3.76273  -1.25062 
 Bq                    1.48781   3.79906  -1.25062 
 Bq                    1.53698   3.84219  -1.25062 
 Bq                    1.5801    3.89136  -1.25062 
 Bq                    1.61644   3.94574  -1.25062 
 Bq                    1.64537   4.0044   -1.25062 
 Bq                    1.66639   4.06633  -1.25062 
 Bq                    1.67915   4.13048  -1.25062 
 Bq                    1.56611   4.19574  -1.30848 
 Bq                    1.56284   4.24569  -1.30848 
 Bq                    1.55307   4.29479  -1.30848 
 Bq                    1.53698   4.34219  -1.30848 
 Bq                    1.51484   4.38708  -1.30848 
 Bq                    1.48703   4.4287   -1.30848 
 Bq                    1.45403   4.46634  -1.30848 
 Bq                    1.41639   4.49934  -1.30848 
 Bq                    1.37477   4.52715  -1.30848 
 Bq                    1.32987   4.54929  -1.30848 
 Bq                    1.28247   4.56538  -1.30848 
 Bq                    1.23338   4.57515  -1.30848 
 Bq                    1.18343   4.57842  -1.30848 
 Bq                    1.13348   4.57515  -1.30848 
 Bq                    1.08438   4.56538  -1.30848 
 Bq                    1.03698   4.54929  -1.30848 
 Bq                    0.99209   4.52715  -1.30848 
 Bq                    0.95046   4.49934  -1.30848 
 Bq                    0.91283   4.46634  -1.30848 
 Bq                    0.87982   4.4287   -1.30848 
 Bq                    0.85201   4.38708  -1.30848 
 Bq                    0.82987   4.34219  -1.30848 
 Bq                    0.81378   4.29479  -1.30848 
 Bq                    0.80402   4.24569  -1.30848 
 Bq                    0.80074   4.19574  -1.30848 
 Bq                    0.80402   4.14579  -1.30848 
 Bq                    0.81378   4.09669  -1.30848 
 Bq                    0.82987   4.04929  -1.30848 
 Bq                    0.85201   4.0044   -1.30848 
 Bq                    0.87982   3.96278  -1.30848 
 Bq                    0.91283   3.92514  -1.30848 
 Bq                    0.95046   3.89214  -1.30848 
 Bq                    0.99209   3.86433  -1.30848 
 Bq                    1.03698   3.84219  -1.30848 
 Bq                    1.08438   3.8261   -1.30848 
 Bq                    1.13348   3.81633  -1.30848 
 Bq                    1.18343   3.81306  -1.30848 
 Bq                    1.23338   3.81633  -1.30848 
 Bq                    1.28247   3.8261   -1.30848 
 Bq                    1.32987   3.84219  -1.30848 
 Bq                    1.37477   3.86433  -1.30848 
 Bq                    1.41639   3.89214  -1.30848 
 Bq                    1.45403   3.92514  -1.30848 
 Bq                    1.48703   3.96278  -1.30848 
 Bq                    1.51484   4.0044   -1.30848 
 Bq                    1.53698   4.04929  -1.30848 
 Bq                    1.55307   4.09669  -1.30848 
 Bq                    1.56284   4.14579  -1.30848 
 Bq                    1.44225   4.19574  -1.35052 
 Bq                    1.44003   4.22952  -1.35052 
 Bq                    1.43343   4.26273  -1.35052 
 Bq                    1.42254   4.29479  -1.35052 
 Bq                    1.40757   4.32515  -1.35052 
 Bq                    1.38876   4.3533   -1.35052 
 Bq                    1.36644   4.37875  -1.35052 
 Bq                    1.34099   4.40107  -1.35052 
 Bq                    1.31284   4.41988  -1.35052 
 Bq                    1.28247   4.43486  -1.35052 
 Bq                    1.25041   4.44574  -1.35052 
 Bq                    1.21721   4.45234  -1.35052 
 Bq                    1.18343   4.45456  -1.35052 
 Bq                    1.14964   4.45234  -1.35052 
 Bq                    1.11644   4.44574  -1.35052 
 Bq                    1.08438   4.43486  -1.35052 
 Bq                    1.05402   4.41988  -1.35052 
 Bq                    1.02587   4.40107  -1.35052 
 Bq                    1.00041   4.37875  -1.35052 
 Bq                    0.97809   4.3533   -1.35052 
 Bq                    0.95928   4.32515  -1.35052 
 Bq                    0.94431   4.29479  -1.35052 
 Bq                    0.93343   4.26273  -1.35052 
 Bq                    0.92682   4.22952  -1.35052 
 Bq                    0.92461   4.19574  -1.35052 
 Bq                    0.92682   4.16196  -1.35052 
 Bq                    0.93343   4.12875  -1.35052 
 Bq                    0.94431   4.09669  -1.35052 
 Bq                    0.95928   4.06633  -1.35052 
 Bq                    0.97809   4.03818  -1.35052 
 Bq                    1.00041   4.01273  -1.35052 
 Bq                    1.02587   3.99041  -1.35052 
 Bq                    1.05402   3.9716   -1.35052 
 Bq                    1.08438   3.95662  -1.35052 
 Bq                    1.11644   3.94574  -1.35052 
 Bq                    1.14964   3.93914  -1.35052 
 Bq                    1.18343   3.93692  -1.35052 
 Bq                    1.21721   3.93914  -1.35052 
 Bq                    1.25041   3.94574  -1.35052 
 Bq                    1.28247   3.95662  -1.35052 
 Bq                    1.31284   3.9716   -1.35052 
 Bq                    1.34099   3.99041  -1.35052 
 Bq                    1.36644   4.01273  -1.35052 
 Bq                    1.38876   4.03818  -1.35052 
 Bq                    1.40757   4.06633  -1.35052 
 Bq                    1.42254   4.09669  -1.35052 
 Bq                    1.43343   4.12875  -1.35052 
 Bq                    1.44003   4.16196  -1.35052 
 Bq                    1.31395   4.19574  -1.37604 
 Bq                    1.31284   4.21278  -1.37604 
 Bq                    1.30951   4.22952  -1.37604 
 Bq                    1.30402   4.24569  -1.37604 
 Bq                    1.29647   4.261    -1.37604 
 Bq                    1.28698   4.2752   -1.37604 
 Bq                    1.27572   4.28804  -1.37604 
 Bq                    1.26289   4.29929  -1.37604 
 Bq                    1.24869   4.30878  -1.37604 
 Bq                    1.23338   4.31633  -1.37604 
 Bq                    1.21721   4.32182  -1.37604 
 Bq                    1.20046   4.32515  -1.37604 
 Bq                    1.18343   4.32627  -1.37604 
 Bq                    1.16639   4.32515  -1.37604 
 
 NAtoms=    236 NQM=      236 NQMF=       0 NMMI=      0 NMMIF=      0
                NMic=       0 NMicF=      0.
                    Isotopes and Nuclear Properties:
 (Nuclear quadrupole moments (NQMom) in fm**2, nuclear magnetic moments (NMagM)
  in nuclear magnetons)

  Atom         1           2           3           4           5           6           7           8           9          10
 IAtWgt=          12          12          12          12          12          12          12          12          12          12
 AtmWgt=  12.0000000  12.0000000  12.0000000  12.0000000  12.0000000  12.0000000  12.0000000  12.0000000  12.0000000  12.0000000
 NucSpn=           0           0           0           0           0           0           0           0           0           0
 AtZEff=   0.0000000   0.0000000   0.0000000   0.0000000   0.0000000   0.0000000   0.0000000   0.0000000   0.0000000   0.0000000
 NQMom=    0.0000000   0.0000000   0.0000000   0.0000000   0.0000000   0.0000000   0.0000000   0.0000000   0.0000000   0.0000000
 NMagM=    0.0000000   0.0000000   0.0000000   0.0000000   0.0000000   0.0000000   0.0000000   0.0000000   0.0000000   0.0000000
 AtZNuc=   6.0000000   6.0000000   6.0000000   6.0000000   6.0000000   6.0000000   6.0000000   6.0000000   6.0000000   6.0000000

  Atom        11          12          13          14          15          16          17          18          19          20
 IAtWgt=           1           1           1           1          12          12          12          12           1           1
 AtmWgt=   1.0078250   1.0078250   1.0078250   1.0078250  12.0000000  12.0000000  12.0000000  12.0000000   1.0078250   1.0078250
 NucSpn=           1           1           1           1           0           0           0           0           1           1
 AtZEff=   0.0000000   0.0000000   0.0000000   0.0000000   0.0000000   0.0000000   0.0000000   0.0000000   0.0000000   0.0000000
 NQMom=    0.0000000   0.0000000   0.0000000   0.0000000   0.0000000   0.0000000   0.0000000   0.0000000   0.0000000   0.0000000
 NMagM=    2.7928460   2.7928460   2.7928460   2.7928460   0.0000000   0.0000000   0.0000000   0.0000000   2.7928460   2.7928460
 AtZNuc=   1.0000000   1.0000000   1.0000000   1.0000000   6.0000000   6.0000000   6.0000000   6.0000000   1.0000000   1.0000000

  Atom        21          22          23          24          25          26          27          28          29          30
 IAtWgt=           1           1          12          12          12          12          12          12          12          12
 AtmWgt=   1.0078250   1.0078250  12.0000000  12.0000000  12.0000000  12.0000000  12.0000000  12.0000000  12.0000000  12.0000000
 NucSpn=           1           1           0           0           0           0           0           0           0           0
 AtZEff=   0.0000000   0.0000000   0.0000000   0.0000000   0.0000000   0.0000000   0.0000000   0.0000000   0.0000000   0.0000000
 NQMom=    0.0000000   0.0000000   0.0000000   0.0000000   0.0000000   0.0000000   0.0000000   0.0000000   0.0000000   0.0000000
 NMagM=    2.7928460   2.7928460   0.0000000   0.0000000   0.0000000   0.0000000   0.0000000   0.0000000   0.0000000   0.0000000
 AtZNuc=   1.0000000   1.0000000   6.0000000   6.0000000   6.0000000   6.0000000   6.0000000   6.0000000   6.0000000   6.0000000

  Atom        31          32          33          34          35          36          37          38          39          40
 IAtWgt=           1           1           1           1           1           1           0           0           0           0
 AtmWgt=   1.0078250   1.0078250   1.0078250   1.0078250   1.0078250   1.0078250   0.0000000   0.0000000   0.0000000   0.0000000
 NucSpn=           1           1           1           1           1           1           0           0           0           0
 AtZEff=   0.0000000   0.0000000   0.0000000   0.0000000   0.0000000   0.0000000   0.0000000   0.0000000   0.0000000   0.0000000
 NQMom=    0.0000000   0.0000000   0.0000000   0.0000000   0.0000000   0.0000000   0.0000000   0.0000000   0.0000000   0.0000000
 NMagM=    2.7928460   2.7928460   2.7928460   2.7928460   2.7928460   2.7928460   0.0000000   0.0000000   0.0000000   0.0000000
 AtZNuc=   1.0000000   1.0000000   1.0000000   1.0000000   1.0000000   1.0000000   0.0000000   0.0000000   0.0000000   0.0000000

  Atom        41          42          43          44          45          46          47          48          49          50
 IAtWgt=           0           0           0           0           0           0           0           0           0           0
 AtmWgt=   0.0000000   0.0000000   0.0000000   0.0000000   0.0000000   0.0000000   0.0000000   0.0000000   0.0000000   0.0000000
 NucSpn=           0           0           0           0           0           0           0           0           0           0
 AtZEff=   0.0000000   0.0000000   0.0000000   0.0000000   0.0000000   0.0000000   0.0000000   0.0000000   0.0000000   0.0000000
 NQMom=    0.0000000   0.0000000   0.0000000   0.0000000   0.0000000   0.0000000   0.0000000   0.0000000   0.0000000   0.0000000
 NMagM=    0.0000000   0.0000000   0.0000000   0.0000000   0.0000000   0.0000000   0.0000000   0.0000000   0.0000000   0.0000000
 AtZNuc=   0.0000000   0.0000000   0.0000000   0.0000000   0.0000000   0.0000000   0.0000000   0.0000000   0.0000000   0.0000000

  Atom        51          52          53          54          55          56          57          58          59          60
 IAtWgt=           0           0           0           0           0           0           0           0           0           0
 AtmWgt=   0.0000000   0.0000000   0.0000000   0.0000000   0.0000000   0.0000000   0.0000000   0.0000000   0.0000000   0.0000000
 NucSpn=           0           0           0           0           0           0           0           0           0           0
 AtZEff=   0.0000000   0.0000000   0.0000000   0.0000000   0.0000000   0.0000000   0.0000000   0.0000000   0.0000000   0.0000000
 NQMom=    0.0000000   0.0000000   0.0000000   0.0000000   0.0000000   0.0000000   0.0000000   0.0000000   0.0000000   0.0000000
 NMagM=    0.0000000   0.0000000   0.0000000   0.0000000   0.0000000   0.0000000   0.0000000   0.0000000   0.0000000   0.0000000
 AtZNuc=   0.0000000   0.0000000   0.0000000   0.0000000   0.0000000   0.0000000   0.0000000   0.0000000   0.0000000   0.0000000

  Atom        61          62          63          64          65          66          67          68          69          70
 IAtWgt=           0           0           0           0           0           0           0           0           0           0
 AtmWgt=   0.0000000   0.0000000   0.0000000   0.0000000   0.0000000   0.0000000   0.0000000   0.0000000   0.0000000   0.0000000
 NucSpn=           0           0           0           0           0           0           0           0           0           0
 AtZEff=   0.0000000   0.0000000   0.0000000   0.0000000   0.0000000   0.0000000   0.0000000   0.0000000   0.0000000   0.0000000
 NQMom=    0.0000000   0.0000000   0.0000000   0.0000000   0.0000000   0.0000000   0.0000000   0.0000000   0.0000000   0.0000000
 NMagM=    0.0000000   0.0000000   0.0000000   0.0000000   0.0000000   0.0000000   0.0000000   0.0000000   0.0000000   0.0000000
 AtZNuc=   0.0000000   0.0000000   0.0000000   0.0000000   0.0000000   0.0000000   0.0000000   0.0000000   0.0000000   0.0000000

  Atom        71          72          73          74          75          76          77          78          79          80
 IAtWgt=           0           0           0           0           0           0           0           0           0           0
 AtmWgt=   0.0000000   0.0000000   0.0000000   0.0000000   0.0000000   0.0000000   0.0000000   0.0000000   0.0000000   0.0000000
 NucSpn=           0           0           0           0           0           0           0           0           0           0
 AtZEff=   0.0000000   0.0000000   0.0000000   0.0000000   0.0000000   0.0000000   0.0000000   0.0000000   0.0000000   0.0000000
 NQMom=    0.0000000   0.0000000   0.0000000   0.0000000   0.0000000   0.0000000   0.0000000   0.0000000   0.0000000   0.0000000
 NMagM=    0.0000000   0.0000000   0.0000000   0.0000000   0.0000000   0.0000000   0.0000000   0.0000000   0.0000000   0.0000000
 AtZNuc=   0.0000000   0.0000000   0.0000000   0.0000000   0.0000000   0.0000000   0.0000000   0.0000000   0.0000000   0.0000000

  Atom        81          82          83          84          85          86          87          88          89          90
 IAtWgt=           0           0           0           0           0           0           0           0           0           0
 AtmWgt=   0.0000000   0.0000000   0.0000000   0.0000000   0.0000000   0.0000000   0.0000000   0.0000000   0.0000000   0.0000000
 NucSpn=           0           0           0           0           0           0           0           0           0           0
 AtZEff=   0.0000000   0.0000000   0.0000000   0.0000000   0.0000000   0.0000000   0.0000000   0.0000000   0.0000000   0.0000000
 NQMom=    0.0000000   0.0000000   0.0000000   0.0000000   0.0000000   0.0000000   0.0000000   0.0000000   0.0000000   0.0000000
 NMagM=    0.0000000   0.0000000   0.0000000   0.0000000   0.0000000   0.0000000   0.0000000   0.0000000   0.0000000   0.0000000
 AtZNuc=   0.0000000   0.0000000   0.0000000   0.0000000   0.0000000   0.0000000   0.0000000   0.0000000   0.0000000   0.0000000

  Atom        91          92          93          94          95          96          97          98          99         100
 IAtWgt=           0           0           0           0           0           0           0           0           0           0
 AtmWgt=   0.0000000   0.0000000   0.0000000   0.0000000   0.0000000   0.0000000   0.0000000   0.0000000   0.0000000   0.0000000
 NucSpn=           0           0           0           0           0           0           0           0           0           0
 AtZEff=   0.0000000   0.0000000   0.0000000   0.0000000   0.0000000   0.0000000   0.0000000   0.0000000   0.0000000   0.0000000
 NQMom=    0.0000000   0.0000000   0.0000000   0.0000000   0.0000000   0.0000000   0.0000000   0.0000000   0.0000000   0.0000000
 NMagM=    0.0000000   0.0000000   0.0000000   0.0000000   0.0000000   0.0000000   0.0000000   0.0000000   0.0000000   0.0000000
 AtZNuc=   0.0000000   0.0000000   0.0000000   0.0000000   0.0000000   0.0000000   0.0000000   0.0000000   0.0000000   0.0000000

  Atom       101         102         103         104         105         106         107         108         109         110
 IAtWgt=           0           0           0           0           0           0           0           0           0           0
 AtmWgt=   0.0000000   0.0000000   0.0000000   0.0000000   0.0000000   0.0000000   0.0000000   0.0000000   0.0000000   0.0000000
 NucSpn=           0           0           0           0           0           0           0           0           0           0
 AtZEff=   0.0000000   0.0000000   0.0000000   0.0000000   0.0000000   0.0000000   0.0000000   0.0000000   0.0000000   0.0000000
 NQMom=    0.0000000   0.0000000   0.0000000   0.0000000   0.0000000   0.0000000   0.0000000   0.0000000   0.0000000   0.0000000
 NMagM=    0.0000000   0.0000000   0.0000000   0.0000000   0.0000000   0.0000000   0.0000000   0.0000000   0.0000000   0.0000000
 AtZNuc=   0.0000000   0.0000000   0.0000000   0.0000000   0.0000000   0.0000000   0.0000000   0.0000000   0.0000000   0.0000000

  Atom       111         112         113         114         115         116         117         118         119         120
 IAtWgt=           0           0           0           0           0           0           0           0           0           0
 AtmWgt=   0.0000000   0.0000000   0.0000000   0.0000000   0.0000000   0.0000000   0.0000000   0.0000000   0.0000000   0.0000000
 NucSpn=           0           0           0           0           0           0           0           0           0           0
 AtZEff=   0.0000000   0.0000000   0.0000000   0.0000000   0.0000000   0.0000000   0.0000000   0.0000000   0.0000000   0.0000000
 NQMom=    0.0000000   0.0000000   0.0000000   0.0000000   0.0000000   0.0000000   0.0000000   0.0000000   0.0000000   0.0000000
 NMagM=    0.0000000   0.0000000   0.0000000   0.0000000   0.0000000   0.0000000   0.0000000   0.0000000   0.0000000   0.0000000
 AtZNuc=   0.0000000   0.0000000   0.0000000   0.0000000   0.0000000   0.0000000   0.0000000   0.0000000   0.0000000   0.0000000

  Atom       121         122         123         124         125         126         127         128         129         130
 IAtWgt=           0           0           0           0           0           0           0           0           0           0
 AtmWgt=   0.0000000   0.0000000   0.0000000   0.0000000   0.0000000   0.0000000   0.0000000   0.0000000   0.0000000   0.0000000
 NucSpn=           0           0           0           0           0           0           0           0           0           0
 AtZEff=   0.0000000   0.0000000   0.0000000   0.0000000   0.0000000   0.0000000   0.0000000   0.0000000   0.0000000   0.0000000
 NQMom=    0.0000000   0.0000000   0.0000000   0.0000000   0.0000000   0.0000000   0.0000000   0.0000000   0.0000000   0.0000000
 NMagM=    0.0000000   0.0000000   0.0000000   0.0000000   0.0000000   0.0000000   0.0000000   0.0000000   0.0000000   0.0000000
 AtZNuc=   0.0000000   0.0000000   0.0000000   0.0000000   0.0000000   0.0000000   0.0000000   0.0000000   0.0000000   0.0000000

  Atom       131         132         133         134         135         136         137         138         139         140
 IAtWgt=           0           0           0           0           0           0           0           0           0           0
 AtmWgt=   0.0000000   0.0000000   0.0000000   0.0000000   0.0000000   0.0000000   0.0000000   0.0000000   0.0000000   0.0000000
 NucSpn=           0           0           0           0           0           0           0           0           0           0
 AtZEff=   0.0000000   0.0000000   0.0000000   0.0000000   0.0000000   0.0000000   0.0000000   0.0000000   0.0000000   0.0000000
 NQMom=    0.0000000   0.0000000   0.0000000   0.0000000   0.0000000   0.0000000   0.0000000   0.0000000   0.0000000   0.0000000
 NMagM=    0.0000000   0.0000000   0.0000000   0.0000000   0.0000000   0.0000000   0.0000000   0.0000000   0.0000000   0.0000000
 AtZNuc=   0.0000000   0.0000000   0.0000000   0.0000000   0.0000000   0.0000000   0.0000000   0.0000000   0.0000000   0.0000000

  Atom       141         142         143         144         145         146         147         148         149         150
 IAtWgt=           0           0           0           0           0           0           0           0           0           0
 AtmWgt=   0.0000000   0.0000000   0.0000000   0.0000000   0.0000000   0.0000000   0.0000000   0.0000000   0.0000000   0.0000000
 NucSpn=           0           0           0           0           0           0           0           0           0           0
 AtZEff=   0.0000000   0.0000000   0.0000000   0.0000000   0.0000000   0.0000000   0.0000000   0.0000000   0.0000000   0.0000000
 NQMom=    0.0000000   0.0000000   0.0000000   0.0000000   0.0000000   0.0000000   0.0000000   0.0000000   0.0000000   0.0000000
 NMagM=    0.0000000   0.0000000   0.0000000   0.0000000   0.0000000   0.0000000   0.0000000   0.0000000   0.0000000   0.0000000
 AtZNuc=   0.0000000   0.0000000   0.0000000   0.0000000   0.0000000   0.0000000   0.0000000   0.0000000   0.0000000   0.0000000

  Atom       151         152         153         154         155         156         157         158         159         160
 IAtWgt=           0           0           0           0           0           0           0           0           0           0
 AtmWgt=   0.0000000   0.0000000   0.0000000   0.0000000   0.0000000   0.0000000   0.0000000   0.0000000   0.0000000   0.0000000
 NucSpn=           0           0           0           0           0           0           0           0           0           0
 AtZEff=   0.0000000   0.0000000   0.0000000   0.0000000   0.0000000   0.0000000   0.0000000   0.0000000   0.0000000   0.0000000
 NQMom=    0.0000000   0.0000000   0.0000000   0.0000000   0.0000000   0.0000000   0.0000000   0.0000000   0.0000000   0.0000000
 NMagM=    0.0000000   0.0000000   0.0000000   0.0000000   0.0000000   0.0000000   0.0000000   0.0000000   0.0000000   0.0000000
 AtZNuc=   0.0000000   0.0000000   0.0000000   0.0000000   0.0000000   0.0000000   0.0000000   0.0000000   0.0000000   0.0000000

  Atom       161         162         163         164         165         166         167         168         169         170
 IAtWgt=           0           0           0           0           0           0           0           0           0           0
 AtmWgt=   0.0000000   0.0000000   0.0000000   0.0000000   0.0000000   0.0000000   0.0000000   0.0000000   0.0000000   0.0000000
 NucSpn=           0           0           0           0           0           0           0           0           0           0
 AtZEff=   0.0000000   0.0000000   0.0000000   0.0000000   0.0000000   0.0000000   0.0000000   0.0000000   0.0000000   0.0000000
 NQMom=    0.0000000   0.0000000   0.0000000   0.0000000   0.0000000   0.0000000   0.0000000   0.0000000   0.0000000   0.0000000
 NMagM=    0.0000000   0.0000000   0.0000000   0.0000000   0.0000000   0.0000000   0.0000000   0.0000000   0.0000000   0.0000000
 AtZNuc=   0.0000000   0.0000000   0.0000000   0.0000000   0.0000000   0.0000000   0.0000000   0.0000000   0.0000000   0.0000000

  Atom       171         172         173         174         175         176         177         178         179         180
 IAtWgt=           0           0           0           0           0           0           0           0           0           0
 AtmWgt=   0.0000000   0.0000000   0.0000000   0.0000000   0.0000000   0.0000000   0.0000000   0.0000000   0.0000000   0.0000000
 NucSpn=           0           0           0           0           0           0           0           0           0           0
 AtZEff=   0.0000000   0.0000000   0.0000000   0.0000000   0.0000000   0.0000000   0.0000000   0.0000000   0.0000000   0.0000000
 NQMom=    0.0000000   0.0000000   0.0000000   0.0000000   0.0000000   0.0000000   0.0000000   0.0000000   0.0000000   0.0000000
 NMagM=    0.0000000   0.0000000   0.0000000   0.0000000   0.0000000   0.0000000   0.0000000   0.0000000   0.0000000   0.0000000
 AtZNuc=   0.0000000   0.0000000   0.0000000   0.0000000   0.0000000   0.0000000   0.0000000   0.0000000   0.0000000   0.0000000

  Atom       181         182         183         184         185         186         187         188         189         190
 IAtWgt=           0           0           0           0           0           0           0           0           0           0
 AtmWgt=   0.0000000   0.0000000   0.0000000   0.0000000   0.0000000   0.0000000   0.0000000   0.0000000   0.0000000   0.0000000
 NucSpn=           0           0           0           0           0           0           0           0           0           0
 AtZEff=   0.0000000   0.0000000   0.0000000   0.0000000   0.0000000   0.0000000   0.0000000   0.0000000   0.0000000   0.0000000
 NQMom=    0.0000000   0.0000000   0.0000000   0.0000000   0.0000000   0.0000000   0.0000000   0.0000000   0.0000000   0.0000000
 NMagM=    0.0000000   0.0000000   0.0000000   0.0000000   0.0000000   0.0000000   0.0000000   0.0000000   0.0000000   0.0000000
 AtZNuc=   0.0000000   0.0000000   0.0000000   0.0000000   0.0000000   0.0000000   0.0000000   0.0000000   0.0000000   0.0000000

  Atom       191         192         193         194         195         196         197         198         199         200
 IAtWgt=           0           0           0           0           0           0           0           0           0           0
 AtmWgt=   0.0000000   0.0000000   0.0000000   0.0000000   0.0000000   0.0000000   0.0000000   0.0000000   0.0000000   0.0000000
 NucSpn=           0           0           0           0           0           0           0           0           0           0
 AtZEff=   0.0000000   0.0000000   0.0000000   0.0000000   0.0000000   0.0000000   0.0000000   0.0000000   0.0000000   0.0000000
 NQMom=    0.0000000   0.0000000   0.0000000   0.0000000   0.0000000   0.0000000   0.0000000   0.0000000   0.0000000   0.0000000
 NMagM=    0.0000000   0.0000000   0.0000000   0.0000000   0.0000000   0.0000000   0.0000000   0.0000000   0.0000000   0.0000000
 AtZNuc=   0.0000000   0.0000000   0.0000000   0.0000000   0.0000000   0.0000000   0.0000000   0.0000000   0.0000000   0.0000000

  Atom       201         202         203         204         205         206         207         208         209         210
 IAtWgt=           0           0           0           0           0           0           0           0           0           0
 AtmWgt=   0.0000000   0.0000000   0.0000000   0.0000000   0.0000000   0.0000000   0.0000000   0.0000000   0.0000000   0.0000000
 NucSpn=           0           0           0           0           0           0           0           0           0           0
 AtZEff=   0.0000000   0.0000000   0.0000000   0.0000000   0.0000000   0.0000000   0.0000000   0.0000000   0.0000000   0.0000000
 NQMom=    0.0000000   0.0000000   0.0000000   0.0000000   0.0000000   0.0000000   0.0000000   0.0000000   0.0000000   0.0000000
 NMagM=    0.0000000   0.0000000   0.0000000   0.0000000   0.0000000   0.0000000   0.0000000   0.0000000   0.0000000   0.0000000
 AtZNuc=   0.0000000   0.0000000   0.0000000   0.0000000   0.0000000   0.0000000   0.0000000   0.0000000   0.0000000   0.0000000

  Atom       211         212         213         214         215         216         217         218         219         220
 IAtWgt=           0           0           0           0           0           0           0           0           0           0
 AtmWgt=   0.0000000   0.0000000   0.0000000   0.0000000   0.0000000   0.0000000   0.0000000   0.0000000   0.0000000   0.0000000
 NucSpn=           0           0           0           0           0           0           0           0           0           0
 AtZEff=   0.0000000   0.0000000   0.0000000   0.0000000   0.0000000   0.0000000   0.0000000   0.0000000   0.0000000   0.0000000
 NQMom=    0.0000000   0.0000000   0.0000000   0.0000000   0.0000000   0.0000000   0.0000000   0.0000000   0.0000000   0.0000000
 NMagM=    0.0000000   0.0000000   0.0000000   0.0000000   0.0000000   0.0000000   0.0000000   0.0000000   0.0000000   0.0000000
 AtZNuc=   0.0000000   0.0000000   0.0000000   0.0000000   0.0000000   0.0000000   0.0000000   0.0000000   0.0000000   0.0000000

  Atom       221         222         223         224         225         226         227         228         229         230
 IAtWgt=           0           0           0           0           0           0           0           0           0           0
 AtmWgt=   0.0000000   0.0000000   0.0000000   0.0000000   0.0000000   0.0000000   0.0000000   0.0000000   0.0000000   0.0000000
 NucSpn=           0           0           0           0           0           0           0           0           0           0
 AtZEff=   0.0000000   0.0000000   0.0000000   0.0000000   0.0000000   0.0000000   0.0000000   0.0000000   0.0000000   0.0000000
 NQMom=    0.0000000   0.0000000   0.0000000   0.0000000   0.0000000   0.0000000   0.0000000   0.0000000   0.0000000   0.0000000
 NMagM=    0.0000000   0.0000000   0.0000000   0.0000000   0.0000000   0.0000000   0.0000000   0.0000000   0.0000000   0.0000000
 AtZNuc=   0.0000000   0.0000000   0.0000000   0.0000000   0.0000000   0.0000000   0.0000000   0.0000000   0.0000000   0.0000000

  Atom       231         232         233         234         235         236
 IAtWgt=           0           0           0           0           0           0
 AtmWgt=   0.0000000   0.0000000   0.0000000   0.0000000   0.0000000   0.0000000
 NucSpn=           0           0           0           0           0           0
 AtZEff=   0.0000000   0.0000000   0.0000000   0.0000000   0.0000000   0.0000000
 NQMom=    0.0000000   0.0000000   0.0000000   0.0000000   0.0000000   0.0000000
 NMagM=    0.0000000   0.0000000   0.0000000   0.0000000   0.0000000   0.0000000
 AtZNuc=   0.0000000   0.0000000   0.0000000   0.0000000   0.0000000   0.0000000
 Leave Link  101 at Tue Sep 15 11:01:43 2020, MaxMem=   131072000 cpu:         3.7
 (Enter /share/programs/GAUSSIAN/64/g09/l202.exe)
 Symmetry turned off:
 Cannot cope with ghost atoms or with translation vectors.
 Stoichiometry    C22H14
 Framework group  C1[X(C22H14)]
 NUMDOF-- NAT=    36 NAtoms=   236
 Deg. of freedom     0
 Full point group                 C1      NOp   1
                          Input orientation:                          
 ---------------------------------------------------------------------
 Center     Atomic      Atomic             Coordinates (Angstroms)
 Number     Number       Type             X           Y           Z
 ---------------------------------------------------------------------
      1          6           0        0.653241    3.257859   -0.202510
      2          6           0       -0.653243    3.257860    0.202510
      3          6           0        1.372495    2.032956   -0.320807
      4          6           0       -1.372495    2.032956    0.320807
      5          6           0        0.722474    0.795666   -0.050388
      6          6           0       -0.722474    0.795667    0.050387
      7          6           0        2.760385    2.053927   -0.674268
      8          6           0        3.508866    0.913916   -0.671362
      9          6           0        2.955226   -0.309622   -0.177479
     10          6           0        1.574722   -0.361114    0.197094
     11          1           0        1.183427    4.195740   -0.384599
     12          1           0       -1.183429    4.195740    0.384599
     13          1           0        3.206283    3.012423   -0.951392
     14          1           0        4.560023    0.932956   -0.969333
     15          6           0        3.783020   -1.443098    0.028309
     16          6           0        1.137427   -1.507533    0.912109
     17          6           0        1.973691   -2.584349    1.138062
     18          6           0        3.301853   -2.571588    0.661177
     19          1           0        4.825754   -1.391230   -0.295484
     20          1           0        0.124652   -1.532788    1.308472
     21          1           0        1.603586   -3.445682    1.698977
     22          1           0        3.952742   -3.433526    0.825134
     23          6           0       -3.508866    0.913915    0.671362
     24          6           0       -2.760386    2.053926    0.674268
     25          6           0       -2.955226   -0.309623    0.177479
     26          6           0       -1.574722   -0.361114   -0.197094
     27          6           0       -3.783020   -1.443099   -0.028309
     28          6           0       -3.301852   -2.571589   -0.661177
     29          6           0       -1.973690   -2.584349   -1.138061
     30          6           0       -1.137426   -1.507534   -0.912109
     31          1           0       -4.560022    0.932954    0.969334
     32          1           0       -3.206283    3.012421    0.951392
     33          1           0       -4.825754   -1.391232    0.295484
     34          1           0       -3.952741   -3.433528   -0.825134
     35          1           0       -1.603585   -3.445682   -1.698976
     36          1           0       -0.124652   -1.532788   -1.308471
     37          0           0        1.613886    4.626199   -1.177952
     38          0           0        1.554017    4.678703   -1.177952
     39          0           0        1.487808    4.722943   -1.177952
     40          0           0        1.416390    4.758162   -1.177952
     41          0           0        1.340986    4.783758   -1.177952
     42          0           0        1.262886    4.799293   -1.177952
     43          0           0        1.183427    4.804501   -1.177952
     44          0           0        1.103968    4.799293   -1.177952
     45          0           0        1.025868    4.783758   -1.177952
     46          0           0        0.950464    4.758162   -1.177952
     47          0           0        0.879046    4.722943   -1.177952
     48          0           0        0.812837    4.678703   -1.177952
     49          0           0        0.752968    4.626199   -1.177952
     50          0           0        0.700464    4.566330   -1.177952
     51          0           0        0.656224    4.500121   -1.177952
     52          0           0        0.621005    4.428703   -1.177952
     53          0           0        0.595409    4.353299   -1.177952
     54          0           0        0.579874    4.275199   -1.177952
     55          0           0        0.574666    4.195740   -1.177952
     56          0           0        0.579874    4.116281   -1.177952
     57          0           0        0.595409    4.038181   -1.177952
     58          0           0        0.621005    3.962777   -1.177952
     59          0           0        0.656224    3.891359   -1.177952
     60          0           0        0.700464    3.825150   -1.177952
     61          0           0        0.752968    3.765281   -1.177952
     62          0           0        0.812837    3.712777   -1.177952
     63          0           0        0.879046    3.668537   -1.177952
     64          0           0        0.950464    3.633318   -1.177952
     65          0           0        1.025868    3.607722   -1.177952
     66          0           0        1.103968    3.592187   -1.177952
     67          0           0        1.183427    3.586979   -1.177952
     68          0           0        1.262886    3.592187   -1.177952
     69          0           0        1.340986    3.607722   -1.177952
     70          0           0        1.416390    3.633318   -1.177952
     71          0           0        1.487808    3.668537   -1.177952
     72          0           0        1.554017    3.712777   -1.177952
     73          0           0        1.613886    3.765281   -1.177952
     74          0           0        1.666390    3.825150   -1.177952
     75          0           0        1.710630    3.891359   -1.177952
     76          0           0        1.745849    3.962777   -1.177952
     77          0           0        1.771445    4.038181   -1.177952
     78          0           0        1.786980    4.116281   -1.177952
     79          0           0        1.683427    4.195740   -1.250624
     80          0           0        1.679149    4.261003   -1.250624
     81          0           0        1.666390    4.325150   -1.250624
     82          0           0        1.645367    4.387082   -1.250624
     83          0           0        1.616440    4.445740   -1.250624
     84          0           0        1.580104    4.500121   -1.250624
     85          0           0        1.536980    4.549293   -1.250624
     86          0           0        1.487808    4.592417   -1.250624
     87          0           0        1.433427    4.628753   -1.250624
     88          0           0        1.374769    4.657680   -1.250624
     89          0           0        1.312837    4.678703   -1.250624
     90          0           0        1.248690    4.691462   -1.250624
     91          0           0        1.183427    4.695740   -1.250624
     92          0           0        1.118164    4.691462   -1.250624
     93          0           0        1.054017    4.678703   -1.250624
     94          0           0        0.992085    4.657680   -1.250624
     95          0           0        0.933427    4.628753   -1.250624
     96          0           0        0.879046    4.592417   -1.250624
     97          0           0        0.829874    4.549293   -1.250624
     98          0           0        0.786750    4.500121   -1.250624
     99          0           0        0.750414    4.445740   -1.250624
    100          0           0        0.721487    4.387082   -1.250624
    101          0           0        0.700464    4.325150   -1.250624
    102          0           0        0.687705    4.261003   -1.250624
    103          0           0        0.683427    4.195740   -1.250624
    104          0           0        0.687705    4.130477   -1.250624
    105          0           0        0.700464    4.066330   -1.250624
    106          0           0        0.721487    4.004398   -1.250624
    107          0           0        0.750414    3.945740   -1.250624
    108          0           0        0.786750    3.891359   -1.250624
    109          0           0        0.829874    3.842187   -1.250624
    110          0           0        0.879046    3.799063   -1.250624
    111          0           0        0.933427    3.762727   -1.250624
    112          0           0        0.992085    3.733800   -1.250624
    113          0           0        1.054017    3.712777   -1.250624
    114          0           0        1.118164    3.700018   -1.250624
    115          0           0        1.183427    3.695740   -1.250624
    116          0           0        1.248690    3.700018   -1.250624
    117          0           0        1.312837    3.712777   -1.250624
    118          0           0        1.374769    3.733800   -1.250624
    119          0           0        1.433427    3.762727   -1.250624
    120          0           0        1.487808    3.799063   -1.250624
    121          0           0        1.536980    3.842187   -1.250624
    122          0           0        1.580104    3.891359   -1.250624
    123          0           0        1.616440    3.945740   -1.250624
    124          0           0        1.645367    4.004398   -1.250624
    125          0           0        1.666390    4.066330   -1.250624
    126          0           0        1.679149    4.130477   -1.250624
    127          0           0        1.566110    4.195740   -1.308479
    128          0           0        1.562837    4.245690   -1.308479
    129          0           0        1.553071    4.294786   -1.308479
    130          0           0        1.536980    4.342187   -1.308479
    131          0           0        1.514841    4.387082   -1.308479
    132          0           0        1.487030    4.428703   -1.308479
    133          0           0        1.454025    4.466338   -1.308479
    134          0           0        1.416390    4.499343   -1.308479
    135          0           0        1.374769    4.527154   -1.308479
    136          0           0        1.329874    4.549293   -1.308479
    137          0           0        1.282473    4.565384   -1.308479
    138          0           0        1.233377    4.575150   -1.308479
    139          0           0        1.183427    4.578423   -1.308479
    140          0           0        1.133477    4.575150   -1.308479
    141          0           0        1.084381    4.565384   -1.308479
    142          0           0        1.036980    4.549293   -1.308479
    143          0           0        0.992085    4.527154   -1.308479
    144          0           0        0.950464    4.499343   -1.308479
    145          0           0        0.912829    4.466338   -1.308479
    146          0           0        0.879824    4.428703   -1.308479
    147          0           0        0.852013    4.387082   -1.308479
    148          0           0        0.829874    4.342187   -1.308479
    149          0           0        0.813783    4.294786   -1.308479
    150          0           0        0.804017    4.245690   -1.308479
    151          0           0        0.800744    4.195740   -1.308479
    152          0           0        0.804017    4.145790   -1.308479
    153          0           0        0.813783    4.096694   -1.308479
    154          0           0        0.829874    4.049293   -1.308479
    155          0           0        0.852013    4.004398   -1.308479
    156          0           0        0.879824    3.962777   -1.308479
    157          0           0        0.912829    3.925142   -1.308479
    158          0           0        0.950464    3.892137   -1.308479
    159          0           0        0.992085    3.864326   -1.308479
    160          0           0        1.036980    3.842187   -1.308479
    161          0           0        1.084381    3.826096   -1.308479
    162          0           0        1.133477    3.816330   -1.308479
    163          0           0        1.183427    3.813057   -1.308479
    164          0           0        1.233377    3.816330   -1.308479
    165          0           0        1.282473    3.826096   -1.308479
    166          0           0        1.329874    3.842187   -1.308479
    167          0           0        1.374769    3.864326   -1.308479
    168          0           0        1.416390    3.892137   -1.308479
    169          0           0        1.454025    3.925142   -1.308479
    170          0           0        1.487030    3.962777   -1.308479
    171          0           0        1.514841    4.004398   -1.308479
    172          0           0        1.536980    4.049293   -1.308479
    173          0           0        1.553071    4.096694   -1.308479
    174          0           0        1.562837    4.145790   -1.308479
    175          0           0        1.442246    4.195740   -1.350525
    176          0           0        1.440032    4.229523   -1.350525
    177          0           0        1.433427    4.262727   -1.350525
    178          0           0        1.422545    4.294786   -1.350525
    179          0           0        1.407571    4.325150   -1.350525
    180          0           0        1.388762    4.353299   -1.350525
    181          0           0        1.366440    4.378753   -1.350525
    182          0           0        1.340986    4.401075   -1.350525
    183          0           0        1.312837    4.419884   -1.350525
    184          0           0        1.282473    4.434858   -1.350525
    185          0           0        1.250414    4.445740   -1.350525
    186          0           0        1.217210    4.452345   -1.350525
    187          0           0        1.183427    4.454559   -1.350525
    188          0           0        1.149644    4.452345   -1.350525
    189          0           0        1.116440    4.445740   -1.350525
    190          0           0        1.084381    4.434858   -1.350525
    191          0           0        1.054017    4.419884   -1.350525
    192          0           0        1.025868    4.401075   -1.350525
    193          0           0        1.000414    4.378753   -1.350525
    194          0           0        0.978092    4.353299   -1.350525
    195          0           0        0.959283    4.325150   -1.350525
    196          0           0        0.944309    4.294786   -1.350525
    197          0           0        0.933427    4.262727   -1.350525
    198          0           0        0.926822    4.229523   -1.350525
    199          0           0        0.924608    4.195740   -1.350525
    200          0           0        0.926822    4.161957   -1.350525
    201          0           0        0.933427    4.128753   -1.350525
    202          0           0        0.944309    4.096694   -1.350525
    203          0           0        0.959283    4.066330   -1.350525
    204          0           0        0.978092    4.038181   -1.350525
    205          0           0        1.000414    4.012727   -1.350525
    206          0           0        1.025868    3.990405   -1.350525
    207          0           0        1.054017    3.971596   -1.350525
    208          0           0        1.084381    3.956622   -1.350525
    209          0           0        1.116440    3.945740   -1.350525
    210          0           0        1.149644    3.939135   -1.350525
    211          0           0        1.183427    3.936921   -1.350525
    212          0           0        1.217210    3.939135   -1.350525
    213          0           0        1.250414    3.945740   -1.350525
    214          0           0        1.282473    3.956622   -1.350525
    215          0           0        1.312837    3.971596   -1.350525
    216          0           0        1.340986    3.990405   -1.350525
    217          0           0        1.366440    4.012727   -1.350525
    218          0           0        1.388762    4.038181   -1.350525
    219          0           0        1.407571    4.066330   -1.350525
    220          0           0        1.422545    4.096694   -1.350525
    221          0           0        1.433427    4.128753   -1.350525
    222          0           0        1.440032    4.161957   -1.350525
    223          0           0        1.313953    4.195740   -1.376044
    224          0           0        1.312837    4.212777   -1.376044
    225          0           0        1.309506    4.229523   -1.376044
    226          0           0        1.304017    4.245690   -1.376044
    227          0           0        1.296466    4.261003   -1.376044
    228          0           0        1.286980    4.275199   -1.376044
    229          0           0        1.275723    4.288036   -1.376044
    230          0           0        1.262886    4.299293   -1.376044
    231          0           0        1.248690    4.308779   -1.376044
    232          0           0        1.233377    4.316330   -1.376044
    233          0           0        1.217210    4.321819   -1.376044
    234          0           0        1.200464    4.325150   -1.376044
    235          0           0        1.183427    4.326266   -1.376044
    236          0           0        1.166390    4.325150   -1.376044
 ---------------------------------------------------------------------
 Rotational constants (GHZ):      0.4454681      0.2811480      0.1854303
 Leave Link  202 at Tue Sep 15 11:01:44 2020, MaxMem=   131072000 cpu:         0.0
 (Enter /share/programs/GAUSSIAN/64/g09/l301.exe)
 Standard basis: 6-311+G(d,p) (5D, 7F)
 Warning:  center  37 has no basis functions!
 Warning:  center  38 has no basis functions!
 Warning:  center  39 has no basis functions!
 Warning:  center  40 has no basis functions!
 Warning:  center  41 has no basis functions!
 Warning:  center  42 has no basis functions!
 Warning:  center  43 has no basis functions!
 Warning:  center  44 has no basis functions!
 Warning:  center  45 has no basis functions!
 Warning:  center  46 has no basis functions!
 Warning:  center  47 has no basis functions!
 Warning:  center  48 has no basis functions!
 Warning:  center  49 has no basis functions!
 Warning:  center  50 has no basis functions!
 Warning:  center  51 has no basis functions!
 Warning:  center  52 has no basis functions!
 Warning:  center  53 has no basis functions!
 Warning:  center  54 has no basis functions!
 Warning:  center  55 has no basis functions!
 Warning:  center  56 has no basis functions!
 Warning:  center  57 has no basis functions!
 Warning:  center  58 has no basis functions!
 Warning:  center  59 has no basis functions!
 Warning:  center  60 has no basis functions!
 Warning:  center  61 has no basis functions!
 Warning:  center  62 has no basis functions!
 Warning:  center  63 has no basis functions!
 Warning:  center  64 has no basis functions!
 Warning:  center  65 has no basis functions!
 Warning:  center  66 has no basis functions!
 Warning:  center  67 has no basis functions!
 Warning:  center  68 has no basis functions!
 Warning:  center  69 has no basis functions!
 Warning:  center  70 has no basis functions!
 Warning:  center  71 has no basis functions!
 Warning:  center  72 has no basis functions!
 Warning:  center  73 has no basis functions!
 Warning:  center  74 has no basis functions!
 Warning:  center  75 has no basis functions!
 Warning:  center  76 has no basis functions!
 Warning:  center  77 has no basis functions!
 Warning:  center  78 has no basis functions!
 Warning:  center  79 has no basis functions!
 Warning:  center  80 has no basis functions!
 Warning:  center  81 has no basis functions!
 Warning:  center  82 has no basis functions!
 Warning:  center  83 has no basis functions!
 Warning:  center  84 has no basis functions!
 Warning:  center  85 has no basis functions!
 Warning:  center  86 has no basis functions!
 Warning:  center  87 has no basis functions!
 Warning:  center  88 has no basis functions!
 Warning:  center  89 has no basis functions!
 Warning:  center  90 has no basis functions!
 Warning:  center  91 has no basis functions!
 Warning:  center  92 has no basis functions!
 Warning:  center  93 has no basis functions!
 Warning:  center  94 has no basis functions!
 Warning:  center  95 has no basis functions!
 Warning:  center  96 has no basis functions!
 Warning:  center  97 has no basis functions!
 Warning:  center  98 has no basis functions!
 Warning:  center  99 has no basis functions!
 Warning:  center 100 has no basis functions!
 Warning:  center 101 has no basis functions!
 Warning:  center 102 has no basis functions!
 Warning:  center 103 has no basis functions!
 Warning:  center 104 has no basis functions!
 Warning:  center 105 has no basis functions!
 Warning:  center 106 has no basis functions!
 Warning:  center 107 has no basis functions!
 Warning:  center 108 has no basis functions!
 Warning:  center 109 has no basis functions!
 Warning:  center 110 has no basis functions!
 Warning:  center 111 has no basis functions!
 Warning:  center 112 has no basis functions!
 Warning:  center 113 has no basis functions!
 Warning:  center 114 has no basis functions!
 Warning:  center 115 has no basis functions!
 Warning:  center 116 has no basis functions!
 Warning:  center 117 has no basis functions!
 Warning:  center 118 has no basis functions!
 Warning:  center 119 has no basis functions!
 Warning:  center 120 has no basis functions!
 Warning:  center 121 has no basis functions!
 Warning:  center 122 has no basis functions!
 Warning:  center 123 has no basis functions!
 Warning:  center 124 has no basis functions!
 Warning:  center 125 has no basis functions!
 Warning:  center 126 has no basis functions!
 Warning:  center 127 has no basis functions!
 Warning:  center 128 has no basis functions!
 Warning:  center 129 has no basis functions!
 Warning:  center 130 has no basis functions!
 Warning:  center 131 has no basis functions!
 Warning:  center 132 has no basis functions!
 Warning:  center 133 has no basis functions!
 Warning:  center 134 has no basis functions!
 Warning:  center 135 has no basis functions!
 Warning:  center 136 has no basis functions!
 Warning:  center 137 has no basis functions!
 Warning:  center 138 has no basis functions!
 Warning:  center 139 has no basis functions!
 Warning:  center 140 has no basis functions!
 Warning:  center 141 has no basis functions!
 Warning:  center 142 has no basis functions!
 Warning:  center 143 has no basis functions!
 Warning:  center 144 has no basis functions!
 Warning:  center 145 has no basis functions!
 Warning:  center 146 has no basis functions!
 Warning:  center 147 has no basis functions!
 Warning:  center 148 has no basis functions!
 Warning:  center 149 has no basis functions!
 Warning:  center 150 has no basis functions!
 Warning:  center 151 has no basis functions!
 Warning:  center 152 has no basis functions!
 Warning:  center 153 has no basis functions!
 Warning:  center 154 has no basis functions!
 Warning:  center 155 has no basis functions!
 Warning:  center 156 has no basis functions!
 Warning:  center 157 has no basis functions!
 Warning:  center 158 has no basis functions!
 Warning:  center 159 has no basis functions!
 Warning:  center 160 has no basis functions!
 Warning:  center 161 has no basis functions!
 Warning:  center 162 has no basis functions!
 Warning:  center 163 has no basis functions!
 Warning:  center 164 has no basis functions!
 Warning:  center 165 has no basis functions!
 Warning:  center 166 has no basis functions!
 Warning:  center 167 has no basis functions!
 Warning:  center 168 has no basis functions!
 Warning:  center 169 has no basis functions!
 Warning:  center 170 has no basis functions!
 Warning:  center 171 has no basis functions!
 Warning:  center 172 has no basis functions!
 Warning:  center 173 has no basis functions!
 Warning:  center 174 has no basis functions!
 Warning:  center 175 has no basis functions!
 Warning:  center 176 has no basis functions!
 Warning:  center 177 has no basis functions!
 Warning:  center 178 has no basis functions!
 Warning:  center 179 has no basis functions!
 Warning:  center 180 has no basis functions!
 Warning:  center 181 has no basis functions!
 Warning:  center 182 has no basis functions!
 Warning:  center 183 has no basis functions!
 Warning:  center 184 has no basis functions!
 Warning:  center 185 has no basis functions!
 Warning:  center 186 has no basis functions!
 Warning:  center 187 has no basis functions!
 Warning:  center 188 has no basis functions!
 Warning:  center 189 has no basis functions!
 Warning:  center 190 has no basis functions!
 Warning:  center 191 has no basis functions!
 Warning:  center 192 has no basis functions!
 Warning:  center 193 has no basis functions!
 Warning:  center 194 has no basis functions!
 Warning:  center 195 has no basis functions!
 Warning:  center 196 has no basis functions!
 Warning:  center 197 has no basis functions!
 Warning:  center 198 has no basis functions!
 Warning:  center 199 has no basis functions!
 Warning:  center 200 has no basis functions!
 Warning:  center 201 has no basis functions!
 Warning:  center 202 has no basis functions!
 Warning:  center 203 has no basis functions!
 Warning:  center 204 has no basis functions!
 Warning:  center 205 has no basis functions!
 Warning:  center 206 has no basis functions!
 Warning:  center 207 has no basis functions!
 Warning:  center 208 has no basis functions!
 Warning:  center 209 has no basis functions!
 Warning:  center 210 has no basis functions!
 Warning:  center 211 has no basis functions!
 Warning:  center 212 has no basis functions!
 Warning:  center 213 has no basis functions!
 Warning:  center 214 has no basis functions!
 Warning:  center 215 has no basis functions!
 Warning:  center 216 has no basis functions!
 Warning:  center 217 has no basis functions!
 Warning:  center 218 has no basis functions!
 Warning:  center 219 has no basis functions!
 Warning:  center 220 has no basis functions!
 Warning:  center 221 has no basis functions!
 Warning:  center 222 has no basis functions!
 Warning:  center 223 has no basis functions!
 Warning:  center 224 has no basis functions!
 Warning:  center 225 has no basis functions!
 Warning:  center 226 has no basis functions!
 Warning:  center 227 has no basis functions!
 Warning:  center 228 has no basis functions!
 Warning:  center 229 has no basis functions!
 Warning:  center 230 has no basis functions!
 Warning:  center 231 has no basis functions!
 Warning:  center 232 has no basis functions!
 Warning:  center 233 has no basis functions!
 Warning:  center 234 has no basis functions!
 Warning:  center 235 has no basis functions!
 Warning:  center 236 has no basis functions!
 Ernie: Thresh=  0.10000D-02 Tol=  0.10000D-05 Strict=F.
   568 basis functions,   904 primitive gaussians,   590 cartesian basis functions
    73 alpha electrons       73 beta electrons
       nuclear repulsion energy      1599.9156270972 Hartrees.
 IExCor=  402 DFT=T Ex+Corr=B3LYP ExCW=0 ScaHFX=  0.200000
 ScaDFX=  0.800000  0.720000  1.000000  0.810000 ScalE2=  1.000000  1.000000
 IRadAn=      0 IRanWt=     -1 IRanGd=            0 ICorTp=0 IEmpDi=  4
 NAtoms=  236 NActive=  236 NUniq=  236 SFac= 1.00D+00 NAtFMM=   60 NAOKFM=T Big=T
 Integral buffers will be    131072 words long.
 Raffenetti 2 integral format.
 Two-electron integral symmetry is turned off.
 Leave Link  301 at Tue Sep 15 11:01:44 2020, MaxMem=   131072000 cpu:         0.6
 (Enter /share/programs/GAUSSIAN/64/g09/l302.exe)
 NPDir=0 NMtPBC=     1 NCelOv=     1 NCel=       1 NClECP=     1 NCelD=      1
         NCelK=      1 NCelE2=     1 NClLst=     1 CellRange=     0.0.
 One-electron integrals computed using PRISM.
 NBasis=   568 RedAO= T EigKep=  1.01D-06  NBF=   568
 NBsUse=   557 1.00D-06 EigRej=  9.19D-07 NBFU=   557
 Precomputing XC quadrature grid using
 IXCGrd= 4 IRadAn=           0 IRanWt=          -1 IRanGd=           0 AccXCQ= 0.00D+00.
 Generated NRdTot=       0 NPtTot=           0 NUsed=           0 NTot=          32
 NSgBfM=   587   588   588   589   589 MxSgAt=   236 MxSgA2=    36.
 Leave Link  302 at Tue Sep 15 11:01:46 2020, MaxMem=   131072000 cpu:        19.2
 (Enter /share/programs/GAUSSIAN/64/g09/l308.exe)
 Leave Link  308 at Tue Sep 15 11:01:46 2020, MaxMem=   131072000 cpu:         1.2
 (Enter /share/programs/GAUSSIAN/64/g09/l303.exe)
 DipDrv:  MaxL=1.
 Leave Link  303 at Tue Sep 15 11:01:46 2020, MaxMem=   131072000 cpu:         0.9
 (Enter /share/programs/GAUSSIAN/64/g09/l401.exe)
 Initial guess from the checkpoint file:  "/scratch/aartigas.38843/Gau-3249945.chk"
 Skipping rotation of guess because NAtoms(RWF)=  236 differs from NAtoms(Chk)=   36.
 Guess basis will be translated and rotated to current coordinates.
 JPrj=2 DoOrth=T DoCkMO=T.
 Leave Link  401 at Tue Sep 15 11:01:51 2020, MaxMem=   131072000 cpu:        22.2
 (Enter /share/programs/GAUSSIAN/64/g09/l502.exe)
 Closed shell SCF:
 Using DIIS extrapolation, IDIIS=  1040.
 Two-electron integral symmetry not used.
 IVT=     1071582 IEndB=     1071582 NGot=   131072000 MDV=   130365749
 LenX=   130365749 LenY=   130017059
 Requested convergence on RMS density matrix=1.00D-08 within 128 cycles.
 Requested convergence on MAX density matrix=1.00D-06.
 Requested convergence on             energy=1.00D-06.
 No special actions if energy rises.
 Fock matrices will be formed incrementally for  20 cycles.

 Cycle   1  Pass 1  IDiag  1:
 FoFJK:  IHMeth= 1 ICntrl=       0 DoSepK=F KAlg= 0 I1Cent=   0 FoldK=F
 IRaf= 940000000 NMat=   1 IRICut=       1 DoRegI=T DoRafI=F ISym2E= 0.
 FoFCou: FMM=T IPFlag=           0 FMFlag=      100000 FMFlg1=        2001
         NFxFlg=           0 DoJE=F BraDBF=F KetDBF=F FulRan=T
         wScrn=  0.000000 ICntrl=       0 IOpCl=  0 I1Cent=           0 NGrid=           0
         NMat0=    1 NMatS0=      1 NMatT0=    0 NMatD0=    1 NMtDS0=    0 NMtDT0=    0
 Symmetry not used in FoFCou.
 FMM levels:  10  Number of levels for PrismC:   9
 E= -847.003738666970    
 DIIS: error= 5.05D-08 at cycle   1 NSaved=   1.
 NSaved= 1 IEnMin= 1 EnMin= -847.003738666970     IErMin= 1 ErrMin= 5.05D-08
 ErrMax= 5.05D-08  0.00D+00 EMaxC= 1.00D-01 BMatC= 3.55D-12 BMatP= 3.55D-12
 IDIUse=1 WtCom= 1.00D+00 WtEn= 0.00D+00
 Coeff-Com:  0.100D+01
 Coeff:      0.100D+01
 Gap=     0.151 Goal=   None    Shift=    0.000
 RMSDP=2.88D-07 MaxDP=1.34D-05              OVMax= 3.94D-07

 Cycle   2  Pass 1  IDiag  1:
 RMSU=  2.85D-07    CP:  1.00D+00
 E= -847.003738666801     Delta-E=        0.000000000170 Rises=F Damp=F
 DIIS: error= 1.42D-08 at cycle   2 NSaved=   2.
 NSaved= 2 IEnMin= 1 EnMin= -847.003738666970     IErMin= 2 ErrMin= 1.42D-08
 ErrMax= 1.42D-08  0.00D+00 EMaxC= 1.00D-01 BMatC= 2.13D-13 BMatP= 3.55D-12
 IDIUse=1 WtCom= 1.00D+00 WtEn= 0.00D+00
 Coeff-Com:  0.627D-01 0.937D+00
 Coeff:      0.627D-01 0.937D+00
 Gap=     0.151 Goal=   None    Shift=    0.000
 RMSDP=1.56D-08 MaxDP=7.81D-07 DE= 1.70D-10 OVMax= 3.02D-07

 Cycle   3  Pass 1  IDiag  1:
 RMSU=  1.32D-08    CP:  1.00D+00  1.02D+00
 E= -847.003738666892     Delta-E=       -0.000000000092 Rises=F Damp=F
 DIIS: error= 2.51D-08 at cycle   3 NSaved=   3.
 NSaved= 3 IEnMin= 1 EnMin= -847.003738666970     IErMin= 2 ErrMin= 1.42D-08
 ErrMax= 2.51D-08  0.00D+00 EMaxC= 1.00D-01 BMatC= 5.05D-13 BMatP= 2.13D-13
 IDIUse=1 WtCom= 1.00D+00 WtEn= 0.00D+00
 Coeff-Com: -0.107D-01 0.616D+00 0.395D+00
 Coeff:     -0.107D-01 0.616D+00 0.395D+00
 Gap=     0.151 Goal=   None    Shift=    0.000
 RMSDP=1.03D-08 MaxDP=4.20D-07 DE=-9.19D-11 OVMax= 2.17D-07

 Cycle   4  Pass 1  IDiag  1:
 RMSU=  5.85D-09    CP:  1.00D+00  1.02D+00  3.87D-01
 E= -847.003738666891     Delta-E=        0.000000000002 Rises=F Damp=F
 DIIS: error= 8.06D-09 at cycle   4 NSaved=   4.
 NSaved= 4 IEnMin= 1 EnMin= -847.003738666970     IErMin= 4 ErrMin= 8.06D-09
 ErrMax= 8.06D-09  0.00D+00 EMaxC= 1.00D-01 BMatC= 2.06D-14 BMatP= 2.13D-13
 IDIUse=1 WtCom= 1.00D+00 WtEn= 0.00D+00
 Coeff-Com: -0.876D-02 0.309D+00 0.241D+00 0.459D+00
 Coeff:     -0.876D-02 0.309D+00 0.241D+00 0.459D+00
 Gap=     0.151 Goal=   None    Shift=    0.000
 RMSDP=4.02D-09 MaxDP=1.49D-07 DE= 1.82D-12 OVMax= 6.88D-08

 SCF Done:  E(RB3LYP) =  -847.003738667     A.U. after    4 cycles
            NFock=  4  Conv=0.40D-08     -V/T= 2.0049
 KE= 8.428349970566D+02 PE=-5.164192584015D+03 EE= 1.874438221195D+03
 Leave Link  502 at Tue Sep 15 11:03:47 2020, MaxMem=   131072000 cpu:       911.4
 (Enter /share/programs/GAUSSIAN/64/g09/l801.exe)
 DoSCS=F DFT=T ScalE2(SS,OS)=  1.000000  1.000000
 Range of M.O.s used for correlation:     1   557
 NBasis=   568 NAE=    73 NBE=    73 NFC=     0 NFV=     0
 NROrb=    557 NOA=    73 NOB=    73 NVA=   484 NVB=   484

 **** Warning!!: The largest alpha MO coefficient is  0.14271947D+03

 Leave Link  801 at Tue Sep 15 11:03:47 2020, MaxMem=   131072000 cpu:         0.2
 (Enter /share/programs/GAUSSIAN/64/g09/l1002.exe)
 Minotr:  Closed shell wavefunction.
          Direct CPHF calculation.
          Differentiating once with respect to magnetic field using GIAOs.
          Electric field/nuclear overlap derivatives assumed to be zero.
          Requested convergence is 1.0D-08 RMS, and 1.0D-07 maximum.
          Secondary convergence is 1.0D-12 RMS, and 1.0D-12 maximum.
          NewPWx=T KeepS1=F KeepF1=F KeepIn=T MapXYZ=F SortEE=F KeepMc=T.
          MDV=     131069551 using IRadAn=       2.
 Generate precomputed XC quadrature information.
          Solving linear equations simultaneously, MaxMat=      72.
 FoFCou: FMM=F IPFlag=           0 FMFlag=      100000 FMFlg1=        2001
         NFxFlg=           0 DoJE=F BraDBF=F KetDBF=T FulRan=T
         wScrn=  0.000000 ICntrl=    6100 IOpCl=  0 I1Cent=           7 NGrid=         236
         NMat0=    1 NMatS0=      1 NMatT0=    0 NMatD0=    1 NMtDS0=    0 NMtDT0=    0
 Symmetry not used in FoFCou.
 FoFJK:  IHMeth= 1 ICntrl=    6127 DoSepK=F KAlg= 0 I1Cent=   0 FoldK=F
 IRaf=         1 NMat=   1 IRICut=       1 DoRegI=T DoRafI=F ISym2E= 0.
          There are     3 degrees of freedom in the 1st order CPHF.  IDoFFX=0 NUNeed=     3.
      3 vectors produced by pass  0 Test12= 1.18D-12 3.33D-08 XBig12= 1.96D+03 8.77D+00.
 AX will form     3 AO Fock derivatives at one time.
      3 vectors produced by pass  1 Test12= 1.18D-12 3.33D-08 XBig12= 3.18D+00 7.58D-01.
      3 vectors produced by pass  2 Test12= 1.18D-12 3.33D-08 XBig12= 1.86D-02 5.85D-02.
      3 vectors produced by pass  3 Test12= 1.18D-12 3.33D-08 XBig12= 4.29D-05 1.35D-03.
      3 vectors produced by pass  4 Test12= 1.18D-12 3.33D-08 XBig12= 9.75D-08 7.22D-05.
      3 vectors produced by pass  5 Test12= 1.18D-12 3.33D-08 XBig12= 3.97D-10 5.92D-06.
      3 vectors produced by pass  6 Test12= 1.18D-12 3.33D-08 XBig12= 1.51D-12 4.40D-07.
 InvSVY:  IOpt=1 It=  1 EMax= 2.13D-14
 Solved reduced A of dimension    21 with     3 vectors.
 Calculating GIAO nuclear magnetic shielding tensors.
 SCF GIAO Magnetic shielding tensor (ppm):
      1  C    Isotropic =    49.6861   Anisotropy =   149.7970
   XX=    46.3088   YX=   -25.0950   ZX=    31.4786
   XY=   -31.1109   YY=   -39.0339   ZY=    13.2621
   XZ=    24.9178   YZ=     8.9888   ZZ=   141.7833
   Eigenvalues:   -49.3507    48.8581   149.5507
      2  C    Isotropic =    49.6861   Anisotropy =   149.7971
   XX=    46.3088   YX=    25.0953   ZX=    31.4786
   XY=    31.1111   YY=   -39.0339   ZY=   -13.2621
   XZ=    24.9177   YZ=    -8.9889   ZZ=   141.7834
   Eigenvalues:   -49.3508    48.8583   149.5509
      3  C    Isotropic =    44.4899   Anisotropy =   204.7372
   XX=   -22.2199   YX=    10.8075   ZX=    51.2710
   XY=     4.9259   YY=   -14.7126   ZY=    14.7921
   XZ=    32.3655   YZ=    21.2392   ZZ=   170.4022
   Eigenvalues:   -31.9593   -15.5523   180.9814
      4  C    Isotropic =    44.4899   Anisotropy =   204.7373
   XX=   -22.2198   YX=   -10.8075   ZX=    51.2710
   XY=    -4.9256   YY=   -14.7126   ZY=   -14.7922
   XZ=    32.3656   YZ=   -21.2393   ZZ=   170.4023
   Eigenvalues:   -31.9592   -15.5524   180.9815
      5  C    Isotropic =    48.5420   Anisotropy =   189.5490
   XX=   -14.6790   YX=     4.7342   ZX=     8.4333
   XY=    20.3759   YY=    -5.5375   ZY=    31.5121
   XZ=    65.1218   YZ=     0.8640   ZZ=   165.8426
   Eigenvalues:   -26.3226    -2.9593   174.9080
      6  C    Isotropic =    48.5421   Anisotropy =   189.5489
   XX=   -14.6789   YX=    -4.7340   ZX=     8.4335
   XY=   -20.3758   YY=    -5.5374   ZY=   -31.5121
   XZ=    65.1218   YZ=    -0.8638   ZZ=   165.8426
   Eigenvalues:   -26.3224    -2.9594   174.9080
      7  C    Isotropic =    50.1907   Anisotropy =   149.2089
   XX=    19.7303   YX=   -44.2755   ZX=    41.2886
   XY=   -38.0437   YY=    -2.7069   ZY=    36.9011
   XZ=    36.5866   YZ=    37.5458   ZZ=   133.5487
   Eigenvalues:   -49.6656    50.5744   149.6633
      8  C    Isotropic =    48.9362   Anisotropy =   152.4339
   XX=   -31.5093   YX=   -11.4921   ZX=    54.7730
   XY=   -19.0468   YY=    46.5898   ZY=    27.5522
   XZ=    42.2451   YZ=    29.8391   ZZ=   131.7282
   Eigenvalues:   -50.1461    46.3960   150.5589
      9  C    Isotropic =    44.4204   Anisotropy =   209.3981
   XX=   -10.1987   YX=    16.7536   ZX=    44.4888
   XY=     8.9342   YY=    -7.7270   ZY=    61.4651
   XZ=    43.3269   YZ=    64.9792   ZZ=   151.1869
   Eigenvalues:   -30.3689   -20.3891   184.0192
     10  C    Isotropic =    45.3894   Anisotropy =   198.3236
   XX=    -5.9706   YX=    23.3819   ZX=    35.6519
   XY=    38.1954   YY=     1.7271   ZY=    73.1370
   XZ=    54.0013   YZ=    45.7045   ZZ=   140.4116
   Eigenvalues:   -33.5315    -7.9055   177.6051
     11  H    Isotropic =    23.8179   Anisotropy =     7.5674
   XX=    27.2191   YX=    -1.9090   ZX=    -2.2602
   XY=    -1.7961   YY=    24.8722   ZY=    -0.1966
   XZ=    -3.3763   YZ=    -0.1950   ZZ=    19.3625
   Eigenvalues:    18.3647    24.2263    28.8628
     12  H    Isotropic =    23.8179   Anisotropy =     7.5674
   XX=    27.2191   YX=     1.9090   ZX=    -2.2602
   XY=     1.7961   YY=    24.8722   ZY=     0.1966
   XZ=    -3.3763   YZ=     0.1950   ZZ=    19.3625
   Eigenvalues:    18.3647    24.2263    28.8628
     13  H    Isotropic =    23.8548   Anisotropy =     7.5124
[...]
   129  Bq   0.000000
   130  Bq   0.000000
   131  Bq   0.000000
   132  Bq   0.000000
   133  Bq   0.000000
   134  Bq   0.000000
   135  Bq   0.000000
   136  Bq   0.000000
   137  Bq   0.000000
   138  Bq   0.000000
   139  Bq   0.000000
   140  Bq   0.000000
   141  Bq   0.000000
   142  Bq   0.000000
   143  Bq   0.000000
   144  Bq   0.000000
   145  Bq   0.000000
   146  Bq   0.000000
   147  Bq   0.000000
   148  Bq   0.000000
   149  Bq   0.000000
   150  Bq   0.000000
   151  Bq   0.000000
   152  Bq   0.000000
   153  Bq   0.000000
   154  Bq   0.000000
   155  Bq   0.000000
   156  Bq   0.000000
   157  Bq   0.000000
   158  Bq   0.000000
   159  Bq   0.000000
   160  Bq   0.000000
   161  Bq   0.000000
   162  Bq   0.000000
   163  Bq   0.000000
   164  Bq   0.000000
   165  Bq   0.000000
   166  Bq   0.000000
   167  Bq   0.000000
   168  Bq   0.000000
   169  Bq   0.000000
   170  Bq   0.000000
   171  Bq   0.000000
   172  Bq   0.000000
   173  Bq   0.000000
   174  Bq   0.000000
   175  Bq   0.000000
   176  Bq   0.000000
   177  Bq   0.000000
   178  Bq   0.000000
   179  Bq   0.000000
   180  Bq   0.000000
   181  Bq   0.000000
   182  Bq   0.000000
   183  Bq   0.000000
   184  Bq   0.000000
   185  Bq   0.000000
   186  Bq   0.000000
   187  Bq   0.000000
   188  Bq   0.000000
   189  Bq   0.000000
   190  Bq   0.000000
   191  Bq   0.000000
   192  Bq   0.000000
   193  Bq   0.000000
   194  Bq   0.000000
   195  Bq   0.000000
   196  Bq   0.000000
   197  Bq   0.000000
   198  Bq   0.000000
   199  Bq   0.000000
   200  Bq   0.000000
   201  Bq   0.000000
   202  Bq   0.000000
   203  Bq   0.000000
   204  Bq   0.000000
   205  Bq   0.000000
   206  Bq   0.000000
   207  Bq   0.000000
   208  Bq   0.000000
   209  Bq   0.000000
   210  Bq   0.000000
   211  Bq   0.000000
   212  Bq   0.000000
   213  Bq   0.000000
   214  Bq   0.000000
   215  Bq   0.000000
   216  Bq   0.000000
   217  Bq   0.000000
   218  Bq   0.000000
   219  Bq   0.000000
   220  Bq   0.000000
   221  Bq   0.000000
   222  Bq   0.000000
   223  Bq   0.000000
   224  Bq   0.000000
   225  Bq   0.000000
   226  Bq   0.000000
   227  Bq   0.000000
   228  Bq   0.000000
   229  Bq   0.000000
   230  Bq   0.000000
   231  Bq   0.000000
   232  Bq   0.000000
   233  Bq   0.000000
   234  Bq   0.000000
   235  Bq   0.000000
   236  Bq   0.000000
 Sum of Mulliken charges =   0.00000
 Mulliken charges with hydrogens summed into heavy atoms:
               1
     1  C   -0.384058
     2  C   -0.262866
     3  C    0.737923
     4  C    0.737922
     5  C   -0.039994
     6  C   -0.040001
     7  C    0.075155
     8  C   -0.330147
     9  C    0.780501
    10  C   -0.200782
    15  C    0.249272
    16  C   -0.533462
    17  C   -0.189405
    18  C   -0.286191
    23  C   -0.330145
    24  C    0.075154
    25  C    0.780496
    26  C   -0.200782
    27  C    0.249273
    28  C   -0.286192
    29  C   -0.189403
    30  C   -0.533462
    37  Bq   0.000000
    38  Bq   0.000000
    39  Bq   0.000000
    40  Bq   0.000000
    41  Bq   0.000000
    42  Bq   0.000000
    43  Bq   0.000000
    44  Bq   0.000000
    45  Bq   0.000000
    46  Bq   0.000000
    47  Bq   0.000000
    48  Bq   0.000000
    49  Bq   0.000000
    50  Bq   0.000000
    51  Bq   0.000000
    52  Bq   0.000000
    53  Bq   0.000000
    54  Bq   0.000000
    55  Bq   0.000000
    56  Bq   0.000000
    57  Bq   0.000000
    58  Bq   0.000000
    59  Bq   0.000000
    60  Bq   0.000000
    61  Bq   0.000000
    62  Bq   0.000000
    63  Bq   0.000000
    64  Bq   0.000000
    65  Bq   0.000000
    66  Bq   0.000000
    67  Bq   0.000000
    68  Bq   0.000000
    69  Bq   0.000000
    70  Bq   0.000000
    71  Bq   0.000000
    72  Bq   0.000000
    73  Bq   0.000000
    74  Bq   0.000000
    75  Bq   0.000000
    76  Bq   0.000000
    77  Bq   0.000000
    78  Bq   0.000000
    79  Bq   0.000000
    80  Bq   0.000000
    81  Bq   0.000000
    82  Bq   0.000000
    83  Bq   0.000000
    84  Bq   0.000000
    85  Bq   0.000000
    86  Bq   0.000000
    87  Bq   0.000000
    88  Bq   0.000000
    89  Bq   0.000000
    90  Bq   0.000000
    91  Bq   0.000000
    92  Bq   0.000000
    93  Bq   0.000000
    94  Bq   0.000000
    95  Bq   0.000000
    96  Bq   0.000000
    97  Bq   0.000000
    98  Bq   0.000000
    99  Bq   0.000000
   100  Bq   0.000000
   101  Bq   0.000000
   102  Bq   0.000000
   103  Bq   0.000000
   104  Bq   0.000000
   105  Bq   0.000000
   106  Bq   0.000000
   107  Bq   0.000000
   108  Bq   0.000000
   109  Bq   0.000000
   110  Bq   0.000000
   111  Bq   0.000000
   112  Bq   0.000000
   113  Bq   0.000000
   114  Bq   0.000000
   115  Bq   0.000000
   116  Bq   0.000000
   117  Bq   0.000000
   118  Bq   0.000000
   119  Bq   0.000000
   120  Bq   0.000000
   121  Bq   0.000000
   122  Bq   0.000000
   123  Bq   0.000000
   124  Bq   0.000000
   125  Bq   0.000000
   126  Bq   0.000000
   127  Bq   0.000000
   128  Bq   0.000000
   129  Bq   0.000000
   130  Bq   0.000000
   131  Bq   0.000000
   132  Bq   0.000000
   133  Bq   0.000000
   134  Bq   0.000000
   135  Bq   0.000000
   136  Bq   0.000000
   137  Bq   0.000000
   138  Bq   0.000000
   139  Bq   0.000000
   140  Bq   0.000000
   141  Bq   0.000000
   142  Bq   0.000000
   143  Bq   0.000000
   144  Bq   0.000000
   145  Bq   0.000000
   146  Bq   0.000000
   147  Bq   0.000000
   148  Bq   0.000000
   149  Bq   0.000000
   150  Bq   0.000000
   151  Bq   0.000000
   152  Bq   0.000000
   153  Bq   0.000000
   154  Bq   0.000000
   155  Bq   0.000000
   156  Bq   0.121192
   157  Bq   0.000000
   158  Bq   0.000000
   159  Bq   0.000000
   160  Bq   0.000000
   161  Bq   0.000000
   162  Bq   0.000000
   163  Bq   0.000000
   164  Bq   0.000000
   165  Bq   0.000000
   166  Bq   0.000000
   167  Bq   0.000000
   168  Bq   0.000000
   169  Bq   0.000000
   170  Bq   0.000000
   171  Bq   0.000000
   172  Bq   0.000000
   173  Bq   0.000000
   174  Bq   0.000000
   175  Bq   0.000000
   176  Bq   0.000000
   177  Bq   0.000000
   178  Bq   0.000000
   179  Bq   0.000000
   180  Bq   0.000000
   181  Bq   0.000000
   182  Bq   0.000000
   183  Bq   0.000000
   184  Bq   0.000000
   185  Bq   0.000000
   186  Bq   0.000000
   187  Bq   0.000000
   188  Bq   0.000000
   189  Bq   0.000000
   190  Bq   0.000000
   191  Bq   0.000000
   192  Bq   0.000000
   193  Bq   0.000000
   194  Bq   0.000000
   195  Bq   0.000000
   196  Bq   0.000000
   197  Bq   0.000000
   198  Bq   0.000000
   199  Bq   0.000000
   200  Bq   0.000000
   201  Bq   0.000000
   202  Bq   0.000000
   203  Bq   0.000000
   204  Bq   0.000000
   205  Bq   0.000000
   206  Bq   0.000000
   207  Bq   0.000000
   208  Bq   0.000000
   209  Bq   0.000000
   210  Bq   0.000000
   211  Bq   0.000000
   212  Bq   0.000000
   213  Bq   0.000000
   214  Bq   0.000000
   215  Bq   0.000000
   216  Bq   0.000000
   217  Bq   0.000000
   218  Bq   0.000000
   219  Bq   0.000000
   220  Bq   0.000000
   221  Bq   0.000000
   222  Bq   0.000000
   223  Bq   0.000000
   224  Bq   0.000000
   225  Bq   0.000000
   226  Bq   0.000000
   227  Bq   0.000000
   228  Bq   0.000000
   229  Bq   0.000000
   230  Bq   0.000000
   231  Bq   0.000000
   232  Bq   0.000000
   233  Bq   0.000000
   234  Bq   0.000000
   235  Bq   0.000000
   236  Bq   0.000000
 Electronic spatial extent (au):  <R**2>=           5804.3227
 Charge=              0.0000 electrons
 Dipole moment (field-independent basis, Debye):
    X=              0.0000    Y=              0.0732    Z=              0.0000  Tot=              0.0732
 Quadrupole moment (field-independent basis, Debye-Ang):
   XX=           -113.9137   YY=           -113.9781   ZZ=           -133.4378
   XY=              0.0000   XZ=             -4.8717   YZ=              0.0000
 Traceless Quadrupole moment (field-independent basis, Debye-Ang):
   XX=              6.5295   YY=              6.4651   ZZ=            -12.9946
   XY=              0.0000   XZ=             -4.8717   YZ=              0.0000
 Octapole moment (field-independent basis, Debye-Ang**2):
  XXX=              0.0000  YYY=             11.7108  ZZZ=              0.0000  XYY=              0.0000
  XXY=             -6.4067  XXZ=              0.0000  XZZ=              0.0000  YZZ=             -7.8695
  YYZ=              0.0000  XYZ=            -16.2862
 Hexadecapole moment (field-independent basis, Debye-Ang**3):
 XXXX=          -4416.4021 YYYY=          -2784.9756 ZZZZ=           -481.5690 XXXY=              0.0001
 XXXZ=           -124.3517 YYYX=             -0.0003 YYYZ=              0.0001 ZZZX=             -4.4782
 ZZZY=              0.0001 XXYY=          -1189.3576 XXZZ=           -942.9016 YYZZ=           -589.4012
 XXYZ=              0.0000 YYXZ=              7.8297 ZZXY=             -0.0001
 N-N= 1.599915627097D+03 E-N=-5.164192587538D+03  KE= 8.428349970566D+02
 Leave Link  601 at Tue Sep 15 11:11:26 2020, MaxMem=   131072000 cpu:         0.6
 (Enter /share/programs/GAUSSIAN/64/g09/l9999.exe)
 1\1\GINC-PLANA\SP\RB3LYP\6-311+G(d,p)\C22H14\AARTIGAS\15-Sep-2020\0\\#
 P rb3lyp/6-311+g** NMR Guess=Read geom=connectivity\\Title\\0,1\C,0,0.
 653241,3.257859,-0.20251\C,0,-0.653243,3.25786,0.20251\C,0,1.372495,2.
 032956,-0.320807\C,0,-1.372495,2.032956,0.320807\C,0,0.722474,0.795666
 ,-0.050388\C,0,-0.722474,0.795667,0.050387\C,0,2.760385,2.053927,-0.67
 4268\C,0,3.508866,0.913916,-0.671362\C,0,2.955226,-0.309622,-0.177479\
 C,0,1.574722,-0.361114,0.197094\H,0,1.183427,4.19574,-0.384599\H,0,-1.
 183429,4.19574,0.384599\H,0,3.206283,3.012423,-0.951392\H,0,4.560023,0
 .932956,-0.969333\C,0,3.78302,-1.443098,0.028309\C,0,1.137427,-1.50753
 3,0.912109\C,0,1.973691,-2.584349,1.138062\C,0,3.301853,-2.571588,0.66
 1177\H,0,4.825754,-1.39123,-0.295484\H,0,0.124652,-1.532788,1.308472\H
 ,0,1.603586,-3.445682,1.698977\H,0,3.952742,-3.433526,0.825134\C,0,-3.
 508866,0.913915,0.671362\C,0,-2.760386,2.053926,0.674268\C,0,-2.955226
 ,-0.309623,0.177479\C,0,-1.574722,-0.361114,-0.197094\C,0,-3.78302,-1.
 443099,-0.028309\C,0,-3.301852,-2.571589,-0.661177\C,0,-1.97369,-2.584
 349,-1.138061\C,0,-1.137426,-1.507534,-0.912109\H,0,-4.560022,0.932954
 ,0.969334\H,0,-3.206283,3.012421,0.951392\H,0,-4.825754,-1.391232,0.29
 5484\H,0,-3.952741,-3.433528,-0.825134\H,0,-1.603585,-3.445682,-1.6989
 76\H,0,-0.124652,-1.532788,-1.308471\Bq,0,1.6138863346,4.6261993346,-1
 .1779523403\Bq,0,1.5540174774,4.6787029131,-1.1779523403\Bq,0,1.487807
 7145,4.7229428624,-1.1779523403\Bq,0,1.4163899131,4.7581622244,-1.1779
 523403\Bq,0,1.3409860518,4.7837583863,-1.1779523403\Bq,0,1.2628863113,
 4.7992933906,-1.1779523403\Bq,0,1.183427,4.804501429,-1.1779523403\Bq,
 0,1.1039676887,4.7992933906,-1.1779523403\Bq,0,1.0258679482,4.78375838
 63,-1.1779523403\Bq,0,0.9504640869,4.7581622244,-1.1779523403\Bq,0,0.8
 790462855,4.7229428624,-1.1779523403\Bq,0,0.8128365226,4.6787029131,-1
 .1779523403\Bq,0,0.7529676654,4.6261993346,-1.1779523403\Bq,0,0.700464
 0869,4.5663304774,-1.1779523403\Bq,0,0.6562241376,4.5001207145,-1.1779
 523403\Bq,0,0.6210047756,4.4287029131,-1.1779523403\Bq,0,0.5954086137,
 4.3532990518,-1.1779523403\Bq,0,0.5798736094,4.2751993113,-1.177952340
 3\Bq,0,0.574665571,4.19574,-1.1779523403\Bq,0,0.5798736094,4.116280688
 7,-1.1779523403\Bq,0,0.5954086137,4.0381809482,-1.1779523403\Bq,0,0.62
 10047756,3.9627770869,-1.1779523403\Bq,0,0.6562241376,3.8913592855,-1.
 1779523403\Bq,0,0.7004640869,3.8251495226,-1.1779523403\Bq,0,0.7529676
 654,3.7652806654,-1.1779523403\Bq,0,0.8128365226,3.7127770869,-1.17795
 23403\Bq,0,0.8790462855,3.6685371376,-1.1779523403\Bq,0,0.9504640869,3
 .6333177756,-1.1779523403\Bq,0,1.0258679482,3.6077216137,-1.1779523403
 \Bq,0,1.1039676887,3.5921866094,-1.1779523403\Bq,0,1.183427,3.58697857
 1,-1.1779523403\Bq,0,1.2628863113,3.5921866094,-1.1779523403\Bq,0,1.34
 09860518,3.6077216137,-1.1779523403\Bq,0,1.4163899131,3.6333177756,-1.
 1779523403\Bq,0,1.4878077145,3.6685371376,-1.1779523403\Bq,0,1.5540174
 774,3.7127770869,-1.1779523403\Bq,0,1.6138863346,3.7652806654,-1.17795
 23403\Bq,0,1.6663899131,3.8251495226,-1.1779523403\Bq,0,1.7106298624,3
 .8913592855,-1.1779523403\Bq,0,1.7458492244,3.9627770869,-1.1779523403
 \Bq,0,1.7714453863,4.0381809482,-1.1779523403\Bq,0,1.7869803906,4.1162
 806887,-1.1779523403\Bq,0,1.683427,4.19574,-1.2506244038\Bq,0,1.679149
 4307,4.2610030961,-1.2506244038\Bq,0,1.6663899131,4.3251495226,-1.2506
 244038\Bq,0,1.6453667663,4.3870817162,-1.2506244038\Bq,0,1.6164397019,
 4.44574,-1.2506244038\Bq,0,1.5801036701,4.5001207145,-1.2506244038\Bq,
 0,1.5369803906,4.5492933906,-1.2506244038\Bq,0,1.4878077145,4.59241667
 01,-1.2506244038\Bq,0,1.433427,4.6287527019,-1.2506244038\Bq,0,1.37476
 87162,4.6576797663,-1.2506244038\Bq,0,1.3128365226,4.6787029131,-1.250
 6244038\Bq,0,1.2486900961,4.6914624307,-1.2506244038\Bq,0,1.183427,4.6
 9574,-1.2506244038\Bq,0,1.1181639039,4.6914624307,-1.2506244038\Bq,0,1
 .0540174774,4.6787029131,-1.2506244038\Bq,0,0.9920852838,4.6576797663,
 -1.2506244038\Bq,0,0.933427,4.6287527019,-1.2506244038\Bq,0,0.87904628
 55,4.5924166701,-1.2506244038\Bq,0,0.8298736094,4.5492933906,-1.250624
 4038\Bq,0,0.7867503299,4.5001207145,-1.2506244038\Bq,0,0.7504142981,4.
 44574,-1.2506244038\Bq,0,0.7214872337,4.3870817162,-1.2506244038\Bq,0,
 0.7004640869,4.3251495226,-1.2506244038\Bq,0,0.6877045693,4.2610030961
 ,-1.2506244038\Bq,0,0.683427,4.19574,-1.2506244038\Bq,0,0.6877045693,4
 .1304769039,-1.2506244038\Bq,0,0.7004640869,4.0663304774,-1.2506244038
 \Bq,0,0.7214872337,4.0043982838,-1.2506244038\Bq,0,0.7504142981,3.9457
 4,-1.2506244038\Bq,0,0.7867503299,3.8913592855,-1.2506244038\Bq,0,0.82
 98736094,3.8421866094,-1.2506244038\Bq,0,0.8790462855,3.7990633299,-1.
 2506244038\Bq,0,0.933427,3.7627272981,-1.2506244038\Bq,0,0.9920852838,
 3.7338002337,-1.2506244038\Bq,0,1.0540174774,3.7127770869,-1.250624403
 8\Bq,0,1.1181639039,3.7000175693,-1.2506244038\Bq,0,1.183427,3.69574,-
 1.2506244038\Bq,0,1.2486900961,3.7000175693,-1.2506244038\Bq,0,1.31283
 65226,3.7127770869,-1.2506244038\Bq,0,1.3747687162,3.7338002337,-1.250
 6244038\Bq,0,1.433427,3.7627272981,-1.2506244038\Bq,0,1.4878077145,3.7
 990633299,-1.2506244038\Bq,0,1.5369803906,3.8421866094,-1.2506244038\B
 q,0,1.5801036701,3.8913592855,-1.2506244038\Bq,0,1.6164397019,3.94574,
 -1.2506244038\Bq,0,1.6453667663,4.0043982838,-1.2506244038\Bq,0,1.6663
 899131,4.0663304774,-1.2506244038\Bq,0,1.6791494307,4.1304769039,-1.25
 06244038\Bq,0,1.5661104324,4.19574,-1.3084785325\Bq,0,1.5628365226,4.2
 456902113,-1.3084785325\Bq,0,1.5530708106,4.2947857605,-1.3084785325\B
 q,0,1.5369803906,4.3421866094,-1.3084785325\Bq,0,1.514840574,4.3870817
 162,-1.3084785325\Bq,0,1.4870301793,4.4287029131,-1.3084785325\Bq,0,1.
 4540250501,4.4663380501,-1.3084785325\Bq,0,1.4163899131,4.4993431793,-
 1.3084785325\Bq,0,1.3747687162,4.527153574,-1.3084785325\Bq,0,1.329873
 6094,4.5492933906,-1.3084785325\Bq,0,1.2824727605,4.5653838106,-1.3084
 785325\Bq,0,1.2333772113,4.5751495226,-1.3084785325\Bq,0,1.183427,4.57
 84234324,-1.3084785325\Bq,0,1.1334767887,4.5751495226,-1.3084785325\Bq
 ,0,1.0843812395,4.5653838106,-1.3084785325\Bq,0,1.0369803906,4.5492933
 906,-1.3084785325\Bq,0,0.9920852838,4.527153574,-1.3084785325\Bq,0,0.9
 504640869,4.4993431793,-1.3084785325\Bq,0,0.9128289499,4.4663380501,-1
 .3084785325\Bq,0,0.8798238207,4.4287029131,-1.3084785325\Bq,0,0.852013
 426,4.3870817162,-1.3084785325\Bq,0,0.8298736094,4.3421866094,-1.30847
 85325\Bq,0,0.8137831894,4.2947857605,-1.3084785325\Bq,0,0.8040174774,4
 .2456902113,-1.3084785325\Bq,0,0.8007435676,4.19574,-1.3084785325\Bq,0
 ,0.8040174774,4.1457897887,-1.3084785325\Bq,0,0.8137831894,4.096694239
 5,-1.3084785325\Bq,0,0.8298736094,4.0492933906,-1.3084785325\Bq,0,0.85
 2013426,4.0043982838,-1.3084785325\Bq,0,0.8798238207,3.9627770869,-1.3
 084785325\Bq,0,0.9128289499,3.9251419499,-1.3084785325\Bq,0,0.95046408
 69,3.8921368207,-1.3084785325\Bq,0,0.9920852838,3.864326426,-1.3084785
 325\Bq,0,1.0369803906,3.8421866094,-1.3084785325\Bq,0,1.0843812395,3.8
 260961894,-1.3084785325\Bq,0,1.1334767887,3.8163304774,-1.3084785325\B
 q,0,1.183427,3.8130565676,-1.3084785325\Bq,0,1.2333772113,3.8163304774
 ,-1.3084785325\Bq,0,1.2824727605,3.8260961894,-1.3084785325\Bq,0,1.329
 8736094,3.8421866094,-1.3084785325\Bq,0,1.3747687162,3.864326426,-1.30
 84785325\Bq,0,1.4163899131,3.8921368207,-1.3084785325\Bq,0,1.454025050
 1,3.9251419499,-1.3084785325\Bq,0,1.4870301793,3.9627770869,-1.3084785
 325\Bq,0,1.514840574,4.0043982838,-1.3084785325\Bq,0,1.5369803906,4.04
 92933906,-1.3084785325\Bq,0,1.5530708106,4.0966942395,-1.3084785325\Bq
 ,0,1.5628365226,4.1457897887,-1.3084785325\Bq,0,1.4422460451,4.19574,-
 1.3505248263\Bq,0,1.4400318123,4.2295226644,-1.3505248263\Bq,0,1.43342
 7,4.2627272981,-1.3505248263\Bq,0,1.4225446184,4.2947857605,-1.3505248
 263\Bq,0,1.407570868,4.3251495226,-1.3505248263\Bq,0,1.388761954,4.353
 2990518,-1.3505248263\Bq,0,1.3664397019,4.3787527019,-1.3505248263\Bq,
 0,1.3409860518,4.401074954,-1.3505248263\Bq,0,1.3128365226,4.419883868
 ,-1.3505248263\Bq,0,1.2824727605,4.4348576184,-1.3505248263\Bq,0,1.250
 4142981,4.44574,-1.3505248263\Bq,0,1.2172096644,4.4523448123,-1.350524
 8263\Bq,0,1.183427,4.4545590451,-1.3505248263\Bq,0,1.1496443356,4.4523
 448123,-1.3505248263\Bq,0,1.1164397019,4.44574,-1.3505248263\Bq,0,1.08
 43812395,4.4348576184,-1.3505248263\Bq,0,1.0540174774,4.419883868,-1.3
 505248263\Bq,0,1.0258679482,4.401074954,-1.3505248263\Bq,0,1.000414298
 1,4.3787527019,-1.3505248263\Bq,0,0.978092046,4.3532990518,-1.35052482
 63\Bq,0,0.959283132,4.3251495226,-1.3505248263\Bq,0,0.9443093816,4.294
 7857605,-1.3505248263\Bq,0,0.933427,4.2627272981,-1.3505248263\Bq,0,0.
 9268221877,4.2295226644,-1.3505248263\Bq,0,0.9246079549,4.19574,-1.350
 5248263\Bq,0,0.9268221877,4.1619573356,-1.3505248263\Bq,0,0.933427,4.1
 287527019,-1.3505248263\Bq,0,0.9443093816,4.0966942395,-1.3505248263\B
 q,0,0.959283132,4.0663304774,-1.3505248263\Bq,0,0.978092046,4.03818094
 82,-1.3505248263\Bq,0,1.0004142981,4.0127272981,-1.3505248263\Bq,0,1.0
 258679482,3.990405046,-1.3505248263\Bq,0,1.0540174774,3.971596132,-1.3
 505248263\Bq,0,1.0843812395,3.9566223816,-1.3505248263\Bq,0,1.11643970
 19,3.94574,-1.3505248263\Bq,0,1.1496443356,3.9391351877,-1.3505248263\
 Bq,0,1.183427,3.9369209549,-1.3505248263\Bq,0,1.2172096644,3.939135187
 7,-1.3505248263\Bq,0,1.2504142981,3.94574,-1.3505248263\Bq,0,1.2824727
 605,3.9566223816,-1.3505248263\Bq,0,1.3128365226,3.971596132,-1.350524
 8263\Bq,0,1.3409860518,3.990405046,-1.3505248263\Bq,0,1.3664397019,4.0
 127272981,-1.3505248263\Bq,0,1.388761954,4.0381809482,-1.3505248263\Bq
 ,0,1.407570868,4.0663304774,-1.3505248263\Bq,0,1.4225446184,4.09669423
 95,-1.3505248263\Bq,0,1.433427,4.1287527019,-1.3505248263\Bq,0,1.44003
 18123,4.1619573356,-1.3505248263\Bq,0,1.3139531922,4.19574,-1.37604386
 14\Bq,0,1.3128365226,4.2127770869,-1.3760438614\Bq,0,1.3095056201,4.22
 95226644,-1.3760438614\Bq,0,1.3040174774,4.2456902113,-1.3760438614\Bq
 ,0,1.2964659983,4.2610030961,-1.3760438614\Bq,0,1.2869803906,4.2751993
 113,-1.3760438614\Bq,0,1.2757229556,4.2880359556,-1.3760438614\Bq,0,1.
 2628863113,4.2992933906,-1.3760438614\Bq,0,1.2486900961,4.3087789983,-
 1.3760438614\Bq,0,1.2333772113,4.3163304774,-1.3760438614\Bq,0,1.21720
 96644,4.3218186201,-1.3760438614\Bq,0,1.2004640869,4.3251495226,-1.376
 0438614\Bq,0,1.183427,4.3262661922,-1.3760438614\Bq,0,1.1663899131,4.3
 251495226,-1.3760438614\\Version=ES64L-G09RevD.01\HF=-847.0037387\RMSD
 =4.018e-09\Dipole=0.0000004,0.0287843,0.0000009\Quadrupole=4.8545288,4
 .8066247,-9.6611535,-0.0000047,-3.6219991,-0.000002\PG=C01 [X(C22H14)]
 \\@


 SUCCESS IS COUNTED SWEETEST
 BY THOSE WHO NE'ER SUCCEED.
 TO COMPREHEND NECTAR
 REQUIRES SOREST NEED.
           EMILY DICKINSON
 Job cpu time:       0 days  1 hours 15 minutes 16.2 seconds.
 File lengths (MBytes):  RWF=    184 Int=      0 D2E=      0 Chk=     21 Scr=      1
 Normal termination of Gaussian 09 at Tue Sep 15 11:11:26 2020.
