 Entering Gaussian System, Link 0=g09
 Input=input_batch_24400.com
 Output=input_batch_24400.log
 Initial command:
 /share/programs/GAUSSIAN/64/g09/l1.exe "/scratch/aartigas.39158/Gau-9207.inp" -scrdir="/scratch/aartigas.39158/"
 Entering Link 1 = /share/programs/GAUSSIAN/64/g09/l1.exe PID=      9208.
  
 Copyright (c) 1988,1990,1992,1993,1995,1998,2003,2009,2013,
            Gaussian, Inc.  All Rights Reserved.
  
 This is part of the Gaussian(R) 09 program.  It is based on
 the Gaussian(R) 03 system (copyright 2003, Gaussian, Inc.),
 the Gaussian(R) 98 system (copyright 1998, Gaussian, Inc.),
 the Gaussian(R) 94 system (copyright 1995, Gaussian, Inc.),
 the Gaussian 92(TM) system (copyright 1992, Gaussian, Inc.),
 the Gaussian 90(TM) system (copyright 1990, Gaussian, Inc.),
 the Gaussian 88(TM) system (copyright 1988, Gaussian, Inc.),
 the Gaussian 86(TM) system (copyright 1986, Carnegie Mellon
 University), and the Gaussian 82(TM) system (copyright 1983,
 Carnegie Mellon University). Gaussian is a federally registered
 trademark of Gaussian, Inc.
  
 This software contains proprietary and confidential information,
 including trade secrets, belonging to Gaussian, Inc.
  
 This software is provided under written license and may be
 used, copied, transmitted, or stored only in accord with that
 written license.
  
 The following legend is applicable only to US Government
 contracts under FAR:
  
                    RESTRICTED RIGHTS LEGEND
  
 Use, reproduction and disclosure by the US Government is
 subject to restrictions as set forth in subparagraphs (a)
 and (c) of the Commercial Computer Software - Restricted
 Rights clause in FAR 52.227-19.
  
 Gaussian, Inc.
 340 Quinnipiac St., Bldg. 40, Wallingford CT 06492
  
  
 ---------------------------------------------------------------
 Warning -- This program may not be used in any manner that
 competes with the business of Gaussian, Inc. or will provide
 assistance to any competitor of Gaussian, Inc.  The licensee
 of this program is prohibited from giving any competitor of
 Gaussian, Inc. access to this program.  By using this program,
 the user acknowledges that Gaussian, Inc. is engaged in the
 business of creating and licensing software in the field of
 computational chemistry and represents and warrants to the
 licensee that it is not a competitor of Gaussian, Inc. and that
 it will not use this program in any manner prohibited above.
 ---------------------------------------------------------------
  

 Cite this work as:
 Gaussian 09, Revision D.01,
 M. J. Frisch, G. W. Trucks, H. B. Schlegel, G. E. Scuseria, 
 M. A. Robb, J. R. Cheeseman, G. Scalmani, V. Barone, B. Mennucci, 
 G. A. Petersson, H. Nakatsuji, M. Caricato, X. Li, H. P. Hratchian, 
 A. F. Izmaylov, J. Bloino, G. Zheng, J. L. Sonnenberg, M. Hada, 
 M. Ehara, K. Toyota, R. Fukuda, J. Hasegawa, M. Ishida, T. Nakajima, 
 Y. Honda, O. Kitao, H. Nakai, T. Vreven, J. A. Montgomery, Jr., 
 J. E. Peralta, F. Ogliaro, M. Bearpark, J. J. Heyd, E. Brothers, 
 K. N. Kudin, V. N. Staroverov, T. Keith, R. Kobayashi, J. Normand, 
 K. Raghavachari, A. Rendell, J. C. Burant, S. S. Iyengar, J. Tomasi, 
 M. Cossi, N. Rega, J. M. Millam, M. Klene, J. E. Knox, J. B. Cross, 
 V. Bakken, C. Adamo, J. Jaramillo, R. Gomperts, R. E. Stratmann, 
 O. Yazyev, A. J. Austin, R. Cammi, C. Pomelli, J. W. Ochterski, 
 R. L. Martin, K. Morokuma, V. G. Zakrzewski, G. A. Voth, 
 P. Salvador, J. J. Dannenberg, S. Dapprich, A. D. Daniels, 
 O. Farkas, J. B. Foresman, J. V. Ortiz, J. Cioslowski, 
 and D. J. Fox, Gaussian, Inc., Wallingford CT, 2013.
 
 ******************************************
 Gaussian 09:  ES64L-G09RevD.01 24-Apr-2013
                15-Sep-2020 
 ******************************************
 %OldChk=/home/aartigas/chk/5_helicene_spe.chk
 %nproc=8
 Will use up to    8 processors via shared memory.
 %mem=1000MB
 Copying data from "/home/aartigas/chk/5_helicene_spe.chk" to current chk file "/scratch/aartigas.39158/Gau-9208.chk".
 ----------------------------------------------------
 #P rb3lyp/6-311+g** NMR Guess=Read geom=connectivity
 ----------------------------------------------------
 1/38=1,57=2/1;
 2/12=2,17=6,18=5,40=1/2;
 3/5=4,6=6,7=111,11=2,16=1,25=1,30=1,74=-5,116=1/1,2,8,3;
 4/5=1/1;
 5/5=2,38=6/2;
 8/6=1,10=90,11=11/1;
 10/13=100,45=16/2;
 6/7=2,8=2,9=2,10=2,28=1/1;
 99/9=1/99;
 Leave Link    1 at Tue Sep 15 13:34:24 2020, MaxMem=   131072000 cpu:         0.4
 (Enter /share/programs/GAUSSIAN/64/g09/l101.exe)
 -----
 Title
 -----
 Symbolic Z-matrix:
 Charge =  0 Multiplicity = 1
 C                     0.65324   3.25786  -0.20251 
 C                    -0.65324   3.25786   0.20251 
 C                     1.3725    2.03296  -0.32081 
 C                    -1.3725    2.03296   0.32081 
 C                     0.72247   0.79567  -0.05039 
 C                    -0.72247   0.79567   0.05039 
 C                     2.76039   2.05393  -0.67427 
 C                     3.50887   0.91392  -0.67136 
 C                     2.95523  -0.30962  -0.17748 
 C                     1.57472  -0.36111   0.19709 
 H                     1.18343   4.19574  -0.3846 
 H                    -1.18343   4.19574   0.3846 
 H                     3.20628   3.01242  -0.95139 
 H                     4.56002   0.93296  -0.96933 
 C                     3.78302  -1.4431    0.02831 
 C                     1.13743  -1.50753   0.91211 
 C                     1.97369  -2.58435   1.13806 
 C                     3.30185  -2.57159   0.66118 
 H                     4.82575  -1.39123  -0.29548 
 H                     0.12465  -1.53279   1.30847 
 H                     1.60359  -3.44568   1.69898 
 H                     3.95274  -3.43353   0.82513 
 C                    -3.50887   0.91392   0.67136 
 C                    -2.76039   2.05393   0.67427 
 C                    -2.95523  -0.30962   0.17748 
 C                    -1.57472  -0.36111  -0.19709 
 C                    -3.78302  -1.4431   -0.02831 
 C                    -3.30185  -2.57159  -0.66118 
 C                    -1.97369  -2.58435  -1.13806 
 C                    -1.13743  -1.50753  -0.91211 
 H                    -4.56002   0.93295   0.96933 
 H                    -3.20628   3.01242   0.95139 
 H                    -4.82575  -1.39123   0.29548 
 H                    -3.95274  -3.43353  -0.82513 
 H                    -1.60359  -3.44568  -1.69898 
 H                    -0.12465  -1.53279  -1.30847 
 Bq                    4.0694   -2.28932  -0.68666 
 Bq                    4.07888  -2.27512  -0.68666 
 Bq                    4.08643  -2.25981  -0.68666 
 Bq                    4.09192  -2.24364  -0.68666 
 Bq                    4.09525  -2.2269   -0.68666 
 Bq                    3.92658  -0.25942   0.58293 
 Bq                    3.92658  -0.25942   0.58293 
 Bq                    3.92658  -0.25942   0.58293 
 Bq                    3.92658  -0.25942   0.58293 
 Bq                    3.92658  -0.25942   0.58293 
 Bq                    3.92658  -0.25942   0.58293 
 Bq                    3.92658  -0.25942   0.58293 
 Bq                    3.92658  -0.25942   0.58293 
 Bq                    3.92658  -0.25942   0.58293 
 Bq                    3.92658  -0.25942   0.58293 
 Bq                    3.92658  -0.25942   0.58293 
 Bq                    3.92658  -0.25942   0.58293 
 Bq                    3.92658  -0.25942   0.58293 
 Bq                    3.92658  -0.25942   0.58293 
 Bq                    3.92658  -0.25942   0.58293 
 Bq                    3.92658  -0.25942   0.58293 
 Bq                    3.92658  -0.25942   0.58293 
 Bq                    3.92658  -0.25942   0.58293 
 Bq                    3.92658  -0.25942   0.58293 
 Bq                    3.92658  -0.25942   0.58293 
 Bq                    3.92658  -0.25942   0.58293 
 Bq                    3.92658  -0.25942   0.58293 
 Bq                    3.92658  -0.25942   0.58293 
 Bq                    3.92658  -0.25942   0.58293 
 Bq                    3.92658  -0.25942   0.58293 
 Bq                    3.92658  -0.25942   0.58293 
 Bq                    3.92658  -0.25942   0.58293 
 Bq                    3.92658  -0.25942   0.58293 
 Bq                    3.92658  -0.25942   0.58293 
 Bq                    3.92658  -0.25942   0.58293 
 Bq                    3.92658  -0.25942   0.58293 
 Bq                    3.92658  -0.25942   0.58293 
 Bq                    3.92658  -0.25942   0.58293 
 Bq                    3.92658  -0.25942   0.58293 
 Bq                    3.92658  -0.25942   0.58293 
 Bq                    3.92658  -0.25942   0.58293 
 Bq                    3.92658  -0.25942   0.58293 
 Bq                    3.92658  -0.25942   0.58293 
 Bq                    3.92658  -0.25942   0.58293 
 Bq                    3.92658  -0.25942   0.58293 
 Bq                    3.92658  -0.25942   0.58293 
 Bq                    3.92658  -0.25942   0.58293 
 Bq                    3.92658  -0.25942   0.58293 
 Bq                    3.92658  -0.25942   0.58293 
 Bq                    3.92658  -0.25942   0.58293 
 Bq                    3.92658  -0.25942   0.58293 
 Bq                    3.92658  -0.25942   0.58293 
 Bq                    3.92658  -0.25942   0.58293 
 Bq                    4.0571   -0.25942   0.57438 
 Bq                    4.05599  -0.24238   0.57438 
 Bq                    4.05266  -0.22563   0.57438 
 Bq                    4.04717  -0.20947   0.57438 
 Bq                    4.03962  -0.19415   0.57438 
 Bq                    4.03013  -0.17996   0.57438 
 Bq                    4.01887  -0.16712   0.57438 
 Bq                    4.00604  -0.15586   0.57438 
 Bq                    3.99184  -0.14638   0.57438 
 Bq                    3.97653  -0.13883   0.57438 
 Bq                    3.96036  -0.13334   0.57438 
 Bq                    3.94361  -0.13001   0.57438 
 Bq                    3.92658  -0.12889   0.57438 
 Bq                    3.90954  -0.13001   0.57438 
 Bq                    3.8928   -0.13334   0.57438 
 Bq                    3.87663  -0.13883   0.57438 
 Bq                    3.86131  -0.14638   0.57438 
 Bq                    3.84712  -0.15586   0.57438 
 Bq                    3.83428  -0.16712   0.57438 
 Bq                    3.82302  -0.17996   0.57438 
 Bq                    3.81354  -0.19415   0.57438 
 Bq                    3.80599  -0.20947   0.57438 
 Bq                    3.8005   -0.22563   0.57438 
 Bq                    3.79717  -0.24238   0.57438 
 Bq                    3.79605  -0.25942   0.57438 
 Bq                    3.79717  -0.27645   0.57438 
 Bq                    3.8005   -0.2932    0.57438 
 Bq                    3.80599  -0.30937   0.57438 
 Bq                    3.81354  -0.32468   0.57438 
 Bq                    3.82302  -0.33887   0.57438 
 Bq                    3.83428  -0.35171   0.57438 
 Bq                    3.84712  -0.36297   0.57438 
 Bq                    3.86131  -0.37245   0.57438 
 Bq                    3.87663  -0.38001   0.57438 
 Bq                    3.8928   -0.38549   0.57438 
 Bq                    3.90954  -0.38883   0.57438 
 Bq                    3.92658  -0.38994   0.57438 
 Bq                    3.94361  -0.38883   0.57438 
 Bq                    3.96036  -0.38549   0.57438 
 Bq                    3.97653  -0.38001   0.57438 
 Bq                    3.99184  -0.37245   0.57438 
 Bq                    4.00604  -0.36297   0.57438 
 Bq                    4.01887  -0.35171   0.57438 
 Bq                    4.03013  -0.33887   0.57438 
 Bq                    4.03962  -0.32468   0.57438 
 Bq                    4.04717  -0.30937   0.57438 
 Bq                    4.05266  -0.2932    0.57438 
 Bq                    4.05599  -0.27645   0.57438 
 Bq                    4.1854   -0.25942   0.54886 
 Bq                    4.18318  -0.22563   0.54886 
 Bq                    4.17658  -0.19243   0.54886 
 Bq                    4.1657   -0.16037   0.54886 
 Bq                    4.15072  -0.13001   0.54886 
 Bq                    4.13191  -0.10186   0.54886 
 Bq                    4.10959  -0.0764    0.54886 
 Bq                    4.08414  -0.05408   0.54886 
 Bq                    4.05599  -0.03527   0.54886 
 Bq                    4.02562  -0.0203    0.54886 
 Bq                    3.99357  -0.00942   0.54886 
 Bq                    3.96036  -0.00281   0.54886 
 Bq                    3.92658  -0.0006    0.54886 
 Bq                    3.8928   -0.00281   0.54886 
 Bq                    3.85959  -0.00942   0.54886 
 Bq                    3.82753  -0.0203    0.54886 
 Bq                    3.79717  -0.03527   0.54886 
 Bq                    3.76902  -0.05408   0.54886 
 Bq                    3.74357  -0.0764    0.54886 
 Bq                    3.72124  -0.10186   0.54886 
 Bq                    3.70243  -0.13001   0.54886 
 Bq                    3.68746  -0.16037   0.54886 
 Bq                    3.67658  -0.19243   0.54886 
 Bq                    3.66997  -0.22563   0.54886 
 Bq                    3.66776  -0.25942   0.54886 
 Bq                    3.66997  -0.2932    0.54886 
 Bq                    3.67658  -0.3264    0.54886 
 Bq                    3.68746  -0.35846   0.54886 
 Bq                    3.70243  -0.38883   0.54886 
 Bq                    3.72124  -0.41697   0.54886 
 Bq                    3.74357  -0.44243   0.54886 
 Bq                    3.76902  -0.46475   0.54886 
 Bq                    3.79717  -0.48356   0.54886 
 Bq                    3.82753  -0.49853   0.54886 
 Bq                    3.85959  -0.50942   0.54886 
 Bq                    3.8928   -0.51602   0.54886 
 Bq                    3.92658  -0.51823   0.54886 
 Bq                    3.96036  -0.51602   0.54886 
 Bq                    3.99357  -0.50942   0.54886 
 Bq                    4.02562  -0.49853   0.54886 
 Bq                    4.05599  -0.48356   0.54886 
 Bq                    4.08414  -0.46475   0.54886 
 Bq                    4.10959  -0.44243   0.54886 
 Bq                    4.13191  -0.41697   0.54886 
 Bq                    4.15072  -0.38883   0.54886 
 Bq                    4.1657   -0.35846   0.54886 
 Bq                    4.17658  -0.3264    0.54886 
 Bq                    4.18318  -0.2932    0.54886 
 Bq                    4.30926  -0.25942   0.50681 
 Bq                    4.30599  -0.20947   0.50681 
 Bq                    4.29622  -0.16037   0.50681 
 Bq                    4.28013  -0.11297   0.50681 
 Bq                    4.25799  -0.06807   0.50681 
 Bq                    4.23018  -0.02645   0.50681 
 Bq                    4.19718   0.01118   0.50681 
 Bq                    4.15954   0.04419   0.50681 
 Bq                    4.11792   0.072     0.50681 
 Bq                    4.07302   0.09414   0.50681 
 Bq                    4.02562   0.11023   0.50681 
 Bq                    3.97653   0.11999   0.50681 
 Bq                    3.92658   0.12327   0.50681 
 Bq                    3.87663   0.11999   0.50681 
 Bq                    3.82753   0.11023   0.50681 
 Bq                    3.78013   0.09414   0.50681 
 Bq                    3.73524   0.072     0.50681 
 Bq                    3.69361   0.04419   0.50681 
 Bq                    3.65598   0.01118   0.50681 
 Bq                    3.65598  -0.53001   0.50681 
 Bq                    3.69361  -0.56302   0.50681 
 Bq                    4.07302  -0.61297   0.50681 
 Bq                    4.11792  -0.59083   0.50681 
 Bq                    4.15954  -0.56302   0.50681 
 Bq                    4.19718  -0.53001   0.50681 
 Bq                    4.23018  -0.49238   0.50681 
 Bq                    4.25799  -0.45076   0.50681 
 Bq                    4.28013  -0.40586   0.50681 
 Bq                    4.29622  -0.35846   0.50681 
 Bq                    4.30599  -0.30937   0.50681 
 Bq                    4.42658  -0.25942   0.44896 
 Bq                    4.4223   -0.19415   0.44896 
 Bq                    4.40954  -0.13001   0.44896 
 Bq                    4.38852  -0.06807   0.44896 
 Bq                    4.35959  -0.00942   0.44896 
 Bq                    4.32325   0.04497   0.44896 
 Bq                    4.28013   0.09414   0.44896 
 Bq                    4.23096   0.13726   0.44896 
 Bq                    4.17658   0.1736    0.44896 
 Bq                    4.11792   0.20252   0.44896 
 Bq                    4.05599   0.22355   0.44896 
 Bq                    3.99184   0.23631   0.44896 
 Bq                    3.92658   0.24058   0.44896 
 Bq                    3.86131   0.23631   0.44896 
 Bq                    3.79717   0.22355   0.44896 
 Bq                    3.73524   0.20252   0.44896 
 Bq                    3.67658   0.1736    0.44896 
 Bq                    3.6222    0.13726   0.44896 
 Bq                    4.28013  -0.61297   0.44896 
 Bq                    4.32325  -0.5638    0.44896 
 Bq                    4.35959  -0.50942   0.44896 
 
 NAtoms=    236 NQM=      236 NQMF=       0 NMMI=      0 NMMIF=      0
                NMic=       0 NMicF=      0.
                    Isotopes and Nuclear Properties:
 (Nuclear quadrupole moments (NQMom) in fm**2, nuclear magnetic moments (NMagM)
  in nuclear magnetons)

  Atom         1           2           3           4           5           6           7           8           9          10
 IAtWgt=          12          12          12          12          12          12          12          12          12          12
 AtmWgt=  12.0000000  12.0000000  12.0000000  12.0000000  12.0000000  12.0000000  12.0000000  12.0000000  12.0000000  12.0000000
 NucSpn=           0           0           0           0           0           0           0           0           0           0
 AtZEff=   0.0000000   0.0000000   0.0000000   0.0000000   0.0000000   0.0000000   0.0000000   0.0000000   0.0000000   0.0000000
 NQMom=    0.0000000   0.0000000   0.0000000   0.0000000   0.0000000   0.0000000   0.0000000   0.0000000   0.0000000   0.0000000
 NMagM=    0.0000000   0.0000000   0.0000000   0.0000000   0.0000000   0.0000000   0.0000000   0.0000000   0.0000000   0.0000000
 AtZNuc=   6.0000000   6.0000000   6.0000000   6.0000000   6.0000000   6.0000000   6.0000000   6.0000000   6.0000000   6.0000000

  Atom        11          12          13          14          15          16          17          18          19          20
 IAtWgt=           1           1           1           1          12          12          12          12           1           1
 AtmWgt=   1.0078250   1.0078250   1.0078250   1.0078250  12.0000000  12.0000000  12.0000000  12.0000000   1.0078250   1.0078250
 NucSpn=           1           1           1           1           0           0           0           0           1           1
 AtZEff=   0.0000000   0.0000000   0.0000000   0.0000000   0.0000000   0.0000000   0.0000000   0.0000000   0.0000000   0.0000000
 NQMom=    0.0000000   0.0000000   0.0000000   0.0000000   0.0000000   0.0000000   0.0000000   0.0000000   0.0000000   0.0000000
 NMagM=    2.7928460   2.7928460   2.7928460   2.7928460   0.0000000   0.0000000   0.0000000   0.0000000   2.7928460   2.7928460
 AtZNuc=   1.0000000   1.0000000   1.0000000   1.0000000   6.0000000   6.0000000   6.0000000   6.0000000   1.0000000   1.0000000

  Atom        21          22          23          24          25          26          27          28          29          30
 IAtWgt=           1           1          12          12          12          12          12          12          12          12
 AtmWgt=   1.0078250   1.0078250  12.0000000  12.0000000  12.0000000  12.0000000  12.0000000  12.0000000  12.0000000  12.0000000
 NucSpn=           1           1           0           0           0           0           0           0           0           0
 AtZEff=   0.0000000   0.0000000   0.0000000   0.0000000   0.0000000   0.0000000   0.0000000   0.0000000   0.0000000   0.0000000
 NQMom=    0.0000000   0.0000000   0.0000000   0.0000000   0.0000000   0.0000000   0.0000000   0.0000000   0.0000000   0.0000000
 NMagM=    2.7928460   2.7928460   0.0000000   0.0000000   0.0000000   0.0000000   0.0000000   0.0000000   0.0000000   0.0000000
 AtZNuc=   1.0000000   1.0000000   6.0000000   6.0000000   6.0000000   6.0000000   6.0000000   6.0000000   6.0000000   6.0000000

  Atom        31          32          33          34          35          36          37          38          39          40
 IAtWgt=           1           1           1           1           1           1           0           0           0           0
 AtmWgt=   1.0078250   1.0078250   1.0078250   1.0078250   1.0078250   1.0078250   0.0000000   0.0000000   0.0000000   0.0000000
 NucSpn=           1           1           1           1           1           1           0           0           0           0
 AtZEff=   0.0000000   0.0000000   0.0000000   0.0000000   0.0000000   0.0000000   0.0000000   0.0000000   0.0000000   0.0000000
 NQMom=    0.0000000   0.0000000   0.0000000   0.0000000   0.0000000   0.0000000   0.0000000   0.0000000   0.0000000   0.0000000
 NMagM=    2.7928460   2.7928460   2.7928460   2.7928460   2.7928460   2.7928460   0.0000000   0.0000000   0.0000000   0.0000000
 AtZNuc=   1.0000000   1.0000000   1.0000000   1.0000000   1.0000000   1.0000000   0.0000000   0.0000000   0.0000000   0.0000000

  Atom        41          42          43          44          45          46          47          48          49          50
 IAtWgt=           0           0           0           0           0           0           0           0           0           0
 AtmWgt=   0.0000000   0.0000000   0.0000000   0.0000000   0.0000000   0.0000000   0.0000000   0.0000000   0.0000000   0.0000000
 NucSpn=           0           0           0           0           0           0           0           0           0           0
 AtZEff=   0.0000000   0.0000000   0.0000000   0.0000000   0.0000000   0.0000000   0.0000000   0.0000000   0.0000000   0.0000000
 NQMom=    0.0000000   0.0000000   0.0000000   0.0000000   0.0000000   0.0000000   0.0000000   0.0000000   0.0000000   0.0000000
 NMagM=    0.0000000   0.0000000   0.0000000   0.0000000   0.0000000   0.0000000   0.0000000   0.0000000   0.0000000   0.0000000
 AtZNuc=   0.0000000   0.0000000   0.0000000   0.0000000   0.0000000   0.0000000   0.0000000   0.0000000   0.0000000   0.0000000

  Atom        51          52          53          54          55          56          57          58          59          60
 IAtWgt=           0           0           0           0           0           0           0           0           0           0
 AtmWgt=   0.0000000   0.0000000   0.0000000   0.0000000   0.0000000   0.0000000   0.0000000   0.0000000   0.0000000   0.0000000
 NucSpn=           0           0           0           0           0           0           0           0           0           0
 AtZEff=   0.0000000   0.0000000   0.0000000   0.0000000   0.0000000   0.0000000   0.0000000   0.0000000   0.0000000   0.0000000
 NQMom=    0.0000000   0.0000000   0.0000000   0.0000000   0.0000000   0.0000000   0.0000000   0.0000000   0.0000000   0.0000000
 NMagM=    0.0000000   0.0000000   0.0000000   0.0000000   0.0000000   0.0000000   0.0000000   0.0000000   0.0000000   0.0000000
 AtZNuc=   0.0000000   0.0000000   0.0000000   0.0000000   0.0000000   0.0000000   0.0000000   0.0000000   0.0000000   0.0000000

  Atom        61          62          63          64          65          66          67          68          69          70
 IAtWgt=           0           0           0           0           0           0           0           0           0           0
 AtmWgt=   0.0000000   0.0000000   0.0000000   0.0000000   0.0000000   0.0000000   0.0000000   0.0000000   0.0000000   0.0000000
 NucSpn=           0           0           0           0           0           0           0           0           0           0
 AtZEff=   0.0000000   0.0000000   0.0000000   0.0000000   0.0000000   0.0000000   0.0000000   0.0000000   0.0000000   0.0000000
 NQMom=    0.0000000   0.0000000   0.0000000   0.0000000   0.0000000   0.0000000   0.0000000   0.0000000   0.0000000   0.0000000
 NMagM=    0.0000000   0.0000000   0.0000000   0.0000000   0.0000000   0.0000000   0.0000000   0.0000000   0.0000000   0.0000000
 AtZNuc=   0.0000000   0.0000000   0.0000000   0.0000000   0.0000000   0.0000000   0.0000000   0.0000000   0.0000000   0.0000000

  Atom        71          72          73          74          75          76          77          78          79          80
 IAtWgt=           0           0           0           0           0           0           0           0           0           0
 AtmWgt=   0.0000000   0.0000000   0.0000000   0.0000000   0.0000000   0.0000000   0.0000000   0.0000000   0.0000000   0.0000000
 NucSpn=           0           0           0           0           0           0           0           0           0           0
 AtZEff=   0.0000000   0.0000000   0.0000000   0.0000000   0.0000000   0.0000000   0.0000000   0.0000000   0.0000000   0.0000000
 NQMom=    0.0000000   0.0000000   0.0000000   0.0000000   0.0000000   0.0000000   0.0000000   0.0000000   0.0000000   0.0000000
 NMagM=    0.0000000   0.0000000   0.0000000   0.0000000   0.0000000   0.0000000   0.0000000   0.0000000   0.0000000   0.0000000
 AtZNuc=   0.0000000   0.0000000   0.0000000   0.0000000   0.0000000   0.0000000   0.0000000   0.0000000   0.0000000   0.0000000

  Atom        81          82          83          84          85          86          87          88          89          90
 IAtWgt=           0           0           0           0           0           0           0           0           0           0
 AtmWgt=   0.0000000   0.0000000   0.0000000   0.0000000   0.0000000   0.0000000   0.0000000   0.0000000   0.0000000   0.0000000
 NucSpn=           0           0           0           0           0           0           0           0           0           0
 AtZEff=   0.0000000   0.0000000   0.0000000   0.0000000   0.0000000   0.0000000   0.0000000   0.0000000   0.0000000   0.0000000
 NQMom=    0.0000000   0.0000000   0.0000000   0.0000000   0.0000000   0.0000000   0.0000000   0.0000000   0.0000000   0.0000000
 NMagM=    0.0000000   0.0000000   0.0000000   0.0000000   0.0000000   0.0000000   0.0000000   0.0000000   0.0000000   0.0000000
 AtZNuc=   0.0000000   0.0000000   0.0000000   0.0000000   0.0000000   0.0000000   0.0000000   0.0000000   0.0000000   0.0000000

  Atom        91          92          93          94          95          96          97          98          99         100
 IAtWgt=           0           0           0           0           0           0           0           0           0           0
 AtmWgt=   0.0000000   0.0000000   0.0000000   0.0000000   0.0000000   0.0000000   0.0000000   0.0000000   0.0000000   0.0000000
 NucSpn=           0           0           0           0           0           0           0           0           0           0
 AtZEff=   0.0000000   0.0000000   0.0000000   0.0000000   0.0000000   0.0000000   0.0000000   0.0000000   0.0000000   0.0000000
 NQMom=    0.0000000   0.0000000   0.0000000   0.0000000   0.0000000   0.0000000   0.0000000   0.0000000   0.0000000   0.0000000
 NMagM=    0.0000000   0.0000000   0.0000000   0.0000000   0.0000000   0.0000000   0.0000000   0.0000000   0.0000000   0.0000000
 AtZNuc=   0.0000000   0.0000000   0.0000000   0.0000000   0.0000000   0.0000000   0.0000000   0.0000000   0.0000000   0.0000000

  Atom       101         102         103         104         105         106         107         108         109         110
 IAtWgt=           0           0           0           0           0           0           0           0           0           0
 AtmWgt=   0.0000000   0.0000000   0.0000000   0.0000000   0.0000000   0.0000000   0.0000000   0.0000000   0.0000000   0.0000000
 NucSpn=           0           0           0           0           0           0           0           0           0           0
 AtZEff=   0.0000000   0.0000000   0.0000000   0.0000000   0.0000000   0.0000000   0.0000000   0.0000000   0.0000000   0.0000000
 NQMom=    0.0000000   0.0000000   0.0000000   0.0000000   0.0000000   0.0000000   0.0000000   0.0000000   0.0000000   0.0000000
 NMagM=    0.0000000   0.0000000   0.0000000   0.0000000   0.0000000   0.0000000   0.0000000   0.0000000   0.0000000   0.0000000
 AtZNuc=   0.0000000   0.0000000   0.0000000   0.0000000   0.0000000   0.0000000   0.0000000   0.0000000   0.0000000   0.0000000

  Atom       111         112         113         114         115         116         117         118         119         120
 IAtWgt=           0           0           0           0           0           0           0           0           0           0
 AtmWgt=   0.0000000   0.0000000   0.0000000   0.0000000   0.0000000   0.0000000   0.0000000   0.0000000   0.0000000   0.0000000
 NucSpn=           0           0           0           0           0           0           0           0           0           0
 AtZEff=   0.0000000   0.0000000   0.0000000   0.0000000   0.0000000   0.0000000   0.0000000   0.0000000   0.0000000   0.0000000
 NQMom=    0.0000000   0.0000000   0.0000000   0.0000000   0.0000000   0.0000000   0.0000000   0.0000000   0.0000000   0.0000000
 NMagM=    0.0000000   0.0000000   0.0000000   0.0000000   0.0000000   0.0000000   0.0000000   0.0000000   0.0000000   0.0000000
 AtZNuc=   0.0000000   0.0000000   0.0000000   0.0000000   0.0000000   0.0000000   0.0000000   0.0000000   0.0000000   0.0000000

  Atom       121         122         123         124         125         126         127         128         129         130
 IAtWgt=           0           0           0           0           0           0           0           0           0           0
 AtmWgt=   0.0000000   0.0000000   0.0000000   0.0000000   0.0000000   0.0000000   0.0000000   0.0000000   0.0000000   0.0000000
 NucSpn=           0           0           0           0           0           0           0           0           0           0
 AtZEff=   0.0000000   0.0000000   0.0000000   0.0000000   0.0000000   0.0000000   0.0000000   0.0000000   0.0000000   0.0000000
 NQMom=    0.0000000   0.0000000   0.0000000   0.0000000   0.0000000   0.0000000   0.0000000   0.0000000   0.0000000   0.0000000
 NMagM=    0.0000000   0.0000000   0.0000000   0.0000000   0.0000000   0.0000000   0.0000000   0.0000000   0.0000000   0.0000000
 AtZNuc=   0.0000000   0.0000000   0.0000000   0.0000000   0.0000000   0.0000000   0.0000000   0.0000000   0.0000000   0.0000000

  Atom       131         132         133         134         135         136         137         138         139         140
 IAtWgt=           0           0           0           0           0           0           0           0           0           0
 AtmWgt=   0.0000000   0.0000000   0.0000000   0.0000000   0.0000000   0.0000000   0.0000000   0.0000000   0.0000000   0.0000000
 NucSpn=           0           0           0           0           0           0           0           0           0           0
 AtZEff=   0.0000000   0.0000000   0.0000000   0.0000000   0.0000000   0.0000000   0.0000000   0.0000000   0.0000000   0.0000000
 NQMom=    0.0000000   0.0000000   0.0000000   0.0000000   0.0000000   0.0000000   0.0000000   0.0000000   0.0000000   0.0000000
 NMagM=    0.0000000   0.0000000   0.0000000   0.0000000   0.0000000   0.0000000   0.0000000   0.0000000   0.0000000   0.0000000
 AtZNuc=   0.0000000   0.0000000   0.0000000   0.0000000   0.0000000   0.0000000   0.0000000   0.0000000   0.0000000   0.0000000

  Atom       141         142         143         144         145         146         147         148         149         150
 IAtWgt=           0           0           0           0           0           0           0           0           0           0
 AtmWgt=   0.0000000   0.0000000   0.0000000   0.0000000   0.0000000   0.0000000   0.0000000   0.0000000   0.0000000   0.0000000
 NucSpn=           0           0           0           0           0           0           0           0           0           0
 AtZEff=   0.0000000   0.0000000   0.0000000   0.0000000   0.0000000   0.0000000   0.0000000   0.0000000   0.0000000   0.0000000
 NQMom=    0.0000000   0.0000000   0.0000000   0.0000000   0.0000000   0.0000000   0.0000000   0.0000000   0.0000000   0.0000000
 NMagM=    0.0000000   0.0000000   0.0000000   0.0000000   0.0000000   0.0000000   0.0000000   0.0000000   0.0000000   0.0000000
 AtZNuc=   0.0000000   0.0000000   0.0000000   0.0000000   0.0000000   0.0000000   0.0000000   0.0000000   0.0000000   0.0000000

  Atom       151         152         153         154         155         156         157         158         159         160
 IAtWgt=           0           0           0           0           0           0           0           0           0           0
 AtmWgt=   0.0000000   0.0000000   0.0000000   0.0000000   0.0000000   0.0000000   0.0000000   0.0000000   0.0000000   0.0000000
 NucSpn=           0           0           0           0           0           0           0           0           0           0
 AtZEff=   0.0000000   0.0000000   0.0000000   0.0000000   0.0000000   0.0000000   0.0000000   0.0000000   0.0000000   0.0000000
 NQMom=    0.0000000   0.0000000   0.0000000   0.0000000   0.0000000   0.0000000   0.0000000   0.0000000   0.0000000   0.0000000
 NMagM=    0.0000000   0.0000000   0.0000000   0.0000000   0.0000000   0.0000000   0.0000000   0.0000000   0.0000000   0.0000000
 AtZNuc=   0.0000000   0.0000000   0.0000000   0.0000000   0.0000000   0.0000000   0.0000000   0.0000000   0.0000000   0.0000000

  Atom       161         162         163         164         165         166         167         168         169         170
 IAtWgt=           0           0           0           0           0           0           0           0           0           0
 AtmWgt=   0.0000000   0.0000000   0.0000000   0.0000000   0.0000000   0.0000000   0.0000000   0.0000000   0.0000000   0.0000000
 NucSpn=           0           0           0           0           0           0           0           0           0           0
 AtZEff=   0.0000000   0.0000000   0.0000000   0.0000000   0.0000000   0.0000000   0.0000000   0.0000000   0.0000000   0.0000000
 NQMom=    0.0000000   0.0000000   0.0000000   0.0000000   0.0000000   0.0000000   0.0000000   0.0000000   0.0000000   0.0000000
 NMagM=    0.0000000   0.0000000   0.0000000   0.0000000   0.0000000   0.0000000   0.0000000   0.0000000   0.0000000   0.0000000
 AtZNuc=   0.0000000   0.0000000   0.0000000   0.0000000   0.0000000   0.0000000   0.0000000   0.0000000   0.0000000   0.0000000

  Atom       171         172         173         174         175         176         177         178         179         180
 IAtWgt=           0           0           0           0           0           0           0           0           0           0
 AtmWgt=   0.0000000   0.0000000   0.0000000   0.0000000   0.0000000   0.0000000   0.0000000   0.0000000   0.0000000   0.0000000
 NucSpn=           0           0           0           0           0           0           0           0           0           0
 AtZEff=   0.0000000   0.0000000   0.0000000   0.0000000   0.0000000   0.0000000   0.0000000   0.0000000   0.0000000   0.0000000
 NQMom=    0.0000000   0.0000000   0.0000000   0.0000000   0.0000000   0.0000000   0.0000000   0.0000000   0.0000000   0.0000000
 NMagM=    0.0000000   0.0000000   0.0000000   0.0000000   0.0000000   0.0000000   0.0000000   0.0000000   0.0000000   0.0000000
 AtZNuc=   0.0000000   0.0000000   0.0000000   0.0000000   0.0000000   0.0000000   0.0000000   0.0000000   0.0000000   0.0000000

  Atom       181         182         183         184         185         186         187         188         189         190
 IAtWgt=           0           0           0           0           0           0           0           0           0           0
 AtmWgt=   0.0000000   0.0000000   0.0000000   0.0000000   0.0000000   0.0000000   0.0000000   0.0000000   0.0000000   0.0000000
 NucSpn=           0           0           0           0           0           0           0           0           0           0
 AtZEff=   0.0000000   0.0000000   0.0000000   0.0000000   0.0000000   0.0000000   0.0000000   0.0000000   0.0000000   0.0000000
 NQMom=    0.0000000   0.0000000   0.0000000   0.0000000   0.0000000   0.0000000   0.0000000   0.0000000   0.0000000   0.0000000
 NMagM=    0.0000000   0.0000000   0.0000000   0.0000000   0.0000000   0.0000000   0.0000000   0.0000000   0.0000000   0.0000000
 AtZNuc=   0.0000000   0.0000000   0.0000000   0.0000000   0.0000000   0.0000000   0.0000000   0.0000000   0.0000000   0.0000000

  Atom       191         192         193         194         195         196         197         198         199         200
 IAtWgt=           0           0           0           0           0           0           0           0           0           0
 AtmWgt=   0.0000000   0.0000000   0.0000000   0.0000000   0.0000000   0.0000000   0.0000000   0.0000000   0.0000000   0.0000000
 NucSpn=           0           0           0           0           0           0           0           0           0           0
 AtZEff=   0.0000000   0.0000000   0.0000000   0.0000000   0.0000000   0.0000000   0.0000000   0.0000000   0.0000000   0.0000000
 NQMom=    0.0000000   0.0000000   0.0000000   0.0000000   0.0000000   0.0000000   0.0000000   0.0000000   0.0000000   0.0000000
 NMagM=    0.0000000   0.0000000   0.0000000   0.0000000   0.0000000   0.0000000   0.0000000   0.0000000   0.0000000   0.0000000
 AtZNuc=   0.0000000   0.0000000   0.0000000   0.0000000   0.0000000   0.0000000   0.0000000   0.0000000   0.0000000   0.0000000

  Atom       201         202         203         204         205         206         207         208         209         210
 IAtWgt=           0           0           0           0           0           0           0           0           0           0
 AtmWgt=   0.0000000   0.0000000   0.0000000   0.0000000   0.0000000   0.0000000   0.0000000   0.0000000   0.0000000   0.0000000
 NucSpn=           0           0           0           0           0           0           0           0           0           0
 AtZEff=   0.0000000   0.0000000   0.0000000   0.0000000   0.0000000   0.0000000   0.0000000   0.0000000   0.0000000   0.0000000
 NQMom=    0.0000000   0.0000000   0.0000000   0.0000000   0.0000000   0.0000000   0.0000000   0.0000000   0.0000000   0.0000000
 NMagM=    0.0000000   0.0000000   0.0000000   0.0000000   0.0000000   0.0000000   0.0000000   0.0000000   0.0000000   0.0000000
 AtZNuc=   0.0000000   0.0000000   0.0000000   0.0000000   0.0000000   0.0000000   0.0000000   0.0000000   0.0000000   0.0000000

  Atom       211         212         213         214         215         216         217         218         219         220
 IAtWgt=           0           0           0           0           0           0           0           0           0           0
 AtmWgt=   0.0000000   0.0000000   0.0000000   0.0000000   0.0000000   0.0000000   0.0000000   0.0000000   0.0000000   0.0000000
 NucSpn=           0           0           0           0           0           0           0           0           0           0
 AtZEff=   0.0000000   0.0000000   0.0000000   0.0000000   0.0000000   0.0000000   0.0000000   0.0000000   0.0000000   0.0000000
 NQMom=    0.0000000   0.0000000   0.0000000   0.0000000   0.0000000   0.0000000   0.0000000   0.0000000   0.0000000   0.0000000
 NMagM=    0.0000000   0.0000000   0.0000000   0.0000000   0.0000000   0.0000000   0.0000000   0.0000000   0.0000000   0.0000000
 AtZNuc=   0.0000000   0.0000000   0.0000000   0.0000000   0.0000000   0.0000000   0.0000000   0.0000000   0.0000000   0.0000000

  Atom       221         222         223         224         225         226         227         228         229         230
 IAtWgt=           0           0           0           0           0           0           0           0           0           0
 AtmWgt=   0.0000000   0.0000000   0.0000000   0.0000000   0.0000000   0.0000000   0.0000000   0.0000000   0.0000000   0.0000000
 NucSpn=           0           0           0           0           0           0           0           0           0           0
 AtZEff=   0.0000000   0.0000000   0.0000000   0.0000000   0.0000000   0.0000000   0.0000000   0.0000000   0.0000000   0.0000000
 NQMom=    0.0000000   0.0000000   0.0000000   0.0000000   0.0000000   0.0000000   0.0000000   0.0000000   0.0000000   0.0000000
 NMagM=    0.0000000   0.0000000   0.0000000   0.0000000   0.0000000   0.0000000   0.0000000   0.0000000   0.0000000   0.0000000
 AtZNuc=   0.0000000   0.0000000   0.0000000   0.0000000   0.0000000   0.0000000   0.0000000   0.0000000   0.0000000   0.0000000

  Atom       231         232         233         234         235         236
 IAtWgt=           0           0           0           0           0           0
 AtmWgt=   0.0000000   0.0000000   0.0000000   0.0000000   0.0000000   0.0000000
 NucSpn=           0           0           0           0           0           0
 AtZEff=   0.0000000   0.0000000   0.0000000   0.0000000   0.0000000   0.0000000
 NQMom=    0.0000000   0.0000000   0.0000000   0.0000000   0.0000000   0.0000000
 NMagM=    0.0000000   0.0000000   0.0000000   0.0000000   0.0000000   0.0000000
 AtZNuc=   0.0000000   0.0000000   0.0000000   0.0000000   0.0000000   0.0000000
 Leave Link  101 at Tue Sep 15 13:34:24 2020, MaxMem=   131072000 cpu:         3.2
 (Enter /share/programs/GAUSSIAN/64/g09/l202.exe)
 Symmetry turned off:
 Cannot cope with ghost atoms or with translation vectors.
 Stoichiometry    C22H14
 Framework group  C1[X(C22H14)]
 NUMDOF-- NAT=    36 NAtoms=   236
 Deg. of freedom     0
 Full point group                 C1      NOp   1
                          Input orientation:                          
 ---------------------------------------------------------------------
 Center     Atomic      Atomic             Coordinates (Angstroms)
 Number     Number       Type             X           Y           Z
 ---------------------------------------------------------------------
      1          6           0        0.653241    3.257859   -0.202510
      2          6           0       -0.653243    3.257860    0.202510
      3          6           0        1.372495    2.032956   -0.320807
      4          6           0       -1.372495    2.032956    0.320807
      5          6           0        0.722474    0.795666   -0.050388
      6          6           0       -0.722474    0.795667    0.050387
      7          6           0        2.760385    2.053927   -0.674268
      8          6           0        3.508866    0.913916   -0.671362
      9          6           0        2.955226   -0.309622   -0.177479
     10          6           0        1.574722   -0.361114    0.197094
     11          1           0        1.183427    4.195740   -0.384599
     12          1           0       -1.183429    4.195740    0.384599
     13          1           0        3.206283    3.012423   -0.951392
     14          1           0        4.560023    0.932956   -0.969333
     15          6           0        3.783020   -1.443098    0.028309
     16          6           0        1.137427   -1.507533    0.912109
     17          6           0        1.973691   -2.584349    1.138062
     18          6           0        3.301853   -2.571588    0.661177
     19          1           0        4.825754   -1.391230   -0.295484
     20          1           0        0.124652   -1.532788    1.308472
     21          1           0        1.603586   -3.445682    1.698977
     22          1           0        3.952742   -3.433526    0.825134
     23          6           0       -3.508866    0.913915    0.671362
     24          6           0       -2.760386    2.053926    0.674268
     25          6           0       -2.955226   -0.309623    0.177479
     26          6           0       -1.574722   -0.361114   -0.197094
     27          6           0       -3.783020   -1.443099   -0.028309
     28          6           0       -3.301852   -2.571589   -0.661177
     29          6           0       -1.973690   -2.584349   -1.138061
     30          6           0       -1.137426   -1.507534   -0.912109
     31          1           0       -4.560022    0.932954    0.969334
     32          1           0       -3.206283    3.012421    0.951392
     33          1           0       -4.825754   -1.391232    0.295484
     34          1           0       -3.952741   -3.433528   -0.825134
     35          1           0       -1.603585   -3.445682   -1.698976
     36          1           0       -0.124652   -1.532788   -1.308471
     37          0           0        4.069396   -2.289320   -0.686661
     38          0           0        4.078881   -2.275124   -0.686661
     39          0           0        4.086433   -2.259811   -0.686661
     40          0           0        4.091921   -2.243643   -0.686661
     41          0           0        4.095252   -2.226898   -0.686661
     42          0           0        3.926578   -0.259416    0.582930
     43          0           0        3.926578   -0.259416    0.582930
     44          0           0        3.926578   -0.259416    0.582930
     45          0           0        3.926578   -0.259416    0.582930
     46          0           0        3.926578   -0.259416    0.582930
     47          0           0        3.926578   -0.259416    0.582930
     48          0           0        3.926578   -0.259416    0.582930
     49          0           0        3.926578   -0.259416    0.582930
     50          0           0        3.926578   -0.259416    0.582930
     51          0           0        3.926578   -0.259416    0.582930
     52          0           0        3.926578   -0.259416    0.582930
     53          0           0        3.926578   -0.259416    0.582930
     54          0           0        3.926578   -0.259416    0.582930
     55          0           0        3.926578   -0.259416    0.582930
     56          0           0        3.926578   -0.259416    0.582930
     57          0           0        3.926578   -0.259416    0.582930
     58          0           0        3.926578   -0.259416    0.582930
     59          0           0        3.926578   -0.259416    0.582930
     60          0           0        3.926578   -0.259416    0.582930
     61          0           0        3.926578   -0.259416    0.582930
     62          0           0        3.926578   -0.259416    0.582930
     63          0           0        3.926578   -0.259416    0.582930
     64          0           0        3.926578   -0.259416    0.582930
     65          0           0        3.926578   -0.259416    0.582930
     66          0           0        3.926578   -0.259416    0.582930
     67          0           0        3.926578   -0.259416    0.582930
     68          0           0        3.926578   -0.259416    0.582930
     69          0           0        3.926578   -0.259416    0.582930
     70          0           0        3.926578   -0.259416    0.582930
     71          0           0        3.926578   -0.259416    0.582930
     72          0           0        3.926578   -0.259416    0.582930
     73          0           0        3.926578   -0.259416    0.582930
     74          0           0        3.926578   -0.259416    0.582930
     75          0           0        3.926578   -0.259416    0.582930
     76          0           0        3.926578   -0.259416    0.582930
     77          0           0        3.926578   -0.259416    0.582930
     78          0           0        3.926578   -0.259416    0.582930
     79          0           0        3.926578   -0.259416    0.582930
     80          0           0        3.926578   -0.259416    0.582930
     81          0           0        3.926578   -0.259416    0.582930
     82          0           0        3.926578   -0.259416    0.582930
     83          0           0        3.926578   -0.259416    0.582930
     84          0           0        3.926578   -0.259416    0.582930
     85          0           0        3.926578   -0.259416    0.582930
     86          0           0        3.926578   -0.259416    0.582930
     87          0           0        3.926578   -0.259416    0.582930
     88          0           0        3.926578   -0.259416    0.582930
     89          0           0        3.926578   -0.259416    0.582930
     90          0           0        4.057104   -0.259416    0.574375
     91          0           0        4.055987   -0.242379    0.574375
     92          0           0        4.052656   -0.225633    0.574375
     93          0           0        4.047168   -0.209465    0.574375
     94          0           0        4.039617   -0.194153    0.574375
     95          0           0        4.030131   -0.179956    0.574375
     96          0           0        4.018874   -0.167120    0.574375
     97          0           0        4.006037   -0.155862    0.574375
     98          0           0        3.991841   -0.146377    0.574375
     99          0           0        3.976528   -0.138825    0.574375
    100          0           0        3.960360   -0.133337    0.574375
    101          0           0        3.943615   -0.130006    0.574375
    102          0           0        3.926578   -0.128889    0.574375
    103          0           0        3.909541   -0.130006    0.574375
    104          0           0        3.892795   -0.133337    0.574375
    105          0           0        3.876628   -0.138825    0.574375
    106          0           0        3.861315   -0.146377    0.574375
    107          0           0        3.847118   -0.155862    0.574375
    108          0           0        3.834282   -0.167120    0.574375
    109          0           0        3.823024   -0.179956    0.574375
    110          0           0        3.813539   -0.194153    0.574375
    111          0           0        3.805987   -0.209465    0.574375
    112          0           0        3.800499   -0.225633    0.574375
    113          0           0        3.797168   -0.242379    0.574375
    114          0           0        3.796052   -0.259416    0.574375
    115          0           0        3.797168   -0.276453    0.574375
    116          0           0        3.800499   -0.293198    0.574375
    117          0           0        3.805987   -0.309366    0.574375
    118          0           0        3.813539   -0.324679    0.574375
    119          0           0        3.823024   -0.338875    0.574375
    120          0           0        3.834282   -0.351712    0.574375
    121          0           0        3.847118   -0.362969    0.574375
    122          0           0        3.861315   -0.372455    0.574375
    123          0           0        3.876628   -0.380006    0.574375
    124          0           0        3.892795   -0.385494    0.574375
    125          0           0        3.909541   -0.388825    0.574375
    126          0           0        3.926578   -0.389942    0.574375
    127          0           0        3.943615   -0.388825    0.574375
    128          0           0        3.960360   -0.385494    0.574375
    129          0           0        3.976528   -0.380006    0.574375
    130          0           0        3.991841   -0.372455    0.574375
    131          0           0        4.006037   -0.362969    0.574375
    132          0           0        4.018874   -0.351712    0.574375
    133          0           0        4.030131   -0.338875    0.574375
    134          0           0        4.039617   -0.324679    0.574375
    135          0           0        4.047168   -0.309366    0.574375
    136          0           0        4.052656   -0.293198    0.574375
    137          0           0        4.055987   -0.276453    0.574375
    138          0           0        4.185397   -0.259416    0.548856
    139          0           0        4.183183   -0.225633    0.548856
    140          0           0        4.176578   -0.192428    0.548856
    141          0           0        4.165695   -0.160370    0.548856
    142          0           0        4.150722   -0.130006    0.548856
    143          0           0        4.131913   -0.101857    0.548856
    144          0           0        4.109591   -0.076403    0.548856
    145          0           0        4.084137   -0.054081    0.548856
    146          0           0        4.055987   -0.035272    0.548856
    147          0           0        4.025624   -0.020298    0.548856
    148          0           0        3.993565   -0.009416    0.548856
    149          0           0        3.960360   -0.002811    0.548856
    150          0           0        3.926578   -0.000597    0.548856
    151          0           0        3.892795   -0.002811    0.548856
    152          0           0        3.859591   -0.009416    0.548856
    153          0           0        3.827532   -0.020298    0.548856
    154          0           0        3.797168   -0.035272    0.548856
    155          0           0        3.769019   -0.054081    0.548856
    156          0           0        3.743565   -0.076403    0.548856
    157          0           0        3.721243   -0.101857    0.548856
    158          0           0        3.702434   -0.130006    0.548856
    159          0           0        3.687460   -0.160370    0.548856
    160          0           0        3.676578   -0.192428    0.548856
    161          0           0        3.669973   -0.225633    0.548856
    162          0           0        3.667759   -0.259416    0.548856
    163          0           0        3.669973   -0.293198    0.548856
    164          0           0        3.676578   -0.326403    0.548856
    165          0           0        3.687460   -0.358461    0.548856
    166          0           0        3.702434   -0.388825    0.548856
    167          0           0        3.721243   -0.416975    0.548856
    168          0           0        3.743565   -0.442428    0.548856
    169          0           0        3.769019   -0.464751    0.548856
    170          0           0        3.797168   -0.483559    0.548856
    171          0           0        3.827532   -0.498533    0.548856
    172          0           0        3.859591   -0.509416    0.548856
    173          0           0        3.892795   -0.516020    0.548856
    174          0           0        3.926578   -0.518235    0.548856
    175          0           0        3.960360   -0.516020    0.548856
    176          0           0        3.993565   -0.509416    0.548856
    177          0           0        4.025624   -0.498533    0.548856
    178          0           0        4.055987   -0.483559    0.548856
    179          0           0        4.084137   -0.464751    0.548856
    180          0           0        4.109591   -0.442428    0.548856
    181          0           0        4.131913   -0.416975    0.548856
    182          0           0        4.150722   -0.388825    0.548856
    183          0           0        4.165695   -0.358461    0.548856
    184          0           0        4.176578   -0.326403    0.548856
    185          0           0        4.183183   -0.293198    0.548856
    186          0           0        4.309261   -0.259416    0.506810
    187          0           0        4.305987   -0.209465    0.506810
    188          0           0        4.296222   -0.160370    0.506810
    189          0           0        4.280131   -0.112969    0.506810
    190          0           0        4.257991   -0.068074    0.506810
    191          0           0        4.230181   -0.026453    0.506810
    192          0           0        4.197176    0.011182    0.506810
    193          0           0        4.159541    0.044188    0.506810
    194          0           0        4.117920    0.071998    0.506810
    195          0           0        4.073024    0.094138    0.506810
    196          0           0        4.025624    0.110228    0.506810
    197          0           0        3.976528    0.119994    0.506810
    198          0           0        3.926578    0.123268    0.506810
    199          0           0        3.876628    0.119994    0.506810
    200          0           0        3.827532    0.110228    0.506810
    201          0           0        3.780131    0.094138    0.506810
    202          0           0        3.735236    0.071998    0.506810
    203          0           0        3.693615    0.044188    0.506810
    204          0           0        3.655980    0.011182    0.506810
    205          0           0        3.655980   -0.530014    0.506810
    206          0           0        3.693615   -0.563019    0.506810
    207          0           0        4.073024   -0.612969    0.506810
    208          0           0        4.117920   -0.590829    0.506810
    209          0           0        4.159541   -0.563019    0.506810
    210          0           0        4.197176   -0.530014    0.506810
    211          0           0        4.230181   -0.492379    0.506810
    212          0           0        4.257991   -0.450757    0.506810
    213          0           0        4.280131   -0.405862    0.506810
    214          0           0        4.296222   -0.358461    0.506810
    215          0           0        4.305987   -0.309366    0.506810
    216          0           0        4.426578   -0.259416    0.448956
    217          0           0        4.422300   -0.194153    0.448956
    218          0           0        4.409541   -0.130006    0.448956
    219          0           0        4.388518   -0.068074    0.448956
    220          0           0        4.359591   -0.009416    0.448956
    221          0           0        4.323254    0.044965    0.448956
    222          0           0        4.280131    0.094138    0.448956
    223          0           0        4.230959    0.137261    0.448956
    224          0           0        4.176578    0.173597    0.448956
    225          0           0        4.117920    0.202524    0.448956
    226          0           0        4.055987    0.223547    0.448956
    227          0           0        3.991841    0.236307    0.448956
    228          0           0        3.926578    0.240584    0.448956
    229          0           0        3.861315    0.236307    0.448956
    230          0           0        3.797168    0.223547    0.448956
    231          0           0        3.735236    0.202524    0.448956
    232          0           0        3.676578    0.173597    0.448956
    233          0           0        3.622197    0.137261    0.448956
    234          0           0        4.280131   -0.612969    0.448956
    235          0           0        4.323254   -0.563796    0.448956
    236          0           0        4.359591   -0.509416    0.448956
 ---------------------------------------------------------------------
 Rotational constants (GHZ):      0.4454681      0.2811480      0.1854303
 Leave Link  202 at Tue Sep 15 13:34:25 2020, MaxMem=   131072000 cpu:         0.0
 (Enter /share/programs/GAUSSIAN/64/g09/l301.exe)
 Standard basis: 6-311+G(d,p) (5D, 7F)
 Warning:  center  37 has no basis functions!
 Warning:  center  38 has no basis functions!
 Warning:  center  39 has no basis functions!
 Warning:  center  40 has no basis functions!
 Warning:  center  41 has no basis functions!
 Warning:  center  42 has no basis functions!
 Warning:  center  43 has no basis functions!
 Warning:  center  44 has no basis functions!
 Warning:  center  45 has no basis functions!
 Warning:  center  46 has no basis functions!
 Warning:  center  47 has no basis functions!
 Warning:  center  48 has no basis functions!
 Warning:  center  49 has no basis functions!
 Warning:  center  50 has no basis functions!
 Warning:  center  51 has no basis functions!
 Warning:  center  52 has no basis functions!
 Warning:  center  53 has no basis functions!
 Warning:  center  54 has no basis functions!
 Warning:  center  55 has no basis functions!
 Warning:  center  56 has no basis functions!
 Warning:  center  57 has no basis functions!
 Warning:  center  58 has no basis functions!
 Warning:  center  59 has no basis functions!
 Warning:  center  60 has no basis functions!
 Warning:  center  61 has no basis functions!
 Warning:  center  62 has no basis functions!
 Warning:  center  63 has no basis functions!
 Warning:  center  64 has no basis functions!
 Warning:  center  65 has no basis functions!
 Warning:  center  66 has no basis functions!
 Warning:  center  67 has no basis functions!
 Warning:  center  68 has no basis functions!
 Warning:  center  69 has no basis functions!
 Warning:  center  70 has no basis functions!
 Warning:  center  71 has no basis functions!
 Warning:  center  72 has no basis functions!
 Warning:  center  73 has no basis functions!
 Warning:  center  74 has no basis functions!
 Warning:  center  75 has no basis functions!
 Warning:  center  76 has no basis functions!
 Warning:  center  77 has no basis functions!
 Warning:  center  78 has no basis functions!
 Warning:  center  79 has no basis functions!
 Warning:  center  80 has no basis functions!
 Warning:  center  81 has no basis functions!
 Warning:  center  82 has no basis functions!
 Warning:  center  83 has no basis functions!
 Warning:  center  84 has no basis functions!
 Warning:  center  85 has no basis functions!
 Warning:  center  86 has no basis functions!
 Warning:  center  87 has no basis functions!
 Warning:  center  88 has no basis functions!
 Warning:  center  89 has no basis functions!
 Warning:  center  90 has no basis functions!
 Warning:  center  91 has no basis functions!
 Warning:  center  92 has no basis functions!
 Warning:  center  93 has no basis functions!
 Warning:  center  94 has no basis functions!
 Warning:  center  95 has no basis functions!
 Warning:  center  96 has no basis functions!
 Warning:  center  97 has no basis functions!
 Warning:  center  98 has no basis functions!
 Warning:  center  99 has no basis functions!
 Warning:  center 100 has no basis functions!
 Warning:  center 101 has no basis functions!
 Warning:  center 102 has no basis functions!
 Warning:  center 103 has no basis functions!
 Warning:  center 104 has no basis functions!
 Warning:  center 105 has no basis functions!
 Warning:  center 106 has no basis functions!
 Warning:  center 107 has no basis functions!
 Warning:  center 108 has no basis functions!
 Warning:  center 109 has no basis functions!
 Warning:  center 110 has no basis functions!
 Warning:  center 111 has no basis functions!
 Warning:  center 112 has no basis functions!
 Warning:  center 113 has no basis functions!
 Warning:  center 114 has no basis functions!
 Warning:  center 115 has no basis functions!
 Warning:  center 116 has no basis functions!
 Warning:  center 117 has no basis functions!
 Warning:  center 118 has no basis functions!
 Warning:  center 119 has no basis functions!
 Warning:  center 120 has no basis functions!
 Warning:  center 121 has no basis functions!
 Warning:  center 122 has no basis functions!
 Warning:  center 123 has no basis functions!
 Warning:  center 124 has no basis functions!
 Warning:  center 125 has no basis functions!
 Warning:  center 126 has no basis functions!
 Warning:  center 127 has no basis functions!
 Warning:  center 128 has no basis functions!
 Warning:  center 129 has no basis functions!
 Warning:  center 130 has no basis functions!
 Warning:  center 131 has no basis functions!
 Warning:  center 132 has no basis functions!
 Warning:  center 133 has no basis functions!
 Warning:  center 134 has no basis functions!
 Warning:  center 135 has no basis functions!
 Warning:  center 136 has no basis functions!
 Warning:  center 137 has no basis functions!
 Warning:  center 138 has no basis functions!
 Warning:  center 139 has no basis functions!
 Warning:  center 140 has no basis functions!
 Warning:  center 141 has no basis functions!
 Warning:  center 142 has no basis functions!
 Warning:  center 143 has no basis functions!
 Warning:  center 144 has no basis functions!
 Warning:  center 145 has no basis functions!
 Warning:  center 146 has no basis functions!
 Warning:  center 147 has no basis functions!
 Warning:  center 148 has no basis functions!
 Warning:  center 149 has no basis functions!
 Warning:  center 150 has no basis functions!
 Warning:  center 151 has no basis functions!
 Warning:  center 152 has no basis functions!
 Warning:  center 153 has no basis functions!
 Warning:  center 154 has no basis functions!
 Warning:  center 155 has no basis functions!
 Warning:  center 156 has no basis functions!
 Warning:  center 157 has no basis functions!
 Warning:  center 158 has no basis functions!
 Warning:  center 159 has no basis functions!
 Warning:  center 160 has no basis functions!
 Warning:  center 161 has no basis functions!
 Warning:  center 162 has no basis functions!
 Warning:  center 163 has no basis functions!
 Warning:  center 164 has no basis functions!
 Warning:  center 165 has no basis functions!
 Warning:  center 166 has no basis functions!
 Warning:  center 167 has no basis functions!
 Warning:  center 168 has no basis functions!
 Warning:  center 169 has no basis functions!
 Warning:  center 170 has no basis functions!
 Warning:  center 171 has no basis functions!
 Warning:  center 172 has no basis functions!
 Warning:  center 173 has no basis functions!
 Warning:  center 174 has no basis functions!
 Warning:  center 175 has no basis functions!
 Warning:  center 176 has no basis functions!
 Warning:  center 177 has no basis functions!
 Warning:  center 178 has no basis functions!
 Warning:  center 179 has no basis functions!
 Warning:  center 180 has no basis functions!
 Warning:  center 181 has no basis functions!
 Warning:  center 182 has no basis functions!
 Warning:  center 183 has no basis functions!
 Warning:  center 184 has no basis functions!
 Warning:  center 185 has no basis functions!
 Warning:  center 186 has no basis functions!
 Warning:  center 187 has no basis functions!
 Warning:  center 188 has no basis functions!
 Warning:  center 189 has no basis functions!
 Warning:  center 190 has no basis functions!
 Warning:  center 191 has no basis functions!
 Warning:  center 192 has no basis functions!
 Warning:  center 193 has no basis functions!
 Warning:  center 194 has no basis functions!
 Warning:  center 195 has no basis functions!
 Warning:  center 196 has no basis functions!
 Warning:  center 197 has no basis functions!
 Warning:  center 198 has no basis functions!
 Warning:  center 199 has no basis functions!
 Warning:  center 200 has no basis functions!
 Warning:  center 201 has no basis functions!
 Warning:  center 202 has no basis functions!
 Warning:  center 203 has no basis functions!
 Warning:  center 204 has no basis functions!
 Warning:  center 205 has no basis functions!
 Warning:  center 206 has no basis functions!
 Warning:  center 207 has no basis functions!
 Warning:  center 208 has no basis functions!
 Warning:  center 209 has no basis functions!
 Warning:  center 210 has no basis functions!
 Warning:  center 211 has no basis functions!
 Warning:  center 212 has no basis functions!
 Warning:  center 213 has no basis functions!
 Warning:  center 214 has no basis functions!
 Warning:  center 215 has no basis functions!
 Warning:  center 216 has no basis functions!
 Warning:  center 217 has no basis functions!
 Warning:  center 218 has no basis functions!
 Warning:  center 219 has no basis functions!
 Warning:  center 220 has no basis functions!
 Warning:  center 221 has no basis functions!
 Warning:  center 222 has no basis functions!
 Warning:  center 223 has no basis functions!
 Warning:  center 224 has no basis functions!
 Warning:  center 225 has no basis functions!
 Warning:  center 226 has no basis functions!
 Warning:  center 227 has no basis functions!
 Warning:  center 228 has no basis functions!
 Warning:  center 229 has no basis functions!
 Warning:  center 230 has no basis functions!
 Warning:  center 231 has no basis functions!
 Warning:  center 232 has no basis functions!
 Warning:  center 233 has no basis functions!
 Warning:  center 234 has no basis functions!
 Warning:  center 235 has no basis functions!
 Warning:  center 236 has no basis functions!
 Ernie: Thresh=  0.10000D-02 Tol=  0.10000D-05 Strict=F.
   568 basis functions,   904 primitive gaussians,   590 cartesian basis functions
    73 alpha electrons       73 beta electrons
       nuclear repulsion energy      1599.9156270972 Hartrees.
 IExCor=  402 DFT=T Ex+Corr=B3LYP ExCW=0 ScaHFX=  0.200000
 ScaDFX=  0.800000  0.720000  1.000000  0.810000 ScalE2=  1.000000  1.000000
 IRadAn=      0 IRanWt=     -1 IRanGd=            0 ICorTp=0 IEmpDi=  4
 NAtoms=  236 NActive=  236 NUniq=  236 SFac= 1.00D+00 NAtFMM=   60 NAOKFM=T Big=T
 Integral buffers will be    131072 words long.
 Raffenetti 2 integral format.
 Two-electron integral symmetry is turned off.
 Leave Link  301 at Tue Sep 15 13:34:25 2020, MaxMem=   131072000 cpu:         0.6
 (Enter /share/programs/GAUSSIAN/64/g09/l302.exe)
 NPDir=0 NMtPBC=     1 NCelOv=     1 NCel=       1 NClECP=     1 NCelD=      1
         NCelK=      1 NCelE2=     1 NClLst=     1 CellRange=     0.0.
 One-electron integrals computed using PRISM.
 NBasis=   568 RedAO= T EigKep=  1.01D-06  NBF=   568
 NBsUse=   557 1.00D-06 EigRej=  9.19D-07 NBFU=   557
 Precomputing XC quadrature grid using
 IXCGrd= 4 IRadAn=           0 IRanWt=          -1 IRanGd=           0 AccXCQ= 0.00D+00.
 Generated NRdTot=       0 NPtTot=           0 NUsed=           0 NTot=          32
 NSgBfM=   587   588   588   589   589 MxSgAt=   236 MxSgA2=    36.
 Leave Link  302 at Tue Sep 15 13:34:27 2020, MaxMem=   131072000 cpu:        15.3
 (Enter /share/programs/GAUSSIAN/64/g09/l308.exe)
 Leave Link  308 at Tue Sep 15 13:34:27 2020, MaxMem=   131072000 cpu:         1.2
 (Enter /share/programs/GAUSSIAN/64/g09/l303.exe)
 DipDrv:  MaxL=1.
 Leave Link  303 at Tue Sep 15 13:34:27 2020, MaxMem=   131072000 cpu:         0.9
 (Enter /share/programs/GAUSSIAN/64/g09/l401.exe)
 Initial guess from the checkpoint file:  "/scratch/aartigas.39158/Gau-9208.chk"
 Skipping rotation of guess because NAtoms(RWF)=  236 differs from NAtoms(Chk)=   36.
 Guess basis will be translated and rotated to current coordinates.
 JPrj=2 DoOrth=T DoCkMO=T.
 Leave Link  401 at Tue Sep 15 13:34:29 2020, MaxMem=   131072000 cpu:        10.4
 (Enter /share/programs/GAUSSIAN/64/g09/l502.exe)
 Closed shell SCF:
 Using DIIS extrapolation, IDIIS=  1040.
 Two-electron integral symmetry not used.
 IVT=     1071582 IEndB=     1071582 NGot=   131072000 MDV=   130365749
 LenX=   130365749 LenY=   130017059
 Requested convergence on RMS density matrix=1.00D-08 within 128 cycles.
 Requested convergence on MAX density matrix=1.00D-06.
 Requested convergence on             energy=1.00D-06.
 No special actions if energy rises.
 Fock matrices will be formed incrementally for  20 cycles.

 Cycle   1  Pass 1  IDiag  1:
 FoFJK:  IHMeth= 1 ICntrl=       0 DoSepK=F KAlg= 0 I1Cent=   0 FoldK=F
 IRaf= 940000000 NMat=   1 IRICut=       1 DoRegI=T DoRafI=F ISym2E= 0.
 FoFCou: FMM=T IPFlag=           0 FMFlag=      100000 FMFlg1=        2001
         NFxFlg=           0 DoJE=F BraDBF=F KetDBF=F FulRan=T
         wScrn=  0.000000 ICntrl=       0 IOpCl=  0 I1Cent=           0 NGrid=           0
         NMat0=    1 NMatS0=      1 NMatT0=    0 NMatD0=    1 NMtDS0=    0 NMtDT0=    0
 Symmetry not used in FoFCou.
 FMM levels:  10  Number of levels for PrismC:   9
 E= -847.003738666968    
 DIIS: error= 5.05D-08 at cycle   1 NSaved=   1.
 NSaved= 1 IEnMin= 1 EnMin= -847.003738666968     IErMin= 1 ErrMin= 5.05D-08
 ErrMax= 5.05D-08  0.00D+00 EMaxC= 1.00D-01 BMatC= 3.55D-12 BMatP= 3.55D-12
 IDIUse=1 WtCom= 1.00D+00 WtEn= 0.00D+00
 Coeff-Com:  0.100D+01
 Coeff:      0.100D+01
 Gap=     0.151 Goal=   None    Shift=    0.000
 RMSDP=2.88D-07 MaxDP=1.33D-05              OVMax= 3.94D-07

 Cycle   2  Pass 1  IDiag  1:
 RMSU=  2.85D-07    CP:  1.00D+00
 E= -847.003738666805     Delta-E=        0.000000000163 Rises=F Damp=F
 DIIS: error= 1.42D-08 at cycle   2 NSaved=   2.
 NSaved= 2 IEnMin= 1 EnMin= -847.003738666968     IErMin= 2 ErrMin= 1.42D-08
 ErrMax= 1.42D-08  0.00D+00 EMaxC= 1.00D-01 BMatC= 2.13D-13 BMatP= 3.55D-12
 IDIUse=1 WtCom= 1.00D+00 WtEn= 0.00D+00
 Coeff-Com:  0.627D-01 0.937D+00
 Coeff:      0.627D-01 0.937D+00
 Gap=     0.151 Goal=   None    Shift=    0.000
 RMSDP=1.57D-08 MaxDP=7.86D-07 DE= 1.63D-10 OVMax= 3.02D-07

 Cycle   3  Pass 1  IDiag  1:
 RMSU=  1.33D-08    CP:  1.00D+00  1.02D+00
 E= -847.003738666794     Delta-E=        0.000000000011 Rises=F Damp=F
 DIIS: error= 2.51D-08 at cycle   3 NSaved=   3.
 NSaved= 3 IEnMin= 1 EnMin= -847.003738666968     IErMin= 2 ErrMin= 1.42D-08
 ErrMax= 2.51D-08  0.00D+00 EMaxC= 1.00D-01 BMatC= 5.05D-13 BMatP= 2.13D-13
 IDIUse=1 WtCom= 1.00D+00 WtEn= 0.00D+00
 Coeff-Com: -0.107D-01 0.616D+00 0.395D+00
 Coeff:     -0.107D-01 0.616D+00 0.395D+00
 Gap=     0.151 Goal=   None    Shift=    0.000
 RMSDP=1.03D-08 MaxDP=4.11D-07 DE= 1.14D-11 OVMax= 2.17D-07

 Cycle   4  Pass 1  IDiag  1:
 RMSU=  5.88D-09    CP:  1.00D+00  1.02D+00  3.96D-01
 E= -847.003738666828     Delta-E=       -0.000000000035 Rises=F Damp=F
 DIIS: error= 8.06D-09 at cycle   4 NSaved=   4.
 NSaved= 4 IEnMin= 1 EnMin= -847.003738666968     IErMin= 4 ErrMin= 8.06D-09
 ErrMax= 8.06D-09  0.00D+00 EMaxC= 1.00D-01 BMatC= 2.07D-14 BMatP= 2.13D-13
 IDIUse=1 WtCom= 1.00D+00 WtEn= 0.00D+00
 Coeff-Com: -0.876D-02 0.309D+00 0.241D+00 0.459D+00
 Coeff:     -0.876D-02 0.309D+00 0.241D+00 0.459D+00
 Gap=     0.151 Goal=   None    Shift=    0.000
 RMSDP=4.04D-09 MaxDP=1.55D-07 DE=-3.46D-11 OVMax= 6.88D-08

 SCF Done:  E(RB3LYP) =  -847.003738667     A.U. after    4 cycles
            NFock=  4  Conv=0.40D-08     -V/T= 2.0049
 KE= 8.428349970566D+02 PE=-5.164192584015D+03 EE= 1.874438221195D+03
 Leave Link  502 at Tue Sep 15 13:36:40 2020, MaxMem=   131072000 cpu:      1043.8
 (Enter /share/programs/GAUSSIAN/64/g09/l801.exe)
 DoSCS=F DFT=T ScalE2(SS,OS)=  1.000000  1.000000
 Range of M.O.s used for correlation:     1   557
 NBasis=   568 NAE=    73 NBE=    73 NFC=     0 NFV=     0
 NROrb=    557 NOA=    73 NOB=    73 NVA=   484 NVB=   484

 **** Warning!!: The largest alpha MO coefficient is  0.14271943D+03

 Leave Link  801 at Tue Sep 15 13:36:40 2020, MaxMem=   131072000 cpu:         0.3
 (Enter /share/programs/GAUSSIAN/64/g09/l1002.exe)
 Minotr:  Closed shell wavefunction.
          Direct CPHF calculation.
          Differentiating once with respect to magnetic field using GIAOs.
          Electric field/nuclear overlap derivatives assumed to be zero.
          Requested convergence is 1.0D-08 RMS, and 1.0D-07 maximum.
          Secondary convergence is 1.0D-12 RMS, and 1.0D-12 maximum.
          NewPWx=T KeepS1=F KeepF1=F KeepIn=T MapXYZ=F SortEE=F KeepMc=T.
          MDV=     131069551 using IRadAn=       2.
 Generate precomputed XC quadrature information.
          Solving linear equations simultaneously, MaxMat=      72.
 FoFCou: FMM=F IPFlag=           0 FMFlag=      100000 FMFlg1=        2001
         NFxFlg=           0 DoJE=F BraDBF=F KetDBF=T FulRan=T
         wScrn=  0.000000 ICntrl=    6100 IOpCl=  0 I1Cent=           7 NGrid=         236
         NMat0=    1 NMatS0=      1 NMatT0=    0 NMatD0=    1 NMtDS0=    0 NMtDT0=    0
 Symmetry not used in FoFCou.
 FoFJK:  IHMeth= 1 ICntrl=    6127 DoSepK=F KAlg= 0 I1Cent=   0 FoldK=F
 IRaf=         1 NMat=   1 IRICut=       1 DoRegI=T DoRafI=F ISym2E= 0.
          There are     3 degrees of freedom in the 1st order CPHF.  IDoFFX=0 NUNeed=     3.
      3 vectors produced by pass  0 Test12= 1.18D-12 3.33D-08 XBig12= 1.96D+03 8.77D+00.
 AX will form     3 AO Fock derivatives at one time.
      3 vectors produced by pass  1 Test12= 1.18D-12 3.33D-08 XBig12= 3.18D+00 7.58D-01.
      3 vectors produced by pass  2 Test12= 1.18D-12 3.33D-08 XBig12= 1.86D-02 5.85D-02.
      3 vectors produced by pass  3 Test12= 1.18D-12 3.33D-08 XBig12= 4.29D-05 1.35D-03.
      3 vectors produced by pass  4 Test12= 1.18D-12 3.33D-08 XBig12= 9.75D-08 7.22D-05.
      3 vectors produced by pass  5 Test12= 1.18D-12 3.33D-08 XBig12= 3.97D-10 5.92D-06.
      3 vectors produced by pass  6 Test12= 1.18D-12 3.33D-08 XBig12= 1.51D-12 4.40D-07.
 InvSVY:  IOpt=1 It=  1 EMax= 3.55D-15
 Solved reduced A of dimension    21 with     3 vectors.
 Calculating GIAO nuclear magnetic shielding tensors.
 SCF GIAO Magnetic shielding tensor (ppm):
      1  C    Isotropic =    49.6861   Anisotropy =   149.7970
   XX=    46.3088   YX=   -25.0950   ZX=    31.4786
   XY=   -31.1109   YY=   -39.0339   ZY=    13.2621
   XZ=    24.9178   YZ=     8.9888   ZZ=   141.7833
   Eigenvalues:   -49.3507    48.8581   149.5507
      2  C    Isotropic =    49.6861   Anisotropy =   149.7971
   XX=    46.3088   YX=    25.0953   ZX=    31.4786
   XY=    31.1111   YY=   -39.0339   ZY=   -13.2621
   XZ=    24.9177   YZ=    -8.9889   ZZ=   141.7834
   Eigenvalues:   -49.3508    48.8583   149.5509
      3  C    Isotropic =    44.4899   Anisotropy =   204.7372
   XX=   -22.2199   YX=    10.8075   ZX=    51.2710
   XY=     4.9259   YY=   -14.7126   ZY=    14.7921
   XZ=    32.3655   YZ=    21.2392   ZZ=   170.4022
   Eigenvalues:   -31.9593   -15.5523   180.9814
      4  C    Isotropic =    44.4899   Anisotropy =   204.7373
   XX=   -22.2198   YX=   -10.8075   ZX=    51.2710
   XY=    -4.9256   YY=   -14.7126   ZY=   -14.7922
   XZ=    32.3656   YZ=   -21.2393   ZZ=   170.4023
   Eigenvalues:   -31.9592   -15.5524   180.9815
      5  C    Isotropic =    48.5420   Anisotropy =   189.5490
   XX=   -14.6790   YX=     4.7342   ZX=     8.4333
   XY=    20.3759   YY=    -5.5375   ZY=    31.5121
   XZ=    65.1218   YZ=     0.8640   ZZ=   165.8426
   Eigenvalues:   -26.3226    -2.9593   174.9080
      6  C    Isotropic =    48.5421   Anisotropy =   189.5489
   XX=   -14.6789   YX=    -4.7340   ZX=     8.4335
   XY=   -20.3758   YY=    -5.5374   ZY=   -31.5121
   XZ=    65.1218   YZ=    -0.8638   ZZ=   165.8426
   Eigenvalues:   -26.3224    -2.9594   174.9080
      7  C    Isotropic =    50.1907   Anisotropy =   149.2089
   XX=    19.7303   YX=   -44.2755   ZX=    41.2886
   XY=   -38.0437   YY=    -2.7069   ZY=    36.9011
   XZ=    36.5866   YZ=    37.5458   ZZ=   133.5487
   Eigenvalues:   -49.6656    50.5744   149.6633
      8  C    Isotropic =    48.9362   Anisotropy =   152.4339
   XX=   -31.5093   YX=   -11.4921   ZX=    54.7730
   XY=   -19.0468   YY=    46.5898   ZY=    27.5522
   XZ=    42.2451   YZ=    29.8391   ZZ=   131.7282
   Eigenvalues:   -50.1461    46.3960   150.5589
      9  C    Isotropic =    44.4204   Anisotropy =   209.3981
   XX=   -10.1987   YX=    16.7536   ZX=    44.4888
   XY=     8.9342   YY=    -7.7270   ZY=    61.4651
   XZ=    43.3269   YZ=    64.9792   ZZ=   151.1869
   Eigenvalues:   -30.3689   -20.3891   184.0192
     10  C    Isotropic =    45.3894   Anisotropy =   198.3236
   XX=    -5.9706   YX=    23.3819   ZX=    35.6519
   XY=    38.1954   YY=     1.7271   ZY=    73.1370
   XZ=    54.0013   YZ=    45.7045   ZZ=   140.4116
   Eigenvalues:   -33.5315    -7.9055   177.6051
     11  H    Isotropic =    23.8179   Anisotropy =     7.5674
   XX=    27.2191   YX=    -1.9090   ZX=    -2.2602
   XY=    -1.7961   YY=    24.8722   ZY=    -0.1966
   XZ=    -3.3763   YZ=    -0.1950   ZZ=    19.3625
   Eigenvalues:    18.3647    24.2263    28.8628
     12  H    Isotropic =    23.8179   Anisotropy =     7.5674
   XX=    27.2191   YX=     1.9090   ZX=    -2.2602
   XY=     1.7961   YY=    24.8722   ZY=     0.1966
   XZ=    -3.3763   YZ=     0.1950   ZZ=    19.3625
   Eigenvalues:    18.3647    24.2263    28.8628
     13  H    Isotropic =    23.8548   Anisotropy =     7.5124
   XX=    26.7195   YX=    -2.1358   ZX=    -2.0755
[...]
   115  Bq   0.000000
   116  Bq   0.000000
   117  Bq   0.000000
   118  Bq   0.000000
   119  Bq   0.000000
   120  Bq   0.000000
   121  Bq   0.000000
   122  Bq   0.000000
   123  Bq   0.000000
   124  Bq   0.000000
   125  Bq   0.000000
   126  Bq   0.000000
   127  Bq   0.000000
   128  Bq   0.000000
   129  Bq   0.000000
   130  Bq   0.000000
   131  Bq   0.000000
   132  Bq   0.000000
   133  Bq   0.000000
   134  Bq   0.000000
   135  Bq   0.000000
   136  Bq   0.000000
   137  Bq   0.000000
   138  Bq   0.000000
   139  Bq   0.000000
   140  Bq   0.000000
   141  Bq   0.000000
   142  Bq   0.000000
   143  Bq   0.000000
   144  Bq   0.000000
   145  Bq   0.000000
   146  Bq   0.000000
   147  Bq   0.000000
   148  Bq   0.000000
   149  Bq   0.000000
   150  Bq   0.000000
   151  Bq   0.000000
   152  Bq   0.000000
   153  Bq   0.000000
   154  Bq   0.000000
   155  Bq   0.000000
   156  Bq   0.000000
   157  Bq   0.000000
   158  Bq   0.000000
   159  Bq   0.000000
   160  Bq   0.000000
   161  Bq   0.000000
   162  Bq   0.000000
   163  Bq   0.000000
   164  Bq   0.000000
   165  Bq   0.000000
   166  Bq   0.000000
   167  Bq   0.000000
   168  Bq   0.000000
   169  Bq   0.000000
   170  Bq   0.000000
   171  Bq   0.000000
   172  Bq   0.000000
   173  Bq   0.000000
   174  Bq   0.000000
   175  Bq   0.000000
   176  Bq   0.000000
   177  Bq   0.000000
   178  Bq   0.000000
   179  Bq   0.000000
   180  Bq   0.000000
   181  Bq   0.000000
   182  Bq   0.000000
   183  Bq   0.000000
   184  Bq   0.000000
   185  Bq   0.000000
   186  Bq   0.000000
   187  Bq   0.000000
   188  Bq   0.000000
   189  Bq   0.000000
   190  Bq   0.000000
   191  Bq   0.000000
   192  Bq   0.000000
   193  Bq   0.000000
   194  Bq   0.000000
   195  Bq   0.000000
   196  Bq   0.000000
   197  Bq   0.000000
   198  Bq   0.000000
   199  Bq   0.000000
   200  Bq   0.000000
   201  Bq   0.000000
   202  Bq   0.000000
   203  Bq   0.000000
   204  Bq   0.000000
   205  Bq   0.000000
   206  Bq   0.000000
   207  Bq   0.000000
   208  Bq   0.000000
   209  Bq   0.000000
   210  Bq   0.000000
   211  Bq   0.000000
   212  Bq   0.000000
   213  Bq   0.000000
   214  Bq   0.000000
   215  Bq   0.000000
   216  Bq   0.000000
   217  Bq   0.000000
   218  Bq   0.000000
   219  Bq   0.000000
   220  Bq   0.000000
   221  Bq   0.000000
   222  Bq   0.000000
   223  Bq   0.000000
   224  Bq   0.000000
   225  Bq   0.000000
   226  Bq   0.000000
   227  Bq   0.000000
   228  Bq   0.000000
   229  Bq   0.000000
   230  Bq   0.000000
   231  Bq   0.000000
   232  Bq   0.000000
   233  Bq   0.000000
   234  Bq   0.000000
   235  Bq   0.000000
   236  Bq   0.000000
 Sum of Mulliken charges =   0.00000
 Mulliken charges with hydrogens summed into heavy atoms:
               1
     1  C   -0.262865
     2  C   -0.262866
     3  C    0.737923
     4  C    0.737922
     5  C   -0.039994
     6  C   -0.040001
     7  C    0.075155
     8  C   -0.330147
     9  C    0.780501
    10  C   -0.200782
    15  C    0.249272
    16  C   -0.533462
    17  C   -0.189404
    18  C   -0.286191
    23  C   -0.330145
    24  C    0.075154
    25  C    0.780496
    26  C   -0.200782
    27  C    0.249273
    28  C   -0.286192
    29  C   -0.189403
    30  C   -0.533462
    37  Bq   0.000000
    38  Bq   0.000000
    39  Bq   0.000000
    40  Bq   0.000000
    41  Bq   0.000000
    42  Bq   0.000000
    43  Bq   0.000000
    44  Bq   0.000000
    45  Bq   0.000000
    46  Bq   0.000000
    47  Bq   0.000000
    48  Bq   0.000000
    49  Bq   0.000000
    50  Bq   0.000000
    51  Bq   0.000000
    52  Bq   0.000000
    53  Bq   0.000000
    54  Bq   0.000000
    55  Bq   0.000000
    56  Bq   0.000000
    57  Bq   0.000000
    58  Bq   0.000000
    59  Bq   0.000000
    60  Bq   0.000000
    61  Bq   0.000000
    62  Bq   0.000000
    63  Bq   0.000000
    64  Bq   0.000000
    65  Bq   0.000000
    66  Bq   0.000000
    67  Bq   0.000000
    68  Bq   0.000000
    69  Bq   0.000000
    70  Bq   0.000000
    71  Bq   0.000000
    72  Bq   0.000000
    73  Bq   0.000000
    74  Bq   0.000000
    75  Bq   0.000000
    76  Bq   0.000000
    77  Bq   0.000000
    78  Bq   0.000000
    79  Bq   0.000000
    80  Bq   0.000000
    81  Bq   0.000000
    82  Bq   0.000000
    83  Bq   0.000000
    84  Bq   0.000000
    85  Bq   0.000000
    86  Bq   0.000000
    87  Bq   0.000000
    88  Bq   0.000000
    89  Bq   0.000000
    90  Bq   0.000000
    91  Bq   0.000000
    92  Bq   0.000000
    93  Bq   0.000000
    94  Bq   0.000000
    95  Bq   0.000000
    96  Bq   0.000000
    97  Bq   0.000000
    98  Bq   0.000000
    99  Bq   0.000000
   100  Bq   0.000000
   101  Bq   0.000000
   102  Bq   0.000000
   103  Bq   0.000000
   104  Bq   0.000000
   105  Bq   0.000000
   106  Bq   0.000000
   107  Bq   0.000000
   108  Bq   0.000000
   109  Bq   0.000000
   110  Bq   0.000000
   111  Bq   0.000000
   112  Bq   0.000000
   113  Bq   0.000000
   114  Bq   0.000000
   115  Bq   0.000000
   116  Bq   0.000000
   117  Bq   0.000000
   118  Bq   0.000000
   119  Bq   0.000000
   120  Bq   0.000000
   121  Bq   0.000000
   122  Bq   0.000000
   123  Bq   0.000000
   124  Bq   0.000000
   125  Bq   0.000000
   126  Bq   0.000000
   127  Bq   0.000000
   128  Bq   0.000000
   129  Bq   0.000000
   130  Bq   0.000000
   131  Bq   0.000000
   132  Bq   0.000000
   133  Bq   0.000000
   134  Bq   0.000000
   135  Bq   0.000000
   136  Bq   0.000000
   137  Bq   0.000000
   138  Bq   0.000000
   139  Bq   0.000000
   140  Bq   0.000000
   141  Bq   0.000000
   142  Bq   0.000000
   143  Bq   0.000000
   144  Bq   0.000000
   145  Bq   0.000000
   146  Bq   0.000000
   147  Bq   0.000000
   148  Bq   0.000000
   149  Bq   0.000000
   150  Bq   0.000000
   151  Bq   0.000000
   152  Bq   0.000000
   153  Bq   0.000000
   154  Bq   0.000000
   155  Bq   0.000000
   156  Bq   0.000000
   157  Bq   0.000000
   158  Bq   0.000000
   159  Bq   0.000000
   160  Bq   0.000000
   161  Bq   0.000000
   162  Bq   0.000000
   163  Bq   0.000000
   164  Bq   0.000000
   165  Bq   0.000000
   166  Bq   0.000000
   167  Bq   0.000000
   168  Bq   0.000000
   169  Bq   0.000000
   170  Bq   0.000000
   171  Bq   0.000000
   172  Bq   0.000000
   173  Bq   0.000000
   174  Bq   0.000000
   175  Bq   0.000000
   176  Bq   0.000000
   177  Bq   0.000000
   178  Bq   0.000000
   179  Bq   0.000000
   180  Bq   0.000000
   181  Bq   0.000000
   182  Bq   0.000000
   183  Bq   0.000000
   184  Bq   0.000000
   185  Bq   0.000000
   186  Bq   0.000000
   187  Bq   0.000000
   188  Bq   0.000000
   189  Bq   0.000000
   190  Bq   0.000000
   191  Bq   0.000000
   192  Bq   0.000000
   193  Bq   0.000000
   194  Bq   0.000000
   195  Bq   0.000000
   196  Bq   0.000000
   197  Bq   0.000000
   198  Bq   0.000000
   199  Bq   0.000000
   200  Bq   0.000000
   201  Bq   0.000000
   202  Bq   0.000000
   203  Bq   0.000000
   204  Bq   0.000000
   205  Bq   0.000000
   206  Bq   0.000000
   207  Bq   0.000000
   208  Bq   0.000000
   209  Bq   0.000000
   210  Bq   0.000000
   211  Bq   0.000000
   212  Bq   0.000000
   213  Bq   0.000000
   214  Bq   0.000000
   215  Bq   0.000000
   216  Bq   0.000000
   217  Bq   0.000000
   218  Bq   0.000000
   219  Bq   0.000000
   220  Bq   0.000000
   221  Bq   0.000000
   222  Bq   0.000000
   223  Bq   0.000000
   224  Bq   0.000000
   225  Bq   0.000000
   226  Bq   0.000000
   227  Bq   0.000000
   228  Bq   0.000000
   229  Bq   0.000000
   230  Bq   0.000000
   231  Bq   0.000000
   232  Bq   0.000000
   233  Bq   0.000000
   234  Bq   0.000000
   235  Bq   0.000000
   236  Bq   0.000000
 Electronic spatial extent (au):  <R**2>=           5804.3227
 Charge=              0.0000 electrons
 Dipole moment (field-independent basis, Debye):
    X=              0.0000    Y=              0.0732    Z=              0.0000  Tot=              0.0732
 Quadrupole moment (field-independent basis, Debye-Ang):
   XX=           -113.9137   YY=           -113.9781   ZZ=           -133.4378
   XY=              0.0000   XZ=             -4.8717   YZ=              0.0000
 Traceless Quadrupole moment (field-independent basis, Debye-Ang):
   XX=              6.5295   YY=              6.4651   ZZ=            -12.9946
   XY=              0.0000   XZ=             -4.8717   YZ=              0.0000
 Octapole moment (field-independent basis, Debye-Ang**2):
  XXX=              0.0000  YYY=             11.7108  ZZZ=              0.0000  XYY=              0.0000
  XXY=             -6.4067  XXZ=              0.0000  XZZ=              0.0000  YZZ=             -7.8695
  YYZ=              0.0000  XYZ=            -16.2862
 Hexadecapole moment (field-independent basis, Debye-Ang**3):
 XXXX=          -4416.4021 YYYY=          -2784.9756 ZZZZ=           -481.5690 XXXY=              0.0001
 XXXZ=           -124.3517 YYYX=             -0.0003 YYYZ=              0.0001 ZZZX=             -4.4782
 ZZZY=              0.0001 XXYY=          -1189.3576 XXZZ=           -942.9016 YYZZ=           -589.4012
 XXYZ=              0.0000 YYXZ=              7.8297 ZZXY=             -0.0001
 N-N= 1.599915627097D+03 E-N=-5.164192587538D+03  KE= 8.428349970566D+02
 Leave Link  601 at Tue Sep 15 13:47:30 2020, MaxMem=   131072000 cpu:         0.8
 (Enter /share/programs/GAUSSIAN/64/g09/l9999.exe)
 1\1\GINC-URBICANDE\SP\RB3LYP\6-311+G(d,p)\C22H14\AARTIGAS\15-Sep-2020\
 0\\#P rb3lyp/6-311+g** NMR Guess=Read geom=connectivity\\Title\\0,1\C,
 0,0.653241,3.257859,-0.20251\C,0,-0.653243,3.25786,0.20251\C,0,1.37249
 5,2.032956,-0.320807\C,0,-1.372495,2.032956,0.320807\C,0,0.722474,0.79
 5666,-0.050388\C,0,-0.722474,0.795667,0.050387\C,0,2.760385,2.053927,-
 0.674268\C,0,3.508866,0.913916,-0.671362\C,0,2.955226,-0.309622,-0.177
 479\C,0,1.574722,-0.361114,0.197094\H,0,1.183427,4.19574,-0.384599\H,0
 ,-1.183429,4.19574,0.384599\H,0,3.206283,3.012423,-0.951392\H,0,4.5600
 23,0.932956,-0.969333\C,0,3.78302,-1.443098,0.028309\C,0,1.137427,-1.5
 07533,0.912109\C,0,1.973691,-2.584349,1.138062\C,0,3.301853,-2.571588,
 0.661177\H,0,4.825754,-1.39123,-0.295484\H,0,0.124652,-1.532788,1.3084
 72\H,0,1.603586,-3.445682,1.698977\H,0,3.952742,-3.433526,0.825134\C,0
 ,-3.508866,0.913915,0.671362\C,0,-2.760386,2.053926,0.674268\C,0,-2.95
 5226,-0.309623,0.177479\C,0,-1.574722,-0.361114,-0.197094\C,0,-3.78302
 ,-1.443099,-0.028309\C,0,-3.301852,-2.571589,-0.661177\C,0,-1.97369,-2
 .584349,-1.138061\C,0,-1.137426,-1.507534,-0.912109\H,0,-4.560022,0.93
 2954,0.969334\H,0,-3.206283,3.012421,0.951392\H,0,-4.825754,-1.391232,
 0.295484\H,0,-3.952741,-3.433528,-0.825134\H,0,-1.603585,-3.445682,-1.
 698976\H,0,-0.124652,-1.532788,-1.308471\Bq,0,4.0693956406,-2.28931981
 13,-0.6866608614\Bq,0,4.0788812483,-2.2751235961,-0.6866608614\Bq,0,4.
 0864327274,-2.2598107113,-0.6866608614\Bq,0,4.0919208701,-2.2436431644
 ,-0.6866608614\Bq,0,4.0952517726,-2.2268975869,-0.6866608614\Bq,0,3.92
 65778,-0.2594156,0.5829302\Bq,0,3.9265778,-0.2594156,0.5829302\Bq,0,3.
 9265778,-0.2594156,0.5829302\Bq,0,3.9265778,-0.2594156,0.5829302\Bq,0,
 3.9265778,-0.2594156,0.5829302\Bq,0,3.9265778,-0.2594156,0.5829302\Bq,
 0,3.9265778,-0.2594156,0.5829302\Bq,0,3.9265778,-0.2594156,0.5829302\B
 q,0,3.9265778,-0.2594156,0.5829302\Bq,0,3.9265778,-0.2594156,0.5829302
 \Bq,0,3.9265778,-0.2594156,0.5829302\Bq,0,3.9265778,-0.2594156,0.58293
 02\Bq,0,3.9265778,-0.2594156,0.5829302\Bq,0,3.9265778,-0.2594156,0.582
 9302\Bq,0,3.9265778,-0.2594156,0.5829302\Bq,0,3.9265778,-0.2594156,0.5
 829302\Bq,0,3.9265778,-0.2594156,0.5829302\Bq,0,3.9265778,-0.2594156,0
 .5829302\Bq,0,3.9265778,-0.2594156,0.5829302\Bq,0,3.9265778,-0.2594156
 ,0.5829302\Bq,0,3.9265778,-0.2594156,0.5829302\Bq,0,3.9265778,-0.25941
 56,0.5829302\Bq,0,3.9265778,-0.2594156,0.5829302\Bq,0,3.9265778,-0.259
 4156,0.5829302\Bq,0,3.9265778,-0.2594156,0.5829302\Bq,0,3.9265778,-0.2
 594156,0.5829302\Bq,0,3.9265778,-0.2594156,0.5829302\Bq,0,3.9265778,-0
 .2594156,0.5829302\Bq,0,3.9265778,-0.2594156,0.5829302\Bq,0,3.9265778,
 -0.2594156,0.5829302\Bq,0,3.9265778,-0.2594156,0.5829302\Bq,0,3.926577
 8,-0.2594156,0.5829302\Bq,0,3.9265778,-0.2594156,0.5829302\Bq,0,3.9265
 778,-0.2594156,0.5829302\Bq,0,3.9265778,-0.2594156,0.5829302\Bq,0,3.92
 65778,-0.2594156,0.5829302\Bq,0,3.9265778,-0.2594156,0.5829302\Bq,0,3.
 9265778,-0.2594156,0.5829302\Bq,0,3.9265778,-0.2594156,0.5829302\Bq,0,
 3.9265778,-0.2594156,0.5829302\Bq,0,3.9265778,-0.2594156,0.5829302\Bq,
 0,3.9265778,-0.2594156,0.5829302\Bq,0,3.9265778,-0.2594156,0.5829302\B
 q,0,3.9265778,-0.2594156,0.5829302\Bq,0,3.9265778,-0.2594156,0.5829302
 \Bq,0,3.9265778,-0.2594156,0.5829302\Bq,0,3.9265778,-0.2594156,0.58293
 02\Bq,0,3.9265778,-0.2594156,0.5829302\Bq,0,4.0571039922,-0.2594156,0.
 5743750614\Bq,0,4.0559873226,-0.2423785131,0.5743750614\Bq,0,4.0526564
 201,-0.2256329356,0.5743750614\Bq,0,4.0471682774,-0.2094653887,0.57437
 50614\Bq,0,4.0396167983,-0.1941525039,0.5743750614\Bq,0,4.0301311906,-
 0.1799562887,0.5743750614\Bq,0,4.0188737556,-0.1671196444,0.5743750614
 \Bq,0,4.0060371113,-0.1558622094,0.5743750614\Bq,0,3.9918408961,-0.146
 3766017,0.5743750614\Bq,0,3.9765280113,-0.1388251226,0.5743750614\Bq,0
 ,3.9603604644,-0.1333369799,0.5743750614\Bq,0,3.9436148869,-0.13000607
 74,0.5743750614\Bq,0,3.9265778,-0.1288894078,0.5743750614\Bq,0,3.90954
 07131,-0.1300060774,0.5743750614\Bq,0,3.8927951356,-0.1333369799,0.574
 3750614\Bq,0,3.8766275887,-0.1388251226,0.5743750614\Bq,0,3.8613147039
 ,-0.1463766017,0.5743750614\Bq,0,3.8471184887,-0.1558622094,0.57437506
 14\Bq,0,3.8342818444,-0.1671196444,0.5743750614\Bq,0,3.8230244094,-0.1
 799562887,0.5743750614\Bq,0,3.8135388017,-0.1941525039,0.5743750614\Bq
 ,0,3.8059873226,-0.2094653887,0.5743750614\Bq,0,3.8004991799,-0.225632
 9356,0.5743750614\Bq,0,3.7971682774,-0.2423785131,0.5743750614\Bq,0,3.
 7960516078,-0.2594156,0.5743750614\Bq,0,3.7971682774,-0.2764526869,0.5
 743750614\Bq,0,3.8004991799,-0.2931982644,0.5743750614\Bq,0,3.80598732
 26,-0.3093658113,0.5743750614\Bq,0,3.8135388017,-0.3246786961,0.574375
 0614\Bq,0,3.8230244094,-0.3388749113,0.5743750614\Bq,0,3.8342818444,-0
 .3517115556,0.5743750614\Bq,0,3.8471184887,-0.3629689906,0.5743750614\
 Bq,0,3.8613147039,-0.3724545983,0.5743750614\Bq,0,3.8766275887,-0.3800
 060774,0.5743750614\Bq,0,3.8927951356,-0.3854942201,0.5743750614\Bq,0,
 3.9095407131,-0.3888251226,0.5743750614\Bq,0,3.9265778,-0.3899417922,0
 .5743750614\Bq,0,3.9436148869,-0.3888251226,0.5743750614\Bq,0,3.960360
 4644,-0.3854942201,0.5743750614\Bq,0,3.9765280113,-0.3800060774,0.5743
 750614\Bq,0,3.9918408961,-0.3724545983,0.5743750614\Bq,0,4.0060371113,
 -0.3629689906,0.5743750614\Bq,0,4.0188737556,-0.3517115556,0.574375061
 4\Bq,0,4.0301311906,-0.3388749113,0.5743750614\Bq,0,4.0396167983,-0.32
 46786961,0.5743750614\Bq,0,4.0471682774,-0.3093658113,0.5743750614\Bq,
 0,4.0526564201,-0.2931982644,0.5743750614\Bq,0,4.0559873226,-0.2764526
 869,0.5743750614\Bq,0,4.1853968451,-0.2594156,0.5488560263\Bq,0,4.1831
 826123,-0.2256329356,0.5488560263\Bq,0,4.1765778,-0.1924283019,0.54885
 60263\Bq,0,4.1656954184,-0.1603698395,0.5488560263\Bq,0,4.150721668,-0
 .1300060774,0.5488560263\Bq,0,4.131912754,-0.1018565482,0.5488560263\B
 q,0,4.1095905019,-0.0764028981,0.5488560263\Bq,0,4.0841368518,-0.05408
 0646,0.5488560263\Bq,0,4.0559873226,-0.035271732,0.5488560263\Bq,0,4.0
 256235605,-0.0202979816,0.5488560263\Bq,0,3.9935650981,-0.0094156,0.54
 88560263\Bq,0,3.9603604644,-0.0028107877,0.5488560263\Bq,0,3.9265778,-
 0.0005965549,0.5488560263\Bq,0,3.8927951356,-0.0028107877,0.5488560263
 \Bq,0,3.8595905019,-0.0094156,0.5488560263\Bq,0,3.8275320395,-0.020297
 9816,0.5488560263\Bq,0,3.7971682774,-0.035271732,0.5488560263\Bq,0,3.7
 690187482,-0.054080646,0.5488560263\Bq,0,3.7435650981,-0.0764028981,0.
 5488560263\Bq,0,3.721242846,-0.1018565482,0.5488560263\Bq,0,3.70243393
 2,-0.1300060774,0.5488560263\Bq,0,3.6874601816,-0.1603698395,0.5488560
 263\Bq,0,3.6765778,-0.1924283019,0.5488560263\Bq,0,3.6699729877,-0.225
 6329356,0.5488560263\Bq,0,3.6677587549,-0.2594156,0.5488560263\Bq,0,3.
 6699729877,-0.2931982644,0.5488560263\Bq,0,3.6765778,-0.3264028981,0.5
 488560263\Bq,0,3.6874601816,-0.3584613605,0.5488560263\Bq,0,3.70243393
 2,-0.3888251226,0.5488560263\Bq,0,3.721242846,-0.4169746518,0.54885602
 63\Bq,0,3.7435650981,-0.4424283019,0.5488560263\Bq,0,3.7690187482,-0.4
 64750554,0.5488560263\Bq,0,3.7971682774,-0.483559468,0.5488560263\Bq,0
 ,3.8275320395,-0.4985332184,0.5488560263\Bq,0,3.8595905019,-0.5094156,
 0.5488560263\Bq,0,3.8927951356,-0.5160204123,0.5488560263\Bq,0,3.92657
 78,-0.5182346451,0.5488560263\Bq,0,3.9603604644,-0.5160204123,0.548856
 0263\Bq,0,3.9935650981,-0.5094156,0.5488560263\Bq,0,4.0256235605,-0.49
 85332184,0.5488560263\Bq,0,4.0559873226,-0.483559468,0.5488560263\Bq,0
 ,4.0841368518,-0.464750554,0.5488560263\Bq,0,4.1095905019,-0.442428301
 9,0.5488560263\Bq,0,4.131912754,-0.4169746518,0.5488560263\Bq,0,4.1507
 21668,-0.3888251226,0.5488560263\Bq,0,4.1656954184,-0.3584613605,0.548
 8560263\Bq,0,4.1765778,-0.3264028981,0.5488560263\Bq,0,4.1831826123,-0
 .2931982644,0.5488560263\Bq,0,4.3092612324,-0.2594156,0.5068097325\Bq,
 0,4.3059873226,-0.2094653887,0.5068097325\Bq,0,4.2962216106,-0.1603698
 395,0.5068097325\Bq,0,4.2801311906,-0.1129689906,0.5068097325\Bq,0,4.2
 57991374,-0.0680738838,0.5068097325\Bq,0,4.2301809793,-0.0264526869,0.
 5068097325\Bq,0,4.1971758501,0.0111824501,0.5068097325\Bq,0,4.15954071
 31,0.0441875793,0.5068097325\Bq,0,4.1179195162,0.071997974,0.506809732
 5\Bq,0,4.0730244094,0.0941377906,0.5068097325\Bq,0,4.0256235605,0.1102
 282106,0.5068097325\Bq,0,3.9765280113,0.1199939226,0.5068097325\Bq,0,3
 .9265778,0.1232678324,0.5068097325\Bq,0,3.8766275887,0.1199939226,0.50
 68097325\Bq,0,3.8275320395,0.1102282106,0.5068097325\Bq,0,3.7801311906
 ,0.0941377906,0.5068097325\Bq,0,3.7352360838,0.071997974,0.5068097325\
 Bq,0,3.6936148869,0.0441875793,0.5068097325\Bq,0,3.6559797499,0.011182
 4501,0.5068097325\Bq,0,3.6559797499,-0.5300136501,0.5068097325\Bq,0,3.
 6936148869,-0.5630187793,0.5068097325\Bq,0,4.0730244094,-0.6129689906,
 0.5068097325\Bq,0,4.1179195162,-0.590829174,0.5068097325\Bq,0,4.159540
 7131,-0.5630187793,0.5068097325\Bq,0,4.1971758501,-0.5300136501,0.5068
 097325\Bq,0,4.2301809793,-0.4923785131,0.5068097325\Bq,0,4.257991374,-
 0.4507573162,0.5068097325\Bq,0,4.2801311906,-0.4058622094,0.5068097325
 \Bq,0,4.2962216106,-0.3584613605,0.5068097325\Bq,0,4.3059873226,-0.309
 3658113,0.5068097325\Bq,0,4.4265778,-0.2594156,0.4489556038\Bq,0,4.422
 3002307,-0.1941525039,0.4489556038\Bq,0,4.4095407131,-0.1300060774,0.4
 489556038\Bq,0,4.3885175663,-0.0680738838,0.4489556038\Bq,0,4.35959050
 19,-0.0094156,0.4489556038\Bq,0,4.3232544701,0.0449651145,0.4489556038
 \Bq,0,4.2801311906,0.0941377906,0.4489556038\Bq,0,4.2309585145,0.13726
 10701,0.4489556038\Bq,0,4.1765778,0.1735971019,0.4489556038\Bq,0,4.117
 9195162,0.2025241663,0.4489556038\Bq,0,4.0559873226,0.2235473131,0.448
 9556038\Bq,0,3.9918408961,0.2363068307,0.4489556038\Bq,0,3.9265778,0.2
 405844,0.4489556038\Bq,0,3.8613147039,0.2363068307,0.4489556038\Bq,0,3
 .7971682774,0.2235473131,0.4489556038\Bq,0,3.7352360838,0.2025241663,0
 .4489556038\Bq,0,3.6765778,0.1735971019,0.4489556038\Bq,0,3.6221970855
 ,0.1372610701,0.4489556038\Bq,0,4.2801311906,-0.6129689906,0.448955603
 8\Bq,0,4.3232544701,-0.5637963145,0.4489556038\Bq,0,4.3595905019,-0.50
 94156,0.4489556038\\Version=ES64L-G09RevD.01\HF=-847.0037387\RMSD=4.04
 4e-09\Dipole=0.0000004,0.0287843,0.0000009\Quadrupole=4.8545288,4.8066
 247,-9.6611535,-0.0000047,-3.6219991,-0.000002\PG=C01 [X(C22H14)]\\@


 IF YOU PERCEIVE THAT THERE ARE FOUR POSSIBLE WAYS IN
 WHICH A PROCEDURE CAN GO WRONG AND CIRCUMVENT THESE, 
 THEN A FIFTH WAY WILL DEVELOP.

                              -- MURPHY'S TWELFTH LAW
 Job cpu time:       0 days  1 hours 42 minutes  5.6 seconds.
 File lengths (MBytes):  RWF=    184 Int=      0 D2E=      0 Chk=     21 Scr=      1
 Normal termination of Gaussian 09 at Tue Sep 15 13:47:30 2020.
