 Entering Gaussian System, Link 0=g09
 Input=input_batch_00600.com
 Output=input_batch_00600.log
 Initial command:
 /share/programs/GAUSSIAN/64/g09/l1.exe "/scratch/aartigas.38764/Gau-11424.inp" -scrdir="/scratch/aartigas.38764/"
 Entering Link 1 = /share/programs/GAUSSIAN/64/g09/l1.exe PID=     11435.
  
 Copyright (c) 1988,1990,1992,1993,1995,1998,2003,2009,2013,
            Gaussian, Inc.  All Rights Reserved.
  
 This is part of the Gaussian(R) 09 program.  It is based on
 the Gaussian(R) 03 system (copyright 2003, Gaussian, Inc.),
 the Gaussian(R) 98 system (copyright 1998, Gaussian, Inc.),
 the Gaussian(R) 94 system (copyright 1995, Gaussian, Inc.),
 the Gaussian 92(TM) system (copyright 1992, Gaussian, Inc.),
 the Gaussian 90(TM) system (copyright 1990, Gaussian, Inc.),
 the Gaussian 88(TM) system (copyright 1988, Gaussian, Inc.),
 the Gaussian 86(TM) system (copyright 1986, Carnegie Mellon
 University), and the Gaussian 82(TM) system (copyright 1983,
 Carnegie Mellon University). Gaussian is a federally registered
 trademark of Gaussian, Inc.
  
 This software contains proprietary and confidential information,
 including trade secrets, belonging to Gaussian, Inc.
  
 This software is provided under written license and may be
 used, copied, transmitted, or stored only in accord with that
 written license.
  
 The following legend is applicable only to US Government
 contracts under FAR:
  
                    RESTRICTED RIGHTS LEGEND
  
 Use, reproduction and disclosure by the US Government is
 subject to restrictions as set forth in subparagraphs (a)
 and (c) of the Commercial Computer Software - Restricted
 Rights clause in FAR 52.227-19.
  
 Gaussian, Inc.
 340 Quinnipiac St., Bldg. 40, Wallingford CT 06492
  
  
 ---------------------------------------------------------------
 Warning -- This program may not be used in any manner that
 competes with the business of Gaussian, Inc. or will provide
 assistance to any competitor of Gaussian, Inc.  The licensee
 of this program is prohibited from giving any competitor of
 Gaussian, Inc. access to this program.  By using this program,
 the user acknowledges that Gaussian, Inc. is engaged in the
 business of creating and licensing software in the field of
 computational chemistry and represents and warrants to the
 licensee that it is not a competitor of Gaussian, Inc. and that
 it will not use this program in any manner prohibited above.
 ---------------------------------------------------------------
  

 Cite this work as:
 Gaussian 09, Revision D.01,
 M. J. Frisch, G. W. Trucks, H. B. Schlegel, G. E. Scuseria, 
 M. A. Robb, J. R. Cheeseman, G. Scalmani, V. Barone, B. Mennucci, 
 G. A. Petersson, H. Nakatsuji, M. Caricato, X. Li, H. P. Hratchian, 
 A. F. Izmaylov, J. Bloino, G. Zheng, J. L. Sonnenberg, M. Hada, 
 M. Ehara, K. Toyota, R. Fukuda, J. Hasegawa, M. Ishida, T. Nakajima, 
 Y. Honda, O. Kitao, H. Nakai, T. Vreven, J. A. Montgomery, Jr., 
 J. E. Peralta, F. Ogliaro, M. Bearpark, J. J. Heyd, E. Brothers, 
 K. N. Kudin, V. N. Staroverov, T. Keith, R. Kobayashi, J. Normand, 
 K. Raghavachari, A. Rendell, J. C. Burant, S. S. Iyengar, J. Tomasi, 
 M. Cossi, N. Rega, J. M. Millam, M. Klene, J. E. Knox, J. B. Cross, 
 V. Bakken, C. Adamo, J. Jaramillo, R. Gomperts, R. E. Stratmann, 
 O. Yazyev, A. J. Austin, R. Cammi, C. Pomelli, J. W. Ochterski, 
 R. L. Martin, K. Morokuma, V. G. Zakrzewski, G. A. Voth, 
 P. Salvador, J. J. Dannenberg, S. Dapprich, A. D. Daniels, 
 O. Farkas, J. B. Foresman, J. V. Ortiz, J. Cioslowski, 
 and D. J. Fox, Gaussian, Inc., Wallingford CT, 2013.
 
 ******************************************
 Gaussian 09:  ES64L-G09RevD.01 24-Apr-2013
                15-Sep-2020 
 ******************************************
 %OldChk=/home/aartigas/chk/5_helicene_spe.chk
 %nproc=8
 Will use up to    8 processors via shared memory.
 %mem=1000MB
 Copying data from "/home/aartigas/chk/5_helicene_spe.chk" to current chk file "/scratch/aartigas.38764/Gau-11435.chk".
 ----------------------------------------------------
 #P rb3lyp/6-311+g** NMR Guess=Read geom=connectivity
 ----------------------------------------------------
 1/38=1,57=2/1;
 2/12=2,17=6,18=5,40=1/2;
 3/5=4,6=6,7=111,11=2,16=1,25=1,30=1,74=-5,116=1/1,2,8,3;
 4/5=1/1;
 5/5=2,38=6/2;
 8/6=1,10=90,11=11/1;
 10/13=100,45=16/2;
 6/7=2,8=2,9=2,10=2,28=1/1;
 99/9=1/99;
 Leave Link    1 at Tue Sep 15 10:30:52 2020, MaxMem=   131072000 cpu:         3.1
 (Enter /share/programs/GAUSSIAN/64/g09/l101.exe)
 -----
 Title
 -----
 Symbolic Z-matrix:
 Charge =  0 Multiplicity = 1
 C                     0.65324   3.25786  -0.20251 
 C                    -0.65324   3.25786   0.20251 
 C                     1.3725    2.03296  -0.32081 
 C                    -1.3725    2.03296   0.32081 
 C                     0.72247   0.79567  -0.05039 
 C                    -0.72247   0.79567   0.05039 
 C                     2.76039   2.05393  -0.67427 
 C                     3.50887   0.91392  -0.67136 
 C                     2.95523  -0.30962  -0.17748 
 C                     1.57472  -0.36111   0.19709 
 H                     1.18343   4.19574  -0.3846 
 H                    -1.18343   4.19574   0.3846 
 H                     3.20628   3.01242  -0.95139 
 H                     4.56002   0.93296  -0.96933 
 C                     3.78302  -1.4431    0.02831 
 C                     1.13743  -1.50753   0.91211 
 C                     1.97369  -2.58435   1.13806 
 C                     3.30185  -2.57159   0.66118 
 H                     4.82575  -1.39123  -0.29548 
 H                     0.12465  -1.53279   1.30847 
 H                     1.60359  -3.44568   1.69898 
 H                     3.95274  -3.43353   0.82513 
 C                    -3.50887   0.91392   0.67136 
 C                    -2.76039   2.05393   0.67427 
 C                    -2.95523  -0.30962   0.17748 
 C                    -1.57472  -0.36111  -0.19709 
 C                    -3.78302  -1.4431   -0.02831 
 C                    -3.30185  -2.57159  -0.66118 
 C                    -1.97369  -2.58435  -1.13806 
 C                    -1.13743  -1.50753  -0.91211 
 H                    -4.56002   0.93295   0.96933 
 H                    -3.20628   3.01242   0.95139 
 H                    -4.82575  -1.39123   0.29548 
 H                    -3.95274  -3.43353  -0.82513 
 H                    -1.60359  -3.44568  -1.69898 
 H                    -0.12465  -1.53279  -1.30847 
 Bq                   -0.90985   3.22408   1.16844 
 Bq                   -0.90324   3.19087   1.16844 
 Bq                   -0.89236   3.15881   1.16844 
 Bq                   -0.87739   3.12845   1.16844 
 Bq                   -0.85858   3.1003    1.16844 
 Bq                   -0.83626   3.07485   1.16844 
 Bq                   -0.8108    3.05253   1.16844 
 Bq                   -0.78265   3.03372   1.16844 
 Bq                   -0.75229   3.01874   1.16844 
 Bq                   -0.72023   3.00786   1.16844 
 Bq                   -0.68703   3.00126   1.16844 
 Bq                   -0.65324   2.99904   1.16844 
 Bq                   -0.61946   3.00126   1.16844 
 Bq                   -0.58626   3.00786   1.16844 
 Bq                   -0.5542    3.01874   1.16844 
 Bq                   -0.52383   3.03372   1.16844 
 Bq                   -0.49568   3.05253   1.16844 
 Bq                   -0.47023   3.07485   1.16844 
 Bq                   -0.44791   3.1003    1.16844 
 Bq                   -0.4291    3.12845   1.16844 
 Bq                   -0.41413   3.15881   1.16844 
 Bq                   -0.40324   3.19087   1.16844 
 Bq                   -0.39664   3.22408   1.16844 
 Bq                   -0.27056   3.25786   1.12639 
 Bq                   -0.27383   3.30781   1.12639 
 Bq                   -0.2836    3.35691   1.12639 
 Bq                   -0.29969   3.40431   1.12639 
 Bq                   -0.32183   3.4492    1.12639 
 Bq                   -0.34964   3.49082   1.12639 
 Bq                   -0.38264   3.52846   1.12639 
 Bq                   -0.42028   3.56146   1.12639 
 Bq                   -0.4619    3.58927   1.12639 
 Bq                   -0.5068    3.61141   1.12639 
 Bq                   -0.5542    3.6275    1.12639 
 Bq                   -0.60329   3.63727   1.12639 
 Bq                   -0.65324   3.64054   1.12639 
 Bq                   -0.70319   3.63727   1.12639 
 Bq                   -0.75229   3.6275    1.12639 
 Bq                   -0.79969   3.61141   1.12639 
 Bq                   -0.84458   3.58927   1.12639 
 Bq                   -0.88621   3.56146   1.12639 
 Bq                   -0.92384   3.52846   1.12639 
 Bq                   -0.95685   3.49082   1.12639 
 Bq                   -0.98466   3.4492    1.12639 
 Bq                   -1.0068    3.40431   1.12639 
 Bq                   -1.02289   3.35691   1.12639 
 Bq                   -1.03265   3.30781   1.12639 
 Bq                   -1.03593   3.25786   1.12639 
 Bq                   -1.03265   3.20791   1.12639 
 Bq                   -1.02289   3.15881   1.12639 
 Bq                   -1.0068    3.11141   1.12639 
 Bq                   -0.98466   3.06652   1.12639 
 Bq                   -0.95685   3.0249    1.12639 
 Bq                   -0.92384   2.98726   1.12639 
 Bq                   -0.88621   2.95426   1.12639 
 Bq                   -0.84458   2.92645   1.12639 
 Bq                   -0.79969   2.90431   1.12639 
 Bq                   -0.75229   2.88822   1.12639 
 Bq                   -0.70319   2.87845   1.12639 
 Bq                   -0.65324   2.87518   1.12639 
 Bq                   -0.60329   2.87845   1.12639 
 Bq                   -0.5542    2.88822   1.12639 
 Bq                   -0.5068    2.90431   1.12639 
 Bq                   -0.4619    2.92645   1.12639 
 Bq                   -0.42028   2.95426   1.12639 
 Bq                   -0.38264   2.98726   1.12639 
 Bq                   -0.34964   3.0249    1.12639 
 Bq                   -0.32183   3.06652   1.12639 
 Bq                   -0.29969   3.11141   1.12639 
 Bq                   -0.2836    3.15881   1.12639 
 Bq                   -0.27383   3.20791   1.12639 
 Bq                   -0.15324   3.25786   1.06854 
 Bq                   -0.15752   3.32312   1.06854 
 Bq                   -0.17028   3.38727   1.06854 
 Bq                   -0.1913    3.4492    1.06854 
 Bq                   -0.22023   3.50786   1.06854 
 Bq                   -0.25657   3.56224   1.06854 
 Bq                   -0.29969   3.61141   1.06854 
 Bq                   -0.34886   3.65454   1.06854 
 Bq                   -0.40324   3.69087   1.06854 
 Bq                   -0.4619    3.7198    1.06854 
 Bq                   -0.52383   3.74082   1.06854 
 Bq                   -0.58798   3.75358   1.06854 
 Bq                   -1.11518   3.4492    1.06854 
 Bq                   -1.13621   3.38727   1.06854 
 Bq                   -1.0068    2.90431   1.06854 
 Bq                   -0.95762   2.86118   1.06854 
 Bq                   -0.90324   2.82485   1.06854 
 Bq                   -0.84458   2.79592   1.06854 
 Bq                   -0.78265   2.7749    1.06854 
 Bq                   -0.71851   2.76214   1.06854 
 Bq                   -0.65324   2.75786   1.06854 
 Bq                   -0.58798   2.76214   1.06854 
 Bq                   -0.52383   2.7749    1.06854 
 Bq                   -0.4619    2.79592   1.06854 
 Bq                   -0.40324   2.82485   1.06854 
 Bq                   -0.34886   2.86118   1.06854 
 Bq                   -0.29969   2.90431   1.06854 
 Bq                   -0.25657   2.95348   1.06854 
 Bq                   -0.22023   3.00786   1.06854 
 Bq                   -0.1913    3.06652   1.06854 
 Bq                   -0.17028   3.12845   1.06854 
 Bq                   -0.15752   3.1926    1.06854 
 Bq                   -0.04448   3.25786   0.99586 
 Bq                   -0.04969   3.33732   0.99586 
 Bq                   -0.06522   3.41542   0.99586 
 Bq                   -0.09082   3.49082   0.99586 
 Bq                   -0.12604   3.56224   0.99586 
 Bq                   -0.17028   3.62845   0.99586 
 Bq                   -0.22278   3.68832   0.99586 
 Bq                   -0.28265   3.74082   0.99586 
 Bq                   -0.34886   3.78506   0.99586 
 Bq                   -0.42028   3.82028   0.99586 
 Bq                   -0.95762   2.73066   0.99586 
 Bq                   -0.88621   2.69544   0.99586 
 Bq                   -0.8108    2.66984   0.99586 
 Bq                   -0.7327    2.65431   0.99586 
 Bq                   -0.65324   2.6491    0.99586 
 Bq                   -0.57378   2.65431   0.99586 
 Bq                   -0.49568   2.66984   0.99586 
 Bq                   -0.42028   2.69544   0.99586 
 Bq                   -0.34886   2.73066   0.99586 
 Bq                   -0.28265   2.7749    0.99586 
 Bq                   -0.22278   2.8274    0.99586 
 Bq                   -0.17028   2.88727   0.99586 
 Bq                   -0.12604   2.95348   0.99586 
 Bq                   -0.09082   3.0249    0.99586 
 Bq                   -0.06522   3.1003    0.99586 
 Bq                   -0.04969   3.1784    0.99586 
 Bq                    0.05386   3.25786   0.90962 
 Bq                   -0.74554   2.5568    0.90962 
 Bq                   -0.65324   2.55075   0.90962 
 Bq                   -0.56095   2.5568    0.90962 
 Bq                   -0.47023   2.57485   0.90962 
 Bq                   -0.38264   2.60458   0.90962 
 Bq                   -0.29969   2.64549   0.90962 
 Bq                   -0.22278   2.69687   0.90962 
 Bq                   -0.15324   2.75786   0.90962 
 Bq                   -0.09226   2.8274    0.90962 
 Bq                   -0.04087   2.90431   0.90962 
 Bq                    0.00004   2.98726   0.90962 
 Bq                    0.02977   3.07485   0.90962 
 Bq                    0.04781   3.16556   0.90962 
 Bq                   -0.54969   2.47129   0.81127 
 Bq                   -0.44791   2.49154   0.81127 
 Bq                   -0.34964   2.5249    0.81127 
 Bq                   -0.25657   2.5708    0.81127 
 Bq                   -0.17028   2.62845   0.81127 
 Bq                   -0.09226   2.69687   0.81127 
 Bq                   -0.02383   2.7749    0.81127 
 Bq                    0.03382   2.86118   0.81127 
 Bq                    0.07972   2.95426   0.81127 
 Bq                    0.11308   3.05253   0.81127 
 Bq                    0.13332   3.15431   0.81127 
 Bq                    0.09676   2.82485   0.70251 
 Bq                    0.14686   2.92645   0.70251 
 Bq                    0.18327   3.03372   0.70251 
 Bq                   -1.48976   3.482    -0.29749 
 Bq                   -1.38621   3.56146  -0.40625 
 Bq                   -1.41956   3.46319  -0.40625 
 Bq                   -1.43981   3.36141  -0.40625 
 Bq                   -1.4466    3.25786  -0.40625 
 Bq                   -1.43981   3.15431  -0.40625 
 Bq                   -1.41956   3.05253  -0.40625 
 Bq                   -1.38621   2.95426  -0.40625 
 Bq                   -1.34031   2.86118  -0.40625 
 Bq                   -1.28265   2.7749   -0.40625 
 Bq                   -0.85858   2.49154  -0.40625 
 Bq                   -1.21423   3.68832  -0.5046 
 Bq                   -1.26562   3.61141  -0.5046 
 Bq                   -1.30652   3.52846  -0.5046 
 Bq                   -1.33626   3.44087  -0.5046 
 Bq                   -1.3543    3.35016  -0.5046 
 Bq                   -1.36035   3.25786  -0.5046 
 Bq                   -1.3543    3.16556  -0.5046 
 Bq                   -1.33626   3.07485  -0.5046 
 Bq                   -1.30652   2.98726  -0.5046 
 Bq                   -1.26562   2.90431  -0.5046 
 Bq                   -1.21423   2.8274   -0.5046 
 Bq                   -1.15324   2.75786  -0.5046 
 Bq                   -1.0837    2.69687  -0.5046 
 Bq                   -1.0068    2.64549  -0.5046 
 Bq                   -0.92384   2.60458  -0.5046 
 Bq                   -0.83626   2.57485  -0.5046 
 Bq                   -0.74554   2.5568   -0.5046 
 Bq                   -0.8108    3.84588  -0.59084 
 Bq                   -0.88621   3.82028  -0.59084 
 Bq                   -0.95762   3.78506  -0.59084 
 Bq                   -1.02383   3.74082  -0.59084 
 Bq                   -1.0837    3.68832  -0.59084 
 Bq                   -1.13621   3.62845  -0.59084 
 Bq                   -1.18045   3.56224  -0.59084 
 Bq                   -1.21567   3.49082  -0.59084 
 Bq                   -1.24126   3.41542  -0.59084 
 Bq                   -1.2568    3.33732  -0.59084 
 Bq                   -1.262     3.25786  -0.59084 
 Bq                   -1.2568    3.1784   -0.59084 
 Bq                   -1.24126   3.1003   -0.59084 
 Bq                   -1.21567   3.0249   -0.59084 
 Bq                   -1.18045   2.95348  -0.59084 
 
 NAtoms=    236 NQM=      236 NQMF=       0 NMMI=      0 NMMIF=      0
                NMic=       0 NMicF=      0.
                    Isotopes and Nuclear Properties:
 (Nuclear quadrupole moments (NQMom) in fm**2, nuclear magnetic moments (NMagM)
  in nuclear magnetons)

  Atom         1           2           3           4           5           6           7           8           9          10
 IAtWgt=          12          12          12          12          12          12          12          12          12          12
 AtmWgt=  12.0000000  12.0000000  12.0000000  12.0000000  12.0000000  12.0000000  12.0000000  12.0000000  12.0000000  12.0000000
 NucSpn=           0           0           0           0           0           0           0           0           0           0
 AtZEff=   0.0000000   0.0000000   0.0000000   0.0000000   0.0000000   0.0000000   0.0000000   0.0000000   0.0000000   0.0000000
 NQMom=    0.0000000   0.0000000   0.0000000   0.0000000   0.0000000   0.0000000   0.0000000   0.0000000   0.0000000   0.0000000
 NMagM=    0.0000000   0.0000000   0.0000000   0.0000000   0.0000000   0.0000000   0.0000000   0.0000000   0.0000000   0.0000000
 AtZNuc=   6.0000000   6.0000000   6.0000000   6.0000000   6.0000000   6.0000000   6.0000000   6.0000000   6.0000000   6.0000000

  Atom        11          12          13          14          15          16          17          18          19          20
 IAtWgt=           1           1           1           1          12          12          12          12           1           1
 AtmWgt=   1.0078250   1.0078250   1.0078250   1.0078250  12.0000000  12.0000000  12.0000000  12.0000000   1.0078250   1.0078250
 NucSpn=           1           1           1           1           0           0           0           0           1           1
 AtZEff=   0.0000000   0.0000000   0.0000000   0.0000000   0.0000000   0.0000000   0.0000000   0.0000000   0.0000000   0.0000000
 NQMom=    0.0000000   0.0000000   0.0000000   0.0000000   0.0000000   0.0000000   0.0000000   0.0000000   0.0000000   0.0000000
 NMagM=    2.7928460   2.7928460   2.7928460   2.7928460   0.0000000   0.0000000   0.0000000   0.0000000   2.7928460   2.7928460
 AtZNuc=   1.0000000   1.0000000   1.0000000   1.0000000   6.0000000   6.0000000   6.0000000   6.0000000   1.0000000   1.0000000

  Atom        21          22          23          24          25          26          27          28          29          30
 IAtWgt=           1           1          12          12          12          12          12          12          12          12
 AtmWgt=   1.0078250   1.0078250  12.0000000  12.0000000  12.0000000  12.0000000  12.0000000  12.0000000  12.0000000  12.0000000
 NucSpn=           1           1           0           0           0           0           0           0           0           0
 AtZEff=   0.0000000   0.0000000   0.0000000   0.0000000   0.0000000   0.0000000   0.0000000   0.0000000   0.0000000   0.0000000
 NQMom=    0.0000000   0.0000000   0.0000000   0.0000000   0.0000000   0.0000000   0.0000000   0.0000000   0.0000000   0.0000000
 NMagM=    2.7928460   2.7928460   0.0000000   0.0000000   0.0000000   0.0000000   0.0000000   0.0000000   0.0000000   0.0000000
 AtZNuc=   1.0000000   1.0000000   6.0000000   6.0000000   6.0000000   6.0000000   6.0000000   6.0000000   6.0000000   6.0000000

  Atom        31          32          33          34          35          36          37          38          39          40
 IAtWgt=           1           1           1           1           1           1           0           0           0           0
 AtmWgt=   1.0078250   1.0078250   1.0078250   1.0078250   1.0078250   1.0078250   0.0000000   0.0000000   0.0000000   0.0000000
 NucSpn=           1           1           1           1           1           1           0           0           0           0
 AtZEff=   0.0000000   0.0000000   0.0000000   0.0000000   0.0000000   0.0000000   0.0000000   0.0000000   0.0000000   0.0000000
 NQMom=    0.0000000   0.0000000   0.0000000   0.0000000   0.0000000   0.0000000   0.0000000   0.0000000   0.0000000   0.0000000
 NMagM=    2.7928460   2.7928460   2.7928460   2.7928460   2.7928460   2.7928460   0.0000000   0.0000000   0.0000000   0.0000000
 AtZNuc=   1.0000000   1.0000000   1.0000000   1.0000000   1.0000000   1.0000000   0.0000000   0.0000000   0.0000000   0.0000000

  Atom        41          42          43          44          45          46          47          48          49          50
 IAtWgt=           0           0           0           0           0           0           0           0           0           0
 AtmWgt=   0.0000000   0.0000000   0.0000000   0.0000000   0.0000000   0.0000000   0.0000000   0.0000000   0.0000000   0.0000000
 NucSpn=           0           0           0           0           0           0           0           0           0           0
 AtZEff=   0.0000000   0.0000000   0.0000000   0.0000000   0.0000000   0.0000000   0.0000000   0.0000000   0.0000000   0.0000000
 NQMom=    0.0000000   0.0000000   0.0000000   0.0000000   0.0000000   0.0000000   0.0000000   0.0000000   0.0000000   0.0000000
 NMagM=    0.0000000   0.0000000   0.0000000   0.0000000   0.0000000   0.0000000   0.0000000   0.0000000   0.0000000   0.0000000
 AtZNuc=   0.0000000   0.0000000   0.0000000   0.0000000   0.0000000   0.0000000   0.0000000   0.0000000   0.0000000   0.0000000

  Atom        51          52          53          54          55          56          57          58          59          60
 IAtWgt=           0           0           0           0           0           0           0           0           0           0
 AtmWgt=   0.0000000   0.0000000   0.0000000   0.0000000   0.0000000   0.0000000   0.0000000   0.0000000   0.0000000   0.0000000
 NucSpn=           0           0           0           0           0           0           0           0           0           0
 AtZEff=   0.0000000   0.0000000   0.0000000   0.0000000   0.0000000   0.0000000   0.0000000   0.0000000   0.0000000   0.0000000
 NQMom=    0.0000000   0.0000000   0.0000000   0.0000000   0.0000000   0.0000000   0.0000000   0.0000000   0.0000000   0.0000000
 NMagM=    0.0000000   0.0000000   0.0000000   0.0000000   0.0000000   0.0000000   0.0000000   0.0000000   0.0000000   0.0000000
 AtZNuc=   0.0000000   0.0000000   0.0000000   0.0000000   0.0000000   0.0000000   0.0000000   0.0000000   0.0000000   0.0000000

  Atom        61          62          63          64          65          66          67          68          69          70
 IAtWgt=           0           0           0           0           0           0           0           0           0           0
 AtmWgt=   0.0000000   0.0000000   0.0000000   0.0000000   0.0000000   0.0000000   0.0000000   0.0000000   0.0000000   0.0000000
 NucSpn=           0           0           0           0           0           0           0           0           0           0
 AtZEff=   0.0000000   0.0000000   0.0000000   0.0000000   0.0000000   0.0000000   0.0000000   0.0000000   0.0000000   0.0000000
 NQMom=    0.0000000   0.0000000   0.0000000   0.0000000   0.0000000   0.0000000   0.0000000   0.0000000   0.0000000   0.0000000
 NMagM=    0.0000000   0.0000000   0.0000000   0.0000000   0.0000000   0.0000000   0.0000000   0.0000000   0.0000000   0.0000000
 AtZNuc=   0.0000000   0.0000000   0.0000000   0.0000000   0.0000000   0.0000000   0.0000000   0.0000000   0.0000000   0.0000000

  Atom        71          72          73          74          75          76          77          78          79          80
 IAtWgt=           0           0           0           0           0           0           0           0           0           0
 AtmWgt=   0.0000000   0.0000000   0.0000000   0.0000000   0.0000000   0.0000000   0.0000000   0.0000000   0.0000000   0.0000000
 NucSpn=           0           0           0           0           0           0           0           0           0           0
 AtZEff=   0.0000000   0.0000000   0.0000000   0.0000000   0.0000000   0.0000000   0.0000000   0.0000000   0.0000000   0.0000000
 NQMom=    0.0000000   0.0000000   0.0000000   0.0000000   0.0000000   0.0000000   0.0000000   0.0000000   0.0000000   0.0000000
 NMagM=    0.0000000   0.0000000   0.0000000   0.0000000   0.0000000   0.0000000   0.0000000   0.0000000   0.0000000   0.0000000
 AtZNuc=   0.0000000   0.0000000   0.0000000   0.0000000   0.0000000   0.0000000   0.0000000   0.0000000   0.0000000   0.0000000

  Atom        81          82          83          84          85          86          87          88          89          90
 IAtWgt=           0           0           0           0           0           0           0           0           0           0
 AtmWgt=   0.0000000   0.0000000   0.0000000   0.0000000   0.0000000   0.0000000   0.0000000   0.0000000   0.0000000   0.0000000
 NucSpn=           0           0           0           0           0           0           0           0           0           0
 AtZEff=   0.0000000   0.0000000   0.0000000   0.0000000   0.0000000   0.0000000   0.0000000   0.0000000   0.0000000   0.0000000
 NQMom=    0.0000000   0.0000000   0.0000000   0.0000000   0.0000000   0.0000000   0.0000000   0.0000000   0.0000000   0.0000000
 NMagM=    0.0000000   0.0000000   0.0000000   0.0000000   0.0000000   0.0000000   0.0000000   0.0000000   0.0000000   0.0000000
 AtZNuc=   0.0000000   0.0000000   0.0000000   0.0000000   0.0000000   0.0000000   0.0000000   0.0000000   0.0000000   0.0000000

  Atom        91          92          93          94          95          96          97          98          99         100
 IAtWgt=           0           0           0           0           0           0           0           0           0           0
 AtmWgt=   0.0000000   0.0000000   0.0000000   0.0000000   0.0000000   0.0000000   0.0000000   0.0000000   0.0000000   0.0000000
 NucSpn=           0           0           0           0           0           0           0           0           0           0
 AtZEff=   0.0000000   0.0000000   0.0000000   0.0000000   0.0000000   0.0000000   0.0000000   0.0000000   0.0000000   0.0000000
 NQMom=    0.0000000   0.0000000   0.0000000   0.0000000   0.0000000   0.0000000   0.0000000   0.0000000   0.0000000   0.0000000
 NMagM=    0.0000000   0.0000000   0.0000000   0.0000000   0.0000000   0.0000000   0.0000000   0.0000000   0.0000000   0.0000000
 AtZNuc=   0.0000000   0.0000000   0.0000000   0.0000000   0.0000000   0.0000000   0.0000000   0.0000000   0.0000000   0.0000000

  Atom       101         102         103         104         105         106         107         108         109         110
 IAtWgt=           0           0           0           0           0           0           0           0           0           0
 AtmWgt=   0.0000000   0.0000000   0.0000000   0.0000000   0.0000000   0.0000000   0.0000000   0.0000000   0.0000000   0.0000000
 NucSpn=           0           0           0           0           0           0           0           0           0           0
 AtZEff=   0.0000000   0.0000000   0.0000000   0.0000000   0.0000000   0.0000000   0.0000000   0.0000000   0.0000000   0.0000000
 NQMom=    0.0000000   0.0000000   0.0000000   0.0000000   0.0000000   0.0000000   0.0000000   0.0000000   0.0000000   0.0000000
 NMagM=    0.0000000   0.0000000   0.0000000   0.0000000   0.0000000   0.0000000   0.0000000   0.0000000   0.0000000   0.0000000
 AtZNuc=   0.0000000   0.0000000   0.0000000   0.0000000   0.0000000   0.0000000   0.0000000   0.0000000   0.0000000   0.0000000

  Atom       111         112         113         114         115         116         117         118         119         120
 IAtWgt=           0           0           0           0           0           0           0           0           0           0
 AtmWgt=   0.0000000   0.0000000   0.0000000   0.0000000   0.0000000   0.0000000   0.0000000   0.0000000   0.0000000   0.0000000
 NucSpn=           0           0           0           0           0           0           0           0           0           0
 AtZEff=   0.0000000   0.0000000   0.0000000   0.0000000   0.0000000   0.0000000   0.0000000   0.0000000   0.0000000   0.0000000
 NQMom=    0.0000000   0.0000000   0.0000000   0.0000000   0.0000000   0.0000000   0.0000000   0.0000000   0.0000000   0.0000000
 NMagM=    0.0000000   0.0000000   0.0000000   0.0000000   0.0000000   0.0000000   0.0000000   0.0000000   0.0000000   0.0000000
 AtZNuc=   0.0000000   0.0000000   0.0000000   0.0000000   0.0000000   0.0000000   0.0000000   0.0000000   0.0000000   0.0000000

  Atom       121         122         123         124         125         126         127         128         129         130
 IAtWgt=           0           0           0           0           0           0           0           0           0           0
 AtmWgt=   0.0000000   0.0000000   0.0000000   0.0000000   0.0000000   0.0000000   0.0000000   0.0000000   0.0000000   0.0000000
 NucSpn=           0           0           0           0           0           0           0           0           0           0
 AtZEff=   0.0000000   0.0000000   0.0000000   0.0000000   0.0000000   0.0000000   0.0000000   0.0000000   0.0000000   0.0000000
 NQMom=    0.0000000   0.0000000   0.0000000   0.0000000   0.0000000   0.0000000   0.0000000   0.0000000   0.0000000   0.0000000
 NMagM=    0.0000000   0.0000000   0.0000000   0.0000000   0.0000000   0.0000000   0.0000000   0.0000000   0.0000000   0.0000000
 AtZNuc=   0.0000000   0.0000000   0.0000000   0.0000000   0.0000000   0.0000000   0.0000000   0.0000000   0.0000000   0.0000000

  Atom       131         132         133         134         135         136         137         138         139         140
 IAtWgt=           0           0           0           0           0           0           0           0           0           0
 AtmWgt=   0.0000000   0.0000000   0.0000000   0.0000000   0.0000000   0.0000000   0.0000000   0.0000000   0.0000000   0.0000000
 NucSpn=           0           0           0           0           0           0           0           0           0           0
 AtZEff=   0.0000000   0.0000000   0.0000000   0.0000000   0.0000000   0.0000000   0.0000000   0.0000000   0.0000000   0.0000000
 NQMom=    0.0000000   0.0000000   0.0000000   0.0000000   0.0000000   0.0000000   0.0000000   0.0000000   0.0000000   0.0000000
 NMagM=    0.0000000   0.0000000   0.0000000   0.0000000   0.0000000   0.0000000   0.0000000   0.0000000   0.0000000   0.0000000
 AtZNuc=   0.0000000   0.0000000   0.0000000   0.0000000   0.0000000   0.0000000   0.0000000   0.0000000   0.0000000   0.0000000

  Atom       141         142         143         144         145         146         147         148         149         150
 IAtWgt=           0           0           0           0           0           0           0           0           0           0
 AtmWgt=   0.0000000   0.0000000   0.0000000   0.0000000   0.0000000   0.0000000   0.0000000   0.0000000   0.0000000   0.0000000
 NucSpn=           0           0           0           0           0           0           0           0           0           0
 AtZEff=   0.0000000   0.0000000   0.0000000   0.0000000   0.0000000   0.0000000   0.0000000   0.0000000   0.0000000   0.0000000
 NQMom=    0.0000000   0.0000000   0.0000000   0.0000000   0.0000000   0.0000000   0.0000000   0.0000000   0.0000000   0.0000000
 NMagM=    0.0000000   0.0000000   0.0000000   0.0000000   0.0000000   0.0000000   0.0000000   0.0000000   0.0000000   0.0000000
 AtZNuc=   0.0000000   0.0000000   0.0000000   0.0000000   0.0000000   0.0000000   0.0000000   0.0000000   0.0000000   0.0000000

  Atom       151         152         153         154         155         156         157         158         159         160
 IAtWgt=           0           0           0           0           0           0           0           0           0           0
 AtmWgt=   0.0000000   0.0000000   0.0000000   0.0000000   0.0000000   0.0000000   0.0000000   0.0000000   0.0000000   0.0000000
 NucSpn=           0           0           0           0           0           0           0           0           0           0
 AtZEff=   0.0000000   0.0000000   0.0000000   0.0000000   0.0000000   0.0000000   0.0000000   0.0000000   0.0000000   0.0000000
 NQMom=    0.0000000   0.0000000   0.0000000   0.0000000   0.0000000   0.0000000   0.0000000   0.0000000   0.0000000   0.0000000
 NMagM=    0.0000000   0.0000000   0.0000000   0.0000000   0.0000000   0.0000000   0.0000000   0.0000000   0.0000000   0.0000000
 AtZNuc=   0.0000000   0.0000000   0.0000000   0.0000000   0.0000000   0.0000000   0.0000000   0.0000000   0.0000000   0.0000000

  Atom       161         162         163         164         165         166         167         168         169         170
 IAtWgt=           0           0           0           0           0           0           0           0           0           0
 AtmWgt=   0.0000000   0.0000000   0.0000000   0.0000000   0.0000000   0.0000000   0.0000000   0.0000000   0.0000000   0.0000000
 NucSpn=           0           0           0           0           0           0           0           0           0           0
 AtZEff=   0.0000000   0.0000000   0.0000000   0.0000000   0.0000000   0.0000000   0.0000000   0.0000000   0.0000000   0.0000000
 NQMom=    0.0000000   0.0000000   0.0000000   0.0000000   0.0000000   0.0000000   0.0000000   0.0000000   0.0000000   0.0000000
 NMagM=    0.0000000   0.0000000   0.0000000   0.0000000   0.0000000   0.0000000   0.0000000   0.0000000   0.0000000   0.0000000
 AtZNuc=   0.0000000   0.0000000   0.0000000   0.0000000   0.0000000   0.0000000   0.0000000   0.0000000   0.0000000   0.0000000

  Atom       171         172         173         174         175         176         177         178         179         180
 IAtWgt=           0           0           0           0           0           0           0           0           0           0
 AtmWgt=   0.0000000   0.0000000   0.0000000   0.0000000   0.0000000   0.0000000   0.0000000   0.0000000   0.0000000   0.0000000
 NucSpn=           0           0           0           0           0           0           0           0           0           0
 AtZEff=   0.0000000   0.0000000   0.0000000   0.0000000   0.0000000   0.0000000   0.0000000   0.0000000   0.0000000   0.0000000
 NQMom=    0.0000000   0.0000000   0.0000000   0.0000000   0.0000000   0.0000000   0.0000000   0.0000000   0.0000000   0.0000000
 NMagM=    0.0000000   0.0000000   0.0000000   0.0000000   0.0000000   0.0000000   0.0000000   0.0000000   0.0000000   0.0000000
 AtZNuc=   0.0000000   0.0000000   0.0000000   0.0000000   0.0000000   0.0000000   0.0000000   0.0000000   0.0000000   0.0000000

  Atom       181         182         183         184         185         186         187         188         189         190
 IAtWgt=           0           0           0           0           0           0           0           0           0           0
 AtmWgt=   0.0000000   0.0000000   0.0000000   0.0000000   0.0000000   0.0000000   0.0000000   0.0000000   0.0000000   0.0000000
 NucSpn=           0           0           0           0           0           0           0           0           0           0
 AtZEff=   0.0000000   0.0000000   0.0000000   0.0000000   0.0000000   0.0000000   0.0000000   0.0000000   0.0000000   0.0000000
 NQMom=    0.0000000   0.0000000   0.0000000   0.0000000   0.0000000   0.0000000   0.0000000   0.0000000   0.0000000   0.0000000
 NMagM=    0.0000000   0.0000000   0.0000000   0.0000000   0.0000000   0.0000000   0.0000000   0.0000000   0.0000000   0.0000000
 AtZNuc=   0.0000000   0.0000000   0.0000000   0.0000000   0.0000000   0.0000000   0.0000000   0.0000000   0.0000000   0.0000000

  Atom       191         192         193         194         195         196         197         198         199         200
 IAtWgt=           0           0           0           0           0           0           0           0           0           0
 AtmWgt=   0.0000000   0.0000000   0.0000000   0.0000000   0.0000000   0.0000000   0.0000000   0.0000000   0.0000000   0.0000000
 NucSpn=           0           0           0           0           0           0           0           0           0           0
 AtZEff=   0.0000000   0.0000000   0.0000000   0.0000000   0.0000000   0.0000000   0.0000000   0.0000000   0.0000000   0.0000000
 NQMom=    0.0000000   0.0000000   0.0000000   0.0000000   0.0000000   0.0000000   0.0000000   0.0000000   0.0000000   0.0000000
 NMagM=    0.0000000   0.0000000   0.0000000   0.0000000   0.0000000   0.0000000   0.0000000   0.0000000   0.0000000   0.0000000
 AtZNuc=   0.0000000   0.0000000   0.0000000   0.0000000   0.0000000   0.0000000   0.0000000   0.0000000   0.0000000   0.0000000

  Atom       201         202         203         204         205         206         207         208         209         210
 IAtWgt=           0           0           0           0           0           0           0           0           0           0
 AtmWgt=   0.0000000   0.0000000   0.0000000   0.0000000   0.0000000   0.0000000   0.0000000   0.0000000   0.0000000   0.0000000
 NucSpn=           0           0           0           0           0           0           0           0           0           0
 AtZEff=   0.0000000   0.0000000   0.0000000   0.0000000   0.0000000   0.0000000   0.0000000   0.0000000   0.0000000   0.0000000
 NQMom=    0.0000000   0.0000000   0.0000000   0.0000000   0.0000000   0.0000000   0.0000000   0.0000000   0.0000000   0.0000000
 NMagM=    0.0000000   0.0000000   0.0000000   0.0000000   0.0000000   0.0000000   0.0000000   0.0000000   0.0000000   0.0000000
 AtZNuc=   0.0000000   0.0000000   0.0000000   0.0000000   0.0000000   0.0000000   0.0000000   0.0000000   0.0000000   0.0000000

  Atom       211         212         213         214         215         216         217         218         219         220
 IAtWgt=           0           0           0           0           0           0           0           0           0           0
 AtmWgt=   0.0000000   0.0000000   0.0000000   0.0000000   0.0000000   0.0000000   0.0000000   0.0000000   0.0000000   0.0000000
 NucSpn=           0           0           0           0           0           0           0           0           0           0
 AtZEff=   0.0000000   0.0000000   0.0000000   0.0000000   0.0000000   0.0000000   0.0000000   0.0000000   0.0000000   0.0000000
 NQMom=    0.0000000   0.0000000   0.0000000   0.0000000   0.0000000   0.0000000   0.0000000   0.0000000   0.0000000   0.0000000
 NMagM=    0.0000000   0.0000000   0.0000000   0.0000000   0.0000000   0.0000000   0.0000000   0.0000000   0.0000000   0.0000000
 AtZNuc=   0.0000000   0.0000000   0.0000000   0.0000000   0.0000000   0.0000000   0.0000000   0.0000000   0.0000000   0.0000000

  Atom       221         222         223         224         225         226         227         228         229         230
 IAtWgt=           0           0           0           0           0           0           0           0           0           0
 AtmWgt=   0.0000000   0.0000000   0.0000000   0.0000000   0.0000000   0.0000000   0.0000000   0.0000000   0.0000000   0.0000000
 NucSpn=           0           0           0           0           0           0           0           0           0           0
 AtZEff=   0.0000000   0.0000000   0.0000000   0.0000000   0.0000000   0.0000000   0.0000000   0.0000000   0.0000000   0.0000000
 NQMom=    0.0000000   0.0000000   0.0000000   0.0000000   0.0000000   0.0000000   0.0000000   0.0000000   0.0000000   0.0000000
 NMagM=    0.0000000   0.0000000   0.0000000   0.0000000   0.0000000   0.0000000   0.0000000   0.0000000   0.0000000   0.0000000
 AtZNuc=   0.0000000   0.0000000   0.0000000   0.0000000   0.0000000   0.0000000   0.0000000   0.0000000   0.0000000   0.0000000

  Atom       231         232         233         234         235         236
 IAtWgt=           0           0           0           0           0           0
 AtmWgt=   0.0000000   0.0000000   0.0000000   0.0000000   0.0000000   0.0000000
 NucSpn=           0           0           0           0           0           0
 AtZEff=   0.0000000   0.0000000   0.0000000   0.0000000   0.0000000   0.0000000
 NQMom=    0.0000000   0.0000000   0.0000000   0.0000000   0.0000000   0.0000000
 NMagM=    0.0000000   0.0000000   0.0000000   0.0000000   0.0000000   0.0000000
 AtZNuc=   0.0000000   0.0000000   0.0000000   0.0000000   0.0000000   0.0000000
 Leave Link  101 at Tue Sep 15 10:30:52 2020, MaxMem=   131072000 cpu:         3.1
 (Enter /share/programs/GAUSSIAN/64/g09/l202.exe)
 Symmetry turned off:
 Cannot cope with ghost atoms or with translation vectors.
 Stoichiometry    C22H14
 Framework group  C1[X(C22H14)]
 NUMDOF-- NAT=    36 NAtoms=   236
 Deg. of freedom     0
 Full point group                 C1      NOp   1
                          Input orientation:                          
 ---------------------------------------------------------------------
 Center     Atomic      Atomic             Coordinates (Angstroms)
 Number     Number       Type             X           Y           Z
 ---------------------------------------------------------------------
      1          6           0        0.653241    3.257859   -0.202510
      2          6           0       -0.653243    3.257860    0.202510
      3          6           0        1.372495    2.032956   -0.320807
      4          6           0       -1.372495    2.032956    0.320807
      5          6           0        0.722474    0.795666   -0.050388
      6          6           0       -0.722474    0.795667    0.050387
      7          6           0        2.760385    2.053927   -0.674268
      8          6           0        3.508866    0.913916   -0.671362
      9          6           0        2.955226   -0.309622   -0.177479
     10          6           0        1.574722   -0.361114    0.197094
     11          1           0        1.183427    4.195740   -0.384599
     12          1           0       -1.183429    4.195740    0.384599
     13          1           0        3.206283    3.012423   -0.951392
     14          1           0        4.560023    0.932956   -0.969333
     15          6           0        3.783020   -1.443098    0.028309
     16          6           0        1.137427   -1.507533    0.912109
     17          6           0        1.973691   -2.584349    1.138062
     18          6           0        3.301853   -2.571588    0.661177
     19          1           0        4.825754   -1.391230   -0.295484
     20          1           0        0.124652   -1.532788    1.308472
     21          1           0        1.603586   -3.445682    1.698977
     22          1           0        3.952742   -3.433526    0.825134
     23          6           0       -3.508866    0.913915    0.671362
     24          6           0       -2.760386    2.053926    0.674268
     25          6           0       -2.955226   -0.309623    0.177479
     26          6           0       -1.574722   -0.361114   -0.197094
     27          6           0       -3.783020   -1.443099   -0.028309
     28          6           0       -3.301852   -2.571589   -0.661177
     29          6           0       -1.973690   -2.584349   -1.138061
     30          6           0       -1.137426   -1.507534   -0.912109
     31          1           0       -4.560022    0.932954    0.969334
     32          1           0       -3.206283    3.012421    0.951392
     33          1           0       -4.825754   -1.391232    0.295484
     34          1           0       -3.952741   -3.433528   -0.825134
     35          1           0       -1.603585   -3.445682   -1.698976
     36          1           0       -0.124652   -1.532788   -1.308471
     37          0           0       -0.909848    3.224077    1.168436
     38          0           0       -0.903243    3.190873    1.168436
     39          0           0       -0.892361    3.158814    1.168436
     40          0           0       -0.877387    3.128450    1.168436
     41          0           0       -0.858578    3.100301    1.168436
     42          0           0       -0.836256    3.074847    1.168436
     43          0           0       -0.810802    3.052525    1.168436
     44          0           0       -0.782653    3.033716    1.168436
     45          0           0       -0.752289    3.018742    1.168436
     46          0           0       -0.720230    3.007860    1.168436
     47          0           0       -0.687026    3.001255    1.168436
     48          0           0       -0.653243    2.999041    1.168436
     49          0           0       -0.619460    3.001255    1.168436
     50          0           0       -0.586256    3.007860    1.168436
     51          0           0       -0.554197    3.018742    1.168436
     52          0           0       -0.523833    3.033716    1.168436
     53          0           0       -0.495684    3.052525    1.168436
     54          0           0       -0.470230    3.074847    1.168436
     55          0           0       -0.447908    3.100301    1.168436
     56          0           0       -0.429099    3.128450    1.168436
     57          0           0       -0.414125    3.158814    1.168436
     58          0           0       -0.403243    3.190873    1.168436
     59          0           0       -0.396638    3.224077    1.168436
     60          0           0       -0.270560    3.257860    1.126390
     61          0           0       -0.273833    3.307810    1.126390
     62          0           0       -0.283599    3.356906    1.126390
     63          0           0       -0.299690    3.404307    1.126390
     64          0           0       -0.321829    3.449202    1.126390
     65          0           0       -0.349640    3.490823    1.126390
     66          0           0       -0.382645    3.528458    1.126390
     67          0           0       -0.420280    3.561463    1.126390
     68          0           0       -0.461901    3.589274    1.126390
     69          0           0       -0.506796    3.611413    1.126390
     70          0           0       -0.554197    3.627504    1.126390
     71          0           0       -0.603293    3.637270    1.126390
     72          0           0       -0.653243    3.640543    1.126390
     73          0           0       -0.703193    3.637270    1.126390
     74          0           0       -0.752289    3.627504    1.126390
     75          0           0       -0.799690    3.611413    1.126390
     76          0           0       -0.844585    3.589274    1.126390
     77          0           0       -0.886206    3.561463    1.126390
     78          0           0       -0.923841    3.528458    1.126390
     79          0           0       -0.956846    3.490823    1.126390
     80          0           0       -0.984657    3.449202    1.126390
     81          0           0       -1.006796    3.404307    1.126390
     82          0           0       -1.022887    3.356906    1.126390
     83          0           0       -1.032653    3.307810    1.126390
     84          0           0       -1.035926    3.257860    1.126390
     85          0           0       -1.032653    3.207910    1.126390
     86          0           0       -1.022887    3.158814    1.126390
     87          0           0       -1.006796    3.111413    1.126390
     88          0           0       -0.984657    3.066518    1.126390
     89          0           0       -0.956846    3.024897    1.126390
     90          0           0       -0.923841    2.987262    1.126390
     91          0           0       -0.886206    2.954257    1.126390
     92          0           0       -0.844585    2.926446    1.126390
     93          0           0       -0.799690    2.904307    1.126390
     94          0           0       -0.752289    2.888216    1.126390
     95          0           0       -0.703193    2.878450    1.126390
     96          0           0       -0.653243    2.875177    1.126390
     97          0           0       -0.603293    2.878450    1.126390
     98          0           0       -0.554197    2.888216    1.126390
     99          0           0       -0.506796    2.904307    1.126390
    100          0           0       -0.461901    2.926446    1.126390
    101          0           0       -0.420280    2.954257    1.126390
    102          0           0       -0.382645    2.987262    1.126390
    103          0           0       -0.349640    3.024897    1.126390
    104          0           0       -0.321829    3.066518    1.126390
    105          0           0       -0.299690    3.111413    1.126390
    106          0           0       -0.283599    3.158814    1.126390
    107          0           0       -0.273833    3.207910    1.126390
    108          0           0       -0.153243    3.257860    1.068535
    109          0           0       -0.157521    3.323123    1.068535
    110          0           0       -0.170280    3.387270    1.068535
    111          0           0       -0.191303    3.449202    1.068535
    112          0           0       -0.220230    3.507860    1.068535
    113          0           0       -0.256566    3.562241    1.068535
    114          0           0       -0.299690    3.611413    1.068535
    115          0           0       -0.348862    3.654537    1.068535
    116          0           0       -0.403243    3.690873    1.068535
    117          0           0       -0.461901    3.719800    1.068535
    118          0           0       -0.523833    3.740823    1.068535
    119          0           0       -0.587980    3.753582    1.068535
    120          0           0       -1.115183    3.449202    1.068535
    121          0           0       -1.136206    3.387270    1.068535
    122          0           0       -1.006796    2.904307    1.068535
    123          0           0       -0.957624    2.861183    1.068535
    124          0           0       -0.903243    2.824847    1.068535
    125          0           0       -0.844585    2.795920    1.068535
    126          0           0       -0.782653    2.774897    1.068535
    127          0           0       -0.718506    2.762138    1.068535
    128          0           0       -0.653243    2.757860    1.068535
    129          0           0       -0.587980    2.762138    1.068535
    130          0           0       -0.523833    2.774897    1.068535
    131          0           0       -0.461901    2.795920    1.068535
    132          0           0       -0.403243    2.824847    1.068535
    133          0           0       -0.348862    2.861183    1.068535
    134          0           0       -0.299690    2.904307    1.068535
    135          0           0       -0.256566    2.953479    1.068535
    136          0           0       -0.220230    3.007860    1.068535
    137          0           0       -0.191303    3.066518    1.068535
    138          0           0       -0.170280    3.128450    1.068535
    139          0           0       -0.157521    3.192597    1.068535
    140          0           0       -0.044482    3.257860    0.995863
    141          0           0       -0.049690    3.337319    0.995863
    142          0           0       -0.065225    3.415419    0.995863
    143          0           0       -0.090821    3.490823    0.995863
    144          0           0       -0.126040    3.562241    0.995863
    145          0           0       -0.170280    3.628450    0.995863
    146          0           0       -0.222784    3.688319    0.995863
    147          0           0       -0.282653    3.740823    0.995863
    148          0           0       -0.348862    3.785063    0.995863
    149          0           0       -0.420280    3.820282    0.995863
    150          0           0       -0.957624    2.730657    0.995863
    151          0           0       -0.886206    2.695438    0.995863
    152          0           0       -0.810802    2.669842    0.995863
    153          0           0       -0.732702    2.654307    0.995863
    154          0           0       -0.653243    2.649099    0.995863
    155          0           0       -0.573784    2.654307    0.995863
    156          0           0       -0.495684    2.669842    0.995863
    157          0           0       -0.420280    2.695438    0.995863
    158          0           0       -0.348862    2.730657    0.995863
    159          0           0       -0.282653    2.774897    0.995863
    160          0           0       -0.222784    2.827401    0.995863
    161          0           0       -0.170280    2.887270    0.995863
    162          0           0       -0.126040    2.953479    0.995863
    163          0           0       -0.090821    3.024897    0.995863
    164          0           0       -0.065225    3.100301    0.995863
    165          0           0       -0.049690    3.178401    0.995863
    166          0           0        0.053864    3.257860    0.909617
    167          0           0       -0.745539    2.556803    0.909617
    168          0           0       -0.653243    2.550753    0.909617
    169          0           0       -0.560947    2.556803    0.909617
    170          0           0       -0.470230    2.574847    0.909617
    171          0           0       -0.382645    2.604579    0.909617
    172          0           0       -0.299690    2.645488    0.909617
    173          0           0       -0.222784    2.696874    0.909617
    174          0           0       -0.153243    2.757860    0.909617
    175          0           0       -0.092257    2.827401    0.909617
    176          0           0       -0.040871    2.904307    0.909617
    177          0           0        0.000038    2.987262    0.909617
    178          0           0        0.029770    3.074847    0.909617
    179          0           0        0.047814    3.165564    0.909617
    180          0           0       -0.549690    2.471294    0.811271
    181          0           0       -0.447908    2.491540    0.811271
    182          0           0       -0.349640    2.524897    0.811271
    183          0           0       -0.256566    2.570796    0.811271
    184          0           0       -0.170280    2.628450    0.811271
    185          0           0       -0.092257    2.696874    0.811271
    186          0           0       -0.023833    2.774897    0.811271
    187          0           0        0.033821    2.861183    0.811271
    188          0           0        0.079720    2.954257    0.811271
    189          0           0        0.113077    3.052525    0.811271
    190          0           0        0.133323    3.154307    0.811271
    191          0           0        0.096757    2.824847    0.702510
    192          0           0        0.146860    2.926446    0.702510
    193          0           0        0.183273    3.033716    0.702510
    194          0           0       -1.489759    3.482004   -0.297490
    195          0           0       -1.386206    3.561463   -0.406251
    196          0           0       -1.419563    3.463195   -0.406251
    197          0           0       -1.439809    3.361413   -0.406251
    198          0           0       -1.446596    3.257860   -0.406251
    199          0           0       -1.439809    3.154307   -0.406251
    200          0           0       -1.419563    3.052525   -0.406251
    201          0           0       -1.386206    2.954257   -0.406251
    202          0           0       -1.340307    2.861183   -0.406251
    203          0           0       -1.282653    2.774897   -0.406251
    204          0           0       -0.858578    2.491540   -0.406251
    205          0           0       -1.214229    3.688319   -0.504597
    206          0           0       -1.265615    3.611413   -0.504597
    207          0           0       -1.306524    3.528458   -0.504597
    208          0           0       -1.336256    3.440873   -0.504597
    209          0           0       -1.354300    3.350156   -0.504597
    210          0           0       -1.360350    3.257860   -0.504597
    211          0           0       -1.354300    3.165564   -0.504597
    212          0           0       -1.336256    3.074847   -0.504597
    213          0           0       -1.306524    2.987262   -0.504597
    214          0           0       -1.265615    2.904307   -0.504597
    215          0           0       -1.214229    2.827401   -0.504597
    216          0           0       -1.153243    2.757860   -0.504597
    217          0           0       -1.083702    2.696874   -0.504597
    218          0           0       -1.006796    2.645488   -0.504597
    219          0           0       -0.923841    2.604579   -0.504597
    220          0           0       -0.836256    2.574847   -0.504597
    221          0           0       -0.745539    2.556803   -0.504597
    222          0           0       -0.810802    3.845878   -0.590843
    223          0           0       -0.886206    3.820282   -0.590843
    224          0           0       -0.957624    3.785063   -0.590843
    225          0           0       -1.023833    3.740823   -0.590843
    226          0           0       -1.083702    3.688319   -0.590843
    227          0           0       -1.136206    3.628450   -0.590843
    228          0           0       -1.180446    3.562241   -0.590843
    229          0           0       -1.215665    3.490823   -0.590843
    230          0           0       -1.241261    3.415419   -0.590843
    231          0           0       -1.256796    3.337319   -0.590843
    232          0           0       -1.262004    3.257860   -0.590843
    233          0           0       -1.256796    3.178401   -0.590843
    234          0           0       -1.241261    3.100301   -0.590843
    235          0           0       -1.215665    3.024897   -0.590843
    236          0           0       -1.180446    2.953479   -0.590843
 ---------------------------------------------------------------------
 Rotational constants (GHZ):      0.4454681      0.2811480      0.1854303
 Leave Link  202 at Tue Sep 15 10:30:52 2020, MaxMem=   131072000 cpu:         0.0
 (Enter /share/programs/GAUSSIAN/64/g09/l301.exe)
 Standard basis: 6-311+G(d,p) (5D, 7F)
 Warning:  center  37 has no basis functions!
 Warning:  center  38 has no basis functions!
 Warning:  center  39 has no basis functions!
 Warning:  center  40 has no basis functions!
 Warning:  center  41 has no basis functions!
 Warning:  center  42 has no basis functions!
 Warning:  center  43 has no basis functions!
 Warning:  center  44 has no basis functions!
 Warning:  center  45 has no basis functions!
 Warning:  center  46 has no basis functions!
 Warning:  center  47 has no basis functions!
 Warning:  center  48 has no basis functions!
 Warning:  center  49 has no basis functions!
 Warning:  center  50 has no basis functions!
 Warning:  center  51 has no basis functions!
 Warning:  center  52 has no basis functions!
 Warning:  center  53 has no basis functions!
 Warning:  center  54 has no basis functions!
 Warning:  center  55 has no basis functions!
 Warning:  center  56 has no basis functions!
 Warning:  center  57 has no basis functions!
 Warning:  center  58 has no basis functions!
 Warning:  center  59 has no basis functions!
 Warning:  center  60 has no basis functions!
 Warning:  center  61 has no basis functions!
 Warning:  center  62 has no basis functions!
 Warning:  center  63 has no basis functions!
 Warning:  center  64 has no basis functions!
 Warning:  center  65 has no basis functions!
 Warning:  center  66 has no basis functions!
 Warning:  center  67 has no basis functions!
 Warning:  center  68 has no basis functions!
 Warning:  center  69 has no basis functions!
 Warning:  center  70 has no basis functions!
 Warning:  center  71 has no basis functions!
 Warning:  center  72 has no basis functions!
 Warning:  center  73 has no basis functions!
 Warning:  center  74 has no basis functions!
 Warning:  center  75 has no basis functions!
 Warning:  center  76 has no basis functions!
 Warning:  center  77 has no basis functions!
 Warning:  center  78 has no basis functions!
 Warning:  center  79 has no basis functions!
 Warning:  center  80 has no basis functions!
 Warning:  center  81 has no basis functions!
 Warning:  center  82 has no basis functions!
 Warning:  center  83 has no basis functions!
 Warning:  center  84 has no basis functions!
 Warning:  center  85 has no basis functions!
 Warning:  center  86 has no basis functions!
 Warning:  center  87 has no basis functions!
 Warning:  center  88 has no basis functions!
 Warning:  center  89 has no basis functions!
 Warning:  center  90 has no basis functions!
 Warning:  center  91 has no basis functions!
 Warning:  center  92 has no basis functions!
 Warning:  center  93 has no basis functions!
 Warning:  center  94 has no basis functions!
 Warning:  center  95 has no basis functions!
 Warning:  center  96 has no basis functions!
 Warning:  center  97 has no basis functions!
 Warning:  center  98 has no basis functions!
 Warning:  center  99 has no basis functions!
 Warning:  center 100 has no basis functions!
 Warning:  center 101 has no basis functions!
 Warning:  center 102 has no basis functions!
 Warning:  center 103 has no basis functions!
 Warning:  center 104 has no basis functions!
 Warning:  center 105 has no basis functions!
 Warning:  center 106 has no basis functions!
 Warning:  center 107 has no basis functions!
 Warning:  center 108 has no basis functions!
 Warning:  center 109 has no basis functions!
 Warning:  center 110 has no basis functions!
 Warning:  center 111 has no basis functions!
 Warning:  center 112 has no basis functions!
 Warning:  center 113 has no basis functions!
 Warning:  center 114 has no basis functions!
 Warning:  center 115 has no basis functions!
 Warning:  center 116 has no basis functions!
 Warning:  center 117 has no basis functions!
 Warning:  center 118 has no basis functions!
 Warning:  center 119 has no basis functions!
 Warning:  center 120 has no basis functions!
 Warning:  center 121 has no basis functions!
 Warning:  center 122 has no basis functions!
 Warning:  center 123 has no basis functions!
 Warning:  center 124 has no basis functions!
 Warning:  center 125 has no basis functions!
 Warning:  center 126 has no basis functions!
 Warning:  center 127 has no basis functions!
 Warning:  center 128 has no basis functions!
 Warning:  center 129 has no basis functions!
 Warning:  center 130 has no basis functions!
 Warning:  center 131 has no basis functions!
 Warning:  center 132 has no basis functions!
 Warning:  center 133 has no basis functions!
 Warning:  center 134 has no basis functions!
 Warning:  center 135 has no basis functions!
 Warning:  center 136 has no basis functions!
 Warning:  center 137 has no basis functions!
 Warning:  center 138 has no basis functions!
 Warning:  center 139 has no basis functions!
 Warning:  center 140 has no basis functions!
 Warning:  center 141 has no basis functions!
 Warning:  center 142 has no basis functions!
 Warning:  center 143 has no basis functions!
 Warning:  center 144 has no basis functions!
 Warning:  center 145 has no basis functions!
 Warning:  center 146 has no basis functions!
 Warning:  center 147 has no basis functions!
 Warning:  center 148 has no basis functions!
 Warning:  center 149 has no basis functions!
 Warning:  center 150 has no basis functions!
 Warning:  center 151 has no basis functions!
 Warning:  center 152 has no basis functions!
 Warning:  center 153 has no basis functions!
 Warning:  center 154 has no basis functions!
 Warning:  center 155 has no basis functions!
 Warning:  center 156 has no basis functions!
 Warning:  center 157 has no basis functions!
 Warning:  center 158 has no basis functions!
 Warning:  center 159 has no basis functions!
 Warning:  center 160 has no basis functions!
 Warning:  center 161 has no basis functions!
 Warning:  center 162 has no basis functions!
 Warning:  center 163 has no basis functions!
 Warning:  center 164 has no basis functions!
 Warning:  center 165 has no basis functions!
 Warning:  center 166 has no basis functions!
 Warning:  center 167 has no basis functions!
 Warning:  center 168 has no basis functions!
 Warning:  center 169 has no basis functions!
 Warning:  center 170 has no basis functions!
 Warning:  center 171 has no basis functions!
 Warning:  center 172 has no basis functions!
 Warning:  center 173 has no basis functions!
 Warning:  center 174 has no basis functions!
 Warning:  center 175 has no basis functions!
 Warning:  center 176 has no basis functions!
 Warning:  center 177 has no basis functions!
 Warning:  center 178 has no basis functions!
 Warning:  center 179 has no basis functions!
 Warning:  center 180 has no basis functions!
 Warning:  center 181 has no basis functions!
 Warning:  center 182 has no basis functions!
 Warning:  center 183 has no basis functions!
 Warning:  center 184 has no basis functions!
 Warning:  center 185 has no basis functions!
 Warning:  center 186 has no basis functions!
 Warning:  center 187 has no basis functions!
 Warning:  center 188 has no basis functions!
 Warning:  center 189 has no basis functions!
 Warning:  center 190 has no basis functions!
 Warning:  center 191 has no basis functions!
 Warning:  center 192 has no basis functions!
 Warning:  center 193 has no basis functions!
 Warning:  center 194 has no basis functions!
 Warning:  center 195 has no basis functions!
 Warning:  center 196 has no basis functions!
 Warning:  center 197 has no basis functions!
 Warning:  center 198 has no basis functions!
 Warning:  center 199 has no basis functions!
 Warning:  center 200 has no basis functions!
 Warning:  center 201 has no basis functions!
 Warning:  center 202 has no basis functions!
 Warning:  center 203 has no basis functions!
 Warning:  center 204 has no basis functions!
 Warning:  center 205 has no basis functions!
 Warning:  center 206 has no basis functions!
 Warning:  center 207 has no basis functions!
 Warning:  center 208 has no basis functions!
 Warning:  center 209 has no basis functions!
 Warning:  center 210 has no basis functions!
 Warning:  center 211 has no basis functions!
 Warning:  center 212 has no basis functions!
 Warning:  center 213 has no basis functions!
 Warning:  center 214 has no basis functions!
 Warning:  center 215 has no basis functions!
 Warning:  center 216 has no basis functions!
 Warning:  center 217 has no basis functions!
 Warning:  center 218 has no basis functions!
 Warning:  center 219 has no basis functions!
 Warning:  center 220 has no basis functions!
 Warning:  center 221 has no basis functions!
 Warning:  center 222 has no basis functions!
 Warning:  center 223 has no basis functions!
 Warning:  center 224 has no basis functions!
 Warning:  center 225 has no basis functions!
 Warning:  center 226 has no basis functions!
 Warning:  center 227 has no basis functions!
 Warning:  center 228 has no basis functions!
 Warning:  center 229 has no basis functions!
 Warning:  center 230 has no basis functions!
 Warning:  center 231 has no basis functions!
 Warning:  center 232 has no basis functions!
 Warning:  center 233 has no basis functions!
 Warning:  center 234 has no basis functions!
 Warning:  center 235 has no basis functions!
 Warning:  center 236 has no basis functions!
 Ernie: Thresh=  0.10000D-02 Tol=  0.10000D-05 Strict=F.
   568 basis functions,   904 primitive gaussians,   590 cartesian basis functions
    73 alpha electrons       73 beta electrons
       nuclear repulsion energy      1599.9156270972 Hartrees.
 IExCor=  402 DFT=T Ex+Corr=B3LYP ExCW=0 ScaHFX=  0.200000
 ScaDFX=  0.800000  0.720000  1.000000  0.810000 ScalE2=  1.000000  1.000000
 IRadAn=      0 IRanWt=     -1 IRanGd=            0 ICorTp=0 IEmpDi=  4
 NAtoms=  236 NActive=  236 NUniq=  236 SFac= 1.00D+00 NAtFMM=   60 NAOKFM=T Big=T
 Integral buffers will be    131072 words long.
 Raffenetti 2 integral format.
 Two-electron integral symmetry is turned off.
 Leave Link  301 at Tue Sep 15 10:30:52 2020, MaxMem=   131072000 cpu:         0.5
 (Enter /share/programs/GAUSSIAN/64/g09/l302.exe)
 NPDir=0 NMtPBC=     1 NCelOv=     1 NCel=       1 NClECP=     1 NCelD=      1
         NCelK=      1 NCelE2=     1 NClLst=     1 CellRange=     0.0.
 One-electron integrals computed using PRISM.
 NBasis=   568 RedAO= T EigKep=  1.01D-06  NBF=   568
 NBsUse=   557 1.00D-06 EigRej=  9.19D-07 NBFU=   557
 Precomputing XC quadrature grid using
 IXCGrd= 4 IRadAn=           0 IRanWt=          -1 IRanGd=           0 AccXCQ= 0.00D+00.
 Generated NRdTot=       0 NPtTot=           0 NUsed=           0 NTot=          32
 NSgBfM=   587   588   588   589   589 MxSgAt=   236 MxSgA2=    36.
 Leave Link  302 at Tue Sep 15 10:30:54 2020, MaxMem=   131072000 cpu:        15.0
 (Enter /share/programs/GAUSSIAN/64/g09/l308.exe)
 Leave Link  308 at Tue Sep 15 10:30:55 2020, MaxMem=   131072000 cpu:         1.2
 (Enter /share/programs/GAUSSIAN/64/g09/l303.exe)
 DipDrv:  MaxL=1.
 Leave Link  303 at Tue Sep 15 10:30:55 2020, MaxMem=   131072000 cpu:         0.8
 (Enter /share/programs/GAUSSIAN/64/g09/l401.exe)
 Initial guess from the checkpoint file:  "/scratch/aartigas.38764/Gau-11435.chk"
 Skipping rotation of guess because NAtoms(RWF)=  236 differs from NAtoms(Chk)=   36.
 Guess basis will be translated and rotated to current coordinates.
 JPrj=2 DoOrth=T DoCkMO=T.
 Leave Link  401 at Tue Sep 15 10:30:57 2020, MaxMem=   131072000 cpu:        10.2
 (Enter /share/programs/GAUSSIAN/64/g09/l502.exe)
 Closed shell SCF:
 Using DIIS extrapolation, IDIIS=  1040.
 Two-electron integral symmetry not used.
 IVT=     1071582 IEndB=     1071582 NGot=   131072000 MDV=   130365749
 LenX=   130365749 LenY=   130017059
 Requested convergence on RMS density matrix=1.00D-08 within 128 cycles.
 Requested convergence on MAX density matrix=1.00D-06.
 Requested convergence on             energy=1.00D-06.
 No special actions if energy rises.
 Fock matrices will be formed incrementally for  20 cycles.

 Cycle   1  Pass 1  IDiag  1:
 FoFJK:  IHMeth= 1 ICntrl=       0 DoSepK=F KAlg= 0 I1Cent=   0 FoldK=F
 IRaf= 940000000 NMat=   1 IRICut=       1 DoRegI=T DoRafI=F ISym2E= 0.
 FoFCou: FMM=T IPFlag=           0 FMFlag=      100000 FMFlg1=        2001
         NFxFlg=           0 DoJE=F BraDBF=F KetDBF=F FulRan=T
         wScrn=  0.000000 ICntrl=       0 IOpCl=  0 I1Cent=           0 NGrid=           0
         NMat0=    1 NMatS0=      1 NMatT0=    0 NMatD0=    1 NMtDS0=    0 NMtDT0=    0
 Symmetry not used in FoFCou.
 FMM levels:  10  Number of levels for PrismC:   9
 E= -847.003738666969    
 DIIS: error= 5.05D-08 at cycle   1 NSaved=   1.
 NSaved= 1 IEnMin= 1 EnMin= -847.003738666969     IErMin= 1 ErrMin= 5.05D-08
 ErrMax= 5.05D-08  0.00D+00 EMaxC= 1.00D-01 BMatC= 3.55D-12 BMatP= 3.55D-12
 IDIUse=1 WtCom= 1.00D+00 WtEn= 0.00D+00
 Coeff-Com:  0.100D+01
 Coeff:      0.100D+01
 Gap=     0.151 Goal=   None    Shift=    0.000
 RMSDP=2.88D-07 MaxDP=1.33D-05              OVMax= 3.94D-07

 Cycle   2  Pass 1  IDiag  1:
 RMSU=  2.85D-07    CP:  1.00D+00
 E= -847.003738666884     Delta-E=        0.000000000085 Rises=F Damp=F
 DIIS: error= 1.42D-08 at cycle   2 NSaved=   2.
 NSaved= 2 IEnMin= 1 EnMin= -847.003738666969     IErMin= 2 ErrMin= 1.42D-08
 ErrMax= 1.42D-08  0.00D+00 EMaxC= 1.00D-01 BMatC= 2.13D-13 BMatP= 3.55D-12
 IDIUse=1 WtCom= 1.00D+00 WtEn= 0.00D+00
 Coeff-Com:  0.627D-01 0.937D+00
 Coeff:      0.627D-01 0.937D+00
 Gap=     0.151 Goal=   None    Shift=    0.000
 RMSDP=1.57D-08 MaxDP=7.93D-07 DE= 8.55D-11 OVMax= 3.02D-07

 Cycle   3  Pass 1  IDiag  1:
 RMSU=  1.32D-08    CP:  1.00D+00  1.02D+00
 E= -847.003738666836     Delta-E=        0.000000000048 Rises=F Damp=F
 DIIS: error= 2.51D-08 at cycle   3 NSaved=   3.
 NSaved= 3 IEnMin= 1 EnMin= -847.003738666969     IErMin= 2 ErrMin= 1.42D-08
 ErrMax= 2.51D-08  0.00D+00 EMaxC= 1.00D-01 BMatC= 5.05D-13 BMatP= 2.13D-13
 IDIUse=1 WtCom= 1.00D+00 WtEn= 0.00D+00
 Coeff-Com: -0.107D-01 0.616D+00 0.395D+00
 Coeff:     -0.107D-01 0.616D+00 0.395D+00
 Gap=     0.151 Goal=   None    Shift=    0.000
 RMSDP=1.03D-08 MaxDP=4.17D-07 DE= 4.82D-11 OVMax= 2.17D-07

 Cycle   4  Pass 1  IDiag  1:
 RMSU=  5.87D-09    CP:  1.00D+00  1.02D+00  3.90D-01
 E= -847.003738666937     Delta-E=       -0.000000000102 Rises=F Damp=F
 DIIS: error= 8.06D-09 at cycle   4 NSaved=   4.
 NSaved= 4 IEnMin= 1 EnMin= -847.003738666969     IErMin= 4 ErrMin= 8.06D-09
 ErrMax= 8.06D-09  0.00D+00 EMaxC= 1.00D-01 BMatC= 2.06D-14 BMatP= 2.13D-13
 IDIUse=1 WtCom= 1.00D+00 WtEn= 0.00D+00
 Coeff-Com: -0.876D-02 0.309D+00 0.241D+00 0.459D+00
 Coeff:     -0.876D-02 0.309D+00 0.241D+00 0.459D+00
 Gap=     0.151 Goal=   None    Shift=    0.000
 RMSDP=4.12D-09 MaxDP=1.58D-07 DE=-1.02D-10 OVMax= 6.88D-08

 SCF Done:  E(RB3LYP) =  -847.003738667     A.U. after    4 cycles
            NFock=  4  Conv=0.41D-08     -V/T= 2.0049
 KE= 8.428349970566D+02 PE=-5.164192584015D+03 EE= 1.874438221195D+03
 Leave Link  502 at Tue Sep 15 10:33:07 2020, MaxMem=   131072000 cpu:      1040.0
 (Enter /share/programs/GAUSSIAN/64/g09/l801.exe)
 DoSCS=F DFT=T ScalE2(SS,OS)=  1.000000  1.000000
 Range of M.O.s used for correlation:     1   557
 NBasis=   568 NAE=    73 NBE=    73 NFC=     0 NFV=     0
 NROrb=    557 NOA=    73 NOB=    73 NVA=   484 NVB=   484

 **** Warning!!: The largest alpha MO coefficient is  0.14271944D+03

 Leave Link  801 at Tue Sep 15 10:33:07 2020, MaxMem=   131072000 cpu:         0.3
 (Enter /share/programs/GAUSSIAN/64/g09/l1002.exe)
 Minotr:  Closed shell wavefunction.
          Direct CPHF calculation.
          Differentiating once with respect to magnetic field using GIAOs.
          Electric field/nuclear overlap derivatives assumed to be zero.
          Requested convergence is 1.0D-08 RMS, and 1.0D-07 maximum.
          Secondary convergence is 1.0D-12 RMS, and 1.0D-12 maximum.
          NewPWx=T KeepS1=F KeepF1=F KeepIn=T MapXYZ=F SortEE=F KeepMc=T.
          MDV=     131069551 using IRadAn=       2.
 Generate precomputed XC quadrature information.
          Solving linear equations simultaneously, MaxMat=      72.
 FoFCou: FMM=F IPFlag=           0 FMFlag=      100000 FMFlg1=        2001
         NFxFlg=           0 DoJE=F BraDBF=F KetDBF=T FulRan=T
         wScrn=  0.000000 ICntrl=    6100 IOpCl=  0 I1Cent=           7 NGrid=         236
         NMat0=    1 NMatS0=      1 NMatT0=    0 NMatD0=    1 NMtDS0=    0 NMtDT0=    0
 Symmetry not used in FoFCou.
 FoFJK:  IHMeth= 1 ICntrl=    6127 DoSepK=F KAlg= 0 I1Cent=   0 FoldK=F
 IRaf=         1 NMat=   1 IRICut=       1 DoRegI=T DoRafI=F ISym2E= 0.
          There are     3 degrees of freedom in the 1st order CPHF.  IDoFFX=0 NUNeed=     3.
      3 vectors produced by pass  0 Test12= 1.18D-12 3.33D-08 XBig12= 1.96D+03 8.77D+00.
 AX will form     3 AO Fock derivatives at one time.
      3 vectors produced by pass  1 Test12= 1.18D-12 3.33D-08 XBig12= 3.18D+00 7.58D-01.
      3 vectors produced by pass  2 Test12= 1.18D-12 3.33D-08 XBig12= 1.86D-02 5.85D-02.
      3 vectors produced by pass  3 Test12= 1.18D-12 3.33D-08 XBig12= 4.29D-05 1.35D-03.
      3 vectors produced by pass  4 Test12= 1.18D-12 3.33D-08 XBig12= 9.75D-08 7.22D-05.
      3 vectors produced by pass  5 Test12= 1.18D-12 3.33D-08 XBig12= 3.97D-10 5.92D-06.
      3 vectors produced by pass  6 Test12= 1.18D-12 3.33D-08 XBig12= 1.51D-12 4.40D-07.
 InvSVY:  IOpt=1 It=  1 EMax= 1.42D-14
 Solved reduced A of dimension    21 with     3 vectors.
 Calculating GIAO nuclear magnetic shielding tensors.
 SCF GIAO Magnetic shielding tensor (ppm):
      1  C    Isotropic =    49.6861   Anisotropy =   149.7970
   XX=    46.3088   YX=   -25.0950   ZX=    31.4786
   XY=   -31.1109   YY=   -39.0339   ZY=    13.2621
   XZ=    24.9178   YZ=     8.9888   ZZ=   141.7833
   Eigenvalues:   -49.3507    48.8581   149.5507
      2  C    Isotropic =    49.6861   Anisotropy =   149.7971
   XX=    46.3088   YX=    25.0953   ZX=    31.4786
   XY=    31.1111   YY=   -39.0339   ZY=   -13.2621
   XZ=    24.9177   YZ=    -8.9889   ZZ=   141.7834
   Eigenvalues:   -49.3508    48.8583   149.5509
      3  C    Isotropic =    44.4899   Anisotropy =   204.7372
   XX=   -22.2199   YX=    10.8075   ZX=    51.2710
   XY=     4.9259   YY=   -14.7126   ZY=    14.7921
   XZ=    32.3655   YZ=    21.2392   ZZ=   170.4022
   Eigenvalues:   -31.9593   -15.5523   180.9814
      4  C    Isotropic =    44.4899   Anisotropy =   204.7373
   XX=   -22.2198   YX=   -10.8075   ZX=    51.2710
   XY=    -4.9256   YY=   -14.7126   ZY=   -14.7922
   XZ=    32.3656   YZ=   -21.2393   ZZ=   170.4023
   Eigenvalues:   -31.9592   -15.5524   180.9815
      5  C    Isotropic =    48.5420   Anisotropy =   189.5490
   XX=   -14.6790   YX=     4.7342   ZX=     8.4333
   XY=    20.3759   YY=    -5.5375   ZY=    31.5121
   XZ=    65.1218   YZ=     0.8640   ZZ=   165.8426
   Eigenvalues:   -26.3226    -2.9593   174.9080
      6  C    Isotropic =    48.5421   Anisotropy =   189.5489
   XX=   -14.6789   YX=    -4.7340   ZX=     8.4335
   XY=   -20.3758   YY=    -5.5374   ZY=   -31.5121
   XZ=    65.1218   YZ=    -0.8638   ZZ=   165.8426
   Eigenvalues:   -26.3224    -2.9594   174.9080
      7  C    Isotropic =    50.1907   Anisotropy =   149.2089
   XX=    19.7303   YX=   -44.2755   ZX=    41.2886
   XY=   -38.0437   YY=    -2.7069   ZY=    36.9011
   XZ=    36.5866   YZ=    37.5458   ZZ=   133.5487
   Eigenvalues:   -49.6656    50.5744   149.6633
      8  C    Isotropic =    48.9362   Anisotropy =   152.4339
   XX=   -31.5093   YX=   -11.4921   ZX=    54.7730
   XY=   -19.0468   YY=    46.5898   ZY=    27.5522
   XZ=    42.2451   YZ=    29.8391   ZZ=   131.7282
   Eigenvalues:   -50.1461    46.3960   150.5589
      9  C    Isotropic =    44.4204   Anisotropy =   209.3981
   XX=   -10.1987   YX=    16.7536   ZX=    44.4888
   XY=     8.9342   YY=    -7.7270   ZY=    61.4651
   XZ=    43.3269   YZ=    64.9792   ZZ=   151.1869
   Eigenvalues:   -30.3689   -20.3891   184.0192
     10  C    Isotropic =    45.3894   Anisotropy =   198.3236
   XX=    -5.9706   YX=    23.3819   ZX=    35.6519
   XY=    38.1954   YY=     1.7271   ZY=    73.1370
   XZ=    54.0013   YZ=    45.7045   ZZ=   140.4116
   Eigenvalues:   -33.5315    -7.9055   177.6051
     11  H    Isotropic =    23.8179   Anisotropy =     7.5674
   XX=    27.2191   YX=    -1.9090   ZX=    -2.2602
   XY=    -1.7961   YY=    24.8722   ZY=    -0.1966
   XZ=    -3.3763   YZ=    -0.1950   ZZ=    19.3625
   Eigenvalues:    18.3647    24.2263    28.8628
     12  H    Isotropic =    23.8179   Anisotropy =     7.5674
   XX=    27.2191   YX=     1.9090   ZX=    -2.2602
   XY=     1.7961   YY=    24.8722   ZY=     0.1966
   XZ=    -3.3763   YZ=     0.1950   ZZ=    19.3625
   Eigenvalues:    18.3647    24.2263    28.8628
     13  H    Isotropic =    23.8548   Anisotropy =     7.5124
   XX=    26.7195   YX=    -2.1358   ZX=    -2.0755
[...]
   131  Bq   0.000000
   132  Bq   0.000000
   133  Bq   0.000000
   134  Bq   0.000000
   135  Bq   0.000000
   136  Bq   0.000000
   137  Bq   0.000000
   138  Bq   0.000000
   139  Bq   0.000000
   140  Bq   0.000000
   141  Bq   0.000000
   142  Bq   0.000000
   143  Bq   0.000000
   144  Bq   0.000000
   145  Bq   0.000000
   146  Bq   0.000000
   147  Bq   0.000000
   148  Bq   0.000000
   149  Bq   0.000000
   150  Bq   0.000000
   151  Bq   0.000000
   152  Bq   0.000000
   153  Bq   0.000000
   154  Bq   0.000000
   155  Bq   0.000000
   156  Bq   0.000000
   157  Bq   0.000000
   158  Bq   0.000000
   159  Bq   0.000000
   160  Bq   0.000000
   161  Bq   0.000000
   162  Bq   0.000000
   163  Bq   0.000000
   164  Bq   0.000000
   165  Bq   0.000000
   166  Bq   0.000000
   167  Bq   0.000000
   168  Bq   0.000000
   169  Bq   0.000000
   170  Bq   0.000000
   171  Bq   0.000000
   172  Bq   0.000000
   173  Bq   0.000000
   174  Bq   0.000000
   175  Bq   0.000000
   176  Bq   0.000000
   177  Bq   0.000000
   178  Bq   0.000000
   179  Bq   0.000000
   180  Bq   0.000000
   181  Bq   0.000000
   182  Bq   0.000000
   183  Bq   0.000000
   184  Bq   0.000000
   185  Bq   0.000000
   186  Bq   0.000000
   187  Bq   0.000000
   188  Bq   0.000000
   189  Bq   0.000000
   190  Bq   0.000000
   191  Bq   0.000000
   192  Bq   0.000000
   193  Bq   0.000000
   194  Bq   0.000000
   195  Bq   0.000000
   196  Bq   0.000000
   197  Bq   0.000000
   198  Bq   0.000000
   199  Bq   0.000000
   200  Bq   0.000000
   201  Bq   0.000000
   202  Bq   0.000000
   203  Bq   0.000000
   204  Bq   0.000000
   205  Bq   0.000000
   206  Bq   0.000000
   207  Bq   0.000000
   208  Bq   0.000000
   209  Bq   0.000000
   210  Bq   0.000000
   211  Bq   0.000000
   212  Bq   0.000000
   213  Bq   0.000000
   214  Bq   0.000000
   215  Bq   0.000000
   216  Bq   0.000000
   217  Bq   0.000000
   218  Bq   0.000000
   219  Bq   0.000000
   220  Bq   0.000000
   221  Bq   0.000000
   222  Bq   0.000000
   223  Bq   0.000000
   224  Bq   0.000000
   225  Bq   0.000000
   226  Bq   0.000000
   227  Bq   0.000000
   228  Bq   0.000000
   229  Bq   0.000000
   230  Bq   0.000000
   231  Bq   0.000000
   232  Bq   0.000000
   233  Bq   0.000000
   234  Bq   0.000000
   235  Bq   0.000000
   236  Bq   0.000000
 Sum of Mulliken charges =   0.00000
 Mulliken charges with hydrogens summed into heavy atoms:
               1
     1  C   -0.262865
     2  C   -0.384058
     3  C    0.737923
     4  C    0.737922
     5  C   -0.039994
     6  C   -0.040001
     7  C    0.075155
     8  C   -0.330147
     9  C    0.780501
    10  C   -0.200782
    15  C    0.249272
    16  C   -0.533462
    17  C   -0.189404
    18  C   -0.286191
    23  C   -0.330145
    24  C    0.075154
    25  C    0.780496
    26  C   -0.200782
    27  C    0.249273
    28  C   -0.286192
    29  C   -0.189403
    30  C   -0.533462
    37  Bq   0.000000
    38  Bq   0.000000
    39  Bq   0.000000
    40  Bq   0.000000
    41  Bq   0.000000
    42  Bq   0.000000
    43  Bq   0.000000
    44  Bq   0.000000
    45  Bq   0.000000
    46  Bq   0.000000
    47  Bq   0.000000
    48  Bq   0.000000
    49  Bq   0.000000
    50  Bq   0.000000
    51  Bq   0.000000
    52  Bq   0.000000
    53  Bq   0.000000
    54  Bq   0.000000
    55  Bq   0.000000
    56  Bq   0.000000
    57  Bq   0.000000
    58  Bq   0.000000
    59  Bq   0.000000
    60  Bq   0.000000
    61  Bq   0.000000
    62  Bq   0.000000
    63  Bq   0.000000
    64  Bq   0.000000
    65  Bq   0.000000
    66  Bq   0.000000
    67  Bq   0.000000
    68  Bq   0.000000
    69  Bq   0.000000
    70  Bq   0.000000
    71  Bq   0.000000
    72  Bq   0.000000
    73  Bq   0.000000
    74  Bq   0.000000
    75  Bq   0.000000
    76  Bq   0.000000
    77  Bq   0.000000
    78  Bq   0.000000
    79  Bq   0.000000
    80  Bq   0.000000
    81  Bq   0.000000
    82  Bq   0.000000
    83  Bq   0.000000
    84  Bq   0.000000
    85  Bq   0.000000
    86  Bq   0.000000
    87  Bq   0.000000
    88  Bq   0.000000
    89  Bq   0.000000
    90  Bq   0.000000
    91  Bq   0.000000
    92  Bq   0.000000
    93  Bq   0.000000
    94  Bq   0.000000
    95  Bq   0.000000
    96  Bq   0.000000
    97  Bq   0.000000
    98  Bq   0.000000
    99  Bq   0.000000
   100  Bq   0.000000
   101  Bq   0.000000
   102  Bq   0.000000
   103  Bq   0.000000
   104  Bq   0.000000
   105  Bq   0.000000
   106  Bq   0.000000
   107  Bq   0.000000
   108  Bq   0.000000
   109  Bq   0.000000
   110  Bq   0.000000
   111  Bq   0.000000
   112  Bq   0.000000
   113  Bq   0.000000
   114  Bq   0.000000
   115  Bq   0.000000
   116  Bq   0.000000
   117  Bq   0.000000
   118  Bq   0.000000
   119  Bq   0.121192
   120  Bq   0.000000
   121  Bq   0.000000
   122  Bq   0.000000
   123  Bq   0.000000
   124  Bq   0.000000
   125  Bq   0.000000
   126  Bq   0.000000
   127  Bq   0.000000
   128  Bq   0.000000
   129  Bq   0.000000
   130  Bq   0.000000
   131  Bq   0.000000
   132  Bq   0.000000
   133  Bq   0.000000
   134  Bq   0.000000
   135  Bq   0.000000
   136  Bq   0.000000
   137  Bq   0.000000
   138  Bq   0.000000
   139  Bq   0.000000
   140  Bq   0.000000
   141  Bq   0.000000
   142  Bq   0.000000
   143  Bq   0.000000
   144  Bq   0.000000
   145  Bq   0.000000
   146  Bq   0.000000
   147  Bq   0.000000
   148  Bq   0.000000
   149  Bq   0.000000
   150  Bq   0.000000
   151  Bq   0.000000
   152  Bq   0.000000
   153  Bq   0.000000
   154  Bq   0.000000
   155  Bq   0.000000
   156  Bq   0.000000
   157  Bq   0.000000
   158  Bq   0.000000
   159  Bq   0.000000
   160  Bq   0.000000
   161  Bq   0.000000
   162  Bq   0.000000
   163  Bq   0.000000
   164  Bq   0.000000
   165  Bq   0.000000
   166  Bq   0.000000
   167  Bq   0.000000
   168  Bq   0.000000
   169  Bq   0.000000
   170  Bq   0.000000
   171  Bq   0.000000
   172  Bq   0.000000
   173  Bq   0.000000
   174  Bq   0.000000
   175  Bq   0.000000
   176  Bq   0.000000
   177  Bq   0.000000
   178  Bq   0.000000
   179  Bq   0.000000
   180  Bq   0.000000
   181  Bq   0.000000
   182  Bq   0.000000
   183  Bq   0.000000
   184  Bq   0.000000
   185  Bq   0.000000
   186  Bq   0.000000
   187  Bq   0.000000
   188  Bq   0.000000
   189  Bq   0.000000
   190  Bq   0.000000
   191  Bq   0.000000
   192  Bq   0.000000
   193  Bq   0.000000
   194  Bq   0.000000
   195  Bq   0.000000
   196  Bq   0.000000
   197  Bq   0.000000
   198  Bq   0.000000
   199  Bq   0.000000
   200  Bq   0.000000
   201  Bq   0.000000
   202  Bq   0.000000
   203  Bq   0.000000
   204  Bq   0.000000
   205  Bq   0.000000
   206  Bq   0.000000
   207  Bq   0.000000
   208  Bq   0.000000
   209  Bq   0.000000
   210  Bq   0.000000
   211  Bq   0.000000
   212  Bq   0.000000
   213  Bq   0.000000
   214  Bq   0.000000
   215  Bq   0.000000
   216  Bq   0.000000
   217  Bq   0.000000
   218  Bq   0.000000
   219  Bq   0.000000
   220  Bq   0.000000
   221  Bq   0.000000
   222  Bq   0.000000
   223  Bq   0.000000
   224  Bq   0.000000
   225  Bq   0.000000
   226  Bq   0.000000
   227  Bq   0.000000
   228  Bq   0.000000
   229  Bq   0.000000
   230  Bq   0.000000
   231  Bq   0.000000
   232  Bq   0.000000
   233  Bq   0.000000
   234  Bq   0.000000
   235  Bq   0.000000
   236  Bq   0.000000
 Electronic spatial extent (au):  <R**2>=           5804.3227
 Charge=              0.0000 electrons
 Dipole moment (field-independent basis, Debye):
    X=              0.0000    Y=              0.0732    Z=              0.0000  Tot=              0.0732
 Quadrupole moment (field-independent basis, Debye-Ang):
   XX=           -113.9137   YY=           -113.9781   ZZ=           -133.4378
   XY=              0.0000   XZ=             -4.8717   YZ=              0.0000
 Traceless Quadrupole moment (field-independent basis, Debye-Ang):
   XX=              6.5295   YY=              6.4651   ZZ=            -12.9946
   XY=              0.0000   XZ=             -4.8717   YZ=              0.0000
 Octapole moment (field-independent basis, Debye-Ang**2):
  XXX=              0.0000  YYY=             11.7108  ZZZ=              0.0000  XYY=              0.0000
  XXY=             -6.4067  XXZ=              0.0000  XZZ=              0.0000  YZZ=             -7.8695
  YYZ=              0.0000  XYZ=            -16.2862
 Hexadecapole moment (field-independent basis, Debye-Ang**3):
 XXXX=          -4416.4021 YYYY=          -2784.9756 ZZZZ=           -481.5690 XXXY=              0.0001
 XXXZ=           -124.3517 YYYX=             -0.0003 YYYZ=              0.0001 ZZZX=             -4.4782
 ZZZY=              0.0001 XXYY=          -1189.3576 XXZZ=           -942.9016 YYZZ=           -589.4012
 XXYZ=              0.0000 YYXZ=              7.8297 ZZXY=             -0.0001
 N-N= 1.599915627097D+03 E-N=-5.164192587538D+03  KE= 8.428349970566D+02
 Leave Link  601 at Tue Sep 15 10:43:42 2020, MaxMem=   131072000 cpu:         0.8
 (Enter /share/programs/GAUSSIAN/64/g09/l9999.exe)
 1\1\GINC-XHYSTOS\SP\RB3LYP\6-311+G(d,p)\C22H14\AARTIGAS\15-Sep-2020\0\
 \#P rb3lyp/6-311+g** NMR Guess=Read geom=connectivity\\Title\\0,1\C,0,
 0.653241,3.257859,-0.20251\C,0,-0.653243,3.25786,0.20251\C,0,1.372495,
 2.032956,-0.320807\C,0,-1.372495,2.032956,0.320807\C,0,0.722474,0.7956
 66,-0.050388\C,0,-0.722474,0.795667,0.050387\C,0,2.760385,2.053927,-0.
 674268\C,0,3.508866,0.913916,-0.671362\C,0,2.955226,-0.309622,-0.17747
 9\C,0,1.574722,-0.361114,0.197094\H,0,1.183427,4.19574,-0.384599\H,0,-
 1.183429,4.19574,0.384599\H,0,3.206283,3.012423,-0.951392\H,0,4.560023
 ,0.932956,-0.969333\C,0,3.78302,-1.443098,0.028309\C,0,1.137427,-1.507
 533,0.912109\C,0,1.973691,-2.584349,1.138062\C,0,3.301853,-2.571588,0.
 661177\H,0,4.825754,-1.39123,-0.295484\H,0,0.124652,-1.532788,1.308472
 \H,0,1.603586,-3.445682,1.698977\H,0,3.952742,-3.433526,0.825134\C,0,-
 3.508866,0.913915,0.671362\C,0,-2.760386,2.053926,0.674268\C,0,-2.9552
 26,-0.309623,0.177479\C,0,-1.574722,-0.361114,-0.197094\C,0,-3.78302,-
 1.443099,-0.028309\C,0,-3.301852,-2.571589,-0.661177\C,0,-1.97369,-2.5
 84349,-1.138061\C,0,-1.137426,-1.507534,-0.912109\H,0,-4.560022,0.9329
 54,0.969334\H,0,-3.206283,3.012421,0.951392\H,0,-4.825754,-1.391232,0.
 295484\H,0,-3.952741,-3.433528,-0.825134\H,0,-1.603585,-3.445682,-1.69
 8976\H,0,-0.124652,-1.532788,-1.308471\Bq,0,-0.9098478123,3.2240773356
 ,1.1684358263\Bq,0,-0.903243,3.1908727019,1.1684358263\Bq,0,-0.8923606
 184,3.1588142395,1.1684358263\Bq,0,-0.877386868,3.1284504774,1.1684358
 263\Bq,0,-0.858577954,3.1003009482,1.1684358263\Bq,0,-0.8362557019,3.0
 748472981,1.1684358263\Bq,0,-0.8108020518,3.052525046,1.1684358263\Bq,
 0,-0.7826525226,3.033716132,1.1684358263\Bq,0,-0.7522887605,3.01874238
 16,1.1684358263\Bq,0,-0.7202302981,3.00786,1.1684358263\Bq,0,-0.687025
 6644,3.0012551877,1.1684358263\Bq,0,-0.653243,2.9990409549,1.168435826
 3\Bq,0,-0.6194603356,3.0012551877,1.1684358263\Bq,0,-0.5862557019,3.00
 786,1.1684358263\Bq,0,-0.5541972395,3.0187423816,1.1684358263\Bq,0,-0.
 5238334774,3.033716132,1.1684358263\Bq,0,-0.4956839482,3.052525046,1.1
 684358263\Bq,0,-0.4702302981,3.0748472981,1.1684358263\Bq,0,-0.4479080
 46,3.1003009482,1.1684358263\Bq,0,-0.429099132,3.1284504774,1.16843582
 63\Bq,0,-0.4141253816,3.1588142395,1.1684358263\Bq,0,-0.403243,3.19087
 27019,1.1684358263\Bq,0,-0.3966381877,3.2240773356,1.1684358263\Bq,0,-
 0.2705595676,3.25786,1.1263895325\Bq,0,-0.2738334774,3.3078102113,1.12
 63895325\Bq,0,-0.2835991894,3.3569057605,1.1263895325\Bq,0,-0.29968960
 94,3.4043066094,1.1263895325\Bq,0,-0.321829426,3.4492017162,1.12638953
 25\Bq,0,-0.3496398207,3.4908229131,1.1263895325\Bq,0,-0.3826449499,3.5
 284580501,1.1263895325\Bq,0,-0.4202800869,3.5614631793,1.1263895325\Bq
 ,0,-0.4619012838,3.589273574,1.1263895325\Bq,0,-0.5067963906,3.6114133
 906,1.1263895325\Bq,0,-0.5541972395,3.6275038106,1.1263895325\Bq,0,-0.
 6032927887,3.6372695226,1.1263895325\Bq,0,-0.653243,3.6405434324,1.126
 3895325\Bq,0,-0.7031932113,3.6372695226,1.1263895325\Bq,0,-0.752288760
 5,3.6275038106,1.1263895325\Bq,0,-0.7996896094,3.6114133906,1.12638953
 25\Bq,0,-0.8445847162,3.589273574,1.1263895325\Bq,0,-0.8862059131,3.56
 14631793,1.1263895325\Bq,0,-0.9238410501,3.5284580501,1.1263895325\Bq,
 0,-0.9568461793,3.4908229131,1.1263895325\Bq,0,-0.984656574,3.44920171
 62,1.1263895325\Bq,0,-1.0067963906,3.4043066094,1.1263895325\Bq,0,-1.0
 228868106,3.3569057605,1.1263895325\Bq,0,-1.0326525226,3.3078102113,1.
 1263895325\Bq,0,-1.0359264324,3.25786,1.1263895325\Bq,0,-1.0326525226,
 3.2079097887,1.1263895325\Bq,0,-1.0228868106,3.1588142395,1.1263895325
 \Bq,0,-1.0067963906,3.1114133906,1.1263895325\Bq,0,-0.984656574,3.0665
 182838,1.1263895325\Bq,0,-0.9568461793,3.0248970869,1.1263895325\Bq,0,
 -0.9238410501,2.9872619499,1.1263895325\Bq,0,-0.8862059131,2.954256820
 7,1.1263895325\Bq,0,-0.8445847162,2.926446426,1.1263895325\Bq,0,-0.799
 6896094,2.9043066094,1.1263895325\Bq,0,-0.7522887605,2.8882161894,1.12
 63895325\Bq,0,-0.7031932113,2.8784504774,1.1263895325\Bq,0,-0.653243,2
 .8751765676,1.1263895325\Bq,0,-0.6032927887,2.8784504774,1.1263895325\
 Bq,0,-0.5541972395,2.8882161894,1.1263895325\Bq,0,-0.5067963906,2.9043
 066094,1.1263895325\Bq,0,-0.4619012838,2.926446426,1.1263895325\Bq,0,-
 0.4202800869,2.9542568207,1.1263895325\Bq,0,-0.3826449499,2.9872619499
 ,1.1263895325\Bq,0,-0.3496398207,3.0248970869,1.1263895325\Bq,0,-0.321
 829426,3.0665182838,1.1263895325\Bq,0,-0.2996896094,3.1114133906,1.126
 3895325\Bq,0,-0.2835991894,3.1588142395,1.1263895325\Bq,0,-0.273833477
 4,3.2079097887,1.1263895325\Bq,0,-0.153243,3.25786,1.0685354038\Bq,0,-
 0.1575205693,3.3231230961,1.0685354038\Bq,0,-0.1702800869,3.3872695226
 ,1.0685354038\Bq,0,-0.1913032337,3.4492017162,1.0685354038\Bq,0,-0.220
 2302981,3.50786,1.0685354038\Bq,0,-0.2565663299,3.5622407145,1.0685354
 038\Bq,0,-0.2996896094,3.6114133906,1.0685354038\Bq,0,-0.3488622855,3.
 6545366701,1.0685354038\Bq,0,-0.403243,3.6908727019,1.0685354038\Bq,0,
 -0.4619012838,3.7197997663,1.0685354038\Bq,0,-0.5238334774,3.740822913
 1,1.0685354038\Bq,0,-0.5879799039,3.7535824307,1.0685354038\Bq,0,-1.11
 51827663,3.4492017162,1.0685354038\Bq,0,-1.1362059131,3.3872695226,1.0
 685354038\Bq,0,-1.0067963906,2.9043066094,1.0685354038\Bq,0,-0.9576237
 145,2.8611833299,1.0685354038\Bq,0,-0.903243,2.8248472981,1.0685354038
 \Bq,0,-0.8445847162,2.7959202337,1.0685354038\Bq,0,-0.7826525226,2.774
 8970869,1.0685354038\Bq,0,-0.7185060961,2.7621375693,1.0685354038\Bq,0
 ,-0.653243,2.75786,1.0685354038\Bq,0,-0.5879799039,2.7621375693,1.0685
 354038\Bq,0,-0.5238334774,2.7748970869,1.0685354038\Bq,0,-0.4619012838
 ,2.7959202337,1.0685354038\Bq,0,-0.403243,2.8248472981,1.0685354038\Bq
 ,0,-0.3488622855,2.8611833299,1.0685354038\Bq,0,-0.2996896094,2.904306
 6094,1.0685354038\Bq,0,-0.2565663299,2.9534792855,1.0685354038\Bq,0,-0
 .2202302981,3.00786,1.0685354038\Bq,0,-0.1913032337,3.0665182838,1.068
 5354038\Bq,0,-0.1702800869,3.1284504774,1.0685354038\Bq,0,-0.157520569
 3,3.1925969039,1.0685354038\Bq,0,-0.044481571,3.25786,0.9958633403\Bq,
 0,-0.0496896094,3.3373193113,0.9958633403\Bq,0,-0.0652246137,3.4154190
 518,0.9958633403\Bq,0,-0.0908207756,3.4908229131,0.9958633403\Bq,0,-0.
 1260401376,3.5622407145,0.9958633403\Bq,0,-0.1702800869,3.6284504774,0
 .9958633403\Bq,0,-0.2227836654,3.6883193346,0.9958633403\Bq,0,-0.28265
 25226,3.7408229131,0.9958633403\Bq,0,-0.3488622855,3.7850628624,0.9958
 633403\Bq,0,-0.4202800869,3.8202822244,0.9958633403\Bq,0,-0.9576237145
 ,2.7306571376,0.9958633403\Bq,0,-0.8862059131,2.6954377756,0.995863340
 3\Bq,0,-0.8108020518,2.6698416137,0.9958633403\Bq,0,-0.7327023113,2.65
 43066094,0.9958633403\Bq,0,-0.653243,2.649098571,0.9958633403\Bq,0,-0.
 5737836887,2.6543066094,0.9958633403\Bq,0,-0.4956839482,2.6698416137,0
 .9958633403\Bq,0,-0.4202800869,2.6954377756,0.9958633403\Bq,0,-0.34886
 22855,2.7306571376,0.9958633403\Bq,0,-0.2826525226,2.7748970869,0.9958
 633403\Bq,0,-0.2227836654,2.8274006654,0.9958633403\Bq,0,-0.1702800869
 ,2.8872695226,0.9958633403\Bq,0,-0.1260401376,2.9534792855,0.995863340
 3\Bq,0,-0.0908207756,3.0248970869,0.9958633403\Bq,0,-0.0652246137,3.10
 03009482,0.9958633403\Bq,0,-0.0496896094,3.1784006887,0.9958633403\Bq,
 0,0.0538637812,3.25786,0.9096167812\Bq,0,-0.7455389556,2.5568026154,0.
 9096167812\Bq,0,-0.653243,2.5507532188,0.9096167812\Bq,0,-0.5609470444
 ,2.5568026154,0.9096167812\Bq,0,-0.4702302981,2.5748472981,0.909616781
 2\Bq,0,-0.3826449499,2.6045785176,0.9096167812\Bq,0,-0.2996896094,2.64
 54875643,0.9096167812\Bq,0,-0.2227836654,2.6968744732,0.9096167812\Bq,
 0,-0.153243,2.75786,0.9096167812\Bq,0,-0.0922574732,2.8274006654,0.909
 6167812\Bq,0,-0.0408705643,2.9043066094,0.9096167812\Bq,0,0.0000384824
 ,2.9872619499,0.9096167812\Bq,0,0.0297697019,3.0748472981,0.9096167812
 \Bq,0,0.0478143846,3.1655640444,0.9096167812\Bq,0,-0.5496896094,2.4712
 939075,0.811271429\Bq,0,-0.447908046,2.4915395192,0.811271429\Bq,0,-0.
 3496398207,2.5248970869,0.811271429\Bq,0,-0.2565663299,2.5707958531,0.
 811271429\Bq,0,-0.1702800869,2.6284504774,0.811271429\Bq,0,-0.09225747
 32,2.6968744732,0.811271429\Bq,0,-0.0238334774,2.7748970869,0.81127142
 9\Bq,0,0.0338211469,2.8611833299,0.811271429\Bq,0,0.0797199131,2.95425
 68207,0.811271429\Bq,0,0.1130774808,3.052525046,0.811271429\Bq,0,0.133
 3230925,3.1543066094,0.811271429\Bq,0,0.096757,2.8248472981,0.70251\Bq
 ,0,0.1468601452,2.926446426,0.70251\Bq,0,0.1832733037,3.033716132,0.70
 251\Bq,0,-1.4897593037,3.482003868,-0.29749\Bq,0,-1.3862059131,3.56146
 31793,-0.406251429\Bq,0,-1.4195634808,3.463194954,-0.406251429\Bq,0,-1
 .4398090925,3.3614133906,-0.406251429\Bq,0,-1.4465963403,3.25786,-0.40
 6251429\Bq,0,-1.4398090925,3.1543066094,-0.406251429\Bq,0,-1.419563480
 8,3.052525046,-0.406251429\Bq,0,-1.3862059131,2.9542568207,-0.40625142
 9\Bq,0,-1.3403071469,2.8611833299,-0.406251429\Bq,0,-1.2826525226,2.77
 48970869,-0.406251429\Bq,0,-0.858577954,2.4915395192,-0.406251429\Bq,0
 ,-1.2142285268,3.6883193346,-0.5045967812\Bq,0,-1.2656154357,3.6114133
 906,-0.5045967812\Bq,0,-1.3065244824,3.5284580501,-0.5045967812\Bq,0,-
 1.3362557019,3.4408727019,-0.5045967812\Bq,0,-1.3543003846,3.350155955
 6,-0.5045967812\Bq,0,-1.3603497812,3.25786,-0.5045967812\Bq,0,-1.35430
 03846,3.1655640444,-0.5045967812\Bq,0,-1.3362557019,3.0748472981,-0.50
 45967812\Bq,0,-1.3065244824,2.9872619499,-0.5045967812\Bq,0,-1.2656154
 357,2.9043066094,-0.5045967812\Bq,0,-1.2142285268,2.8274006654,-0.5045
 967812\Bq,0,-1.153243,2.75786,-0.5045967812\Bq,0,-1.0837023346,2.69687
 44732,-0.5045967812\Bq,0,-1.0067963906,2.6454875643,-0.5045967812\Bq,0
 ,-0.9238410501,2.6045785176,-0.5045967812\Bq,0,-0.8362557019,2.5748472
 981,-0.5045967812\Bq,0,-0.7455389556,2.5568026154,-0.5045967812\Bq,0,-
 0.8108020518,3.8458783863,-0.5908433403\Bq,0,-0.8862059131,3.820282224
 4,-0.5908433403\Bq,0,-0.9576237145,3.7850628624,-0.5908433403\Bq,0,-1.
 0238334774,3.7408229131,-0.5908433403\Bq,0,-1.0837023346,3.6883193346,
 -0.5908433403\Bq,0,-1.1362059131,3.6284504774,-0.5908433403\Bq,0,-1.18
 04458624,3.5622407145,-0.5908433403\Bq,0,-1.2156652244,3.4908229131,-0
 .5908433403\Bq,0,-1.2412613863,3.4154190518,-0.5908433403\Bq,0,-1.2567
 963906,3.3373193113,-0.5908433403\Bq,0,-1.262004429,3.25786,-0.5908433
 403\Bq,0,-1.2567963906,3.1784006887,-0.5908433403\Bq,0,-1.2412613863,3
 .1003009482,-0.5908433403\Bq,0,-1.2156652244,3.0248970869,-0.590843340
 3\Bq,0,-1.1804458624,2.9534792855,-0.5908433403\\Version=ES64L-G09RevD
 .01\HF=-847.0037387\RMSD=4.116e-09\Dipole=0.0000004,0.0287843,0.000000
 9\Quadrupole=4.8545288,4.8066247,-9.6611535,-0.0000047,-3.6219991,-0.0
 00002\PG=C01 [X(C22H14)]\\@



 WE LOSE BECAUSE WE WIN

 GAMBLERS,

 RECOLLECTING WHICH,

 TOSS THEIR DICE AGAIN....


                          EMILY DICKINSON  BOLTS OF MELODY NO. 533
 Job cpu time:       0 days  1 hours 40 minutes  5.3 seconds.
 File lengths (MBytes):  RWF=    184 Int=      0 D2E=      0 Chk=     21 Scr=      1
 Normal termination of Gaussian 09 at Tue Sep 15 10:43:42 2020.
