 Entering Gaussian System, Link 0=g09
 Input=input_batch_30600.com
 Output=input_batch_30600.log
 Initial command:
 /share/programs/GAUSSIAN/64/g09/l1.exe "/scratch/aartigas.39206/Gau-3726300.inp" -scrdir="/scratch/aartigas.39206/"
 Entering Link 1 = /share/programs/GAUSSIAN/64/g09/l1.exe PID=   3726301.
  
 Copyright (c) 1988,1990,1992,1993,1995,1998,2003,2009,2013,
            Gaussian, Inc.  All Rights Reserved.
  
 This is part of the Gaussian(R) 09 program.  It is based on
 the Gaussian(R) 03 system (copyright 2003, Gaussian, Inc.),
 the Gaussian(R) 98 system (copyright 1998, Gaussian, Inc.),
 the Gaussian(R) 94 system (copyright 1995, Gaussian, Inc.),
 the Gaussian 92(TM) system (copyright 1992, Gaussian, Inc.),
 the Gaussian 90(TM) system (copyright 1990, Gaussian, Inc.),
 the Gaussian 88(TM) system (copyright 1988, Gaussian, Inc.),
 the Gaussian 86(TM) system (copyright 1986, Carnegie Mellon
 University), and the Gaussian 82(TM) system (copyright 1983,
 Carnegie Mellon University). Gaussian is a federally registered
 trademark of Gaussian, Inc.
  
 This software contains proprietary and confidential information,
 including trade secrets, belonging to Gaussian, Inc.
  
 This software is provided under written license and may be
 used, copied, transmitted, or stored only in accord with that
 written license.
  
 The following legend is applicable only to US Government
 contracts under FAR:
  
                    RESTRICTED RIGHTS LEGEND
  
 Use, reproduction and disclosure by the US Government is
 subject to restrictions as set forth in subparagraphs (a)
 and (c) of the Commercial Computer Software - Restricted
 Rights clause in FAR 52.227-19.
  
 Gaussian, Inc.
 340 Quinnipiac St., Bldg. 40, Wallingford CT 06492
  
  
 ---------------------------------------------------------------
 Warning -- This program may not be used in any manner that
 competes with the business of Gaussian, Inc. or will provide
 assistance to any competitor of Gaussian, Inc.  The licensee
 of this program is prohibited from giving any competitor of
 Gaussian, Inc. access to this program.  By using this program,
 the user acknowledges that Gaussian, Inc. is engaged in the
 business of creating and licensing software in the field of
 computational chemistry and represents and warrants to the
 licensee that it is not a competitor of Gaussian, Inc. and that
 it will not use this program in any manner prohibited above.
 ---------------------------------------------------------------
  

 Cite this work as:
 Gaussian 09, Revision D.01,
 M. J. Frisch, G. W. Trucks, H. B. Schlegel, G. E. Scuseria, 
 M. A. Robb, J. R. Cheeseman, G. Scalmani, V. Barone, B. Mennucci, 
 G. A. Petersson, H. Nakatsuji, M. Caricato, X. Li, H. P. Hratchian, 
 A. F. Izmaylov, J. Bloino, G. Zheng, J. L. Sonnenberg, M. Hada, 
 M. Ehara, K. Toyota, R. Fukuda, J. Hasegawa, M. Ishida, T. Nakajima, 
 Y. Honda, O. Kitao, H. Nakai, T. Vreven, J. A. Montgomery, Jr., 
 J. E. Peralta, F. Ogliaro, M. Bearpark, J. J. Heyd, E. Brothers, 
 K. N. Kudin, V. N. Staroverov, T. Keith, R. Kobayashi, J. Normand, 
 K. Raghavachari, A. Rendell, J. C. Burant, S. S. Iyengar, J. Tomasi, 
 M. Cossi, N. Rega, J. M. Millam, M. Klene, J. E. Knox, J. B. Cross, 
 V. Bakken, C. Adamo, J. Jaramillo, R. Gomperts, R. E. Stratmann, 
 O. Yazyev, A. J. Austin, R. Cammi, C. Pomelli, J. W. Ochterski, 
 R. L. Martin, K. Morokuma, V. G. Zakrzewski, G. A. Voth, 
 P. Salvador, J. J. Dannenberg, S. Dapprich, A. D. Daniels, 
 O. Farkas, J. B. Foresman, J. V. Ortiz, J. Cioslowski, 
 and D. J. Fox, Gaussian, Inc., Wallingford CT, 2013.
 
 ******************************************
 Gaussian 09:  ES64L-G09RevD.01 24-Apr-2013
                15-Sep-2020 
 ******************************************
 %OldChk=/home/aartigas/chk/5_helicene_spe.chk
 %nproc=8
 Will use up to    8 processors via shared memory.
 %mem=1000MB
 Copying data from "/home/aartigas/chk/5_helicene_spe.chk" to current chk file "/scratch/aartigas.39206/Gau-3726301.chk".
 ----------------------------------------------------
 #P rb3lyp/6-311+g** NMR Guess=Read geom=connectivity
 ----------------------------------------------------
 1/38=1,57=2/1;
 2/12=2,17=6,18=5,40=1/2;
 3/5=4,6=6,7=111,11=2,16=1,25=1,30=1,74=-5,116=1/1,2,8,3;
 4/5=1/1;
 5/5=2,38=6/2;
 8/6=1,10=90,11=11/1;
 10/13=100,45=16/2;
 6/7=2,8=2,9=2,10=2,28=1/1;
 99/9=1/99;
 Leave Link    1 at Tue Sep 15 14:18:10 2020, MaxMem=   131072000 cpu:         0.6
 (Enter /share/programs/GAUSSIAN/64/g09/l101.exe)
 -----
 Title
 -----
 Symbolic Z-matrix:
 Charge =  0 Multiplicity = 1
 C                     0.65324   3.25786  -0.20251 
 C                    -0.65324   3.25786   0.20251 
 C                     1.3725    2.03296  -0.32081 
 C                    -1.3725    2.03296   0.32081 
 C                     0.72247   0.79567  -0.05039 
 C                    -0.72247   0.79567   0.05039 
 C                     2.76039   2.05393  -0.67427 
 C                     3.50887   0.91392  -0.67136 
 C                     2.95523  -0.30962  -0.17748 
 C                     1.57472  -0.36111   0.19709 
 H                     1.18343   4.19574  -0.3846 
 H                    -1.18343   4.19574   0.3846 
 H                     3.20628   3.01242  -0.95139 
 H                     4.56002   0.93296  -0.96933 
 C                     3.78302  -1.4431    0.02831 
 C                     1.13743  -1.50753   0.91211 
 C                     1.97369  -2.58435   1.13806 
 C                     3.30185  -2.57159   0.66118 
 H                     4.82575  -1.39123  -0.29548 
 H                     0.12465  -1.53279   1.30847 
 H                     1.60359  -3.44568   1.69898 
 H                     3.95274  -3.43353   0.82513 
 C                    -3.50887   0.91392   0.67136 
 C                    -2.76039   2.05393   0.67427 
 C                    -2.95523  -0.30962   0.17748 
 C                    -1.57472  -0.36111  -0.19709 
 C                    -3.78302  -1.4431   -0.02831 
 C                    -3.30185  -2.57159  -0.66118 
 C                    -1.97369  -2.58435  -1.13806 
 C                    -1.13743  -1.50753  -0.91211 
 H                    -4.56002   0.93295   0.96933 
 H                    -3.20628   3.01242   0.95139 
 H                    -4.82575  -1.39123   0.29548 
 H                    -3.95274  -3.43353  -0.82513 
 H                    -1.60359  -3.44568  -1.69898 
 H                    -0.12465  -1.53279  -1.30847 
 Bq                    1.46602   1.0373   -0.98998 
 Bq                    1.44797   0.94658  -0.98998 
 Bq                    1.44192   0.85429  -0.98998 
 Bq                    1.44797   0.76199  -0.98998 
 Bq                    1.46602   0.67128  -0.98998 
 Bq                    1.49575   0.58369  -0.98998 
 Bq                    1.53666   0.50073  -0.98998 
 Bq                    1.58804   0.42383  -0.98998 
 Bq                    1.64903   0.35429  -0.98998 
 Bq                    1.71857   0.2933   -0.98998 
 Bq                    1.79547   0.24192  -0.98998 
 Bq                    1.87843   0.20101  -0.98998 
 Bq                    1.96602   0.17128  -0.98998 
 Bq                    2.05673   0.15323  -0.98998 
 Bq                    2.14903   0.14718  -0.98998 
 Bq                    2.24132   0.15323  -0.98998 
 Bq                    2.33204   0.17128  -0.98998 
 Bq                    2.41963   0.20101  -0.98998 
 Bq                    2.50258   0.24192  -0.98998 
 Bq                    2.57949   0.2933   -0.98998 
 Bq                    2.64903   0.35429  -0.98998 
 Bq                    1.99147   1.44231  -1.07622 
 Bq                    1.91607   1.41671  -1.07622 
 Bq                    1.84465   1.38149  -1.07622 
 Bq                    1.77844   1.33725  -1.07622 
 Bq                    1.71857   1.28475  -1.07622 
 Bq                    1.66607   1.22488  -1.07622 
 Bq                    1.62183   1.15867  -1.07622 
 Bq                    1.58661   1.08725  -1.07622 
 Bq                    1.56101   1.01185  -1.07622 
 Bq                    1.54547   0.93375  -1.07622 
 Bq                    1.54027   0.85429  -1.07622 
 Bq                    1.54547   0.77483  -1.07622 
 Bq                    1.56101   0.69673  -1.07622 
 Bq                    1.58661   0.62133  -1.07622 
 Bq                    1.62183   0.54991  -1.07622 
 Bq                    1.66607   0.4837   -1.07622 
 Bq                    1.71857   0.42383  -1.07622 
 Bq                    1.77844   0.37133  -1.07622 
 Bq                    1.84465   0.32709  -1.07622 
 Bq                    1.91607   0.29187  -1.07622 
 Bq                    1.99147   0.26627  -1.07622 
 Bq                    2.06957   0.25073  -1.07622 
 Bq                    2.14903   0.24553  -1.07622 
 Bq                    2.22849   0.25073  -1.07622 
 Bq                    2.30659   0.26627  -1.07622 
 Bq                    2.38199   0.29187  -1.07622 
 Bq                    2.45341   0.32709  -1.07622 
 Bq                    2.51962   0.37133  -1.07622 
 Bq                    2.57949   0.42383  -1.07622 
 Bq                    2.63199   0.4837   -1.07622 
 Bq                    2.63199   0.9837   -1.14889 
 Bq                    2.61097   1.04563  -1.14889 
 Bq                    2.58204   1.10429  -1.14889 
 Bq                    2.5457    1.15867  -1.14889 
 Bq                    2.50258   1.20784  -1.14889 
 Bq                    2.21429   1.35001  -1.14889 
 Bq                    2.14903   1.35429  -1.14889 
 Bq                    2.08376   1.35001  -1.14889 
 Bq                    2.01962   1.33725  -1.14889 
 Bq                    1.95769   1.31623  -1.14889 
 Bq                    1.89903   1.2873   -1.14889 
 Bq                    1.84465   1.25096  -1.14889 
 Bq                    1.79547   1.20784  -1.14889 
 Bq                    1.75235   1.15867  -1.14889 
 Bq                    1.71602   1.10429  -1.14889 
 Bq                    1.68709   1.04563  -1.14889 
 Bq                    1.66607   0.9837   -1.14889 
 Bq                    1.65331   0.91955  -1.14889 
 Bq                    1.64903   0.85429  -1.14889 
 Bq                    1.65331   0.78903  -1.14889 
 Bq                    1.66607   0.72488  -1.14889 
 Bq                    1.68709   0.66295  -1.14889 
 Bq                    1.71602   0.60429  -1.14889 
 Bq                    1.75235   0.54991  -1.14889 
 Bq                    1.79547   0.50073  -1.14889 
 Bq                    1.84465   0.45761  -1.14889 
 Bq                    1.89903   0.42128  -1.14889 
 Bq                    1.95769   0.39235  -1.14889 
 Bq                    2.01962   0.37133  -1.14889 
 Bq                    2.08376   0.35857  -1.14889 
 Bq                    2.14903   0.35429  -1.14889 
 Bq                    2.21429   0.35857  -1.14889 
 Bq                    2.27844   0.37133  -1.14889 
 Bq                    2.34037   0.39235  -1.14889 
 Bq                    2.39903   0.42128  -1.14889 
 Bq                    2.45341   0.45761  -1.14889 
 Bq                    2.50258   0.50073  -1.14889 
 Bq                    2.5457    0.54991  -1.14889 
 Bq                    2.58204   0.60429  -1.14889 
 Bq                    2.61097   0.66295  -1.14889 
 Bq                    2.63199   0.72488  -1.14889 
 Bq                    2.53171   0.85429  -1.20675 
 Bq                    2.52844   0.90424  -1.20675 
 Bq                    2.51867   0.95333  -1.20675 
 Bq                    2.50258   1.00073  -1.20675 
 Bq                    2.48044   1.04563  -1.20675 
 Bq                    2.45263   1.08725  -1.20675 
 Bq                    2.41963   1.12489  -1.20675 
 Bq                    2.38199   1.15789  -1.20675 
 Bq                    2.34037   1.1857   -1.20675 
 Bq                    2.29547   1.20784  -1.20675 
 Bq                    2.24807   1.22393  -1.20675 
 Bq                    2.19898   1.2337   -1.20675 
 Bq                    2.14903   1.23697  -1.20675 
 Bq                    2.09908   1.2337   -1.20675 
 Bq                    2.04998   1.22393  -1.20675 
 Bq                    2.00258   1.20784  -1.20675 
 Bq                    1.95769   1.1857   -1.20675 
 Bq                    1.91607   1.15789  -1.20675 
 Bq                    1.87843   1.12489  -1.20675 
 Bq                    1.84542   1.08725  -1.20675 
 Bq                    1.81761   1.04563  -1.20675 
 Bq                    1.79547   1.00073  -1.20675 
 Bq                    1.77938   0.95333  -1.20675 
 Bq                    1.76962   0.90424  -1.20675 
 Bq                    1.76634   0.85429  -1.20675 
 Bq                    1.76962   0.80434  -1.20675 
 Bq                    1.77938   0.75524  -1.20675 
 Bq                    1.79547   0.70784  -1.20675 
 Bq                    1.81761   0.66295  -1.20675 
 Bq                    1.84542   0.62133  -1.20675 
 Bq                    1.87843   0.58369  -1.20675 
 Bq                    1.91607   0.55068  -1.20675 
 Bq                    1.95769   0.52287  -1.20675 
 Bq                    2.00258   0.50073  -1.20675 
 Bq                    2.04998   0.48464  -1.20675 
 Bq                    2.09908   0.47488  -1.20675 
 Bq                    2.14903   0.4716   -1.20675 
 Bq                    2.19898   0.47488  -1.20675 
 Bq                    2.24807   0.48464  -1.20675 
 Bq                    2.29547   0.50073  -1.20675 
 Bq                    2.34037   0.52287  -1.20675 
 Bq                    2.38199   0.55068  -1.20675 
 Bq                    2.41963   0.58369  -1.20675 
 Bq                    2.45263   0.62133  -1.20675 
 Bq                    2.48044   0.66295  -1.20675 
 Bq                    2.50258   0.70784  -1.20675 
 Bq                    2.51867   0.75524  -1.20675 
 Bq                    2.52844   0.80434  -1.20675 
 Bq                    2.40785   0.85429  -1.24879 
 Bq                    2.40563   0.88807  -1.24879 
 Bq                    2.39903   0.92128  -1.24879 
 Bq                    2.38815   0.95333  -1.24879 
 Bq                    2.37317   0.9837   -1.24879 
 Bq                    2.35436   1.01185  -1.24879 
 Bq                    2.33204   1.0373   -1.24879 
 Bq                    2.30659   1.05962  -1.24879 
 Bq                    2.27844   1.07843  -1.24879 
 Bq                    2.24807   1.09341  -1.24879 
 Bq                    2.21602   1.10429  -1.24879 
 Bq                    2.18281   1.11089  -1.24879 
 Bq                    2.14903   1.11311  -1.24879 
 Bq                    2.11525   1.11089  -1.24879 
 Bq                    2.08204   1.10429  -1.24879 
 Bq                    2.04998   1.09341  -1.24879 
 Bq                    2.01962   1.07843  -1.24879 
 Bq                    1.99147   1.05962  -1.24879 
 Bq                    1.96602   1.0373   -1.24879 
 Bq                    1.94369   1.01185  -1.24879 
 Bq                    1.92488   0.9837   -1.24879 
 Bq                    1.90991   0.95333  -1.24879 
 Bq                    1.89903   0.92128  -1.24879 
 Bq                    1.89242   0.88807  -1.24879 
 Bq                    1.89021   0.85429  -1.24879 
 Bq                    1.89242   0.82051  -1.24879 
 Bq                    1.89903   0.7873   -1.24879 
 Bq                    1.90991   0.75524  -1.24879 
 Bq                    1.92488   0.72488  -1.24879 
 Bq                    1.94369   0.69673  -1.24879 
 Bq                    1.96602   0.67128  -1.24879 
 Bq                    1.99147   0.64895  -1.24879 
 Bq                    2.01962   0.63014  -1.24879 
 Bq                    2.04998   0.61517  -1.24879 
 Bq                    2.08204   0.60429  -1.24879 
 Bq                    2.11525   0.59768  -1.24879 
 Bq                    2.14903   0.59547  -1.24879 
 Bq                    2.18281   0.59768  -1.24879 
 Bq                    2.21602   0.60429  -1.24879 
 Bq                    2.24807   0.61517  -1.24879 
 Bq                    2.27844   0.63014  -1.24879 
 Bq                    2.30659   0.64895  -1.24879 
 Bq                    2.33204   0.67128  -1.24879 
 Bq                    2.35436   0.69673  -1.24879 
 Bq                    2.37317   0.72488  -1.24879 
 Bq                    2.38815   0.75524  -1.24879 
 Bq                    2.39903   0.7873   -1.24879 
 Bq                    2.40563   0.82051  -1.24879 
 Bq                    2.27955   0.85429  -1.27431 
 Bq                    2.27844   0.87133  -1.27431 
 Bq                    2.27511   0.88807  -1.27431 
 Bq                    2.26962   0.90424  -1.27431 
 Bq                    2.26207   0.91955  -1.27431 
 Bq                    2.25258   0.93375  -1.27431 
 Bq                    2.24132   0.94658  -1.27431 
 Bq                    2.22849   0.95784  -1.27431 
 Bq                    2.21429   0.96733  -1.27431 
 Bq                    2.19898   0.97488  -1.27431 
 Bq                    2.18281   0.98037  -1.27431 
 Bq                    2.16607   0.9837   -1.27431 
 
 NAtoms=    236 NQM=      236 NQMF=       0 NMMI=      0 NMMIF=      0
                NMic=       0 NMicF=      0.
                    Isotopes and Nuclear Properties:
 (Nuclear quadrupole moments (NQMom) in fm**2, nuclear magnetic moments (NMagM)
  in nuclear magnetons)

  Atom         1           2           3           4           5           6           7           8           9          10
 IAtWgt=          12          12          12          12          12          12          12          12          12          12
 AtmWgt=  12.0000000  12.0000000  12.0000000  12.0000000  12.0000000  12.0000000  12.0000000  12.0000000  12.0000000  12.0000000
 NucSpn=           0           0           0           0           0           0           0           0           0           0
 AtZEff=   0.0000000   0.0000000   0.0000000   0.0000000   0.0000000   0.0000000   0.0000000   0.0000000   0.0000000   0.0000000
 NQMom=    0.0000000   0.0000000   0.0000000   0.0000000   0.0000000   0.0000000   0.0000000   0.0000000   0.0000000   0.0000000
 NMagM=    0.0000000   0.0000000   0.0000000   0.0000000   0.0000000   0.0000000   0.0000000   0.0000000   0.0000000   0.0000000
 AtZNuc=   6.0000000   6.0000000   6.0000000   6.0000000   6.0000000   6.0000000   6.0000000   6.0000000   6.0000000   6.0000000

  Atom        11          12          13          14          15          16          17          18          19          20
 IAtWgt=           1           1           1           1          12          12          12          12           1           1
 AtmWgt=   1.0078250   1.0078250   1.0078250   1.0078250  12.0000000  12.0000000  12.0000000  12.0000000   1.0078250   1.0078250
 NucSpn=           1           1           1           1           0           0           0           0           1           1
 AtZEff=   0.0000000   0.0000000   0.0000000   0.0000000   0.0000000   0.0000000   0.0000000   0.0000000   0.0000000   0.0000000
 NQMom=    0.0000000   0.0000000   0.0000000   0.0000000   0.0000000   0.0000000   0.0000000   0.0000000   0.0000000   0.0000000
 NMagM=    2.7928460   2.7928460   2.7928460   2.7928460   0.0000000   0.0000000   0.0000000   0.0000000   2.7928460   2.7928460
 AtZNuc=   1.0000000   1.0000000   1.0000000   1.0000000   6.0000000   6.0000000   6.0000000   6.0000000   1.0000000   1.0000000

  Atom        21          22          23          24          25          26          27          28          29          30
 IAtWgt=           1           1          12          12          12          12          12          12          12          12
 AtmWgt=   1.0078250   1.0078250  12.0000000  12.0000000  12.0000000  12.0000000  12.0000000  12.0000000  12.0000000  12.0000000
 NucSpn=           1           1           0           0           0           0           0           0           0           0
 AtZEff=   0.0000000   0.0000000   0.0000000   0.0000000   0.0000000   0.0000000   0.0000000   0.0000000   0.0000000   0.0000000
 NQMom=    0.0000000   0.0000000   0.0000000   0.0000000   0.0000000   0.0000000   0.0000000   0.0000000   0.0000000   0.0000000
 NMagM=    2.7928460   2.7928460   0.0000000   0.0000000   0.0000000   0.0000000   0.0000000   0.0000000   0.0000000   0.0000000
 AtZNuc=   1.0000000   1.0000000   6.0000000   6.0000000   6.0000000   6.0000000   6.0000000   6.0000000   6.0000000   6.0000000

  Atom        31          32          33          34          35          36          37          38          39          40
 IAtWgt=           1           1           1           1           1           1           0           0           0           0
 AtmWgt=   1.0078250   1.0078250   1.0078250   1.0078250   1.0078250   1.0078250   0.0000000   0.0000000   0.0000000   0.0000000
 NucSpn=           1           1           1           1           1           1           0           0           0           0
 AtZEff=   0.0000000   0.0000000   0.0000000   0.0000000   0.0000000   0.0000000   0.0000000   0.0000000   0.0000000   0.0000000
 NQMom=    0.0000000   0.0000000   0.0000000   0.0000000   0.0000000   0.0000000   0.0000000   0.0000000   0.0000000   0.0000000
 NMagM=    2.7928460   2.7928460   2.7928460   2.7928460   2.7928460   2.7928460   0.0000000   0.0000000   0.0000000   0.0000000
 AtZNuc=   1.0000000   1.0000000   1.0000000   1.0000000   1.0000000   1.0000000   0.0000000   0.0000000   0.0000000   0.0000000

  Atom        41          42          43          44          45          46          47          48          49          50
 IAtWgt=           0           0           0           0           0           0           0           0           0           0
 AtmWgt=   0.0000000   0.0000000   0.0000000   0.0000000   0.0000000   0.0000000   0.0000000   0.0000000   0.0000000   0.0000000
 NucSpn=           0           0           0           0           0           0           0           0           0           0
 AtZEff=   0.0000000   0.0000000   0.0000000   0.0000000   0.0000000   0.0000000   0.0000000   0.0000000   0.0000000   0.0000000
 NQMom=    0.0000000   0.0000000   0.0000000   0.0000000   0.0000000   0.0000000   0.0000000   0.0000000   0.0000000   0.0000000
 NMagM=    0.0000000   0.0000000   0.0000000   0.0000000   0.0000000   0.0000000   0.0000000   0.0000000   0.0000000   0.0000000
 AtZNuc=   0.0000000   0.0000000   0.0000000   0.0000000   0.0000000   0.0000000   0.0000000   0.0000000   0.0000000   0.0000000

  Atom        51          52          53          54          55          56          57          58          59          60
 IAtWgt=           0           0           0           0           0           0           0           0           0           0
 AtmWgt=   0.0000000   0.0000000   0.0000000   0.0000000   0.0000000   0.0000000   0.0000000   0.0000000   0.0000000   0.0000000
 NucSpn=           0           0           0           0           0           0           0           0           0           0
 AtZEff=   0.0000000   0.0000000   0.0000000   0.0000000   0.0000000   0.0000000   0.0000000   0.0000000   0.0000000   0.0000000
 NQMom=    0.0000000   0.0000000   0.0000000   0.0000000   0.0000000   0.0000000   0.0000000   0.0000000   0.0000000   0.0000000
 NMagM=    0.0000000   0.0000000   0.0000000   0.0000000   0.0000000   0.0000000   0.0000000   0.0000000   0.0000000   0.0000000
 AtZNuc=   0.0000000   0.0000000   0.0000000   0.0000000   0.0000000   0.0000000   0.0000000   0.0000000   0.0000000   0.0000000

  Atom        61          62          63          64          65          66          67          68          69          70
 IAtWgt=           0           0           0           0           0           0           0           0           0           0
 AtmWgt=   0.0000000   0.0000000   0.0000000   0.0000000   0.0000000   0.0000000   0.0000000   0.0000000   0.0000000   0.0000000
 NucSpn=           0           0           0           0           0           0           0           0           0           0
 AtZEff=   0.0000000   0.0000000   0.0000000   0.0000000   0.0000000   0.0000000   0.0000000   0.0000000   0.0000000   0.0000000
 NQMom=    0.0000000   0.0000000   0.0000000   0.0000000   0.0000000   0.0000000   0.0000000   0.0000000   0.0000000   0.0000000
 NMagM=    0.0000000   0.0000000   0.0000000   0.0000000   0.0000000   0.0000000   0.0000000   0.0000000   0.0000000   0.0000000
 AtZNuc=   0.0000000   0.0000000   0.0000000   0.0000000   0.0000000   0.0000000   0.0000000   0.0000000   0.0000000   0.0000000

  Atom        71          72          73          74          75          76          77          78          79          80
 IAtWgt=           0           0           0           0           0           0           0           0           0           0
 AtmWgt=   0.0000000   0.0000000   0.0000000   0.0000000   0.0000000   0.0000000   0.0000000   0.0000000   0.0000000   0.0000000
 NucSpn=           0           0           0           0           0           0           0           0           0           0
 AtZEff=   0.0000000   0.0000000   0.0000000   0.0000000   0.0000000   0.0000000   0.0000000   0.0000000   0.0000000   0.0000000
 NQMom=    0.0000000   0.0000000   0.0000000   0.0000000   0.0000000   0.0000000   0.0000000   0.0000000   0.0000000   0.0000000
 NMagM=    0.0000000   0.0000000   0.0000000   0.0000000   0.0000000   0.0000000   0.0000000   0.0000000   0.0000000   0.0000000
 AtZNuc=   0.0000000   0.0000000   0.0000000   0.0000000   0.0000000   0.0000000   0.0000000   0.0000000   0.0000000   0.0000000

  Atom        81          82          83          84          85          86          87          88          89          90
 IAtWgt=           0           0           0           0           0           0           0           0           0           0
 AtmWgt=   0.0000000   0.0000000   0.0000000   0.0000000   0.0000000   0.0000000   0.0000000   0.0000000   0.0000000   0.0000000
 NucSpn=           0           0           0           0           0           0           0           0           0           0
 AtZEff=   0.0000000   0.0000000   0.0000000   0.0000000   0.0000000   0.0000000   0.0000000   0.0000000   0.0000000   0.0000000
 NQMom=    0.0000000   0.0000000   0.0000000   0.0000000   0.0000000   0.0000000   0.0000000   0.0000000   0.0000000   0.0000000
 NMagM=    0.0000000   0.0000000   0.0000000   0.0000000   0.0000000   0.0000000   0.0000000   0.0000000   0.0000000   0.0000000
 AtZNuc=   0.0000000   0.0000000   0.0000000   0.0000000   0.0000000   0.0000000   0.0000000   0.0000000   0.0000000   0.0000000

  Atom        91          92          93          94          95          96          97          98          99         100
 IAtWgt=           0           0           0           0           0           0           0           0           0           0
 AtmWgt=   0.0000000   0.0000000   0.0000000   0.0000000   0.0000000   0.0000000   0.0000000   0.0000000   0.0000000   0.0000000
 NucSpn=           0           0           0           0           0           0           0           0           0           0
 AtZEff=   0.0000000   0.0000000   0.0000000   0.0000000   0.0000000   0.0000000   0.0000000   0.0000000   0.0000000   0.0000000
 NQMom=    0.0000000   0.0000000   0.0000000   0.0000000   0.0000000   0.0000000   0.0000000   0.0000000   0.0000000   0.0000000
 NMagM=    0.0000000   0.0000000   0.0000000   0.0000000   0.0000000   0.0000000   0.0000000   0.0000000   0.0000000   0.0000000
 AtZNuc=   0.0000000   0.0000000   0.0000000   0.0000000   0.0000000   0.0000000   0.0000000   0.0000000   0.0000000   0.0000000

  Atom       101         102         103         104         105         106         107         108         109         110
 IAtWgt=           0           0           0           0           0           0           0           0           0           0
 AtmWgt=   0.0000000   0.0000000   0.0000000   0.0000000   0.0000000   0.0000000   0.0000000   0.0000000   0.0000000   0.0000000
 NucSpn=           0           0           0           0           0           0           0           0           0           0
 AtZEff=   0.0000000   0.0000000   0.0000000   0.0000000   0.0000000   0.0000000   0.0000000   0.0000000   0.0000000   0.0000000
 NQMom=    0.0000000   0.0000000   0.0000000   0.0000000   0.0000000   0.0000000   0.0000000   0.0000000   0.0000000   0.0000000
 NMagM=    0.0000000   0.0000000   0.0000000   0.0000000   0.0000000   0.0000000   0.0000000   0.0000000   0.0000000   0.0000000
 AtZNuc=   0.0000000   0.0000000   0.0000000   0.0000000   0.0000000   0.0000000   0.0000000   0.0000000   0.0000000   0.0000000

  Atom       111         112         113         114         115         116         117         118         119         120
 IAtWgt=           0           0           0           0           0           0           0           0           0           0
 AtmWgt=   0.0000000   0.0000000   0.0000000   0.0000000   0.0000000   0.0000000   0.0000000   0.0000000   0.0000000   0.0000000
 NucSpn=           0           0           0           0           0           0           0           0           0           0
 AtZEff=   0.0000000   0.0000000   0.0000000   0.0000000   0.0000000   0.0000000   0.0000000   0.0000000   0.0000000   0.0000000
 NQMom=    0.0000000   0.0000000   0.0000000   0.0000000   0.0000000   0.0000000   0.0000000   0.0000000   0.0000000   0.0000000
 NMagM=    0.0000000   0.0000000   0.0000000   0.0000000   0.0000000   0.0000000   0.0000000   0.0000000   0.0000000   0.0000000
 AtZNuc=   0.0000000   0.0000000   0.0000000   0.0000000   0.0000000   0.0000000   0.0000000   0.0000000   0.0000000   0.0000000

  Atom       121         122         123         124         125         126         127         128         129         130
 IAtWgt=           0           0           0           0           0           0           0           0           0           0
 AtmWgt=   0.0000000   0.0000000   0.0000000   0.0000000   0.0000000   0.0000000   0.0000000   0.0000000   0.0000000   0.0000000
 NucSpn=           0           0           0           0           0           0           0           0           0           0
 AtZEff=   0.0000000   0.0000000   0.0000000   0.0000000   0.0000000   0.0000000   0.0000000   0.0000000   0.0000000   0.0000000
 NQMom=    0.0000000   0.0000000   0.0000000   0.0000000   0.0000000   0.0000000   0.0000000   0.0000000   0.0000000   0.0000000
 NMagM=    0.0000000   0.0000000   0.0000000   0.0000000   0.0000000   0.0000000   0.0000000   0.0000000   0.0000000   0.0000000
 AtZNuc=   0.0000000   0.0000000   0.0000000   0.0000000   0.0000000   0.0000000   0.0000000   0.0000000   0.0000000   0.0000000

  Atom       131         132         133         134         135         136         137         138         139         140
 IAtWgt=           0           0           0           0           0           0           0           0           0           0
 AtmWgt=   0.0000000   0.0000000   0.0000000   0.0000000   0.0000000   0.0000000   0.0000000   0.0000000   0.0000000   0.0000000
 NucSpn=           0           0           0           0           0           0           0           0           0           0
 AtZEff=   0.0000000   0.0000000   0.0000000   0.0000000   0.0000000   0.0000000   0.0000000   0.0000000   0.0000000   0.0000000
 NQMom=    0.0000000   0.0000000   0.0000000   0.0000000   0.0000000   0.0000000   0.0000000   0.0000000   0.0000000   0.0000000
 NMagM=    0.0000000   0.0000000   0.0000000   0.0000000   0.0000000   0.0000000   0.0000000   0.0000000   0.0000000   0.0000000
 AtZNuc=   0.0000000   0.0000000   0.0000000   0.0000000   0.0000000   0.0000000   0.0000000   0.0000000   0.0000000   0.0000000

  Atom       141         142         143         144         145         146         147         148         149         150
 IAtWgt=           0           0           0           0           0           0           0           0           0           0
 AtmWgt=   0.0000000   0.0000000   0.0000000   0.0000000   0.0000000   0.0000000   0.0000000   0.0000000   0.0000000   0.0000000
 NucSpn=           0           0           0           0           0           0           0           0           0           0
 AtZEff=   0.0000000   0.0000000   0.0000000   0.0000000   0.0000000   0.0000000   0.0000000   0.0000000   0.0000000   0.0000000
 NQMom=    0.0000000   0.0000000   0.0000000   0.0000000   0.0000000   0.0000000   0.0000000   0.0000000   0.0000000   0.0000000
 NMagM=    0.0000000   0.0000000   0.0000000   0.0000000   0.0000000   0.0000000   0.0000000   0.0000000   0.0000000   0.0000000
 AtZNuc=   0.0000000   0.0000000   0.0000000   0.0000000   0.0000000   0.0000000   0.0000000   0.0000000   0.0000000   0.0000000

  Atom       151         152         153         154         155         156         157         158         159         160
 IAtWgt=           0           0           0           0           0           0           0           0           0           0
 AtmWgt=   0.0000000   0.0000000   0.0000000   0.0000000   0.0000000   0.0000000   0.0000000   0.0000000   0.0000000   0.0000000
 NucSpn=           0           0           0           0           0           0           0           0           0           0
 AtZEff=   0.0000000   0.0000000   0.0000000   0.0000000   0.0000000   0.0000000   0.0000000   0.0000000   0.0000000   0.0000000
 NQMom=    0.0000000   0.0000000   0.0000000   0.0000000   0.0000000   0.0000000   0.0000000   0.0000000   0.0000000   0.0000000
 NMagM=    0.0000000   0.0000000   0.0000000   0.0000000   0.0000000   0.0000000   0.0000000   0.0000000   0.0000000   0.0000000
 AtZNuc=   0.0000000   0.0000000   0.0000000   0.0000000   0.0000000   0.0000000   0.0000000   0.0000000   0.0000000   0.0000000

  Atom       161         162         163         164         165         166         167         168         169         170
 IAtWgt=           0           0           0           0           0           0           0           0           0           0
 AtmWgt=   0.0000000   0.0000000   0.0000000   0.0000000   0.0000000   0.0000000   0.0000000   0.0000000   0.0000000   0.0000000
 NucSpn=           0           0           0           0           0           0           0           0           0           0
 AtZEff=   0.0000000   0.0000000   0.0000000   0.0000000   0.0000000   0.0000000   0.0000000   0.0000000   0.0000000   0.0000000
 NQMom=    0.0000000   0.0000000   0.0000000   0.0000000   0.0000000   0.0000000   0.0000000   0.0000000   0.0000000   0.0000000
 NMagM=    0.0000000   0.0000000   0.0000000   0.0000000   0.0000000   0.0000000   0.0000000   0.0000000   0.0000000   0.0000000
 AtZNuc=   0.0000000   0.0000000   0.0000000   0.0000000   0.0000000   0.0000000   0.0000000   0.0000000   0.0000000   0.0000000

  Atom       171         172         173         174         175         176         177         178         179         180
 IAtWgt=           0           0           0           0           0           0           0           0           0           0
 AtmWgt=   0.0000000   0.0000000   0.0000000   0.0000000   0.0000000   0.0000000   0.0000000   0.0000000   0.0000000   0.0000000
 NucSpn=           0           0           0           0           0           0           0           0           0           0
 AtZEff=   0.0000000   0.0000000   0.0000000   0.0000000   0.0000000   0.0000000   0.0000000   0.0000000   0.0000000   0.0000000
 NQMom=    0.0000000   0.0000000   0.0000000   0.0000000   0.0000000   0.0000000   0.0000000   0.0000000   0.0000000   0.0000000
 NMagM=    0.0000000   0.0000000   0.0000000   0.0000000   0.0000000   0.0000000   0.0000000   0.0000000   0.0000000   0.0000000
 AtZNuc=   0.0000000   0.0000000   0.0000000   0.0000000   0.0000000   0.0000000   0.0000000   0.0000000   0.0000000   0.0000000

  Atom       181         182         183         184         185         186         187         188         189         190
 IAtWgt=           0           0           0           0           0           0           0           0           0           0
 AtmWgt=   0.0000000   0.0000000   0.0000000   0.0000000   0.0000000   0.0000000   0.0000000   0.0000000   0.0000000   0.0000000
 NucSpn=           0           0           0           0           0           0           0           0           0           0
 AtZEff=   0.0000000   0.0000000   0.0000000   0.0000000   0.0000000   0.0000000   0.0000000   0.0000000   0.0000000   0.0000000
 NQMom=    0.0000000   0.0000000   0.0000000   0.0000000   0.0000000   0.0000000   0.0000000   0.0000000   0.0000000   0.0000000
 NMagM=    0.0000000   0.0000000   0.0000000   0.0000000   0.0000000   0.0000000   0.0000000   0.0000000   0.0000000   0.0000000
 AtZNuc=   0.0000000   0.0000000   0.0000000   0.0000000   0.0000000   0.0000000   0.0000000   0.0000000   0.0000000   0.0000000

  Atom       191         192         193         194         195         196         197         198         199         200
 IAtWgt=           0           0           0           0           0           0           0           0           0           0
 AtmWgt=   0.0000000   0.0000000   0.0000000   0.0000000   0.0000000   0.0000000   0.0000000   0.0000000   0.0000000   0.0000000
 NucSpn=           0           0           0           0           0           0           0           0           0           0
 AtZEff=   0.0000000   0.0000000   0.0000000   0.0000000   0.0000000   0.0000000   0.0000000   0.0000000   0.0000000   0.0000000
 NQMom=    0.0000000   0.0000000   0.0000000   0.0000000   0.0000000   0.0000000   0.0000000   0.0000000   0.0000000   0.0000000
 NMagM=    0.0000000   0.0000000   0.0000000   0.0000000   0.0000000   0.0000000   0.0000000   0.0000000   0.0000000   0.0000000
 AtZNuc=   0.0000000   0.0000000   0.0000000   0.0000000   0.0000000   0.0000000   0.0000000   0.0000000   0.0000000   0.0000000

  Atom       201         202         203         204         205         206         207         208         209         210
 IAtWgt=           0           0           0           0           0           0           0           0           0           0
 AtmWgt=   0.0000000   0.0000000   0.0000000   0.0000000   0.0000000   0.0000000   0.0000000   0.0000000   0.0000000   0.0000000
 NucSpn=           0           0           0           0           0           0           0           0           0           0
 AtZEff=   0.0000000   0.0000000   0.0000000   0.0000000   0.0000000   0.0000000   0.0000000   0.0000000   0.0000000   0.0000000
 NQMom=    0.0000000   0.0000000   0.0000000   0.0000000   0.0000000   0.0000000   0.0000000   0.0000000   0.0000000   0.0000000
 NMagM=    0.0000000   0.0000000   0.0000000   0.0000000   0.0000000   0.0000000   0.0000000   0.0000000   0.0000000   0.0000000
 AtZNuc=   0.0000000   0.0000000   0.0000000   0.0000000   0.0000000   0.0000000   0.0000000   0.0000000   0.0000000   0.0000000

  Atom       211         212         213         214         215         216         217         218         219         220
 IAtWgt=           0           0           0           0           0           0           0           0           0           0
 AtmWgt=   0.0000000   0.0000000   0.0000000   0.0000000   0.0000000   0.0000000   0.0000000   0.0000000   0.0000000   0.0000000
 NucSpn=           0           0           0           0           0           0           0           0           0           0
 AtZEff=   0.0000000   0.0000000   0.0000000   0.0000000   0.0000000   0.0000000   0.0000000   0.0000000   0.0000000   0.0000000
 NQMom=    0.0000000   0.0000000   0.0000000   0.0000000   0.0000000   0.0000000   0.0000000   0.0000000   0.0000000   0.0000000
 NMagM=    0.0000000   0.0000000   0.0000000   0.0000000   0.0000000   0.0000000   0.0000000   0.0000000   0.0000000   0.0000000
 AtZNuc=   0.0000000   0.0000000   0.0000000   0.0000000   0.0000000   0.0000000   0.0000000   0.0000000   0.0000000   0.0000000

  Atom       221         222         223         224         225         226         227         228         229         230
 IAtWgt=           0           0           0           0           0           0           0           0           0           0
 AtmWgt=   0.0000000   0.0000000   0.0000000   0.0000000   0.0000000   0.0000000   0.0000000   0.0000000   0.0000000   0.0000000
 NucSpn=           0           0           0           0           0           0           0           0           0           0
 AtZEff=   0.0000000   0.0000000   0.0000000   0.0000000   0.0000000   0.0000000   0.0000000   0.0000000   0.0000000   0.0000000
 NQMom=    0.0000000   0.0000000   0.0000000   0.0000000   0.0000000   0.0000000   0.0000000   0.0000000   0.0000000   0.0000000
 NMagM=    0.0000000   0.0000000   0.0000000   0.0000000   0.0000000   0.0000000   0.0000000   0.0000000   0.0000000   0.0000000
 AtZNuc=   0.0000000   0.0000000   0.0000000   0.0000000   0.0000000   0.0000000   0.0000000   0.0000000   0.0000000   0.0000000

  Atom       231         232         233         234         235         236
 IAtWgt=           0           0           0           0           0           0
 AtmWgt=   0.0000000   0.0000000   0.0000000   0.0000000   0.0000000   0.0000000
 NucSpn=           0           0           0           0           0           0
 AtZEff=   0.0000000   0.0000000   0.0000000   0.0000000   0.0000000   0.0000000
 NQMom=    0.0000000   0.0000000   0.0000000   0.0000000   0.0000000   0.0000000
 NMagM=    0.0000000   0.0000000   0.0000000   0.0000000   0.0000000   0.0000000
 AtZNuc=   0.0000000   0.0000000   0.0000000   0.0000000   0.0000000   0.0000000
 Leave Link  101 at Tue Sep 15 14:18:10 2020, MaxMem=   131072000 cpu:         4.1
 (Enter /share/programs/GAUSSIAN/64/g09/l202.exe)
 Symmetry turned off:
 Cannot cope with ghost atoms or with translation vectors.
 Stoichiometry    C22H14
 Framework group  C1[X(C22H14)]
 NUMDOF-- NAT=    36 NAtoms=   236
 Deg. of freedom     0
 Full point group                 C1      NOp   1
                          Input orientation:                          
 ---------------------------------------------------------------------
 Center     Atomic      Atomic             Coordinates (Angstroms)
 Number     Number       Type             X           Y           Z
 ---------------------------------------------------------------------
      1          6           0        0.653241    3.257859   -0.202510
      2          6           0       -0.653243    3.257860    0.202510
      3          6           0        1.372495    2.032956   -0.320807
      4          6           0       -1.372495    2.032956    0.320807
      5          6           0        0.722474    0.795666   -0.050388
      6          6           0       -0.722474    0.795667    0.050387
      7          6           0        2.760385    2.053927   -0.674268
      8          6           0        3.508866    0.913916   -0.671362
      9          6           0        2.955226   -0.309622   -0.177479
     10          6           0        1.574722   -0.361114    0.197094
     11          1           0        1.183427    4.195740   -0.384599
     12          1           0       -1.183429    4.195740    0.384599
     13          1           0        3.206283    3.012423   -0.951392
     14          1           0        4.560023    0.932956   -0.969333
     15          6           0        3.783020   -1.443098    0.028309
     16          6           0        1.137427   -1.507533    0.912109
     17          6           0        1.973691   -2.584349    1.138062
     18          6           0        3.301853   -2.571588    0.661177
     19          1           0        4.825754   -1.391230   -0.295484
     20          1           0        0.124652   -1.532788    1.308472
     21          1           0        1.603586   -3.445682    1.698977
     22          1           0        3.952742   -3.433526    0.825134
     23          6           0       -3.508866    0.913915    0.671362
     24          6           0       -2.760386    2.053926    0.674268
     25          6           0       -2.955226   -0.309623    0.177479
     26          6           0       -1.574722   -0.361114   -0.197094
     27          6           0       -3.783020   -1.443099   -0.028309
     28          6           0       -3.301852   -2.571589   -0.661177
     29          6           0       -1.973690   -2.584349   -1.138061
     30          6           0       -1.137426   -1.507534   -0.912109
     31          1           0       -4.560022    0.932954    0.969334
     32          1           0       -3.206283    3.012421    0.951392
     33          1           0       -4.825754   -1.391232    0.295484
     34          1           0       -3.952741   -3.433528   -0.825134
     35          1           0       -1.603585   -3.445682   -1.698976
     36          1           0       -0.124652   -1.532788   -1.308471
     37          0           0        1.466015    1.037301   -0.989975
     38          0           0        1.447971    0.946584   -0.989975
     39          0           0        1.441921    0.854288   -0.989975
     40          0           0        1.447971    0.761992   -0.989975
     41          0           0        1.466015    0.671275   -0.989975
     42          0           0        1.495747    0.583690   -0.989975
     43          0           0        1.536656    0.500735   -0.989975
     44          0           0        1.588042    0.423829   -0.989975
     45          0           0        1.649028    0.354288   -0.989975
     46          0           0        1.718569    0.293303   -0.989975
     47          0           0        1.795475    0.241916   -0.989975
     48          0           0        1.878430    0.201007   -0.989975
     49          0           0        1.966015    0.171275   -0.989975
     50          0           0        2.056732    0.153231   -0.989975
     51          0           0        2.149028    0.147181   -0.989975
     52          0           0        2.241324    0.153231   -0.989975
     53          0           0        2.332041    0.171275   -0.989975
     54          0           0        2.419626    0.201007   -0.989975
     55          0           0        2.502581    0.241916   -0.989975
     56          0           0        2.579487    0.293303   -0.989975
     57          0           0        2.649028    0.354288   -0.989975
     58          0           0        1.991469    1.442307   -1.076222
     59          0           0        1.916065    1.416710   -1.076222
     60          0           0        1.844647    1.381491   -1.076222
     61          0           0        1.778438    1.337251   -1.076222
     62          0           0        1.718569    1.284748   -1.076222
     63          0           0        1.666065    1.224879   -1.076222
     64          0           0        1.621825    1.158669   -1.076222
     65          0           0        1.586606    1.087251   -1.076222
     66          0           0        1.561010    1.011847   -1.076222
     67          0           0        1.545475    0.933747   -1.076222
     68          0           0        1.540267    0.854288   -1.076222
     69          0           0        1.545475    0.774829   -1.076222
     70          0           0        1.561010    0.696729   -1.076222
     71          0           0        1.586606    0.621325   -1.076222
     72          0           0        1.621825    0.549907   -1.076222
     73          0           0        1.666065    0.483698   -1.076222
     74          0           0        1.718569    0.423829   -1.076222
     75          0           0        1.778438    0.371325   -1.076222
     76          0           0        1.844647    0.327085   -1.076222
     77          0           0        1.916065    0.291866   -1.076222
     78          0           0        1.991469    0.266270   -1.076222
     79          0           0        2.069569    0.250735   -1.076222
     80          0           0        2.149028    0.245527   -1.076222
     81          0           0        2.228487    0.250735   -1.076222
     82          0           0        2.306587    0.266270   -1.076222
     83          0           0        2.381991    0.291866   -1.076222
     84          0           0        2.453409    0.327085   -1.076222
     85          0           0        2.519618    0.371325   -1.076222
     86          0           0        2.579487    0.423829   -1.076222
     87          0           0        2.631991    0.483698   -1.076222
     88          0           0        2.631991    0.983698   -1.148894
     89          0           0        2.610968    1.045630   -1.148894
     90          0           0        2.582041    1.104288   -1.148894
     91          0           0        2.545705    1.158669   -1.148894
     92          0           0        2.502581    1.207842   -1.148894
     93          0           0        2.214291    1.350011   -1.148894
     94          0           0        2.149028    1.354288   -1.148894
     95          0           0        2.083765    1.350011   -1.148894
     96          0           0        2.019618    1.337251   -1.148894
     97          0           0        1.957686    1.316228   -1.148894
     98          0           0        1.899028    1.287301   -1.148894
     99          0           0        1.844647    1.250965   -1.148894
    100          0           0        1.795475    1.207842   -1.148894
    101          0           0        1.752351    1.158669   -1.148894
    102          0           0        1.716015    1.104288   -1.148894
    103          0           0        1.687088    1.045630   -1.148894
    104          0           0        1.666065    0.983698   -1.148894
    105          0           0        1.653306    0.919551   -1.148894
    106          0           0        1.649028    0.854288   -1.148894
    107          0           0        1.653306    0.789025   -1.148894
    108          0           0        1.666065    0.724879   -1.148894
    109          0           0        1.687088    0.662946   -1.148894
    110          0           0        1.716015    0.604288   -1.148894
    111          0           0        1.752351    0.549907   -1.148894
    112          0           0        1.795475    0.500735   -1.148894
    113          0           0        1.844647    0.457611   -1.148894
    114          0           0        1.899028    0.421275   -1.148894
    115          0           0        1.957686    0.392348   -1.148894
    116          0           0        2.019618    0.371325   -1.148894
    117          0           0        2.083765    0.358566   -1.148894
    118          0           0        2.149028    0.354288   -1.148894
    119          0           0        2.214291    0.358566   -1.148894
    120          0           0        2.278438    0.371325   -1.148894
    121          0           0        2.340370    0.392348   -1.148894
    122          0           0        2.399028    0.421275   -1.148894
    123          0           0        2.453409    0.457611   -1.148894
    124          0           0        2.502581    0.500735   -1.148894
    125          0           0        2.545705    0.549907   -1.148894
    126          0           0        2.582041    0.604288   -1.148894
    127          0           0        2.610968    0.662946   -1.148894
    128          0           0        2.631991    0.724879   -1.148894
    129          0           0        2.531711    0.854288   -1.206748
    130          0           0        2.528438    0.904238   -1.206748
    131          0           0        2.518672    0.953334   -1.206748
    132          0           0        2.502581    1.000735   -1.206748
    133          0           0        2.480442    1.045630   -1.206748
    134          0           0        2.452631    1.087251   -1.206748
    135          0           0        2.419626    1.124886   -1.206748
    136          0           0        2.381991    1.157891   -1.206748
    137          0           0        2.340370    1.185702   -1.206748
    138          0           0        2.295475    1.207842   -1.206748
    139          0           0        2.248074    1.223932   -1.206748
    140          0           0        2.198978    1.233698   -1.206748
    141          0           0        2.149028    1.236972   -1.206748
    142          0           0        2.099078    1.233698   -1.206748
    143          0           0        2.049982    1.223932   -1.206748
    144          0           0        2.002581    1.207842   -1.206748
    145          0           0        1.957686    1.185702   -1.206748
    146          0           0        1.916065    1.157891   -1.206748
    147          0           0        1.878430    1.124886   -1.206748
    148          0           0        1.845425    1.087251   -1.206748
    149          0           0        1.817614    1.045630   -1.206748
    150          0           0        1.795475    1.000735   -1.206748
    151          0           0        1.779384    0.953334   -1.206748
    152          0           0        1.769618    0.904238   -1.206748
    153          0           0        1.766345    0.854288   -1.206748
    154          0           0        1.769618    0.804338   -1.206748
    155          0           0        1.779384    0.755242   -1.206748
    156          0           0        1.795475    0.707842   -1.206748
    157          0           0        1.817614    0.662946   -1.206748
    158          0           0        1.845425    0.621325   -1.206748
    159          0           0        1.878430    0.583690   -1.206748
    160          0           0        1.916065    0.550685   -1.206748
    161          0           0        1.957686    0.522875   -1.206748
    162          0           0        2.002581    0.500735   -1.206748
    163          0           0        2.049982    0.484644   -1.206748
    164          0           0        2.099078    0.474879   -1.206748
    165          0           0        2.149028    0.471605   -1.206748
    166          0           0        2.198978    0.474879   -1.206748
    167          0           0        2.248074    0.484644   -1.206748
    168          0           0        2.295475    0.500735   -1.206748
    169          0           0        2.340370    0.522875   -1.206748
    170          0           0        2.381991    0.550685   -1.206748
    171          0           0        2.419626    0.583690   -1.206748
    172          0           0        2.452631    0.621325   -1.206748
    173          0           0        2.480442    0.662946   -1.206748
    174          0           0        2.502581    0.707842   -1.206748
    175          0           0        2.518672    0.755242   -1.206748
    176          0           0        2.528438    0.804338   -1.206748
    177          0           0        2.407847    0.854288   -1.248794
    178          0           0        2.405633    0.888071   -1.248794
    179          0           0        2.399028    0.921275   -1.248794
    180          0           0        2.388146    0.953334   -1.248794
    181          0           0        2.373172    0.983698   -1.248794
    182          0           0        2.354363    1.011847   -1.248794
    183          0           0        2.332041    1.037301   -1.248794
    184          0           0        2.306587    1.059623   -1.248794
    185          0           0        2.278438    1.078432   -1.248794
    186          0           0        2.248074    1.093406   -1.248794
    187          0           0        2.216015    1.104288   -1.248794
    188          0           0        2.182811    1.110893   -1.248794
    189          0           0        2.149028    1.113107   -1.248794
    190          0           0        2.115245    1.110893   -1.248794
    191          0           0        2.082041    1.104288   -1.248794
    192          0           0        2.049982    1.093406   -1.248794
    193          0           0        2.019618    1.078432   -1.248794
    194          0           0        1.991469    1.059623   -1.248794
    195          0           0        1.966015    1.037301   -1.248794
    196          0           0        1.943693    1.011847   -1.248794
    197          0           0        1.924884    0.983698   -1.248794
    198          0           0        1.909910    0.953334   -1.248794
    199          0           0        1.899028    0.921275   -1.248794
    200          0           0        1.892423    0.888071   -1.248794
    201          0           0        1.890209    0.854288   -1.248794
    202          0           0        1.892423    0.820506   -1.248794
    203          0           0        1.899028    0.787301   -1.248794
    204          0           0        1.909910    0.755242   -1.248794
    205          0           0        1.924884    0.724879   -1.248794
    206          0           0        1.943693    0.696729   -1.248794
    207          0           0        1.966015    0.671275   -1.248794
    208          0           0        1.991469    0.648953   -1.248794
    209          0           0        2.019618    0.630144   -1.248794
    210          0           0        2.049982    0.615171   -1.248794
    211          0           0        2.082041    0.604288   -1.248794
    212          0           0        2.115245    0.597683   -1.248794
    213          0           0        2.149028    0.595469   -1.248794
    214          0           0        2.182811    0.597683   -1.248794
    215          0           0        2.216015    0.604288   -1.248794
    216          0           0        2.248074    0.615171   -1.248794
    217          0           0        2.278438    0.630144   -1.248794
    218          0           0        2.306587    0.648953   -1.248794
    219          0           0        2.332041    0.671275   -1.248794
    220          0           0        2.354363    0.696729   -1.248794
    221          0           0        2.373172    0.724879   -1.248794
    222          0           0        2.388146    0.755242   -1.248794
    223          0           0        2.399028    0.787301   -1.248794
    224          0           0        2.405633    0.820506   -1.248794
    225          0           0        2.279554    0.854288   -1.274313
    226          0           0        2.278438    0.871325   -1.274313
    227          0           0        2.275107    0.888071   -1.274313
    228          0           0        2.269618    0.904238   -1.274313
    229          0           0        2.262067    0.919551   -1.274313
    230          0           0        2.252581    0.933747   -1.274313
    231          0           0        2.241324    0.946584   -1.274313
    232          0           0        2.228487    0.957842   -1.274313
    233          0           0        2.214291    0.967327   -1.274313
    234          0           0        2.198978    0.974879   -1.274313
    235          0           0        2.182811    0.980367   -1.274313
    236          0           0        2.166065    0.983698   -1.274313
 ---------------------------------------------------------------------
 Rotational constants (GHZ):      0.4454681      0.2811480      0.1854303
 Leave Link  202 at Tue Sep 15 14:18:10 2020, MaxMem=   131072000 cpu:         0.0
 (Enter /share/programs/GAUSSIAN/64/g09/l301.exe)
 Standard basis: 6-311+G(d,p) (5D, 7F)
 Warning:  center  37 has no basis functions!
 Warning:  center  38 has no basis functions!
 Warning:  center  39 has no basis functions!
 Warning:  center  40 has no basis functions!
 Warning:  center  41 has no basis functions!
 Warning:  center  42 has no basis functions!
 Warning:  center  43 has no basis functions!
 Warning:  center  44 has no basis functions!
 Warning:  center  45 has no basis functions!
 Warning:  center  46 has no basis functions!
 Warning:  center  47 has no basis functions!
 Warning:  center  48 has no basis functions!
 Warning:  center  49 has no basis functions!
 Warning:  center  50 has no basis functions!
 Warning:  center  51 has no basis functions!
 Warning:  center  52 has no basis functions!
 Warning:  center  53 has no basis functions!
 Warning:  center  54 has no basis functions!
 Warning:  center  55 has no basis functions!
 Warning:  center  56 has no basis functions!
 Warning:  center  57 has no basis functions!
 Warning:  center  58 has no basis functions!
 Warning:  center  59 has no basis functions!
 Warning:  center  60 has no basis functions!
 Warning:  center  61 has no basis functions!
 Warning:  center  62 has no basis functions!
 Warning:  center  63 has no basis functions!
 Warning:  center  64 has no basis functions!
 Warning:  center  65 has no basis functions!
 Warning:  center  66 has no basis functions!
 Warning:  center  67 has no basis functions!
 Warning:  center  68 has no basis functions!
 Warning:  center  69 has no basis functions!
 Warning:  center  70 has no basis functions!
 Warning:  center  71 has no basis functions!
 Warning:  center  72 has no basis functions!
 Warning:  center  73 has no basis functions!
 Warning:  center  74 has no basis functions!
 Warning:  center  75 has no basis functions!
 Warning:  center  76 has no basis functions!
 Warning:  center  77 has no basis functions!
 Warning:  center  78 has no basis functions!
 Warning:  center  79 has no basis functions!
 Warning:  center  80 has no basis functions!
 Warning:  center  81 has no basis functions!
 Warning:  center  82 has no basis functions!
 Warning:  center  83 has no basis functions!
 Warning:  center  84 has no basis functions!
 Warning:  center  85 has no basis functions!
 Warning:  center  86 has no basis functions!
 Warning:  center  87 has no basis functions!
 Warning:  center  88 has no basis functions!
 Warning:  center  89 has no basis functions!
 Warning:  center  90 has no basis functions!
 Warning:  center  91 has no basis functions!
 Warning:  center  92 has no basis functions!
 Warning:  center  93 has no basis functions!
 Warning:  center  94 has no basis functions!
 Warning:  center  95 has no basis functions!
 Warning:  center  96 has no basis functions!
 Warning:  center  97 has no basis functions!
 Warning:  center  98 has no basis functions!
 Warning:  center  99 has no basis functions!
 Warning:  center 100 has no basis functions!
 Warning:  center 101 has no basis functions!
 Warning:  center 102 has no basis functions!
 Warning:  center 103 has no basis functions!
 Warning:  center 104 has no basis functions!
 Warning:  center 105 has no basis functions!
 Warning:  center 106 has no basis functions!
 Warning:  center 107 has no basis functions!
 Warning:  center 108 has no basis functions!
 Warning:  center 109 has no basis functions!
 Warning:  center 110 has no basis functions!
 Warning:  center 111 has no basis functions!
 Warning:  center 112 has no basis functions!
 Warning:  center 113 has no basis functions!
 Warning:  center 114 has no basis functions!
 Warning:  center 115 has no basis functions!
 Warning:  center 116 has no basis functions!
 Warning:  center 117 has no basis functions!
 Warning:  center 118 has no basis functions!
 Warning:  center 119 has no basis functions!
 Warning:  center 120 has no basis functions!
 Warning:  center 121 has no basis functions!
 Warning:  center 122 has no basis functions!
 Warning:  center 123 has no basis functions!
 Warning:  center 124 has no basis functions!
 Warning:  center 125 has no basis functions!
 Warning:  center 126 has no basis functions!
 Warning:  center 127 has no basis functions!
 Warning:  center 128 has no basis functions!
 Warning:  center 129 has no basis functions!
 Warning:  center 130 has no basis functions!
 Warning:  center 131 has no basis functions!
 Warning:  center 132 has no basis functions!
 Warning:  center 133 has no basis functions!
 Warning:  center 134 has no basis functions!
 Warning:  center 135 has no basis functions!
 Warning:  center 136 has no basis functions!
 Warning:  center 137 has no basis functions!
 Warning:  center 138 has no basis functions!
 Warning:  center 139 has no basis functions!
 Warning:  center 140 has no basis functions!
 Warning:  center 141 has no basis functions!
 Warning:  center 142 has no basis functions!
 Warning:  center 143 has no basis functions!
 Warning:  center 144 has no basis functions!
 Warning:  center 145 has no basis functions!
 Warning:  center 146 has no basis functions!
 Warning:  center 147 has no basis functions!
 Warning:  center 148 has no basis functions!
 Warning:  center 149 has no basis functions!
 Warning:  center 150 has no basis functions!
 Warning:  center 151 has no basis functions!
 Warning:  center 152 has no basis functions!
 Warning:  center 153 has no basis functions!
 Warning:  center 154 has no basis functions!
 Warning:  center 155 has no basis functions!
 Warning:  center 156 has no basis functions!
 Warning:  center 157 has no basis functions!
 Warning:  center 158 has no basis functions!
 Warning:  center 159 has no basis functions!
 Warning:  center 160 has no basis functions!
 Warning:  center 161 has no basis functions!
 Warning:  center 162 has no basis functions!
 Warning:  center 163 has no basis functions!
 Warning:  center 164 has no basis functions!
 Warning:  center 165 has no basis functions!
 Warning:  center 166 has no basis functions!
 Warning:  center 167 has no basis functions!
 Warning:  center 168 has no basis functions!
 Warning:  center 169 has no basis functions!
 Warning:  center 170 has no basis functions!
 Warning:  center 171 has no basis functions!
 Warning:  center 172 has no basis functions!
 Warning:  center 173 has no basis functions!
 Warning:  center 174 has no basis functions!
 Warning:  center 175 has no basis functions!
 Warning:  center 176 has no basis functions!
 Warning:  center 177 has no basis functions!
 Warning:  center 178 has no basis functions!
 Warning:  center 179 has no basis functions!
 Warning:  center 180 has no basis functions!
 Warning:  center 181 has no basis functions!
 Warning:  center 182 has no basis functions!
 Warning:  center 183 has no basis functions!
 Warning:  center 184 has no basis functions!
 Warning:  center 185 has no basis functions!
 Warning:  center 186 has no basis functions!
 Warning:  center 187 has no basis functions!
 Warning:  center 188 has no basis functions!
 Warning:  center 189 has no basis functions!
 Warning:  center 190 has no basis functions!
 Warning:  center 191 has no basis functions!
 Warning:  center 192 has no basis functions!
 Warning:  center 193 has no basis functions!
 Warning:  center 194 has no basis functions!
 Warning:  center 195 has no basis functions!
 Warning:  center 196 has no basis functions!
 Warning:  center 197 has no basis functions!
 Warning:  center 198 has no basis functions!
 Warning:  center 199 has no basis functions!
 Warning:  center 200 has no basis functions!
 Warning:  center 201 has no basis functions!
 Warning:  center 202 has no basis functions!
 Warning:  center 203 has no basis functions!
 Warning:  center 204 has no basis functions!
 Warning:  center 205 has no basis functions!
 Warning:  center 206 has no basis functions!
 Warning:  center 207 has no basis functions!
 Warning:  center 208 has no basis functions!
 Warning:  center 209 has no basis functions!
 Warning:  center 210 has no basis functions!
 Warning:  center 211 has no basis functions!
 Warning:  center 212 has no basis functions!
 Warning:  center 213 has no basis functions!
 Warning:  center 214 has no basis functions!
 Warning:  center 215 has no basis functions!
 Warning:  center 216 has no basis functions!
 Warning:  center 217 has no basis functions!
 Warning:  center 218 has no basis functions!
 Warning:  center 219 has no basis functions!
 Warning:  center 220 has no basis functions!
 Warning:  center 221 has no basis functions!
 Warning:  center 222 has no basis functions!
 Warning:  center 223 has no basis functions!
 Warning:  center 224 has no basis functions!
 Warning:  center 225 has no basis functions!
 Warning:  center 226 has no basis functions!
 Warning:  center 227 has no basis functions!
 Warning:  center 228 has no basis functions!
 Warning:  center 229 has no basis functions!
 Warning:  center 230 has no basis functions!
 Warning:  center 231 has no basis functions!
 Warning:  center 232 has no basis functions!
 Warning:  center 233 has no basis functions!
 Warning:  center 234 has no basis functions!
 Warning:  center 235 has no basis functions!
 Warning:  center 236 has no basis functions!
 Ernie: Thresh=  0.10000D-02 Tol=  0.10000D-05 Strict=F.
   568 basis functions,   904 primitive gaussians,   590 cartesian basis functions
    73 alpha electrons       73 beta electrons
       nuclear repulsion energy      1599.9156270972 Hartrees.
 IExCor=  402 DFT=T Ex+Corr=B3LYP ExCW=0 ScaHFX=  0.200000
 ScaDFX=  0.800000  0.720000  1.000000  0.810000 ScalE2=  1.000000  1.000000
 IRadAn=      0 IRanWt=     -1 IRanGd=            0 ICorTp=0 IEmpDi=  4
 NAtoms=  236 NActive=  236 NUniq=  236 SFac= 1.00D+00 NAtFMM=   60 NAOKFM=T Big=T
 Integral buffers will be    131072 words long.
 Raffenetti 2 integral format.
 Two-electron integral symmetry is turned off.
 Leave Link  301 at Tue Sep 15 14:18:10 2020, MaxMem=   131072000 cpu:         0.4
 (Enter /share/programs/GAUSSIAN/64/g09/l302.exe)
 NPDir=0 NMtPBC=     1 NCelOv=     1 NCel=       1 NClECP=     1 NCelD=      1
         NCelK=      1 NCelE2=     1 NClLst=     1 CellRange=     0.0.
 One-electron integrals computed using PRISM.
 NBasis=   568 RedAO= T EigKep=  1.01D-06  NBF=   568
 NBsUse=   557 1.00D-06 EigRej=  9.19D-07 NBFU=   557
 Precomputing XC quadrature grid using
 IXCGrd= 4 IRadAn=           0 IRanWt=          -1 IRanGd=           0 AccXCQ= 0.00D+00.
 Generated NRdTot=       0 NPtTot=           0 NUsed=           0 NTot=          32
 NSgBfM=   587   588   588   589   589 MxSgAt=   236 MxSgA2=    36.
 Leave Link  302 at Tue Sep 15 14:18:12 2020, MaxMem=   131072000 cpu:        15.8
 (Enter /share/programs/GAUSSIAN/64/g09/l308.exe)
 Leave Link  308 at Tue Sep 15 14:18:12 2020, MaxMem=   131072000 cpu:         0.9
 (Enter /share/programs/GAUSSIAN/64/g09/l303.exe)
 DipDrv:  MaxL=1.
 Leave Link  303 at Tue Sep 15 14:18:13 2020, MaxMem=   131072000 cpu:         0.8
 (Enter /share/programs/GAUSSIAN/64/g09/l401.exe)
 Initial guess from the checkpoint file:  "/scratch/aartigas.39206/Gau-3726301.chk"
 Skipping rotation of guess because NAtoms(RWF)=  236 differs from NAtoms(Chk)=   36.
 Guess basis will be translated and rotated to current coordinates.
 JPrj=2 DoOrth=T DoCkMO=T.
 Leave Link  401 at Tue Sep 15 14:18:15 2020, MaxMem=   131072000 cpu:        14.4
 (Enter /share/programs/GAUSSIAN/64/g09/l502.exe)
 Closed shell SCF:
 Using DIIS extrapolation, IDIIS=  1040.
 Two-electron integral symmetry not used.
 IVT=     1071582 IEndB=     1071582 NGot=   131072000 MDV=   130365749
 LenX=   130365749 LenY=   130017059
 Requested convergence on RMS density matrix=1.00D-08 within 128 cycles.
 Requested convergence on MAX density matrix=1.00D-06.
 Requested convergence on             energy=1.00D-06.
 No special actions if energy rises.
 Fock matrices will be formed incrementally for  20 cycles.

 Cycle   1  Pass 1  IDiag  1:
 FoFJK:  IHMeth= 1 ICntrl=       0 DoSepK=F KAlg= 0 I1Cent=   0 FoldK=F
 IRaf= 940000000 NMat=   1 IRICut=       1 DoRegI=T DoRafI=F ISym2E= 0.
 FoFCou: FMM=T IPFlag=           0 FMFlag=      100000 FMFlg1=        2001
         NFxFlg=           0 DoJE=F BraDBF=F KetDBF=F FulRan=T
         wScrn=  0.000000 ICntrl=       0 IOpCl=  0 I1Cent=           0 NGrid=           0
         NMat0=    1 NMatS0=      1 NMatT0=    0 NMatD0=    1 NMtDS0=    0 NMtDT0=    0
 Symmetry not used in FoFCou.
 FMM levels:  10  Number of levels for PrismC:   9
 E= -847.003738666967    
 DIIS: error= 5.05D-08 at cycle   1 NSaved=   1.
 NSaved= 1 IEnMin= 1 EnMin= -847.003738666967     IErMin= 1 ErrMin= 5.05D-08
 ErrMax= 5.05D-08  0.00D+00 EMaxC= 1.00D-01 BMatC= 3.55D-12 BMatP= 3.55D-12
 IDIUse=1 WtCom= 1.00D+00 WtEn= 0.00D+00
 Coeff-Com:  0.100D+01
 Coeff:      0.100D+01
 Gap=     0.151 Goal=   None    Shift=    0.000
 RMSDP=2.88D-07 MaxDP=1.33D-05              OVMax= 3.94D-07

 Cycle   2  Pass 1  IDiag  1:
 RMSU=  2.84D-07    CP:  1.00D+00
 E= -847.003738666868     Delta-E=        0.000000000099 Rises=F Damp=F
 DIIS: error= 1.42D-08 at cycle   2 NSaved=   2.
 NSaved= 2 IEnMin= 1 EnMin= -847.003738666967     IErMin= 2 ErrMin= 1.42D-08
 ErrMax= 1.42D-08  0.00D+00 EMaxC= 1.00D-01 BMatC= 2.13D-13 BMatP= 3.55D-12
 IDIUse=1 WtCom= 1.00D+00 WtEn= 0.00D+00
 Coeff-Com:  0.627D-01 0.937D+00
 Coeff:      0.627D-01 0.937D+00
 Gap=     0.151 Goal=   None    Shift=    0.000
 RMSDP=1.58D-08 MaxDP=7.83D-07 DE= 9.91D-11 OVMax= 3.02D-07

 Cycle   3  Pass 1  IDiag  1:
 RMSU=  1.33D-08    CP:  1.00D+00  1.02D+00
 E= -847.003738666811     Delta-E=        0.000000000058 Rises=F Damp=F
 DIIS: error= 2.51D-08 at cycle   3 NSaved=   3.
 NSaved= 3 IEnMin= 1 EnMin= -847.003738666967     IErMin= 2 ErrMin= 1.42D-08
 ErrMax= 2.51D-08  0.00D+00 EMaxC= 1.00D-01 BMatC= 5.05D-13 BMatP= 2.13D-13
 IDIUse=1 WtCom= 1.00D+00 WtEn= 0.00D+00
 Coeff-Com: -0.107D-01 0.616D+00 0.395D+00
 Coeff:     -0.107D-01 0.616D+00 0.395D+00
 Gap=     0.151 Goal=   None    Shift=    0.000
 RMSDP=1.03D-08 MaxDP=4.15D-07 DE= 5.78D-11 OVMax= 2.17D-07

 Cycle   4  Pass 1  IDiag  1:
 RMSU=  5.90D-09    CP:  1.00D+00  1.02D+00  3.94D-01
 E= -847.003738666806     Delta-E=        0.000000000005 Rises=F Damp=F
 DIIS: error= 8.06D-09 at cycle   4 NSaved=   4.
 NSaved= 4 IEnMin= 1 EnMin= -847.003738666967     IErMin= 4 ErrMin= 8.06D-09
 ErrMax= 8.06D-09  0.00D+00 EMaxC= 1.00D-01 BMatC= 2.06D-14 BMatP= 2.13D-13
 IDIUse=1 WtCom= 1.00D+00 WtEn= 0.00D+00
 Coeff-Com: -0.876D-02 0.309D+00 0.241D+00 0.459D+00
 Coeff:     -0.876D-02 0.309D+00 0.241D+00 0.459D+00
 Gap=     0.151 Goal=   None    Shift=    0.000
 RMSDP=4.11D-09 MaxDP=1.55D-07 DE= 4.55D-12 OVMax= 6.88D-08

 SCF Done:  E(RB3LYP) =  -847.003738667     A.U. after    4 cycles
            NFock=  4  Conv=0.41D-08     -V/T= 2.0049
 KE= 8.428349970566D+02 PE=-5.164192584015D+03 EE= 1.874438221195D+03
 Leave Link  502 at Tue Sep 15 14:20:05 2020, MaxMem=   131072000 cpu:       869.4
 (Enter /share/programs/GAUSSIAN/64/g09/l801.exe)
 DoSCS=F DFT=T ScalE2(SS,OS)=  1.000000  1.000000
 Range of M.O.s used for correlation:     1   557
 NBasis=   568 NAE=    73 NBE=    73 NFC=     0 NFV=     0
 NROrb=    557 NOA=    73 NOB=    73 NVA=   484 NVB=   484

 **** Warning!!: The largest alpha MO coefficient is  0.14271941D+03

 Leave Link  801 at Tue Sep 15 14:20:05 2020, MaxMem=   131072000 cpu:         0.2
 (Enter /share/programs/GAUSSIAN/64/g09/l1002.exe)
 Minotr:  Closed shell wavefunction.
          Direct CPHF calculation.
          Differentiating once with respect to magnetic field using GIAOs.
          Electric field/nuclear overlap derivatives assumed to be zero.
          Requested convergence is 1.0D-08 RMS, and 1.0D-07 maximum.
          Secondary convergence is 1.0D-12 RMS, and 1.0D-12 maximum.
          NewPWx=T KeepS1=F KeepF1=F KeepIn=T MapXYZ=F SortEE=F KeepMc=T.
          MDV=     131069551 using IRadAn=       2.
 Generate precomputed XC quadrature information.
          Solving linear equations simultaneously, MaxMat=      72.
 FoFCou: FMM=F IPFlag=           0 FMFlag=      100000 FMFlg1=        2001
         NFxFlg=           0 DoJE=F BraDBF=F KetDBF=T FulRan=T
         wScrn=  0.000000 ICntrl=    6100 IOpCl=  0 I1Cent=           7 NGrid=         236
         NMat0=    1 NMatS0=      1 NMatT0=    0 NMatD0=    1 NMtDS0=    0 NMtDT0=    0
 Symmetry not used in FoFCou.
 FoFJK:  IHMeth= 1 ICntrl=    6127 DoSepK=F KAlg= 0 I1Cent=   0 FoldK=F
 IRaf=         1 NMat=   1 IRICut=       1 DoRegI=T DoRafI=F ISym2E= 0.
          There are     3 degrees of freedom in the 1st order CPHF.  IDoFFX=0 NUNeed=     3.
      3 vectors produced by pass  0 Test12= 1.18D-12 3.33D-08 XBig12= 1.96D+03 8.77D+00.
 AX will form     3 AO Fock derivatives at one time.
      3 vectors produced by pass  1 Test12= 1.18D-12 3.33D-08 XBig12= 3.18D+00 7.58D-01.
      3 vectors produced by pass  2 Test12= 1.18D-12 3.33D-08 XBig12= 1.86D-02 5.85D-02.
      3 vectors produced by pass  3 Test12= 1.18D-12 3.33D-08 XBig12= 4.29D-05 1.35D-03.
      3 vectors produced by pass  4 Test12= 1.18D-12 3.33D-08 XBig12= 9.75D-08 7.22D-05.
      3 vectors produced by pass  5 Test12= 1.18D-12 3.33D-08 XBig12= 3.97D-10 5.92D-06.
      3 vectors produced by pass  6 Test12= 1.18D-12 3.33D-08 XBig12= 1.51D-12 4.40D-07.
 InvSVY:  IOpt=1 It=  1 EMax= 3.55D-15
 Solved reduced A of dimension    21 with     3 vectors.
 Calculating GIAO nuclear magnetic shielding tensors.
 SCF GIAO Magnetic shielding tensor (ppm):
      1  C    Isotropic =    49.6861   Anisotropy =   149.7970
   XX=    46.3088   YX=   -25.0950   ZX=    31.4786
   XY=   -31.1109   YY=   -39.0339   ZY=    13.2621
   XZ=    24.9178   YZ=     8.9888   ZZ=   141.7833
   Eigenvalues:   -49.3507    48.8581   149.5507
      2  C    Isotropic =    49.6861   Anisotropy =   149.7971
   XX=    46.3088   YX=    25.0953   ZX=    31.4786
   XY=    31.1111   YY=   -39.0339   ZY=   -13.2621
   XZ=    24.9177   YZ=    -8.9889   ZZ=   141.7834
   Eigenvalues:   -49.3508    48.8583   149.5509
      3  C    Isotropic =    44.4899   Anisotropy =   204.7372
   XX=   -22.2199   YX=    10.8075   ZX=    51.2710
   XY=     4.9259   YY=   -14.7126   ZY=    14.7921
   XZ=    32.3655   YZ=    21.2392   ZZ=   170.4022
   Eigenvalues:   -31.9593   -15.5523   180.9814
      4  C    Isotropic =    44.4899   Anisotropy =   204.7373
   XX=   -22.2198   YX=   -10.8075   ZX=    51.2710
   XY=    -4.9256   YY=   -14.7126   ZY=   -14.7922
   XZ=    32.3656   YZ=   -21.2393   ZZ=   170.4023
   Eigenvalues:   -31.9592   -15.5524   180.9815
      5  C    Isotropic =    48.5420   Anisotropy =   189.5490
   XX=   -14.6790   YX=     4.7342   ZX=     8.4333
   XY=    20.3759   YY=    -5.5375   ZY=    31.5121
   XZ=    65.1218   YZ=     0.8640   ZZ=   165.8426
   Eigenvalues:   -26.3226    -2.9593   174.9080
      6  C    Isotropic =    48.5421   Anisotropy =   189.5489
   XX=   -14.6789   YX=    -4.7340   ZX=     8.4335
   XY=   -20.3758   YY=    -5.5374   ZY=   -31.5121
   XZ=    65.1218   YZ=    -0.8638   ZZ=   165.8426
   Eigenvalues:   -26.3224    -2.9594   174.9080
      7  C    Isotropic =    50.1907   Anisotropy =   149.2089
   XX=    19.7303   YX=   -44.2755   ZX=    41.2886
   XY=   -38.0437   YY=    -2.7069   ZY=    36.9011
   XZ=    36.5866   YZ=    37.5458   ZZ=   133.5487
   Eigenvalues:   -49.6656    50.5744   149.6633
      8  C    Isotropic =    48.9362   Anisotropy =   152.4339
   XX=   -31.5093   YX=   -11.4921   ZX=    54.7730
   XY=   -19.0468   YY=    46.5898   ZY=    27.5522
   XZ=    42.2451   YZ=    29.8391   ZZ=   131.7282
   Eigenvalues:   -50.1461    46.3960   150.5589
      9  C    Isotropic =    44.4204   Anisotropy =   209.3981
   XX=   -10.1987   YX=    16.7536   ZX=    44.4888
   XY=     8.9342   YY=    -7.7270   ZY=    61.4651
   XZ=    43.3269   YZ=    64.9792   ZZ=   151.1869
   Eigenvalues:   -30.3689   -20.3891   184.0192
     10  C    Isotropic =    45.3894   Anisotropy =   198.3236
   XX=    -5.9706   YX=    23.3819   ZX=    35.6519
   XY=    38.1954   YY=     1.7271   ZY=    73.1370
   XZ=    54.0013   YZ=    45.7045   ZZ=   140.4116
   Eigenvalues:   -33.5315    -7.9055   177.6051
     11  H    Isotropic =    23.8179   Anisotropy =     7.5674
   XX=    27.2191   YX=    -1.9090   ZX=    -2.2602
   XY=    -1.7961   YY=    24.8722   ZY=    -0.1966
   XZ=    -3.3763   YZ=    -0.1950   ZZ=    19.3625
   Eigenvalues:    18.3647    24.2263    28.8628
     12  H    Isotropic =    23.8179   Anisotropy =     7.5674
   XX=    27.2191   YX=     1.9090   ZX=    -2.2602
   XY=     1.7961   YY=    24.8722   ZY=     0.1966
   XZ=    -3.3763   YZ=     0.1950   ZZ=    19.3625
   Eigenvalues:    18.3647    24.2263    28.8628
     13  H    Isotropic =    23.8548   Anisotropy =     7.5124
[...]
   131  Bq   0.000000
   132  Bq   0.000000
   133  Bq   0.000000
   134  Bq   0.000000
   135  Bq   0.000000
   136  Bq   0.000000
   137  Bq   0.000000
   138  Bq   0.000000
   139  Bq   0.000000
   140  Bq   0.000000
   141  Bq   0.000000
   142  Bq   0.000000
   143  Bq   0.000000
   144  Bq   0.000000
   145  Bq   0.000000
   146  Bq   0.000000
   147  Bq   0.000000
   148  Bq   0.000000
   149  Bq   0.000000
   150  Bq   0.000000
   151  Bq   0.000000
   152  Bq   0.000000
   153  Bq   0.000000
   154  Bq   0.000000
   155  Bq   0.000000
   156  Bq   0.000000
   157  Bq   0.000000
   158  Bq   0.000000
   159  Bq   0.000000
   160  Bq   0.000000
   161  Bq   0.000000
   162  Bq   0.000000
   163  Bq   0.000000
   164  Bq   0.000000
   165  Bq   0.000000
   166  Bq   0.000000
   167  Bq   0.000000
   168  Bq   0.000000
   169  Bq   0.000000
   170  Bq   0.000000
   171  Bq   0.000000
   172  Bq   0.000000
   173  Bq   0.000000
   174  Bq   0.000000
   175  Bq   0.000000
   176  Bq   0.000000
   177  Bq   0.000000
   178  Bq   0.000000
   179  Bq   0.000000
   180  Bq   0.000000
   181  Bq   0.000000
   182  Bq   0.000000
   183  Bq   0.000000
   184  Bq   0.000000
   185  Bq   0.000000
   186  Bq   0.000000
   187  Bq   0.000000
   188  Bq   0.000000
   189  Bq   0.000000
   190  Bq   0.000000
   191  Bq   0.000000
   192  Bq   0.000000
   193  Bq   0.000000
   194  Bq   0.000000
   195  Bq   0.000000
   196  Bq   0.000000
   197  Bq   0.000000
   198  Bq   0.000000
   199  Bq   0.000000
   200  Bq   0.000000
   201  Bq   0.000000
   202  Bq   0.000000
   203  Bq   0.000000
   204  Bq   0.000000
   205  Bq   0.000000
   206  Bq   0.000000
   207  Bq   0.000000
   208  Bq   0.000000
   209  Bq   0.000000
   210  Bq   0.000000
   211  Bq   0.000000
   212  Bq   0.000000
   213  Bq   0.000000
   214  Bq   0.000000
   215  Bq   0.000000
   216  Bq   0.000000
   217  Bq   0.000000
   218  Bq   0.000000
   219  Bq   0.000000
   220  Bq   0.000000
   221  Bq   0.000000
   222  Bq   0.000000
   223  Bq   0.000000
   224  Bq   0.000000
   225  Bq   0.000000
   226  Bq   0.000000
   227  Bq   0.000000
   228  Bq   0.000000
   229  Bq   0.000000
   230  Bq   0.000000
   231  Bq   0.000000
   232  Bq   0.000000
   233  Bq   0.000000
   234  Bq   0.000000
   235  Bq   0.000000
   236  Bq   0.000000
 Sum of Mulliken charges =   0.00000
 Mulliken charges with hydrogens summed into heavy atoms:
               1
     1  C   -0.262865
     2  C   -0.262866
     3  C    0.737923
     4  C    0.737922
     5  C   -0.039994
     6  C   -0.040001
     7  C    0.075155
     8  C   -0.330147
     9  C    0.780501
    10  C   -0.200782
    15  C    0.249272
    16  C   -0.533462
    17  C   -0.189404
    18  C   -0.286191
    23  C   -0.330145
    24  C    0.075154
    25  C    0.780496
    26  C   -0.200782
    27  C    0.249273
    28  C   -0.286192
    29  C   -0.189403
    30  C   -0.533462
    37  Bq   0.000000
    38  Bq   0.000000
    39  Bq   0.000000
    40  Bq   0.000000
    41  Bq   0.000000
    42  Bq   0.000000
    43  Bq   0.000000
    44  Bq   0.000000
    45  Bq   0.000000
    46  Bq   0.000000
    47  Bq   0.000000
    48  Bq   0.000000
    49  Bq   0.000000
    50  Bq   0.000000
    51  Bq   0.000000
    52  Bq   0.000000
    53  Bq   0.000000
    54  Bq   0.000000
    55  Bq   0.000000
    56  Bq   0.000000
    57  Bq   0.000000
    58  Bq   0.000000
    59  Bq   0.000000
    60  Bq   0.000000
    61  Bq   0.000000
    62  Bq   0.000000
    63  Bq   0.000000
    64  Bq   0.000000
    65  Bq   0.000000
    66  Bq   0.000000
    67  Bq   0.000000
    68  Bq   0.000000
    69  Bq   0.000000
    70  Bq   0.000000
    71  Bq   0.000000
    72  Bq   0.000000
    73  Bq   0.000000
    74  Bq   0.000000
    75  Bq   0.000000
    76  Bq   0.000000
    77  Bq   0.000000
    78  Bq   0.000000
    79  Bq   0.000000
    80  Bq   0.000000
    81  Bq   0.000000
    82  Bq   0.000000
    83  Bq   0.000000
    84  Bq   0.000000
    85  Bq   0.000000
    86  Bq   0.000000
    87  Bq   0.000000
    88  Bq   0.000000
    89  Bq   0.000000
    90  Bq   0.000000
    91  Bq   0.000000
    92  Bq   0.000000
    93  Bq   0.000000
    94  Bq   0.000000
    95  Bq   0.000000
    96  Bq   0.000000
    97  Bq   0.000000
    98  Bq   0.000000
    99  Bq   0.000000
   100  Bq   0.000000
   101  Bq   0.000000
   102  Bq   0.000000
   103  Bq   0.000000
   104  Bq   0.000000
   105  Bq   0.000000
   106  Bq   0.000000
   107  Bq   0.000000
   108  Bq   0.000000
   109  Bq   0.000000
   110  Bq   0.000000
   111  Bq   0.000000
   112  Bq   0.000000
   113  Bq   0.000000
   114  Bq   0.000000
   115  Bq   0.000000
   116  Bq   0.000000
   117  Bq   0.000000
   118  Bq   0.000000
   119  Bq   0.000000
   120  Bq   0.000000
   121  Bq   0.000000
   122  Bq   0.000000
   123  Bq   0.000000
   124  Bq   0.000000
   125  Bq   0.000000
   126  Bq   0.000000
   127  Bq   0.000000
   128  Bq   0.000000
   129  Bq   0.000000
   130  Bq   0.000000
   131  Bq   0.000000
   132  Bq   0.000000
   133  Bq   0.000000
   134  Bq   0.000000
   135  Bq   0.000000
   136  Bq   0.000000
   137  Bq   0.000000
   138  Bq   0.000000
   139  Bq   0.000000
   140  Bq   0.000000
   141  Bq   0.000000
   142  Bq   0.000000
   143  Bq   0.000000
   144  Bq   0.000000
   145  Bq   0.000000
   146  Bq   0.000000
   147  Bq   0.000000
   148  Bq   0.000000
   149  Bq   0.000000
   150  Bq   0.000000
   151  Bq   0.000000
   152  Bq   0.000000
   153  Bq   0.000000
   154  Bq   0.000000
   155  Bq   0.000000
   156  Bq   0.000000
   157  Bq   0.000000
   158  Bq   0.000000
   159  Bq   0.000000
   160  Bq   0.000000
   161  Bq   0.000000
   162  Bq   0.000000
   163  Bq   0.000000
   164  Bq   0.000000
   165  Bq   0.000000
   166  Bq   0.000000
   167  Bq   0.000000
   168  Bq   0.000000
   169  Bq   0.000000
   170  Bq   0.000000
   171  Bq   0.000000
   172  Bq   0.000000
   173  Bq   0.000000
   174  Bq   0.000000
   175  Bq   0.000000
   176  Bq   0.000000
   177  Bq   0.000000
   178  Bq   0.000000
   179  Bq   0.000000
   180  Bq   0.000000
   181  Bq   0.000000
   182  Bq   0.000000
   183  Bq   0.000000
   184  Bq   0.000000
   185  Bq   0.000000
   186  Bq   0.000000
   187  Bq   0.000000
   188  Bq   0.000000
   189  Bq   0.000000
   190  Bq   0.000000
   191  Bq   0.000000
   192  Bq   0.000000
   193  Bq   0.000000
   194  Bq   0.000000
   195  Bq   0.000000
   196  Bq   0.000000
   197  Bq   0.000000
   198  Bq   0.000000
   199  Bq   0.000000
   200  Bq   0.000000
   201  Bq   0.000000
   202  Bq   0.000000
   203  Bq   0.000000
   204  Bq   0.000000
   205  Bq   0.000000
   206  Bq   0.000000
   207  Bq   0.000000
   208  Bq   0.000000
   209  Bq   0.000000
   210  Bq   0.000000
   211  Bq   0.000000
   212  Bq   0.000000
   213  Bq   0.000000
   214  Bq   0.000000
   215  Bq   0.000000
   216  Bq   0.000000
   217  Bq   0.000000
   218  Bq   0.000000
   219  Bq   0.000000
   220  Bq   0.000000
   221  Bq   0.000000
   222  Bq   0.000000
   223  Bq   0.000000
   224  Bq   0.000000
   225  Bq   0.000000
   226  Bq   0.000000
   227  Bq   0.000000
   228  Bq   0.000000
   229  Bq   0.000000
   230  Bq   0.000000
   231  Bq   0.000000
   232  Bq   0.000000
   233  Bq   0.000000
   234  Bq   0.000000
   235  Bq   0.000000
   236  Bq   0.000000
 Electronic spatial extent (au):  <R**2>=           5804.3227
 Charge=              0.0000 electrons
 Dipole moment (field-independent basis, Debye):
    X=              0.0000    Y=              0.0732    Z=              0.0000  Tot=              0.0732
 Quadrupole moment (field-independent basis, Debye-Ang):
   XX=           -113.9137   YY=           -113.9781   ZZ=           -133.4378
   XY=              0.0000   XZ=             -4.8717   YZ=              0.0000
 Traceless Quadrupole moment (field-independent basis, Debye-Ang):
   XX=              6.5295   YY=              6.4651   ZZ=            -12.9946
   XY=              0.0000   XZ=             -4.8717   YZ=              0.0000
 Octapole moment (field-independent basis, Debye-Ang**2):
  XXX=              0.0000  YYY=             11.7108  ZZZ=              0.0000  XYY=              0.0000
  XXY=             -6.4067  XXZ=              0.0000  XZZ=              0.0000  YZZ=             -7.8695
  YYZ=              0.0000  XYZ=            -16.2862
 Hexadecapole moment (field-independent basis, Debye-Ang**3):
 XXXX=          -4416.4021 YYYY=          -2784.9756 ZZZZ=           -481.5690 XXXY=              0.0001
 XXXZ=           -124.3517 YYYX=             -0.0003 YYYZ=              0.0001 ZZZX=             -4.4782
 ZZZY=              0.0001 XXYY=          -1189.3576 XXZZ=           -942.9016 YYZZ=           -589.4012
 XXYZ=              0.0000 YYXZ=              7.8297 ZZXY=             -0.0001
 N-N= 1.599915627097D+03 E-N=-5.164192587538D+03  KE= 8.428349970566D+02
 Leave Link  601 at Tue Sep 15 14:28:06 2020, MaxMem=   131072000 cpu:         0.8
 (Enter /share/programs/GAUSSIAN/64/g09/l9999.exe)
 1\1\GINC-MUHKA\SP\RB3LYP\6-311+G(d,p)\C22H14\AARTIGAS\15-Sep-2020\0\\#
 P rb3lyp/6-311+g** NMR Guess=Read geom=connectivity\\Title\\0,1\C,0,0.
 653241,3.257859,-0.20251\C,0,-0.653243,3.25786,0.20251\C,0,1.372495,2.
 032956,-0.320807\C,0,-1.372495,2.032956,0.320807\C,0,0.722474,0.795666
 ,-0.050388\C,0,-0.722474,0.795667,0.050387\C,0,2.760385,2.053927,-0.67
 4268\C,0,3.508866,0.913916,-0.671362\C,0,2.955226,-0.309622,-0.177479\
 C,0,1.574722,-0.361114,0.197094\H,0,1.183427,4.19574,-0.384599\H,0,-1.
 183429,4.19574,0.384599\H,0,3.206283,3.012423,-0.951392\H,0,4.560023,0
 .932956,-0.969333\C,0,3.78302,-1.443098,0.028309\C,0,1.137427,-1.50753
 3,0.912109\C,0,1.973691,-2.584349,1.138062\C,0,3.301853,-2.571588,0.66
 1177\H,0,4.825754,-1.39123,-0.295484\H,0,0.124652,-1.532788,1.308472\H
 ,0,1.603586,-3.445682,1.698977\H,0,3.952742,-3.433526,0.825134\C,0,-3.
 508866,0.913915,0.671362\C,0,-2.760386,2.053926,0.674268\C,0,-2.955226
 ,-0.309623,0.177479\C,0,-1.574722,-0.361114,-0.197094\C,0,-3.78302,-1.
 443099,-0.028309\C,0,-3.301852,-2.571589,-0.661177\C,0,-1.97369,-2.584
 349,-1.138061\C,0,-1.137426,-1.507534,-0.912109\H,0,-4.560022,0.932954
 ,0.969334\H,0,-3.206283,3.012421,0.951392\H,0,-4.825754,-1.391232,0.29
 5484\H,0,-3.952741,-3.433528,-0.825134\H,0,-1.603585,-3.445682,-1.6989
 76\H,0,-0.124652,-1.532788,-1.308471\Bq,0,1.4660152981,1.0373008686,-0
 .9899751145\Bq,0,1.4479706154,0.9465841223,-0.9899751145\Bq,0,1.441921
 2188,0.8542881667,-0.9899751145\Bq,0,1.4479706154,0.761992211,-0.98997
 51145\Bq,0,1.4660152981,0.6712754648,-0.9899751145\Bq,0,1.4957465176,0
 .5836901166,-0.9899751145\Bq,0,1.5366555643,0.5007347761,-0.9899751145
 \Bq,0,1.5880424732,0.4238288321,-0.9899751145\Bq,0,1.649028,0.35428816
 67,-0.9899751145\Bq,0,1.7185686654,0.2933026399,-0.9899751145\Bq,0,1.7
 954746094,0.241915731,-0.9899751145\Bq,0,1.8784299499,0.2010066842,-0.
 9899751145\Bq,0,1.9660152981,0.1712754648,-0.9899751145\Bq,0,2.0567320
 444,0.153230782,-0.9899751145\Bq,0,2.149028,0.1471813855,-0.9899751145
 \Bq,0,2.2413239556,0.153230782,-0.9899751145\Bq,0,2.3320407019,0.17127
 54648,-0.9899751145\Bq,0,2.4196260501,0.2010066842,-0.9899751145\Bq,0,
 2.5025813906,0.241915731,-0.9899751145\Bq,0,2.5794873346,0.2933026399,
 -0.9899751145\Bq,0,2.649028,0.3542881667,-0.9899751145\Bq,0,1.99146894
 82,1.442306553,-1.0762216736\Bq,0,1.9160650869,1.4167103911,-1.0762216
 736\Bq,0,1.8446472855,1.381491029,-1.0762216736\Bq,0,1.7784375226,1.33
 72510798,-1.0762216736\Bq,0,1.7185686654,1.2847475012,-1.0762216736\Bq
 ,0,1.6660650869,1.2248786441,-1.0762216736\Bq,0,1.6218251376,1.1586688
 812,-1.0762216736\Bq,0,1.5866057756,1.0872510798,-1.0762216736\Bq,0,1.
 5610096137,1.0118472184,-1.0762216736\Bq,0,1.5454746094,0.933747478,-1
 .0762216736\Bq,0,1.540266571,0.8542881667,-1.0762216736\Bq,0,1.5454746
 094,0.7748288554,-1.0762216736\Bq,0,1.5610096137,0.6967291149,-1.07622
 16736\Bq,0,1.5866057756,0.6213252535,-1.0762216736\Bq,0,1.6218251376,0
 .5499074522,-1.0762216736\Bq,0,1.6660650869,0.4836976892,-1.0762216736
 \Bq,0,1.7185686654,0.4238288321,-1.0762216736\Bq,0,1.7784375226,0.3713
 252535,-1.0762216736\Bq,0,1.8446472855,0.3270853043,-1.0762216736\Bq,0
 ,1.9160650869,0.2918659422,-1.0762216736\Bq,0,1.9914689482,0.266269780
 3,-1.0762216736\Bq,0,2.0695686887,0.2507347761,-1.0762216736\Bq,0,2.14
 9028,0.2455267377,-1.0762216736\Bq,0,2.2284873113,0.2507347761,-1.0762
 216736\Bq,0,2.3065870518,0.2662697803,-1.0762216736\Bq,0,2.3819909131,
 0.2918659422,-1.0762216736\Bq,0,2.4534087145,0.3270853043,-1.076221673
 6\Bq,0,2.5196184774,0.3713252535,-1.0762216736\Bq,0,2.5794873346,0.423
 8288321,-1.0762216736\Bq,0,2.6319909131,0.4836976892,-1.0762216736\Bq,
 0,2.6319909131,0.9836976892,-1.1488937371\Bq,0,2.6109677663,1.04562988
 28,-1.1488937371\Bq,0,2.5820407019,1.1042881667,-1.1488937371\Bq,0,2.5
 457046701,1.1586688812,-1.1488937371\Bq,0,2.5025813906,1.2078415573,-1
 .1488937371\Bq,0,2.2142910961,1.3500105974,-1.1488937371\Bq,0,2.149028
 ,1.3542881667,-1.1488937371\Bq,0,2.0837649039,1.3500105974,-1.14889373
 71\Bq,0,2.0196184774,1.3372510798,-1.1488937371\Bq,0,1.9576862838,1.31
 62279329,-1.1488937371\Bq,0,1.899028,1.2873008686,-1.1488937371\Bq,0,1
 .8446472855,1.2509648368,-1.1488937371\Bq,0,1.7954746094,1.2078415573,
 -1.1488937371\Bq,0,1.7523513299,1.1586688812,-1.1488937371\Bq,0,1.7160
 152981,1.1042881667,-1.1488937371\Bq,0,1.6870882337,1.0456298828,-1.14
 88937371\Bq,0,1.6660650869,0.9836976892,-1.1488937371\Bq,0,1.653305569
 3,0.9195512628,-1.1488937371\Bq,0,1.649028,0.8542881667,-1.1488937371\
 Bq,0,1.6533055693,0.7890250706,-1.1488937371\Bq,0,1.6660650869,0.72487
 86441,-1.1488937371\Bq,0,1.6870882337,0.6629464505,-1.1488937371\Bq,0,
 1.7160152981,0.6042881667,-1.1488937371\Bq,0,1.7523513299,0.5499074522
 ,-1.1488937371\Bq,0,1.7954746094,0.5007347761,-1.1488937371\Bq,0,1.844
 6472855,0.4576114965,-1.1488937371\Bq,0,1.899028,0.4212754648,-1.14889
 37371\Bq,0,1.9576862838,0.3923484004,-1.1488937371\Bq,0,2.0196184774,0
 .3713252535,-1.1488937371\Bq,0,2.0837649039,0.358565736,-1.1488937371\
 Bq,0,2.149028,0.3542881667,-1.1488937371\Bq,0,2.2142910961,0.358565736
 ,-1.1488937371\Bq,0,2.2784375226,0.3713252535,-1.1488937371\Bq,0,2.340
 3697162,0.3923484004,-1.1488937371\Bq,0,2.399028,0.4212754648,-1.14889
 37371\Bq,0,2.4534087145,0.4576114965,-1.1488937371\Bq,0,2.5025813906,0
 .5007347761,-1.1488937371\Bq,0,2.5457046701,0.5499074522,-1.1488937371
 \Bq,0,2.5820407019,0.6042881667,-1.1488937371\Bq,0,2.6109677663,0.6629
 464505,-1.1488937371\Bq,0,2.6319909131,0.7248786441,-1.1488937371\Bq,0
 ,2.5317114324,0.8542881667,-1.2067478658\Bq,0,2.5284375226,0.904238377
 9,-1.2067478658\Bq,0,2.5186718106,0.9533339272,-1.2067478658\Bq,0,2.50
 25813906,1.0007347761,-1.2067478658\Bq,0,2.480441574,1.0456298828,-1.2
 067478658\Bq,0,2.4526311793,1.0872510798,-1.2067478658\Bq,0,2.41962605
 01,1.1248862167,-1.2067478658\Bq,0,2.3819909131,1.157891346,-1.2067478
 658\Bq,0,2.3403697162,1.1857017407,-1.2067478658\Bq,0,2.2954746094,1.2
 078415573,-1.2067478658\Bq,0,2.2480737605,1.2239319773,-1.2067478658\B
 q,0,2.1989782113,1.2336976892,-1.2067478658\Bq,0,2.149028,1.236971599,
 -1.2067478658\Bq,0,2.0990777887,1.2336976892,-1.2067478658\Bq,0,2.0499
 822395,1.2239319773,-1.2067478658\Bq,0,2.0025813906,1.2078415573,-1.20
 67478658\Bq,0,1.9576862838,1.1857017407,-1.2067478658\Bq,0,1.916065086
 9,1.157891346,-1.2067478658\Bq,0,1.8784299499,1.1248862167,-1.20674786
 58\Bq,0,1.8454248207,1.0872510798,-1.2067478658\Bq,0,1.817614426,1.045
 6298828,-1.2067478658\Bq,0,1.7954746094,1.0007347761,-1.2067478658\Bq,
 0,1.7793841894,0.9533339272,-1.2067478658\Bq,0,1.7696184774,0.90423837
 79,-1.2067478658\Bq,0,1.7663445676,0.8542881667,-1.2067478658\Bq,0,1.7
 696184774,0.8043379554,-1.2067478658\Bq,0,1.7793841894,0.7552424061,-1
 .2067478658\Bq,0,1.7954746094,0.7078415573,-1.2067478658\Bq,0,1.817614
 426,0.6629464505,-1.2067478658\Bq,0,1.8454248207,0.6213252535,-1.20674
 78658\Bq,0,1.8784299499,0.5836901166,-1.2067478658\Bq,0,1.9160650869,0
 .5506849873,-1.2067478658\Bq,0,1.9576862838,0.5228745926,-1.2067478658
 \Bq,0,2.0025813906,0.5007347761,-1.2067478658\Bq,0,2.0499822395,0.4846
 443561,-1.2067478658\Bq,0,2.0990777887,0.4748786441,-1.2067478658\Bq,0
 ,2.149028,0.4716047343,-1.2067478658\Bq,0,2.1989782113,0.4748786441,-1
 .2067478658\Bq,0,2.2480737605,0.4846443561,-1.2067478658\Bq,0,2.295474
 6094,0.5007347761,-1.2067478658\Bq,0,2.3403697162,0.5228745926,-1.2067
 478658\Bq,0,2.3819909131,0.5506849873,-1.2067478658\Bq,0,2.4196260501,
 0.5836901166,-1.2067478658\Bq,0,2.4526311793,0.6213252535,-1.206747865
 8\Bq,0,2.480441574,0.6629464505,-1.2067478658\Bq,0,2.5025813906,0.7078
 415573,-1.2067478658\Bq,0,2.5186718106,0.7552424061,-1.2067478658\Bq,0
 ,2.5284375226,0.8043379554,-1.2067478658\Bq,0,2.4078470451,0.854288166
 7,-1.2487941596\Bq,0,2.4056328123,0.8880708311,-1.2487941596\Bq,0,2.39
 9028,0.9212754648,-1.2487941596\Bq,0,2.3881456184,0.9533339272,-1.2487
 941596\Bq,0,2.373171868,0.9836976892,-1.2487941596\Bq,0,2.354362954,1.
 0118472184,-1.2487941596\Bq,0,2.3320407019,1.0373008686,-1.2487941596\
 Bq,0,2.3065870518,1.0596231206,-1.2487941596\Bq,0,2.2784375226,1.07843
 20347,-1.2487941596\Bq,0,2.2480737605,1.0934057851,-1.2487941596\Bq,0,
 2.2160152981,1.1042881667,-1.2487941596\Bq,0,2.1828106644,1.110892979,
 -1.2487941596\Bq,0,2.149028,1.1131072118,-1.2487941596\Bq,0,2.11524533
 56,1.110892979,-1.2487941596\Bq,0,2.0820407019,1.1042881667,-1.2487941
 596\Bq,0,2.0499822395,1.0934057851,-1.2487941596\Bq,0,2.0196184774,1.0
 784320347,-1.2487941596\Bq,0,1.9914689482,1.0596231206,-1.2487941596\B
 q,0,1.9660152981,1.0373008686,-1.2487941596\Bq,0,1.943693046,1.0118472
 184,-1.2487941596\Bq,0,1.924884132,0.9836976892,-1.2487941596\Bq,0,1.9
 099103816,0.9533339272,-1.2487941596\Bq,0,1.899028,0.9212754648,-1.248
 7941596\Bq,0,1.8924231877,0.8880708311,-1.2487941596\Bq,0,1.8902089549
 ,0.8542881667,-1.2487941596\Bq,0,1.8924231877,0.8205055022,-1.24879415
 96\Bq,0,1.899028,0.7873008686,-1.2487941596\Bq,0,1.9099103816,0.755242
 4061,-1.2487941596\Bq,0,1.924884132,0.7248786441,-1.2487941596\Bq,0,1.
 943693046,0.6967291149,-1.2487941596\Bq,0,1.9660152981,0.6712754648,-1
 .2487941596\Bq,0,1.9914689482,0.6489532127,-1.2487941596\Bq,0,2.019618
 4774,0.6301442986,-1.2487941596\Bq,0,2.0499822395,0.6151705483,-1.2487
 941596\Bq,0,2.0820407019,0.6042881667,-1.2487941596\Bq,0,2.1152453356,
 0.5976833544,-1.2487941596\Bq,0,2.149028,0.5954691216,-1.2487941596\Bq
 ,0,2.1828106644,0.5976833544,-1.2487941596\Bq,0,2.2160152981,0.6042881
 667,-1.2487941596\Bq,0,2.2480737605,0.6151705483,-1.2487941596\Bq,0,2.
 2784375226,0.6301442986,-1.2487941596\Bq,0,2.3065870518,0.6489532127,-
 1.2487941596\Bq,0,2.3320407019,0.6712754648,-1.2487941596\Bq,0,2.35436
 2954,0.6967291149,-1.2487941596\Bq,0,2.373171868,0.7248786441,-1.24879
 41596\Bq,0,2.3881456184,0.7552424061,-1.2487941596\Bq,0,2.399028,0.787
 3008686,-1.2487941596\Bq,0,2.4056328123,0.8205055022,-1.2487941596\Bq,
 0,2.2795541922,0.8542881667,-1.2743131947\Bq,0,2.2784375226,0.87132525
 35,-1.2743131947\Bq,0,2.2751066201,0.8880708311,-1.2743131947\Bq,0,2.2
 696184774,0.9042383779,-1.2743131947\Bq,0,2.2620669983,0.9195512628,-1
 .2743131947\Bq,0,2.2525813906,0.933747478,-1.2743131947\Bq,0,2.2413239
 556,0.9465841223,-1.2743131947\Bq,0,2.2284873113,0.9578415573,-1.27431
 31947\Bq,0,2.2142910961,0.967327165,-1.2743131947\Bq,0,2.1989782113,0.
 9748786441,-1.2743131947\Bq,0,2.1828106644,0.9803667867,-1.2743131947\
 Bq,0,2.1660650869,0.9836976892,-1.2743131947\\Version=ES64L-G09RevD.01
 \HF=-847.0037387\RMSD=4.115e-09\Dipole=0.0000004,0.0287843,0.0000009\Q
 uadrupole=4.8545288,4.8066247,-9.6611535,-0.0000047,-3.6219991,-0.0000
 02\PG=C01 [X(C22H14)]\\@


 IF YOU GIVE EVERYONE A PIECE OF YOUR MIND,
 PRETTY SOON IT WILL BE ALL GONE.
 Job cpu time:       0 days  1 hours 17 minutes  8.4 seconds.
 File lengths (MBytes):  RWF=    184 Int=      0 D2E=      0 Chk=     21 Scr=      1
 Normal termination of Gaussian 09 at Tue Sep 15 14:28:06 2020.
