 Entering Gaussian System, Link 0=g09
 Input=input_batch_06400.com
 Output=input_batch_06400.log
 Initial command:
 /share/programs/GAUSSIAN/64/g09/l1.exe "/scratch/aartigas.38859/Gau-1522930.inp" -scrdir="/scratch/aartigas.38859/"
 Entering Link 1 = /share/programs/GAUSSIAN/64/g09/l1.exe PID=   1522939.
  
 Copyright (c) 1988,1990,1992,1993,1995,1998,2003,2009,2013,
            Gaussian, Inc.  All Rights Reserved.
  
 This is part of the Gaussian(R) 09 program.  It is based on
 the Gaussian(R) 03 system (copyright 2003, Gaussian, Inc.),
 the Gaussian(R) 98 system (copyright 1998, Gaussian, Inc.),
 the Gaussian(R) 94 system (copyright 1995, Gaussian, Inc.),
 the Gaussian 92(TM) system (copyright 1992, Gaussian, Inc.),
 the Gaussian 90(TM) system (copyright 1990, Gaussian, Inc.),
 the Gaussian 88(TM) system (copyright 1988, Gaussian, Inc.),
 the Gaussian 86(TM) system (copyright 1986, Carnegie Mellon
 University), and the Gaussian 82(TM) system (copyright 1983,
 Carnegie Mellon University). Gaussian is a federally registered
 trademark of Gaussian, Inc.
  
 This software contains proprietary and confidential information,
 including trade secrets, belonging to Gaussian, Inc.
  
 This software is provided under written license and may be
 used, copied, transmitted, or stored only in accord with that
 written license.
  
 The following legend is applicable only to US Government
 contracts under FAR:
  
                    RESTRICTED RIGHTS LEGEND
  
 Use, reproduction and disclosure by the US Government is
 subject to restrictions as set forth in subparagraphs (a)
 and (c) of the Commercial Computer Software - Restricted
 Rights clause in FAR 52.227-19.
  
 Gaussian, Inc.
 340 Quinnipiac St., Bldg. 40, Wallingford CT 06492
  
  
 ---------------------------------------------------------------
 Warning -- This program may not be used in any manner that
 competes with the business of Gaussian, Inc. or will provide
 assistance to any competitor of Gaussian, Inc.  The licensee
 of this program is prohibited from giving any competitor of
 Gaussian, Inc. access to this program.  By using this program,
 the user acknowledges that Gaussian, Inc. is engaged in the
 business of creating and licensing software in the field of
 computational chemistry and represents and warrants to the
 licensee that it is not a competitor of Gaussian, Inc. and that
 it will not use this program in any manner prohibited above.
 ---------------------------------------------------------------
  

 Cite this work as:
 Gaussian 09, Revision D.01,
 M. J. Frisch, G. W. Trucks, H. B. Schlegel, G. E. Scuseria, 
 M. A. Robb, J. R. Cheeseman, G. Scalmani, V. Barone, B. Mennucci, 
 G. A. Petersson, H. Nakatsuji, M. Caricato, X. Li, H. P. Hratchian, 
 A. F. Izmaylov, J. Bloino, G. Zheng, J. L. Sonnenberg, M. Hada, 
 M. Ehara, K. Toyota, R. Fukuda, J. Hasegawa, M. Ishida, T. Nakajima, 
 Y. Honda, O. Kitao, H. Nakai, T. Vreven, J. A. Montgomery, Jr., 
 J. E. Peralta, F. Ogliaro, M. Bearpark, J. J. Heyd, E. Brothers, 
 K. N. Kudin, V. N. Staroverov, T. Keith, R. Kobayashi, J. Normand, 
 K. Raghavachari, A. Rendell, J. C. Burant, S. S. Iyengar, J. Tomasi, 
 M. Cossi, N. Rega, J. M. Millam, M. Klene, J. E. Knox, J. B. Cross, 
 V. Bakken, C. Adamo, J. Jaramillo, R. Gomperts, R. E. Stratmann, 
 O. Yazyev, A. J. Austin, R. Cammi, C. Pomelli, J. W. Ochterski, 
 R. L. Martin, K. Morokuma, V. G. Zakrzewski, G. A. Voth, 
 P. Salvador, J. J. Dannenberg, S. Dapprich, A. D. Daniels, 
 O. Farkas, J. B. Foresman, J. V. Ortiz, J. Cioslowski, 
 and D. J. Fox, Gaussian, Inc., Wallingford CT, 2013.
 
 ******************************************
 Gaussian 09:  ES64L-G09RevD.01 24-Apr-2013
                15-Sep-2020 
 ******************************************
 %OldChk=/home/aartigas/chk/5_helicene_spe.chk
 %nproc=8
 Will use up to    8 processors via shared memory.
 %mem=1000MB
 Copying data from "/home/aartigas/chk/5_helicene_spe.chk" to current chk file "/scratch/aartigas.38859/Gau-1522939.chk".
 ----------------------------------------------------
 #P rb3lyp/6-311+g** NMR Guess=Read geom=connectivity
 ----------------------------------------------------
 1/38=1,57=2/1;
 2/12=2,17=6,18=5,40=1/2;
 3/5=4,6=6,7=111,11=2,16=1,25=1,30=1,74=-5,116=1/1,2,8,3;
 4/5=1/1;
 5/5=2,38=6/2;
 8/6=1,10=90,11=11/1;
 10/13=100,45=16/2;
 6/7=2,8=2,9=2,10=2,28=1/1;
 99/9=1/99;
 Leave Link    1 at Tue Sep 15 11:07:04 2020, MaxMem=   131072000 cpu:         2.2
 (Enter /share/programs/GAUSSIAN/64/g09/l101.exe)
 -----
 Title
 -----
 Symbolic Z-matrix:
 Charge =  0 Multiplicity = 1
 C                     0.65324   3.25786  -0.20251 
 C                    -0.65324   3.25786   0.20251 
 C                     1.3725    2.03296  -0.32081 
 C                    -1.3725    2.03296   0.32081 
 C                     0.72247   0.79567  -0.05039 
 C                    -0.72247   0.79567   0.05039 
 C                     2.76039   2.05393  -0.67427 
 C                     3.50887   0.91392  -0.67136 
 C                     2.95523  -0.30962  -0.17748 
 C                     1.57472  -0.36111   0.19709 
 H                     1.18343   4.19574  -0.3846 
 H                    -1.18343   4.19574   0.3846 
 H                     3.20628   3.01242  -0.95139 
 H                     4.56002   0.93296  -0.96933 
 C                     3.78302  -1.4431    0.02831 
 C                     1.13743  -1.50753   0.91211 
 C                     1.97369  -2.58435   1.13806 
 C                     3.30185  -2.57159   0.66118 
 H                     4.82575  -1.39123  -0.29548 
 H                     0.12465  -1.53279   1.30847 
 H                     1.60359  -3.44568   1.69898 
 H                     3.95274  -3.43353   0.82513 
 C                    -3.50887   0.91392   0.67136 
 C                    -2.76039   2.05393   0.67427 
 C                    -2.95523  -0.30962   0.17748 
 C                    -1.57472  -0.36111  -0.19709 
 C                    -3.78302  -1.4431   -0.02831 
 C                    -3.30185  -2.57159  -0.66118 
 C                    -1.97369  -2.58435  -1.13806 
 C                    -1.13743  -1.50753  -0.91211 
 H                    -4.56002   0.93295   0.96933 
 H                    -3.20628   3.01242   0.95139 
 H                    -4.82575  -1.39123   0.29548 
 H                    -3.95274  -3.43353  -0.82513 
 H                    -1.60359  -3.44568  -1.69898 
 H                    -0.12465  -1.53279  -1.30847 
 Bq                   -0.85202   4.99584   0.8846 
 Bq                   -0.95929   5.03226   0.8846 
 Bq                   -1.07039   5.05436   0.8846 
 Bq                   -1.18343   5.06177   0.8846 
 Bq                   -1.29647   5.05436   0.8846 
 Bq                   -1.40757   5.03226   0.8846 
 Bq                   -1.51484   4.99584   0.8846 
 Bq                   -1.61644   4.94574   0.8846 
 Bq                   -1.71063   4.8828    0.8846 
 Bq                   -1.7958    4.80811   0.8846 
 Bq                   -1.87049   4.72294   0.8846 
 Bq                   -1.93343   4.62875   0.8846 
 Bq                   -1.98353   4.52715   0.8846 
 Bq                   -2.01995   4.41988   0.8846 
 Bq                   -2.04205   4.30878   0.8846 
 Bq                   -2.04945   4.19574   0.8846 
 Bq                   -2.04205   4.0827    0.8846 
 Bq                   -2.01995   3.9716    0.8846 
 Bq                   -1.98353   3.86433   0.8846 
 Bq                   -0.32481   4.0827    0.8846 
 Bq                   -0.26745   4.31633   0.76728 
 Bq                   -0.29103   4.43486   0.76728 
 Bq                   -0.32988   4.54929   0.76728 
 Bq                   -0.38333   4.65768   0.76728 
 Bq                   -0.45047   4.75816   0.76728 
 Bq                   -0.53015   4.84902   0.76728 
 Bq                   -0.62101   4.9287    0.76728 
 Bq                   -0.72149   4.99584   0.76728 
 Bq                   -0.82988   5.04929   0.76728 
 Bq                   -0.94431   5.08814   0.76728 
 Bq                   -1.06284   5.11172   0.76728 
 Bq                   -1.18343   5.11962   0.76728 
 Bq                   -1.30402   5.11172   0.76728 
 Bq                   -1.42255   5.08814   0.76728 
 Bq                   -1.53698   5.04929   0.76728 
 Bq                   -1.64537   4.99584   0.76728 
 Bq                   -1.74585   4.9287    0.76728 
 Bq                   -1.83671   4.84902   0.76728 
 Bq                   -1.91639   4.75816   0.76728 
 Bq                   -1.98353   4.65768   0.76728 
 Bq                   -2.03698   4.54929   0.76728 
 Bq                   -2.07583   4.43486   0.76728 
 Bq                   -2.0994    4.31633   0.76728 
 Bq                   -2.10731   4.19574   0.76728 
 Bq                   -2.0994    4.07515   0.76728 
 Bq                   -2.07583   3.95662   0.76728 
 Bq                   -0.29103   4.56538   0.64342 
 Bq                   -0.34691   4.6787    0.64342 
 Bq                   -0.41711   4.78376   0.64342 
 Bq                   -0.50042   4.87875   0.64342 
 Bq                   -0.59541   4.96206   0.64342 
 Bq                   -0.70047   5.03226   0.64342 
 Bq                   -0.81379   5.08814   0.64342 
 Bq                   -0.93343   5.12875   0.64342 
 Bq                   -1.05735   5.1534    0.64342 
 Bq                   -1.18343   5.16167   0.64342 
 Bq                   -1.30951   5.1534    0.64342 
 Bq                   -1.43343   5.12875   0.64342 
 Bq                   -1.55307   5.08814   0.64342 
 Bq                   -1.66639   5.03226   0.64342 
 Bq                   -1.77145   4.96206   0.64342 
 Bq                   -1.86644   4.87875   0.64342 
 Bq                   -1.94975   4.78376   0.64342 
 Bq                   -2.01995   4.6787    0.64342 
 Bq                   -2.07583   4.56538   0.64342 
 Bq                   -2.11644   4.44574   0.64342 
 Bq                   -2.14109   4.32182   0.64342 
 Bq                   -2.14935   4.19574   0.64342 
 Bq                   -2.14109   4.06966   0.64342 
 Bq                   -2.11644   3.94574   0.64342 
 Bq                   -0.26745   4.57515   0.51513 
 Bq                   -0.32481   4.69146   0.51513 
 Bq                   -0.39686   4.79929   0.51513 
 Bq                   -0.48237   4.8968    0.51513 
 Bq                   -0.57988   4.98231   0.51513 
 Bq                   -0.68771   5.05436   0.51513 
 Bq                   -0.80402   5.11172   0.51513 
 Bq                   -0.92682   5.1534    0.51513 
 Bq                   -1.05402   5.1787    0.51513 
 Bq                   -1.18343   5.18718   0.51513 
 Bq                   -1.31284   5.1787    0.51513 
 Bq                   -1.44003   5.1534    0.51513 
 Bq                   -1.56284   5.11172   0.51513 
 Bq                   -1.67915   5.05436   0.51513 
 Bq                   -1.78698   4.98231   0.51513 
 Bq                   -1.88449   4.8968    0.51513 
 Bq                   -1.97      4.79929   0.51513 
 Bq                   -2.04205   4.69146   0.51513 
 Bq                   -2.0994    4.57515   0.51513 
 Bq                   -2.14109   4.45234   0.51513 
 Bq                   -2.16639   4.32515   0.51513 
 Bq                   -2.17487   4.19574   0.51513 
 Bq                   -2.16639   4.06633   0.51513 
 Bq                   -2.14109   3.93914   0.51513 
 Bq                   -0.3174    4.69574   0.3846 
 Bq                   -0.39008   4.8045    0.3846 
 Bq                   -0.47632   4.90285   0.3846 
 Bq                   -0.57467   4.98909   0.3846 
 Bq                   -0.68343   5.06177   0.3846 
 Bq                   -0.80075   5.11962   0.3846 
 Bq                   -0.92461   5.16167   0.3846 
 Bq                   -1.0529    5.18718   0.3846 
 Bq                   -1.18343   5.19574   0.3846 
 Bq                   -1.31396   5.18718   0.3846 
 Bq                   -1.44225   5.16167   0.3846 
 Bq                   -1.56611   5.11962   0.3846 
 Bq                   -1.68343   5.06177   0.3846 
 Bq                   -1.79219   4.98909   0.3846 
 Bq                   -1.89054   4.90285   0.3846 
 Bq                   -1.97678   4.8045    0.3846 
 Bq                   -2.04945   4.69574   0.3846 
 Bq                   -2.10731   4.57842   0.3846 
 Bq                   -2.14935   4.45456   0.3846 
 Bq                   -2.17487   4.32627   0.3846 
 Bq                   -2.18343   4.19574   0.3846 
 Bq                   -2.17487   4.06521   0.3846 
 Bq                   -2.14935   3.93692   0.3846 
 Bq                   -0.32481   4.69146   0.25407 
 Bq                   -0.39686   4.79929   0.25407 
 Bq                   -0.48237   4.8968    0.25407 
 Bq                   -0.57988   4.98231   0.25407 
 Bq                   -0.68771   5.05436   0.25407 
 Bq                   -0.80402   5.11172   0.25407 
 Bq                   -0.92682   5.1534    0.25407 
 Bq                   -1.05402   5.1787    0.25407 
 Bq                   -1.18343   5.18718   0.25407 
 Bq                   -1.31284   5.1787    0.25407 
 Bq                   -1.44003   5.1534    0.25407 
 Bq                   -1.56284   5.11172   0.25407 
 Bq                   -1.67915   5.05436   0.25407 
 Bq                   -1.78698   4.98231   0.25407 
 Bq                   -1.88449   4.8968    0.25407 
 Bq                   -1.97      4.79929   0.25407 
 Bq                   -2.04205   4.69146   0.25407 
 Bq                   -2.0994    4.57515   0.25407 
 Bq                   -2.14109   4.45234   0.25407 
 Bq                   -2.16639   4.32515   0.25407 
 Bq                   -2.17487   4.19574   0.25407 
 Bq                   -2.16639   4.06633   0.25407 
 Bq                   -2.14109   3.93914   0.25407 
 Bq                   -0.34691   4.6787    0.12578 
 Bq                   -0.41711   4.78376   0.12578 
 Bq                   -0.50042   4.87875   0.12578 
 Bq                   -0.59541   4.96206   0.12578 
 Bq                   -0.70047   5.03226   0.12578 
 Bq                   -0.81379   5.08814   0.12578 
 Bq                   -0.93343   5.12875   0.12578 
 Bq                   -1.05735   5.1534    0.12578 
 Bq                   -1.18343   5.16167   0.12578 
 Bq                   -1.30951   5.1534    0.12578 
 Bq                   -1.43343   5.12875   0.12578 
 Bq                   -1.55307   5.08814   0.12578 
 Bq                   -1.66639   5.03226   0.12578 
 Bq                   -1.77145   4.96206   0.12578 
 Bq                   -1.86644   4.87875   0.12578 
 Bq                   -1.94975   4.78376   0.12578 
 Bq                   -2.01995   4.6787    0.12578 
 Bq                   -2.07583   4.56538   0.12578 
 Bq                   -2.11644   4.44574   0.12578 
 Bq                   -2.14109   4.32182   0.12578 
 Bq                   -2.14935   4.19574   0.12578 
 Bq                   -2.14109   4.06966   0.12578 
 Bq                   -2.11644   3.94574   0.12578 
 Bq                   -2.07583   3.8261    0.12578 
 Bq                   -0.38333   4.65768   0.00192 
 Bq                   -0.45047   4.75816   0.00192 
 Bq                   -0.53015   4.84902   0.00192 
 Bq                   -0.62101   4.9287    0.00192 
 Bq                   -0.72149   4.99584   0.00192 
 Bq                   -0.82988   5.04929   0.00192 
 Bq                   -0.94431   5.08814   0.00192 
 Bq                   -1.06284   5.11172   0.00192 
 Bq                   -1.18343   5.11962   0.00192 
 Bq                   -1.30402   5.11172   0.00192 
 Bq                   -1.42255   5.08814   0.00192 
 Bq                   -1.53698   5.04929   0.00192 
 Bq                   -1.64537   4.99584   0.00192 
 Bq                   -1.74585   4.9287    0.00192 
 Bq                   -1.83671   4.84902   0.00192 
 Bq                   -1.91639   4.75816   0.00192 
 Bq                   -1.98353   4.65768   0.00192 
 Bq                   -2.03698   4.54929   0.00192 
 Bq                   -2.07583   4.43486   0.00192 
 Bq                   -2.0994    4.31633   0.00192 
 Bq                   -2.10731   4.19574   0.00192 
 Bq                   -2.0994    4.07515   0.00192 
 Bq                   -2.07583   3.95662   0.00192 
 Bq                   -2.03698   3.84219   0.00192 
 Bq                   -0.43343   4.62875  -0.1154 
 Bq                   -0.49636   4.72294  -0.1154 
 Bq                   -0.57106   4.80811  -0.1154 
 Bq                   -0.65623   4.8828   -0.1154 
 Bq                   -0.75042   4.94574  -0.1154 
 Bq                   -0.85202   4.99584  -0.1154 
 Bq                   -0.95929   5.03226  -0.1154 
 Bq                   -1.07039   5.05436  -0.1154 
 Bq                   -1.18343   5.06177  -0.1154 
 Bq                   -1.29647   5.05436  -0.1154 
 Bq                   -1.40757   5.03226  -0.1154 
 Bq                   -1.51484   4.99584  -0.1154 
 
 NAtoms=    236 NQM=      236 NQMF=       0 NMMI=      0 NMMIF=      0
                NMic=       0 NMicF=      0.
                    Isotopes and Nuclear Properties:
 (Nuclear quadrupole moments (NQMom) in fm**2, nuclear magnetic moments (NMagM)
  in nuclear magnetons)

  Atom         1           2           3           4           5           6           7           8           9          10
 IAtWgt=          12          12          12          12          12          12          12          12          12          12
 AtmWgt=  12.0000000  12.0000000  12.0000000  12.0000000  12.0000000  12.0000000  12.0000000  12.0000000  12.0000000  12.0000000
 NucSpn=           0           0           0           0           0           0           0           0           0           0
 AtZEff=   0.0000000   0.0000000   0.0000000   0.0000000   0.0000000   0.0000000   0.0000000   0.0000000   0.0000000   0.0000000
 NQMom=    0.0000000   0.0000000   0.0000000   0.0000000   0.0000000   0.0000000   0.0000000   0.0000000   0.0000000   0.0000000
 NMagM=    0.0000000   0.0000000   0.0000000   0.0000000   0.0000000   0.0000000   0.0000000   0.0000000   0.0000000   0.0000000
 AtZNuc=   6.0000000   6.0000000   6.0000000   6.0000000   6.0000000   6.0000000   6.0000000   6.0000000   6.0000000   6.0000000

  Atom        11          12          13          14          15          16          17          18          19          20
 IAtWgt=           1           1           1           1          12          12          12          12           1           1
 AtmWgt=   1.0078250   1.0078250   1.0078250   1.0078250  12.0000000  12.0000000  12.0000000  12.0000000   1.0078250   1.0078250
 NucSpn=           1           1           1           1           0           0           0           0           1           1
 AtZEff=   0.0000000   0.0000000   0.0000000   0.0000000   0.0000000   0.0000000   0.0000000   0.0000000   0.0000000   0.0000000
 NQMom=    0.0000000   0.0000000   0.0000000   0.0000000   0.0000000   0.0000000   0.0000000   0.0000000   0.0000000   0.0000000
 NMagM=    2.7928460   2.7928460   2.7928460   2.7928460   0.0000000   0.0000000   0.0000000   0.0000000   2.7928460   2.7928460
 AtZNuc=   1.0000000   1.0000000   1.0000000   1.0000000   6.0000000   6.0000000   6.0000000   6.0000000   1.0000000   1.0000000

  Atom        21          22          23          24          25          26          27          28          29          30
 IAtWgt=           1           1          12          12          12          12          12          12          12          12
 AtmWgt=   1.0078250   1.0078250  12.0000000  12.0000000  12.0000000  12.0000000  12.0000000  12.0000000  12.0000000  12.0000000
 NucSpn=           1           1           0           0           0           0           0           0           0           0
 AtZEff=   0.0000000   0.0000000   0.0000000   0.0000000   0.0000000   0.0000000   0.0000000   0.0000000   0.0000000   0.0000000
 NQMom=    0.0000000   0.0000000   0.0000000   0.0000000   0.0000000   0.0000000   0.0000000   0.0000000   0.0000000   0.0000000
 NMagM=    2.7928460   2.7928460   0.0000000   0.0000000   0.0000000   0.0000000   0.0000000   0.0000000   0.0000000   0.0000000
 AtZNuc=   1.0000000   1.0000000   6.0000000   6.0000000   6.0000000   6.0000000   6.0000000   6.0000000   6.0000000   6.0000000

  Atom        31          32          33          34          35          36          37          38          39          40
 IAtWgt=           1           1           1           1           1           1           0           0           0           0
 AtmWgt=   1.0078250   1.0078250   1.0078250   1.0078250   1.0078250   1.0078250   0.0000000   0.0000000   0.0000000   0.0000000
 NucSpn=           1           1           1           1           1           1           0           0           0           0
 AtZEff=   0.0000000   0.0000000   0.0000000   0.0000000   0.0000000   0.0000000   0.0000000   0.0000000   0.0000000   0.0000000
 NQMom=    0.0000000   0.0000000   0.0000000   0.0000000   0.0000000   0.0000000   0.0000000   0.0000000   0.0000000   0.0000000
 NMagM=    2.7928460   2.7928460   2.7928460   2.7928460   2.7928460   2.7928460   0.0000000   0.0000000   0.0000000   0.0000000
 AtZNuc=   1.0000000   1.0000000   1.0000000   1.0000000   1.0000000   1.0000000   0.0000000   0.0000000   0.0000000   0.0000000

  Atom        41          42          43          44          45          46          47          48          49          50
 IAtWgt=           0           0           0           0           0           0           0           0           0           0
 AtmWgt=   0.0000000   0.0000000   0.0000000   0.0000000   0.0000000   0.0000000   0.0000000   0.0000000   0.0000000   0.0000000
 NucSpn=           0           0           0           0           0           0           0           0           0           0
 AtZEff=   0.0000000   0.0000000   0.0000000   0.0000000   0.0000000   0.0000000   0.0000000   0.0000000   0.0000000   0.0000000
 NQMom=    0.0000000   0.0000000   0.0000000   0.0000000   0.0000000   0.0000000   0.0000000   0.0000000   0.0000000   0.0000000
 NMagM=    0.0000000   0.0000000   0.0000000   0.0000000   0.0000000   0.0000000   0.0000000   0.0000000   0.0000000   0.0000000
 AtZNuc=   0.0000000   0.0000000   0.0000000   0.0000000   0.0000000   0.0000000   0.0000000   0.0000000   0.0000000   0.0000000

  Atom        51          52          53          54          55          56          57          58          59          60
 IAtWgt=           0           0           0           0           0           0           0           0           0           0
 AtmWgt=   0.0000000   0.0000000   0.0000000   0.0000000   0.0000000   0.0000000   0.0000000   0.0000000   0.0000000   0.0000000
 NucSpn=           0           0           0           0           0           0           0           0           0           0
 AtZEff=   0.0000000   0.0000000   0.0000000   0.0000000   0.0000000   0.0000000   0.0000000   0.0000000   0.0000000   0.0000000
 NQMom=    0.0000000   0.0000000   0.0000000   0.0000000   0.0000000   0.0000000   0.0000000   0.0000000   0.0000000   0.0000000
 NMagM=    0.0000000   0.0000000   0.0000000   0.0000000   0.0000000   0.0000000   0.0000000   0.0000000   0.0000000   0.0000000
 AtZNuc=   0.0000000   0.0000000   0.0000000   0.0000000   0.0000000   0.0000000   0.0000000   0.0000000   0.0000000   0.0000000

  Atom        61          62          63          64          65          66          67          68          69          70
 IAtWgt=           0           0           0           0           0           0           0           0           0           0
 AtmWgt=   0.0000000   0.0000000   0.0000000   0.0000000   0.0000000   0.0000000   0.0000000   0.0000000   0.0000000   0.0000000
 NucSpn=           0           0           0           0           0           0           0           0           0           0
 AtZEff=   0.0000000   0.0000000   0.0000000   0.0000000   0.0000000   0.0000000   0.0000000   0.0000000   0.0000000   0.0000000
 NQMom=    0.0000000   0.0000000   0.0000000   0.0000000   0.0000000   0.0000000   0.0000000   0.0000000   0.0000000   0.0000000
 NMagM=    0.0000000   0.0000000   0.0000000   0.0000000   0.0000000   0.0000000   0.0000000   0.0000000   0.0000000   0.0000000
 AtZNuc=   0.0000000   0.0000000   0.0000000   0.0000000   0.0000000   0.0000000   0.0000000   0.0000000   0.0000000   0.0000000

  Atom        71          72          73          74          75          76          77          78          79          80
 IAtWgt=           0           0           0           0           0           0           0           0           0           0
 AtmWgt=   0.0000000   0.0000000   0.0000000   0.0000000   0.0000000   0.0000000   0.0000000   0.0000000   0.0000000   0.0000000
 NucSpn=           0           0           0           0           0           0           0           0           0           0
 AtZEff=   0.0000000   0.0000000   0.0000000   0.0000000   0.0000000   0.0000000   0.0000000   0.0000000   0.0000000   0.0000000
 NQMom=    0.0000000   0.0000000   0.0000000   0.0000000   0.0000000   0.0000000   0.0000000   0.0000000   0.0000000   0.0000000
 NMagM=    0.0000000   0.0000000   0.0000000   0.0000000   0.0000000   0.0000000   0.0000000   0.0000000   0.0000000   0.0000000
 AtZNuc=   0.0000000   0.0000000   0.0000000   0.0000000   0.0000000   0.0000000   0.0000000   0.0000000   0.0000000   0.0000000

  Atom        81          82          83          84          85          86          87          88          89          90
 IAtWgt=           0           0           0           0           0           0           0           0           0           0
 AtmWgt=   0.0000000   0.0000000   0.0000000   0.0000000   0.0000000   0.0000000   0.0000000   0.0000000   0.0000000   0.0000000
 NucSpn=           0           0           0           0           0           0           0           0           0           0
 AtZEff=   0.0000000   0.0000000   0.0000000   0.0000000   0.0000000   0.0000000   0.0000000   0.0000000   0.0000000   0.0000000
 NQMom=    0.0000000   0.0000000   0.0000000   0.0000000   0.0000000   0.0000000   0.0000000   0.0000000   0.0000000   0.0000000
 NMagM=    0.0000000   0.0000000   0.0000000   0.0000000   0.0000000   0.0000000   0.0000000   0.0000000   0.0000000   0.0000000
 AtZNuc=   0.0000000   0.0000000   0.0000000   0.0000000   0.0000000   0.0000000   0.0000000   0.0000000   0.0000000   0.0000000

  Atom        91          92          93          94          95          96          97          98          99         100
 IAtWgt=           0           0           0           0           0           0           0           0           0           0
 AtmWgt=   0.0000000   0.0000000   0.0000000   0.0000000   0.0000000   0.0000000   0.0000000   0.0000000   0.0000000   0.0000000
 NucSpn=           0           0           0           0           0           0           0           0           0           0
 AtZEff=   0.0000000   0.0000000   0.0000000   0.0000000   0.0000000   0.0000000   0.0000000   0.0000000   0.0000000   0.0000000
 NQMom=    0.0000000   0.0000000   0.0000000   0.0000000   0.0000000   0.0000000   0.0000000   0.0000000   0.0000000   0.0000000
 NMagM=    0.0000000   0.0000000   0.0000000   0.0000000   0.0000000   0.0000000   0.0000000   0.0000000   0.0000000   0.0000000
 AtZNuc=   0.0000000   0.0000000   0.0000000   0.0000000   0.0000000   0.0000000   0.0000000   0.0000000   0.0000000   0.0000000

  Atom       101         102         103         104         105         106         107         108         109         110
 IAtWgt=           0           0           0           0           0           0           0           0           0           0
 AtmWgt=   0.0000000   0.0000000   0.0000000   0.0000000   0.0000000   0.0000000   0.0000000   0.0000000   0.0000000   0.0000000
 NucSpn=           0           0           0           0           0           0           0           0           0           0
 AtZEff=   0.0000000   0.0000000   0.0000000   0.0000000   0.0000000   0.0000000   0.0000000   0.0000000   0.0000000   0.0000000
 NQMom=    0.0000000   0.0000000   0.0000000   0.0000000   0.0000000   0.0000000   0.0000000   0.0000000   0.0000000   0.0000000
 NMagM=    0.0000000   0.0000000   0.0000000   0.0000000   0.0000000   0.0000000   0.0000000   0.0000000   0.0000000   0.0000000
 AtZNuc=   0.0000000   0.0000000   0.0000000   0.0000000   0.0000000   0.0000000   0.0000000   0.0000000   0.0000000   0.0000000

  Atom       111         112         113         114         115         116         117         118         119         120
 IAtWgt=           0           0           0           0           0           0           0           0           0           0
 AtmWgt=   0.0000000   0.0000000   0.0000000   0.0000000   0.0000000   0.0000000   0.0000000   0.0000000   0.0000000   0.0000000
 NucSpn=           0           0           0           0           0           0           0           0           0           0
 AtZEff=   0.0000000   0.0000000   0.0000000   0.0000000   0.0000000   0.0000000   0.0000000   0.0000000   0.0000000   0.0000000
 NQMom=    0.0000000   0.0000000   0.0000000   0.0000000   0.0000000   0.0000000   0.0000000   0.0000000   0.0000000   0.0000000
 NMagM=    0.0000000   0.0000000   0.0000000   0.0000000   0.0000000   0.0000000   0.0000000   0.0000000   0.0000000   0.0000000
 AtZNuc=   0.0000000   0.0000000   0.0000000   0.0000000   0.0000000   0.0000000   0.0000000   0.0000000   0.0000000   0.0000000

  Atom       121         122         123         124         125         126         127         128         129         130
 IAtWgt=           0           0           0           0           0           0           0           0           0           0
 AtmWgt=   0.0000000   0.0000000   0.0000000   0.0000000   0.0000000   0.0000000   0.0000000   0.0000000   0.0000000   0.0000000
 NucSpn=           0           0           0           0           0           0           0           0           0           0
 AtZEff=   0.0000000   0.0000000   0.0000000   0.0000000   0.0000000   0.0000000   0.0000000   0.0000000   0.0000000   0.0000000
 NQMom=    0.0000000   0.0000000   0.0000000   0.0000000   0.0000000   0.0000000   0.0000000   0.0000000   0.0000000   0.0000000
 NMagM=    0.0000000   0.0000000   0.0000000   0.0000000   0.0000000   0.0000000   0.0000000   0.0000000   0.0000000   0.0000000
 AtZNuc=   0.0000000   0.0000000   0.0000000   0.0000000   0.0000000   0.0000000   0.0000000   0.0000000   0.0000000   0.0000000

  Atom       131         132         133         134         135         136         137         138         139         140
 IAtWgt=           0           0           0           0           0           0           0           0           0           0
 AtmWgt=   0.0000000   0.0000000   0.0000000   0.0000000   0.0000000   0.0000000   0.0000000   0.0000000   0.0000000   0.0000000
 NucSpn=           0           0           0           0           0           0           0           0           0           0
 AtZEff=   0.0000000   0.0000000   0.0000000   0.0000000   0.0000000   0.0000000   0.0000000   0.0000000   0.0000000   0.0000000
 NQMom=    0.0000000   0.0000000   0.0000000   0.0000000   0.0000000   0.0000000   0.0000000   0.0000000   0.0000000   0.0000000
 NMagM=    0.0000000   0.0000000   0.0000000   0.0000000   0.0000000   0.0000000   0.0000000   0.0000000   0.0000000   0.0000000
 AtZNuc=   0.0000000   0.0000000   0.0000000   0.0000000   0.0000000   0.0000000   0.0000000   0.0000000   0.0000000   0.0000000

  Atom       141         142         143         144         145         146         147         148         149         150
 IAtWgt=           0           0           0           0           0           0           0           0           0           0
 AtmWgt=   0.0000000   0.0000000   0.0000000   0.0000000   0.0000000   0.0000000   0.0000000   0.0000000   0.0000000   0.0000000
 NucSpn=           0           0           0           0           0           0           0           0           0           0
 AtZEff=   0.0000000   0.0000000   0.0000000   0.0000000   0.0000000   0.0000000   0.0000000   0.0000000   0.0000000   0.0000000
 NQMom=    0.0000000   0.0000000   0.0000000   0.0000000   0.0000000   0.0000000   0.0000000   0.0000000   0.0000000   0.0000000
 NMagM=    0.0000000   0.0000000   0.0000000   0.0000000   0.0000000   0.0000000   0.0000000   0.0000000   0.0000000   0.0000000
 AtZNuc=   0.0000000   0.0000000   0.0000000   0.0000000   0.0000000   0.0000000   0.0000000   0.0000000   0.0000000   0.0000000

  Atom       151         152         153         154         155         156         157         158         159         160
 IAtWgt=           0           0           0           0           0           0           0           0           0           0
 AtmWgt=   0.0000000   0.0000000   0.0000000   0.0000000   0.0000000   0.0000000   0.0000000   0.0000000   0.0000000   0.0000000
 NucSpn=           0           0           0           0           0           0           0           0           0           0
 AtZEff=   0.0000000   0.0000000   0.0000000   0.0000000   0.0000000   0.0000000   0.0000000   0.0000000   0.0000000   0.0000000
 NQMom=    0.0000000   0.0000000   0.0000000   0.0000000   0.0000000   0.0000000   0.0000000   0.0000000   0.0000000   0.0000000
 NMagM=    0.0000000   0.0000000   0.0000000   0.0000000   0.0000000   0.0000000   0.0000000   0.0000000   0.0000000   0.0000000
 AtZNuc=   0.0000000   0.0000000   0.0000000   0.0000000   0.0000000   0.0000000   0.0000000   0.0000000   0.0000000   0.0000000

  Atom       161         162         163         164         165         166         167         168         169         170
 IAtWgt=           0           0           0           0           0           0           0           0           0           0
 AtmWgt=   0.0000000   0.0000000   0.0000000   0.0000000   0.0000000   0.0000000   0.0000000   0.0000000   0.0000000   0.0000000
 NucSpn=           0           0           0           0           0           0           0           0           0           0
 AtZEff=   0.0000000   0.0000000   0.0000000   0.0000000   0.0000000   0.0000000   0.0000000   0.0000000   0.0000000   0.0000000
 NQMom=    0.0000000   0.0000000   0.0000000   0.0000000   0.0000000   0.0000000   0.0000000   0.0000000   0.0000000   0.0000000
 NMagM=    0.0000000   0.0000000   0.0000000   0.0000000   0.0000000   0.0000000   0.0000000   0.0000000   0.0000000   0.0000000
 AtZNuc=   0.0000000   0.0000000   0.0000000   0.0000000   0.0000000   0.0000000   0.0000000   0.0000000   0.0000000   0.0000000

  Atom       171         172         173         174         175         176         177         178         179         180
 IAtWgt=           0           0           0           0           0           0           0           0           0           0
 AtmWgt=   0.0000000   0.0000000   0.0000000   0.0000000   0.0000000   0.0000000   0.0000000   0.0000000   0.0000000   0.0000000
 NucSpn=           0           0           0           0           0           0           0           0           0           0
 AtZEff=   0.0000000   0.0000000   0.0000000   0.0000000   0.0000000   0.0000000   0.0000000   0.0000000   0.0000000   0.0000000
 NQMom=    0.0000000   0.0000000   0.0000000   0.0000000   0.0000000   0.0000000   0.0000000   0.0000000   0.0000000   0.0000000
 NMagM=    0.0000000   0.0000000   0.0000000   0.0000000   0.0000000   0.0000000   0.0000000   0.0000000   0.0000000   0.0000000
 AtZNuc=   0.0000000   0.0000000   0.0000000   0.0000000   0.0000000   0.0000000   0.0000000   0.0000000   0.0000000   0.0000000

  Atom       181         182         183         184         185         186         187         188         189         190
 IAtWgt=           0           0           0           0           0           0           0           0           0           0
 AtmWgt=   0.0000000   0.0000000   0.0000000   0.0000000   0.0000000   0.0000000   0.0000000   0.0000000   0.0000000   0.0000000
 NucSpn=           0           0           0           0           0           0           0           0           0           0
 AtZEff=   0.0000000   0.0000000   0.0000000   0.0000000   0.0000000   0.0000000   0.0000000   0.0000000   0.0000000   0.0000000
 NQMom=    0.0000000   0.0000000   0.0000000   0.0000000   0.0000000   0.0000000   0.0000000   0.0000000   0.0000000   0.0000000
 NMagM=    0.0000000   0.0000000   0.0000000   0.0000000   0.0000000   0.0000000   0.0000000   0.0000000   0.0000000   0.0000000
 AtZNuc=   0.0000000   0.0000000   0.0000000   0.0000000   0.0000000   0.0000000   0.0000000   0.0000000   0.0000000   0.0000000

  Atom       191         192         193         194         195         196         197         198         199         200
 IAtWgt=           0           0           0           0           0           0           0           0           0           0
 AtmWgt=   0.0000000   0.0000000   0.0000000   0.0000000   0.0000000   0.0000000   0.0000000   0.0000000   0.0000000   0.0000000
 NucSpn=           0           0           0           0           0           0           0           0           0           0
 AtZEff=   0.0000000   0.0000000   0.0000000   0.0000000   0.0000000   0.0000000   0.0000000   0.0000000   0.0000000   0.0000000
 NQMom=    0.0000000   0.0000000   0.0000000   0.0000000   0.0000000   0.0000000   0.0000000   0.0000000   0.0000000   0.0000000
 NMagM=    0.0000000   0.0000000   0.0000000   0.0000000   0.0000000   0.0000000   0.0000000   0.0000000   0.0000000   0.0000000
 AtZNuc=   0.0000000   0.0000000   0.0000000   0.0000000   0.0000000   0.0000000   0.0000000   0.0000000   0.0000000   0.0000000

  Atom       201         202         203         204         205         206         207         208         209         210
 IAtWgt=           0           0           0           0           0           0           0           0           0           0
 AtmWgt=   0.0000000   0.0000000   0.0000000   0.0000000   0.0000000   0.0000000   0.0000000   0.0000000   0.0000000   0.0000000
 NucSpn=           0           0           0           0           0           0           0           0           0           0
 AtZEff=   0.0000000   0.0000000   0.0000000   0.0000000   0.0000000   0.0000000   0.0000000   0.0000000   0.0000000   0.0000000
 NQMom=    0.0000000   0.0000000   0.0000000   0.0000000   0.0000000   0.0000000   0.0000000   0.0000000   0.0000000   0.0000000
 NMagM=    0.0000000   0.0000000   0.0000000   0.0000000   0.0000000   0.0000000   0.0000000   0.0000000   0.0000000   0.0000000
 AtZNuc=   0.0000000   0.0000000   0.0000000   0.0000000   0.0000000   0.0000000   0.0000000   0.0000000   0.0000000   0.0000000

  Atom       211         212         213         214         215         216         217         218         219         220
 IAtWgt=           0           0           0           0           0           0           0           0           0           0
 AtmWgt=   0.0000000   0.0000000   0.0000000   0.0000000   0.0000000   0.0000000   0.0000000   0.0000000   0.0000000   0.0000000
 NucSpn=           0           0           0           0           0           0           0           0           0           0
 AtZEff=   0.0000000   0.0000000   0.0000000   0.0000000   0.0000000   0.0000000   0.0000000   0.0000000   0.0000000   0.0000000
 NQMom=    0.0000000   0.0000000   0.0000000   0.0000000   0.0000000   0.0000000   0.0000000   0.0000000   0.0000000   0.0000000
 NMagM=    0.0000000   0.0000000   0.0000000   0.0000000   0.0000000   0.0000000   0.0000000   0.0000000   0.0000000   0.0000000
 AtZNuc=   0.0000000   0.0000000   0.0000000   0.0000000   0.0000000   0.0000000   0.0000000   0.0000000   0.0000000   0.0000000

  Atom       221         222         223         224         225         226         227         228         229         230
 IAtWgt=           0           0           0           0           0           0           0           0           0           0
 AtmWgt=   0.0000000   0.0000000   0.0000000   0.0000000   0.0000000   0.0000000   0.0000000   0.0000000   0.0000000   0.0000000
 NucSpn=           0           0           0           0           0           0           0           0           0           0
 AtZEff=   0.0000000   0.0000000   0.0000000   0.0000000   0.0000000   0.0000000   0.0000000   0.0000000   0.0000000   0.0000000
 NQMom=    0.0000000   0.0000000   0.0000000   0.0000000   0.0000000   0.0000000   0.0000000   0.0000000   0.0000000   0.0000000
 NMagM=    0.0000000   0.0000000   0.0000000   0.0000000   0.0000000   0.0000000   0.0000000   0.0000000   0.0000000   0.0000000
 AtZNuc=   0.0000000   0.0000000   0.0000000   0.0000000   0.0000000   0.0000000   0.0000000   0.0000000   0.0000000   0.0000000

  Atom       231         232         233         234         235         236
 IAtWgt=           0           0           0           0           0           0
 AtmWgt=   0.0000000   0.0000000   0.0000000   0.0000000   0.0000000   0.0000000
 NucSpn=           0           0           0           0           0           0
 AtZEff=   0.0000000   0.0000000   0.0000000   0.0000000   0.0000000   0.0000000
 NQMom=    0.0000000   0.0000000   0.0000000   0.0000000   0.0000000   0.0000000
 NMagM=    0.0000000   0.0000000   0.0000000   0.0000000   0.0000000   0.0000000
 AtZNuc=   0.0000000   0.0000000   0.0000000   0.0000000   0.0000000   0.0000000
 Leave Link  101 at Tue Sep 15 11:07:05 2020, MaxMem=   131072000 cpu:         5.0
 (Enter /share/programs/GAUSSIAN/64/g09/l202.exe)
 Symmetry turned off:
 Cannot cope with ghost atoms or with translation vectors.
 Stoichiometry    C22H14
 Framework group  C1[X(C22H14)]
 NUMDOF-- NAT=    36 NAtoms=   236
 Deg. of freedom     0
 Full point group                 C1      NOp   1
                          Input orientation:                          
 ---------------------------------------------------------------------
 Center     Atomic      Atomic             Coordinates (Angstroms)
 Number     Number       Type             X           Y           Z
 ---------------------------------------------------------------------
      1          6           0        0.653241    3.257859   -0.202510
      2          6           0       -0.653243    3.257860    0.202510
      3          6           0        1.372495    2.032956   -0.320807
      4          6           0       -1.372495    2.032956    0.320807
      5          6           0        0.722474    0.795666   -0.050388
      6          6           0       -0.722474    0.795667    0.050387
      7          6           0        2.760385    2.053927   -0.674268
      8          6           0        3.508866    0.913916   -0.671362
      9          6           0        2.955226   -0.309622   -0.177479
     10          6           0        1.574722   -0.361114    0.197094
     11          1           0        1.183427    4.195740   -0.384599
     12          1           0       -1.183429    4.195740    0.384599
     13          1           0        3.206283    3.012423   -0.951392
     14          1           0        4.560023    0.932956   -0.969333
     15          6           0        3.783020   -1.443098    0.028309
     16          6           0        1.137427   -1.507533    0.912109
     17          6           0        1.973691   -2.584349    1.138062
     18          6           0        3.301853   -2.571588    0.661177
     19          1           0        4.825754   -1.391230   -0.295484
     20          1           0        0.124652   -1.532788    1.308472
     21          1           0        1.603586   -3.445682    1.698977
     22          1           0        3.952742   -3.433526    0.825134
     23          6           0       -3.508866    0.913915    0.671362
     24          6           0       -2.760386    2.053926    0.674268
     25          6           0       -2.955226   -0.309623    0.177479
     26          6           0       -1.574722   -0.361114   -0.197094
     27          6           0       -3.783020   -1.443099   -0.028309
     28          6           0       -3.301852   -2.571589   -0.661177
     29          6           0       -1.973690   -2.584349   -1.138061
     30          6           0       -1.137426   -1.507534   -0.912109
     31          1           0       -4.560022    0.932954    0.969334
     32          1           0       -3.206283    3.012421    0.951392
     33          1           0       -4.825754   -1.391232    0.295484
     34          1           0       -3.952741   -3.433528   -0.825134
     35          1           0       -1.603585   -3.445682   -1.698976
     36          1           0       -0.124652   -1.532788   -1.308471
     37          0           0       -0.852015    4.995843    0.884599
     38          0           0       -0.959285    5.032256    0.884599
     39          0           0       -1.070390    5.054356    0.884599
     40          0           0       -1.183429    5.061765    0.884599
     41          0           0       -1.296468    5.054356    0.884599
     42          0           0       -1.407573    5.032256    0.884599
     43          0           0       -1.514843    4.995843    0.884599
     44          0           0       -1.616442    4.945740    0.884599
     45          0           0       -1.710632    4.882804    0.884599
     46          0           0       -1.795801    4.808112    0.884599
     47          0           0       -1.870493    4.722943    0.884599
     48          0           0       -1.933429    4.628753    0.884599
     49          0           0       -1.983532    4.527154    0.884599
     50          0           0       -2.019945    4.419884    0.884599
     51          0           0       -2.042045    4.308779    0.884599
     52          0           0       -2.049454    4.195740    0.884599
     53          0           0       -2.042045    4.082701    0.884599
     54          0           0       -2.019945    3.971596    0.884599
     55          0           0       -1.983532    3.864326    0.884599
     56          0           0       -0.324813    4.082701    0.884599
     57          0           0       -0.267453    4.316330    0.767282
     58          0           0       -0.291030    4.434858    0.767282
     59          0           0       -0.329876    4.549293    0.767282
     60          0           0       -0.383326    4.657680    0.767282
     61          0           0       -0.450466    4.758162    0.767282
     62          0           0       -0.530148    4.849021    0.767282
     63          0           0       -0.621007    4.928703    0.767282
     64          0           0       -0.721489    4.995843    0.767282
     65          0           0       -0.829876    5.049293    0.767282
     66          0           0       -0.944311    5.088139    0.767282
     67          0           0       -1.062839    5.111716    0.767282
     68          0           0       -1.183429    5.119620    0.767282
     69          0           0       -1.304019    5.111716    0.767282
     70          0           0       -1.422547    5.088139    0.767282
     71          0           0       -1.536982    5.049293    0.767282
     72          0           0       -1.645369    4.995843    0.767282
     73          0           0       -1.745851    4.928703    0.767282
     74          0           0       -1.836710    4.849021    0.767282
     75          0           0       -1.916392    4.758162    0.767282
     76          0           0       -1.983532    4.657680    0.767282
     77          0           0       -2.036982    4.549293    0.767282
     78          0           0       -2.075828    4.434858    0.767282
     79          0           0       -2.099405    4.316330    0.767282
     80          0           0       -2.107309    4.195740    0.767282
     81          0           0       -2.099405    4.075150    0.767282
     82          0           0       -2.075828    3.956622    0.767282
     83          0           0       -0.291030    4.565384    0.643418
     84          0           0       -0.346913    4.678703    0.643418
     85          0           0       -0.417109    4.783758    0.643418
     86          0           0       -0.500416    4.878753    0.643418
     87          0           0       -0.595411    4.962060    0.643418
     88          0           0       -0.700466    5.032256    0.643418
     89          0           0       -0.813785    5.088139    0.643418
     90          0           0       -0.933429    5.128753    0.643418
     91          0           0       -1.057350    5.153402    0.643418
     92          0           0       -1.183429    5.161666    0.643418
     93          0           0       -1.309508    5.153402    0.643418
     94          0           0       -1.433429    5.128753    0.643418
     95          0           0       -1.553073    5.088139    0.643418
     96          0           0       -1.666392    5.032256    0.643418
     97          0           0       -1.771447    4.962060    0.643418
     98          0           0       -1.866442    4.878753    0.643418
     99          0           0       -1.949749    4.783758    0.643418
    100          0           0       -2.019945    4.678703    0.643418
    101          0           0       -2.075828    4.565384    0.643418
    102          0           0       -2.116442    4.445740    0.643418
    103          0           0       -2.141091    4.321819    0.643418
    104          0           0       -2.149355    4.195740    0.643418
    105          0           0       -2.141091    4.069661    0.643418
    106          0           0       -2.116442    3.945740    0.643418
    107          0           0       -0.267453    4.575150    0.515125
    108          0           0       -0.324813    4.691462    0.515125
    109          0           0       -0.396863    4.799293    0.515125
    110          0           0       -0.482372    4.896797    0.515125
    111          0           0       -0.579876    4.982306    0.515125
    112          0           0       -0.687707    5.054356    0.515125
    113          0           0       -0.804019    5.111716    0.515125
    114          0           0       -0.926824    5.153402    0.515125
    115          0           0       -1.054019    5.178703    0.515125
    116          0           0       -1.183429    5.187185    0.515125
    117          0           0       -1.312839    5.178703    0.515125
    118          0           0       -1.440034    5.153402    0.515125
    119          0           0       -1.562839    5.111716    0.515125
    120          0           0       -1.679151    5.054356    0.515125
    121          0           0       -1.786982    4.982306    0.515125
    122          0           0       -1.884486    4.896797    0.515125
    123          0           0       -1.969995    4.799293    0.515125
    124          0           0       -2.042045    4.691462    0.515125
    125          0           0       -2.099405    4.575150    0.515125
    126          0           0       -2.141091    4.452345    0.515125
    127          0           0       -2.166392    4.325150    0.515125
    128          0           0       -2.174874    4.195740    0.515125
    129          0           0       -2.166392    4.066330    0.515125
    130          0           0       -2.141091    3.939135    0.515125
    131          0           0       -0.317404    4.695740    0.384599
    132          0           0       -0.390076    4.804501    0.384599
    133          0           0       -0.476322    4.902847    0.384599
    134          0           0       -0.574668    4.989093    0.384599
    135          0           0       -0.683429    5.061765    0.384599
    136          0           0       -0.800746    5.119620    0.384599
    137          0           0       -0.924610    5.161666    0.384599
    138          0           0       -1.052903    5.187185    0.384599
    139          0           0       -1.183429    5.195740    0.384599
    140          0           0       -1.313955    5.187185    0.384599
    141          0           0       -1.442248    5.161666    0.384599
    142          0           0       -1.566112    5.119620    0.384599
    143          0           0       -1.683429    5.061765    0.384599
    144          0           0       -1.792190    4.989093    0.384599
    145          0           0       -1.890536    4.902847    0.384599
    146          0           0       -1.976782    4.804501    0.384599
    147          0           0       -2.049454    4.695740    0.384599
    148          0           0       -2.107309    4.578423    0.384599
    149          0           0       -2.149355    4.454559    0.384599
    150          0           0       -2.174874    4.326266    0.384599
    151          0           0       -2.183429    4.195740    0.384599
    152          0           0       -2.174874    4.065214    0.384599
    153          0           0       -2.149355    3.936921    0.384599
    154          0           0       -0.324813    4.691462    0.254073
    155          0           0       -0.396863    4.799293    0.254073
    156          0           0       -0.482372    4.896797    0.254073
    157          0           0       -0.579876    4.982306    0.254073
    158          0           0       -0.687707    5.054356    0.254073
    159          0           0       -0.804019    5.111716    0.254073
    160          0           0       -0.926824    5.153402    0.254073
    161          0           0       -1.054019    5.178703    0.254073
    162          0           0       -1.183429    5.187185    0.254073
    163          0           0       -1.312839    5.178703    0.254073
    164          0           0       -1.440034    5.153402    0.254073
    165          0           0       -1.562839    5.111716    0.254073
    166          0           0       -1.679151    5.054356    0.254073
    167          0           0       -1.786982    4.982306    0.254073
    168          0           0       -1.884486    4.896797    0.254073
    169          0           0       -1.969995    4.799293    0.254073
    170          0           0       -2.042045    4.691462    0.254073
    171          0           0       -2.099405    4.575150    0.254073
    172          0           0       -2.141091    4.452345    0.254073
    173          0           0       -2.166392    4.325150    0.254073
    174          0           0       -2.174874    4.195740    0.254073
    175          0           0       -2.166392    4.066330    0.254073
    176          0           0       -2.141091    3.939135    0.254073
    177          0           0       -0.346913    4.678703    0.125780
    178          0           0       -0.417109    4.783758    0.125780
    179          0           0       -0.500416    4.878753    0.125780
    180          0           0       -0.595411    4.962060    0.125780
    181          0           0       -0.700466    5.032256    0.125780
    182          0           0       -0.813785    5.088139    0.125780
    183          0           0       -0.933429    5.128753    0.125780
    184          0           0       -1.057350    5.153402    0.125780
    185          0           0       -1.183429    5.161666    0.125780
    186          0           0       -1.309508    5.153402    0.125780
    187          0           0       -1.433429    5.128753    0.125780
    188          0           0       -1.553073    5.088139    0.125780
    189          0           0       -1.666392    5.032256    0.125780
    190          0           0       -1.771447    4.962060    0.125780
    191          0           0       -1.866442    4.878753    0.125780
    192          0           0       -1.949749    4.783758    0.125780
    193          0           0       -2.019945    4.678703    0.125780
    194          0           0       -2.075828    4.565384    0.125780
    195          0           0       -2.116442    4.445740    0.125780
    196          0           0       -2.141091    4.321819    0.125780
    197          0           0       -2.149355    4.195740    0.125780
    198          0           0       -2.141091    4.069661    0.125780
    199          0           0       -2.116442    3.945740    0.125780
    200          0           0       -2.075828    3.826096    0.125780
    201          0           0       -0.383326    4.657680    0.001916
    202          0           0       -0.450466    4.758162    0.001916
    203          0           0       -0.530148    4.849021    0.001916
    204          0           0       -0.621007    4.928703    0.001916
    205          0           0       -0.721489    4.995843    0.001916
    206          0           0       -0.829876    5.049293    0.001916
    207          0           0       -0.944311    5.088139    0.001916
    208          0           0       -1.062839    5.111716    0.001916
    209          0           0       -1.183429    5.119620    0.001916
    210          0           0       -1.304019    5.111716    0.001916
    211          0           0       -1.422547    5.088139    0.001916
    212          0           0       -1.536982    5.049293    0.001916
    213          0           0       -1.645369    4.995843    0.001916
    214          0           0       -1.745851    4.928703    0.001916
    215          0           0       -1.836710    4.849021    0.001916
    216          0           0       -1.916392    4.758162    0.001916
    217          0           0       -1.983532    4.657680    0.001916
    218          0           0       -2.036982    4.549293    0.001916
    219          0           0       -2.075828    4.434858    0.001916
    220          0           0       -2.099405    4.316330    0.001916
    221          0           0       -2.107309    4.195740    0.001916
    222          0           0       -2.099405    4.075150    0.001916
    223          0           0       -2.075828    3.956622    0.001916
    224          0           0       -2.036982    3.842187    0.001916
    225          0           0       -0.433429    4.628753   -0.115401
    226          0           0       -0.496365    4.722943   -0.115401
    227          0           0       -0.571057    4.808112   -0.115401
    228          0           0       -0.656226    4.882804   -0.115401
    229          0           0       -0.750416    4.945740   -0.115401
    230          0           0       -0.852015    4.995843   -0.115401
    231          0           0       -0.959285    5.032256   -0.115401
    232          0           0       -1.070390    5.054356   -0.115401
    233          0           0       -1.183429    5.061765   -0.115401
    234          0           0       -1.296468    5.054356   -0.115401
    235          0           0       -1.407573    5.032256   -0.115401
    236          0           0       -1.514843    4.995843   -0.115401
 ---------------------------------------------------------------------
 Rotational constants (GHZ):      0.4454681      0.2811480      0.1854303
 Leave Link  202 at Tue Sep 15 11:07:05 2020, MaxMem=   131072000 cpu:         0.1
 (Enter /share/programs/GAUSSIAN/64/g09/l301.exe)
 Standard basis: 6-311+G(d,p) (5D, 7F)
 Warning:  center  37 has no basis functions!
 Warning:  center  38 has no basis functions!
 Warning:  center  39 has no basis functions!
 Warning:  center  40 has no basis functions!
 Warning:  center  41 has no basis functions!
 Warning:  center  42 has no basis functions!
 Warning:  center  43 has no basis functions!
 Warning:  center  44 has no basis functions!
 Warning:  center  45 has no basis functions!
 Warning:  center  46 has no basis functions!
 Warning:  center  47 has no basis functions!
 Warning:  center  48 has no basis functions!
 Warning:  center  49 has no basis functions!
 Warning:  center  50 has no basis functions!
 Warning:  center  51 has no basis functions!
 Warning:  center  52 has no basis functions!
 Warning:  center  53 has no basis functions!
 Warning:  center  54 has no basis functions!
 Warning:  center  55 has no basis functions!
 Warning:  center  56 has no basis functions!
 Warning:  center  57 has no basis functions!
 Warning:  center  58 has no basis functions!
 Warning:  center  59 has no basis functions!
 Warning:  center  60 has no basis functions!
 Warning:  center  61 has no basis functions!
 Warning:  center  62 has no basis functions!
 Warning:  center  63 has no basis functions!
 Warning:  center  64 has no basis functions!
 Warning:  center  65 has no basis functions!
 Warning:  center  66 has no basis functions!
 Warning:  center  67 has no basis functions!
 Warning:  center  68 has no basis functions!
 Warning:  center  69 has no basis functions!
 Warning:  center  70 has no basis functions!
 Warning:  center  71 has no basis functions!
 Warning:  center  72 has no basis functions!
 Warning:  center  73 has no basis functions!
 Warning:  center  74 has no basis functions!
 Warning:  center  75 has no basis functions!
 Warning:  center  76 has no basis functions!
 Warning:  center  77 has no basis functions!
 Warning:  center  78 has no basis functions!
 Warning:  center  79 has no basis functions!
 Warning:  center  80 has no basis functions!
 Warning:  center  81 has no basis functions!
 Warning:  center  82 has no basis functions!
 Warning:  center  83 has no basis functions!
 Warning:  center  84 has no basis functions!
 Warning:  center  85 has no basis functions!
 Warning:  center  86 has no basis functions!
 Warning:  center  87 has no basis functions!
 Warning:  center  88 has no basis functions!
 Warning:  center  89 has no basis functions!
 Warning:  center  90 has no basis functions!
 Warning:  center  91 has no basis functions!
 Warning:  center  92 has no basis functions!
 Warning:  center  93 has no basis functions!
 Warning:  center  94 has no basis functions!
 Warning:  center  95 has no basis functions!
 Warning:  center  96 has no basis functions!
 Warning:  center  97 has no basis functions!
 Warning:  center  98 has no basis functions!
 Warning:  center  99 has no basis functions!
 Warning:  center 100 has no basis functions!
 Warning:  center 101 has no basis functions!
 Warning:  center 102 has no basis functions!
 Warning:  center 103 has no basis functions!
 Warning:  center 104 has no basis functions!
 Warning:  center 105 has no basis functions!
 Warning:  center 106 has no basis functions!
 Warning:  center 107 has no basis functions!
 Warning:  center 108 has no basis functions!
 Warning:  center 109 has no basis functions!
 Warning:  center 110 has no basis functions!
 Warning:  center 111 has no basis functions!
 Warning:  center 112 has no basis functions!
 Warning:  center 113 has no basis functions!
 Warning:  center 114 has no basis functions!
 Warning:  center 115 has no basis functions!
 Warning:  center 116 has no basis functions!
 Warning:  center 117 has no basis functions!
 Warning:  center 118 has no basis functions!
 Warning:  center 119 has no basis functions!
 Warning:  center 120 has no basis functions!
 Warning:  center 121 has no basis functions!
 Warning:  center 122 has no basis functions!
 Warning:  center 123 has no basis functions!
 Warning:  center 124 has no basis functions!
 Warning:  center 125 has no basis functions!
 Warning:  center 126 has no basis functions!
 Warning:  center 127 has no basis functions!
 Warning:  center 128 has no basis functions!
 Warning:  center 129 has no basis functions!
 Warning:  center 130 has no basis functions!
 Warning:  center 131 has no basis functions!
 Warning:  center 132 has no basis functions!
 Warning:  center 133 has no basis functions!
 Warning:  center 134 has no basis functions!
 Warning:  center 135 has no basis functions!
 Warning:  center 136 has no basis functions!
 Warning:  center 137 has no basis functions!
 Warning:  center 138 has no basis functions!
 Warning:  center 139 has no basis functions!
 Warning:  center 140 has no basis functions!
 Warning:  center 141 has no basis functions!
 Warning:  center 142 has no basis functions!
 Warning:  center 143 has no basis functions!
 Warning:  center 144 has no basis functions!
 Warning:  center 145 has no basis functions!
 Warning:  center 146 has no basis functions!
 Warning:  center 147 has no basis functions!
 Warning:  center 148 has no basis functions!
 Warning:  center 149 has no basis functions!
 Warning:  center 150 has no basis functions!
 Warning:  center 151 has no basis functions!
 Warning:  center 152 has no basis functions!
 Warning:  center 153 has no basis functions!
 Warning:  center 154 has no basis functions!
 Warning:  center 155 has no basis functions!
 Warning:  center 156 has no basis functions!
 Warning:  center 157 has no basis functions!
 Warning:  center 158 has no basis functions!
 Warning:  center 159 has no basis functions!
 Warning:  center 160 has no basis functions!
 Warning:  center 161 has no basis functions!
 Warning:  center 162 has no basis functions!
 Warning:  center 163 has no basis functions!
 Warning:  center 164 has no basis functions!
 Warning:  center 165 has no basis functions!
 Warning:  center 166 has no basis functions!
 Warning:  center 167 has no basis functions!
 Warning:  center 168 has no basis functions!
 Warning:  center 169 has no basis functions!
 Warning:  center 170 has no basis functions!
 Warning:  center 171 has no basis functions!
 Warning:  center 172 has no basis functions!
 Warning:  center 173 has no basis functions!
 Warning:  center 174 has no basis functions!
 Warning:  center 175 has no basis functions!
 Warning:  center 176 has no basis functions!
 Warning:  center 177 has no basis functions!
 Warning:  center 178 has no basis functions!
 Warning:  center 179 has no basis functions!
 Warning:  center 180 has no basis functions!
 Warning:  center 181 has no basis functions!
 Warning:  center 182 has no basis functions!
 Warning:  center 183 has no basis functions!
 Warning:  center 184 has no basis functions!
 Warning:  center 185 has no basis functions!
 Warning:  center 186 has no basis functions!
 Warning:  center 187 has no basis functions!
 Warning:  center 188 has no basis functions!
 Warning:  center 189 has no basis functions!
 Warning:  center 190 has no basis functions!
 Warning:  center 191 has no basis functions!
 Warning:  center 192 has no basis functions!
 Warning:  center 193 has no basis functions!
 Warning:  center 194 has no basis functions!
 Warning:  center 195 has no basis functions!
 Warning:  center 196 has no basis functions!
 Warning:  center 197 has no basis functions!
 Warning:  center 198 has no basis functions!
 Warning:  center 199 has no basis functions!
 Warning:  center 200 has no basis functions!
 Warning:  center 201 has no basis functions!
 Warning:  center 202 has no basis functions!
 Warning:  center 203 has no basis functions!
 Warning:  center 204 has no basis functions!
 Warning:  center 205 has no basis functions!
 Warning:  center 206 has no basis functions!
 Warning:  center 207 has no basis functions!
 Warning:  center 208 has no basis functions!
 Warning:  center 209 has no basis functions!
 Warning:  center 210 has no basis functions!
 Warning:  center 211 has no basis functions!
 Warning:  center 212 has no basis functions!
 Warning:  center 213 has no basis functions!
 Warning:  center 214 has no basis functions!
 Warning:  center 215 has no basis functions!
 Warning:  center 216 has no basis functions!
 Warning:  center 217 has no basis functions!
 Warning:  center 218 has no basis functions!
 Warning:  center 219 has no basis functions!
 Warning:  center 220 has no basis functions!
 Warning:  center 221 has no basis functions!
 Warning:  center 222 has no basis functions!
 Warning:  center 223 has no basis functions!
 Warning:  center 224 has no basis functions!
 Warning:  center 225 has no basis functions!
 Warning:  center 226 has no basis functions!
 Warning:  center 227 has no basis functions!
 Warning:  center 228 has no basis functions!
 Warning:  center 229 has no basis functions!
 Warning:  center 230 has no basis functions!
 Warning:  center 231 has no basis functions!
 Warning:  center 232 has no basis functions!
 Warning:  center 233 has no basis functions!
 Warning:  center 234 has no basis functions!
 Warning:  center 235 has no basis functions!
 Warning:  center 236 has no basis functions!
 Ernie: Thresh=  0.10000D-02 Tol=  0.10000D-05 Strict=F.
   568 basis functions,   904 primitive gaussians,   590 cartesian basis functions
    73 alpha electrons       73 beta electrons
       nuclear repulsion energy      1599.9156270972 Hartrees.
 IExCor=  402 DFT=T Ex+Corr=B3LYP ExCW=0 ScaHFX=  0.200000
 ScaDFX=  0.800000  0.720000  1.000000  0.810000 ScalE2=  1.000000  1.000000
 IRadAn=      0 IRanWt=     -1 IRanGd=            0 ICorTp=0 IEmpDi=  4
 NAtoms=  236 NActive=  236 NUniq=  236 SFac= 1.00D+00 NAtFMM=   60 NAOKFM=T Big=T
 Integral buffers will be    131072 words long.
 Raffenetti 2 integral format.
 Two-electron integral symmetry is turned off.
 Leave Link  301 at Tue Sep 15 11:07:05 2020, MaxMem=   131072000 cpu:         0.9
 (Enter /share/programs/GAUSSIAN/64/g09/l302.exe)
 NPDir=0 NMtPBC=     1 NCelOv=     1 NCel=       1 NClECP=     1 NCelD=      1
         NCelK=      1 NCelE2=     1 NClLst=     1 CellRange=     0.0.
 One-electron integrals computed using PRISM.
 NBasis=   568 RedAO= T EigKep=  1.01D-06  NBF=   568
 NBsUse=   557 1.00D-06 EigRej=  9.19D-07 NBFU=   557
 Precomputing XC quadrature grid using
 IXCGrd= 4 IRadAn=           0 IRanWt=          -1 IRanGd=           0 AccXCQ= 0.00D+00.
 Generated NRdTot=       0 NPtTot=           0 NUsed=           0 NTot=          32
 NSgBfM=   587   588   588   589   589 MxSgAt=   236 MxSgA2=    36.
 Leave Link  302 at Tue Sep 15 11:07:08 2020, MaxMem=   131072000 cpu:        24.9
 (Enter /share/programs/GAUSSIAN/64/g09/l308.exe)
 Leave Link  308 at Tue Sep 15 11:07:09 2020, MaxMem=   131072000 cpu:         2.9
 (Enter /share/programs/GAUSSIAN/64/g09/l303.exe)
 DipDrv:  MaxL=1.
 Leave Link  303 at Tue Sep 15 11:07:09 2020, MaxMem=   131072000 cpu:         1.6
 (Enter /share/programs/GAUSSIAN/64/g09/l401.exe)
 Initial guess from the checkpoint file:  "/scratch/aartigas.38859/Gau-1522939.chk"
 Skipping rotation of guess because NAtoms(RWF)=  236 differs from NAtoms(Chk)=   36.
 Guess basis will be translated and rotated to current coordinates.
 JPrj=2 DoOrth=T DoCkMO=T.
 Leave Link  401 at Tue Sep 15 11:07:16 2020, MaxMem=   131072000 cpu:        20.8
 (Enter /share/programs/GAUSSIAN/64/g09/l502.exe)
 Closed shell SCF:
 Using DIIS extrapolation, IDIIS=  1040.
 Two-electron integral symmetry not used.
 IVT=     1071582 IEndB=     1071582 NGot=   131072000 MDV=   130365749
 LenX=   130365749 LenY=   130017059
 Requested convergence on RMS density matrix=1.00D-08 within 128 cycles.
 Requested convergence on MAX density matrix=1.00D-06.
 Requested convergence on             energy=1.00D-06.
 No special actions if energy rises.
 Fock matrices will be formed incrementally for  20 cycles.

 Cycle   1  Pass 1  IDiag  1:
 FoFJK:  IHMeth= 1 ICntrl=       0 DoSepK=F KAlg= 0 I1Cent=   0 FoldK=F
 IRaf= 940000000 NMat=   1 IRICut=       1 DoRegI=T DoRafI=F ISym2E= 0.
 FoFCou: FMM=T IPFlag=           0 FMFlag=      100000 FMFlg1=        2001
         NFxFlg=           0 DoJE=F BraDBF=F KetDBF=F FulRan=T
         wScrn=  0.000000 ICntrl=       0 IOpCl=  0 I1Cent=           0 NGrid=           0
         NMat0=    1 NMatS0=      1 NMatT0=    0 NMatD0=    1 NMtDS0=    0 NMtDT0=    0
 Symmetry not used in FoFCou.
 FMM levels:  10  Number of levels for PrismC:   9
 E= -847.003738666967    
 DIIS: error= 5.05D-08 at cycle   1 NSaved=   1.
 NSaved= 1 IEnMin= 1 EnMin= -847.003738666967     IErMin= 1 ErrMin= 5.05D-08
 ErrMax= 5.05D-08  0.00D+00 EMaxC= 1.00D-01 BMatC= 3.55D-12 BMatP= 3.55D-12
 IDIUse=1 WtCom= 1.00D+00 WtEn= 0.00D+00
 Coeff-Com:  0.100D+01
 Coeff:      0.100D+01
 Gap=     0.151 Goal=   None    Shift=    0.000
 RMSDP=2.89D-07 MaxDP=1.33D-05              OVMax= 3.94D-07

 Cycle   2  Pass 1  IDiag  1:
 RMSU=  2.85D-07    CP:  1.00D+00
 E= -847.003738666801     Delta-E=        0.000000000166 Rises=F Damp=F
 DIIS: error= 1.42D-08 at cycle   2 NSaved=   2.
 NSaved= 2 IEnMin= 1 EnMin= -847.003738666967     IErMin= 2 ErrMin= 1.42D-08
 ErrMax= 1.42D-08  0.00D+00 EMaxC= 1.00D-01 BMatC= 2.13D-13 BMatP= 3.55D-12
 IDIUse=1 WtCom= 1.00D+00 WtEn= 0.00D+00
 Coeff-Com:  0.627D-01 0.937D+00
 Coeff:      0.627D-01 0.937D+00
 Gap=     0.151 Goal=   None    Shift=    0.000
 RMSDP=1.58D-08 MaxDP=7.83D-07 DE= 1.66D-10 OVMax= 3.02D-07

 Cycle   3  Pass 1  IDiag  1:
 RMSU=  1.33D-08    CP:  1.00D+00  1.02D+00
 E= -847.003738666924     Delta-E=       -0.000000000123 Rises=F Damp=F
 DIIS: error= 2.51D-08 at cycle   3 NSaved=   3.
 NSaved= 3 IEnMin= 1 EnMin= -847.003738666967     IErMin= 2 ErrMin= 1.42D-08
 ErrMax= 2.51D-08  0.00D+00 EMaxC= 1.00D-01 BMatC= 5.05D-13 BMatP= 2.13D-13
 IDIUse=1 WtCom= 1.00D+00 WtEn= 0.00D+00
 Coeff-Com: -0.107D-01 0.616D+00 0.395D+00
 Coeff:     -0.107D-01 0.616D+00 0.395D+00
 Gap=     0.151 Goal=   None    Shift=    0.000
 RMSDP=1.03D-08 MaxDP=4.24D-07 DE=-1.23D-10 OVMax= 2.17D-07

 Cycle   4  Pass 1  IDiag  1:
 RMSU=  5.85D-09    CP:  1.00D+00  1.02D+00  3.90D-01
 E= -847.003738666832     Delta-E=        0.000000000092 Rises=F Damp=F
 DIIS: error= 8.06D-09 at cycle   4 NSaved=   4.
 NSaved= 4 IEnMin= 1 EnMin= -847.003738666967     IErMin= 4 ErrMin= 8.06D-09
 ErrMax= 8.06D-09  0.00D+00 EMaxC= 1.00D-01 BMatC= 2.06D-14 BMatP= 2.13D-13
 IDIUse=1 WtCom= 1.00D+00 WtEn= 0.00D+00
 Coeff-Com: -0.875D-02 0.309D+00 0.241D+00 0.459D+00
 Coeff:     -0.875D-02 0.309D+00 0.241D+00 0.459D+00
 Gap=     0.151 Goal=   None    Shift=    0.000
 RMSDP=4.08D-09 MaxDP=1.47D-07 DE= 9.19D-11 OVMax= 6.88D-08

 SCF Done:  E(RB3LYP) =  -847.003738667     A.U. after    4 cycles
            NFock=  4  Conv=0.41D-08     -V/T= 2.0049
 KE= 8.428349970567D+02 PE=-5.164192584015D+03 EE= 1.874438221195D+03
 Leave Link  502 at Tue Sep 15 11:12:45 2020, MaxMem=   131072000 cpu:      2611.3
 (Enter /share/programs/GAUSSIAN/64/g09/l801.exe)
 DoSCS=F DFT=T ScalE2(SS,OS)=  1.000000  1.000000
 Range of M.O.s used for correlation:     1   557
 NBasis=   568 NAE=    73 NBE=    73 NFC=     0 NFV=     0
 NROrb=    557 NOA=    73 NOB=    73 NVA=   484 NVB=   484

 **** Warning!!: The largest alpha MO coefficient is  0.14271947D+03

 Leave Link  801 at Tue Sep 15 11:12:45 2020, MaxMem=   131072000 cpu:         0.3
 (Enter /share/programs/GAUSSIAN/64/g09/l1002.exe)
 Minotr:  Closed shell wavefunction.
          Direct CPHF calculation.
          Differentiating once with respect to magnetic field using GIAOs.
          Electric field/nuclear overlap derivatives assumed to be zero.
          Requested convergence is 1.0D-08 RMS, and 1.0D-07 maximum.
          Secondary convergence is 1.0D-12 RMS, and 1.0D-12 maximum.
          NewPWx=T KeepS1=F KeepF1=F KeepIn=T MapXYZ=F SortEE=F KeepMc=T.
          MDV=     131069551 using IRadAn=       2.
 Generate precomputed XC quadrature information.
          Solving linear equations simultaneously, MaxMat=      72.
 FoFCou: FMM=F IPFlag=           0 FMFlag=      100000 FMFlg1=        2001
         NFxFlg=           0 DoJE=F BraDBF=F KetDBF=T FulRan=T
         wScrn=  0.000000 ICntrl=    6100 IOpCl=  0 I1Cent=           7 NGrid=         236
         NMat0=    1 NMatS0=      1 NMatT0=    0 NMatD0=    1 NMtDS0=    0 NMtDT0=    0
 Symmetry not used in FoFCou.
 FoFJK:  IHMeth= 1 ICntrl=    6127 DoSepK=F KAlg= 0 I1Cent=   0 FoldK=F
 IRaf=         1 NMat=   1 IRICut=       1 DoRegI=T DoRafI=F ISym2E= 0.
          There are     3 degrees of freedom in the 1st order CPHF.  IDoFFX=0 NUNeed=     3.
      3 vectors produced by pass  0 Test12= 1.18D-12 3.33D-08 XBig12= 1.96D+03 8.77D+00.
 AX will form     3 AO Fock derivatives at one time.
      3 vectors produced by pass  1 Test12= 1.18D-12 3.33D-08 XBig12= 3.18D+00 7.58D-01.
      3 vectors produced by pass  2 Test12= 1.18D-12 3.33D-08 XBig12= 1.86D-02 5.85D-02.
      3 vectors produced by pass  3 Test12= 1.18D-12 3.33D-08 XBig12= 4.29D-05 1.35D-03.
      3 vectors produced by pass  4 Test12= 1.18D-12 3.33D-08 XBig12= 9.75D-08 7.22D-05.
      3 vectors produced by pass  5 Test12= 1.18D-12 3.33D-08 XBig12= 3.97D-10 5.92D-06.
      3 vectors produced by pass  6 Test12= 1.18D-12 3.33D-08 XBig12= 1.51D-12 4.40D-07.
 InvSVY:  IOpt=1 It=  1 EMax= 3.55D-15
 Solved reduced A of dimension    21 with     3 vectors.
 Calculating GIAO nuclear magnetic shielding tensors.
 SCF GIAO Magnetic shielding tensor (ppm):
      1  C    Isotropic =    49.6861   Anisotropy =   149.7970
   XX=    46.3088   YX=   -25.0950   ZX=    31.4786
   XY=   -31.1109   YY=   -39.0339   ZY=    13.2621
   XZ=    24.9178   YZ=     8.9888   ZZ=   141.7833
   Eigenvalues:   -49.3507    48.8581   149.5507
      2  C    Isotropic =    49.6861   Anisotropy =   149.7971
   XX=    46.3088   YX=    25.0953   ZX=    31.4786
   XY=    31.1111   YY=   -39.0339   ZY=   -13.2621
   XZ=    24.9177   YZ=    -8.9889   ZZ=   141.7834
   Eigenvalues:   -49.3508    48.8583   149.5509
      3  C    Isotropic =    44.4899   Anisotropy =   204.7372
   XX=   -22.2199   YX=    10.8075   ZX=    51.2710
   XY=     4.9259   YY=   -14.7126   ZY=    14.7921
   XZ=    32.3655   YZ=    21.2392   ZZ=   170.4022
   Eigenvalues:   -31.9593   -15.5523   180.9814
      4  C    Isotropic =    44.4899   Anisotropy =   204.7373
   XX=   -22.2198   YX=   -10.8075   ZX=    51.2710
   XY=    -4.9256   YY=   -14.7126   ZY=   -14.7922
   XZ=    32.3656   YZ=   -21.2393   ZZ=   170.4023
   Eigenvalues:   -31.9592   -15.5524   180.9815
      5  C    Isotropic =    48.5420   Anisotropy =   189.5490
   XX=   -14.6790   YX=     4.7342   ZX=     8.4333
   XY=    20.3759   YY=    -5.5375   ZY=    31.5121
   XZ=    65.1218   YZ=     0.8640   ZZ=   165.8426
   Eigenvalues:   -26.3226    -2.9593   174.9080
      6  C    Isotropic =    48.5421   Anisotropy =   189.5489
   XX=   -14.6789   YX=    -4.7340   ZX=     8.4335
   XY=   -20.3758   YY=    -5.5374   ZY=   -31.5121
   XZ=    65.1218   YZ=    -0.8638   ZZ=   165.8426
   Eigenvalues:   -26.3224    -2.9594   174.9080
      7  C    Isotropic =    50.1907   Anisotropy =   149.2089
   XX=    19.7303   YX=   -44.2755   ZX=    41.2886
   XY=   -38.0437   YY=    -2.7069   ZY=    36.9011
   XZ=    36.5866   YZ=    37.5458   ZZ=   133.5487
   Eigenvalues:   -49.6656    50.5744   149.6633
      8  C    Isotropic =    48.9362   Anisotropy =   152.4339
   XX=   -31.5093   YX=   -11.4921   ZX=    54.7730
   XY=   -19.0468   YY=    46.5898   ZY=    27.5522
   XZ=    42.2451   YZ=    29.8391   ZZ=   131.7282
   Eigenvalues:   -50.1461    46.3960   150.5589
      9  C    Isotropic =    44.4204   Anisotropy =   209.3981
   XX=   -10.1987   YX=    16.7536   ZX=    44.4888
   XY=     8.9342   YY=    -7.7270   ZY=    61.4651
   XZ=    43.3269   YZ=    64.9792   ZZ=   151.1869
   Eigenvalues:   -30.3689   -20.3891   184.0192
     10  C    Isotropic =    45.3894   Anisotropy =   198.3236
   XX=    -5.9706   YX=    23.3819   ZX=    35.6519
   XY=    38.1954   YY=     1.7271   ZY=    73.1370
   XZ=    54.0013   YZ=    45.7045   ZZ=   140.4116
   Eigenvalues:   -33.5315    -7.9055   177.6051
     11  H    Isotropic =    23.8179   Anisotropy =     7.5674
   XX=    27.2191   YX=    -1.9090   ZX=    -2.2602
   XY=    -1.7961   YY=    24.8722   ZY=    -0.1966
   XZ=    -3.3763   YZ=    -0.1950   ZZ=    19.3625
   Eigenvalues:    18.3647    24.2263    28.8628
     12  H    Isotropic =    23.8179   Anisotropy =     7.5674
   XX=    27.2191   YX=     1.9090   ZX=    -2.2602
   XY=     1.7961   YY=    24.8722   ZY=     0.1966
   XZ=    -3.3763   YZ=     0.1950   ZZ=    19.3625
   Eigenvalues:    18.3647    24.2263    28.8628
     13  H    Isotropic =    23.8548   Anisotropy =     7.5124
   XX=    26.7195   YX=    -2.1358   ZX=    -2.0755
[...]
   115  Bq   0.000000
   116  Bq   0.000000
   117  Bq   0.000000
   118  Bq   0.000000
   119  Bq   0.000000
   120  Bq   0.000000
   121  Bq   0.000000
   122  Bq   0.000000
   123  Bq   0.000000
   124  Bq   0.000000
   125  Bq   0.000000
   126  Bq   0.000000
   127  Bq   0.000000
   128  Bq   0.000000
   129  Bq   0.000000
   130  Bq   0.000000
   131  Bq   0.000000
   132  Bq   0.000000
   133  Bq   0.000000
   134  Bq   0.000000
   135  Bq   0.000000
   136  Bq   0.000000
   137  Bq   0.000000
   138  Bq   0.000000
   139  Bq   0.000000
   140  Bq   0.000000
   141  Bq   0.000000
   142  Bq   0.000000
   143  Bq   0.000000
   144  Bq   0.000000
   145  Bq   0.000000
   146  Bq   0.000000
   147  Bq   0.000000
   148  Bq   0.000000
   149  Bq   0.000000
   150  Bq   0.000000
   151  Bq   0.000000
   152  Bq   0.000000
   153  Bq   0.000000
   154  Bq   0.000000
   155  Bq   0.000000
   156  Bq   0.000000
   157  Bq   0.000000
   158  Bq   0.000000
   159  Bq   0.000000
   160  Bq   0.000000
   161  Bq   0.000000
   162  Bq   0.000000
   163  Bq   0.000000
   164  Bq   0.000000
   165  Bq   0.000000
   166  Bq   0.000000
   167  Bq   0.000000
   168  Bq   0.000000
   169  Bq   0.000000
   170  Bq   0.000000
   171  Bq   0.000000
   172  Bq   0.000000
   173  Bq   0.000000
   174  Bq   0.000000
   175  Bq   0.000000
   176  Bq   0.000000
   177  Bq   0.000000
   178  Bq   0.000000
   179  Bq   0.000000
   180  Bq   0.000000
   181  Bq   0.000000
   182  Bq   0.000000
   183  Bq   0.000000
   184  Bq   0.000000
   185  Bq   0.000000
   186  Bq   0.000000
   187  Bq   0.000000
   188  Bq   0.000000
   189  Bq   0.000000
   190  Bq   0.000000
   191  Bq   0.000000
   192  Bq   0.000000
   193  Bq   0.000000
   194  Bq   0.000000
   195  Bq   0.000000
   196  Bq   0.000000
   197  Bq   0.000000
   198  Bq   0.000000
   199  Bq   0.000000
   200  Bq   0.000000
   201  Bq   0.000000
   202  Bq   0.000000
   203  Bq   0.000000
   204  Bq   0.000000
   205  Bq   0.000000
   206  Bq   0.000000
   207  Bq   0.000000
   208  Bq   0.000000
   209  Bq   0.000000
   210  Bq   0.000000
   211  Bq   0.000000
   212  Bq   0.000000
   213  Bq   0.000000
   214  Bq   0.000000
   215  Bq   0.000000
   216  Bq   0.000000
   217  Bq   0.000000
   218  Bq   0.000000
   219  Bq   0.000000
   220  Bq   0.000000
   221  Bq   0.000000
   222  Bq   0.000000
   223  Bq   0.000000
   224  Bq   0.000000
   225  Bq   0.000000
   226  Bq   0.000000
   227  Bq   0.000000
   228  Bq   0.000000
   229  Bq   0.000000
   230  Bq   0.000000
   231  Bq   0.000000
   232  Bq   0.000000
   233  Bq   0.000000
   234  Bq   0.000000
   235  Bq   0.000000
   236  Bq   0.000000
 Sum of Mulliken charges =   0.00000
 Mulliken charges with hydrogens summed into heavy atoms:
               1
     1  C   -0.262865
     2  C   -0.384058
     3  C    0.737923
     4  C    0.737922
     5  C   -0.039994
     6  C   -0.040001
     7  C    0.075155
     8  C   -0.330147
     9  C    0.780501
    10  C   -0.200782
    15  C    0.249272
    16  C   -0.533462
    17  C   -0.189404
    18  C   -0.286191
    23  C   -0.330145
    24  C    0.075154
    25  C    0.780496
    26  C   -0.200782
    27  C    0.249273
    28  C   -0.286192
    29  C   -0.189403
    30  C   -0.533462
    37  Bq   0.000000
    38  Bq   0.000000
    39  Bq   0.000000
    40  Bq   0.000000
    41  Bq   0.000000
    42  Bq   0.000000
    43  Bq   0.000000
    44  Bq   0.000000
    45  Bq   0.000000
    46  Bq   0.000000
    47  Bq   0.000000
    48  Bq   0.000000
    49  Bq   0.000000
    50  Bq   0.000000
    51  Bq   0.000000
    52  Bq   0.000000
    53  Bq   0.000000
    54  Bq   0.000000
    55  Bq   0.000000
    56  Bq   0.000000
    57  Bq   0.000000
    58  Bq   0.000000
    59  Bq   0.000000
    60  Bq   0.000000
    61  Bq   0.000000
    62  Bq   0.000000
    63  Bq   0.000000
    64  Bq   0.000000
    65  Bq   0.000000
    66  Bq   0.000000
    67  Bq   0.000000
    68  Bq   0.000000
    69  Bq   0.000000
    70  Bq   0.000000
    71  Bq   0.000000
    72  Bq   0.000000
    73  Bq   0.000000
    74  Bq   0.000000
    75  Bq   0.000000
    76  Bq   0.000000
    77  Bq   0.000000
    78  Bq   0.000000
    79  Bq   0.000000
    80  Bq   0.000000
    81  Bq   0.000000
    82  Bq   0.000000
    83  Bq   0.000000
    84  Bq   0.000000
    85  Bq   0.000000
    86  Bq   0.000000
    87  Bq   0.000000
    88  Bq   0.000000
    89  Bq   0.000000
    90  Bq   0.000000
    91  Bq   0.000000
    92  Bq   0.000000
    93  Bq   0.000000
    94  Bq   0.000000
    95  Bq   0.000000
    96  Bq   0.000000
    97  Bq   0.000000
    98  Bq   0.000000
    99  Bq   0.000000
   100  Bq   0.000000
   101  Bq   0.000000
   102  Bq   0.000000
   103  Bq   0.000000
   104  Bq   0.000000
   105  Bq   0.000000
   106  Bq   0.000000
   107  Bq   0.000000
   108  Bq   0.000000
   109  Bq   0.000000
   110  Bq   0.121192
   111  Bq   0.000000
   112  Bq   0.000000
   113  Bq   0.000000
   114  Bq   0.000000
   115  Bq   0.000000
   116  Bq   0.000000
   117  Bq   0.000000
   118  Bq   0.000000
   119  Bq   0.000000
   120  Bq   0.000000
   121  Bq   0.000000
   122  Bq   0.000000
   123  Bq   0.000000
   124  Bq   0.000000
   125  Bq   0.000000
   126  Bq   0.000000
   127  Bq   0.000000
   128  Bq   0.000000
   129  Bq   0.000000
   130  Bq   0.000000
   131  Bq   0.000000
   132  Bq   0.000000
   133  Bq   0.000000
   134  Bq   0.000000
   135  Bq   0.000000
   136  Bq   0.000000
   137  Bq   0.000000
   138  Bq   0.000000
   139  Bq   0.000000
   140  Bq   0.000000
   141  Bq   0.000000
   142  Bq   0.000000
   143  Bq   0.000000
   144  Bq   0.000000
   145  Bq   0.000000
   146  Bq   0.000000
   147  Bq   0.000000
   148  Bq   0.000000
   149  Bq   0.000000
   150  Bq   0.000000
   151  Bq   0.000000
   152  Bq   0.000000
   153  Bq   0.000000
   154  Bq   0.000000
   155  Bq   0.000000
   156  Bq   0.000000
   157  Bq   0.000000
   158  Bq   0.000000
   159  Bq   0.000000
   160  Bq   0.000000
   161  Bq   0.000000
   162  Bq   0.000000
   163  Bq   0.000000
   164  Bq   0.000000
   165  Bq   0.000000
   166  Bq   0.000000
   167  Bq   0.000000
   168  Bq   0.000000
   169  Bq   0.000000
   170  Bq   0.000000
   171  Bq   0.000000
   172  Bq   0.000000
   173  Bq   0.000000
   174  Bq   0.000000
   175  Bq   0.000000
   176  Bq   0.000000
   177  Bq   0.000000
   178  Bq   0.000000
   179  Bq   0.000000
   180  Bq   0.000000
   181  Bq   0.000000
   182  Bq   0.000000
   183  Bq   0.000000
   184  Bq   0.000000
   185  Bq   0.000000
   186  Bq   0.000000
   187  Bq   0.000000
   188  Bq   0.000000
   189  Bq   0.000000
   190  Bq   0.000000
   191  Bq   0.000000
   192  Bq   0.000000
   193  Bq   0.000000
   194  Bq   0.000000
   195  Bq   0.000000
   196  Bq   0.000000
   197  Bq   0.000000
   198  Bq   0.000000
   199  Bq   0.000000
   200  Bq   0.000000
   201  Bq   0.000000
   202  Bq   0.000000
   203  Bq   0.000000
   204  Bq   0.000000
   205  Bq   0.000000
   206  Bq   0.000000
   207  Bq   0.000000
   208  Bq   0.000000
   209  Bq   0.000000
   210  Bq   0.000000
   211  Bq   0.000000
   212  Bq   0.000000
   213  Bq   0.000000
   214  Bq   0.000000
   215  Bq   0.000000
   216  Bq   0.000000
   217  Bq   0.000000
   218  Bq   0.000000
   219  Bq   0.000000
   220  Bq   0.000000
   221  Bq   0.000000
   222  Bq   0.000000
   223  Bq   0.000000
   224  Bq   0.000000
   225  Bq   0.000000
   226  Bq   0.000000
   227  Bq   0.000000
   228  Bq   0.000000
   229  Bq   0.000000
   230  Bq   0.000000
   231  Bq   0.000000
   232  Bq   0.000000
   233  Bq   0.000000
   234  Bq   0.000000
   235  Bq   0.000000
   236  Bq   0.000000
 Electronic spatial extent (au):  <R**2>=           5804.3227
 Charge=              0.0000 electrons
 Dipole moment (field-independent basis, Debye):
    X=              0.0000    Y=              0.0732    Z=              0.0000  Tot=              0.0732
 Quadrupole moment (field-independent basis, Debye-Ang):
   XX=           -113.9137   YY=           -113.9781   ZZ=           -133.4378
   XY=              0.0000   XZ=             -4.8717   YZ=              0.0000
 Traceless Quadrupole moment (field-independent basis, Debye-Ang):
   XX=              6.5295   YY=              6.4651   ZZ=            -12.9946
   XY=              0.0000   XZ=             -4.8717   YZ=              0.0000
 Octapole moment (field-independent basis, Debye-Ang**2):
  XXX=              0.0000  YYY=             11.7108  ZZZ=              0.0000  XYY=              0.0000
  XXY=             -6.4067  XXZ=              0.0000  XZZ=              0.0000  YZZ=             -7.8695
  YYZ=              0.0000  XYZ=            -16.2862
 Hexadecapole moment (field-independent basis, Debye-Ang**3):
 XXXX=          -4416.4021 YYYY=          -2784.9756 ZZZZ=           -481.5690 XXXY=              0.0001
 XXXZ=           -124.3517 YYYX=             -0.0003 YYYZ=              0.0001 ZZZX=             -4.4782
 ZZZY=              0.0001 XXYY=          -1189.3576 XXZZ=           -942.9016 YYZZ=           -589.4012
 XXYZ=              0.0000 YYXZ=              7.8297 ZZXY=             -0.0001
 N-N= 1.599915627097D+03 E-N=-5.164192587538D+03  KE= 8.428349970567D+02
 Leave Link  601 at Tue Sep 15 11:33:42 2020, MaxMem=   131072000 cpu:         1.2
 (Enter /share/programs/GAUSSIAN/64/g09/l9999.exe)
 1\1\GINC-BRUSEL\SP\RB3LYP\6-311+G(d,p)\C22H14\AARTIGAS\15-Sep-2020\0\\
 #P rb3lyp/6-311+g** NMR Guess=Read geom=connectivity\\Title\\0,1\C,0,0
 .653241,3.257859,-0.20251\C,0,-0.653243,3.25786,0.20251\C,0,1.372495,2
 .032956,-0.320807\C,0,-1.372495,2.032956,0.320807\C,0,0.722474,0.79566
 6,-0.050388\C,0,-0.722474,0.795667,0.050387\C,0,2.760385,2.053927,-0.6
 74268\C,0,3.508866,0.913916,-0.671362\C,0,2.955226,-0.309622,-0.177479
 \C,0,1.574722,-0.361114,0.197094\H,0,1.183427,4.19574,-0.384599\H,0,-1
 .183429,4.19574,0.384599\H,0,3.206283,3.012423,-0.951392\H,0,4.560023,
 0.932956,-0.969333\C,0,3.78302,-1.443098,0.028309\C,0,1.137427,-1.5075
 33,0.912109\C,0,1.973691,-2.584349,1.138062\C,0,3.301853,-2.571588,0.6
 61177\H,0,4.825754,-1.39123,-0.295484\H,0,0.124652,-1.532788,1.308472\
 H,0,1.603586,-3.445682,1.698977\H,0,3.952742,-3.433526,0.825134\C,0,-3
 .508866,0.913915,0.671362\C,0,-2.760386,2.053926,0.674268\C,0,-2.95522
 6,-0.309623,0.177479\C,0,-1.574722,-0.361114,-0.197094\C,0,-3.78302,-1
 .443099,-0.028309\C,0,-3.301852,-2.571589,-0.661177\C,0,-1.97369,-2.58
 4349,-1.138061\C,0,-1.137426,-1.507534,-0.912109\H,0,-4.560022,0.93295
 4,0.969334\H,0,-3.206283,3.012421,0.951392\H,0,-4.825754,-1.391232,0.2
 95484\H,0,-3.952741,-3.433528,-0.825134\H,0,-1.603585,-3.445682,-1.698
 976\H,0,-0.124652,-1.532788,-1.308471\Bq,0,-0.852015426,4.9958431452,0
 .884599\Bq,0,-0.959285132,5.0322563037,0.884599\Bq,0,-1.0703900017,5.0
 543564364,0.884599\Bq,0,-1.183429,5.0617654038,0.884599\Bq,0,-1.296467
 9983,5.0543564364,0.884599\Bq,0,-1.407572868,5.0322563037,0.884599\Bq,
 0,-1.514842574,4.9958431452,0.884599\Bq,0,-1.6164417019,4.94574,0.8845
 99\Bq,0,-1.7106318624,4.8828041469,0.884599\Bq,0,-1.7958014357,4.80811
 24357,0.884599\Bq,0,-1.8704931469,4.7229428624,0.884599\Bq,0,-1.933429
 ,4.6287527019,0.884599\Bq,0,-1.9835321452,4.527153574,0.884599\Bq,0,-2
 .0199453037,4.419883868,0.884599\Bq,0,-2.0420454364,4.3087789983,0.884
 599\Bq,0,-2.0494544038,4.19574,0.884599\Bq,0,-2.0420454364,4.082701001
 7,0.884599\Bq,0,-2.0199453037,3.971596132,0.884599\Bq,0,-1.9835321452,
 3.864326426,0.884599\Bq,0,-0.3248125636,4.0827010017,0.884599\Bq,0,-0.
 267453385,4.3163304774,0.7672824324\Bq,0,-0.2910298992,4.4348576184,0.
 7672824324\Bq,0,-0.3298756094,4.5492933906,0.7672824324\Bq,0,-0.383325
 8548,4.6576797663,0.7672824324\Bq,0,-0.4504660869,4.7581622244,0.76728
 24324\Bq,0,-0.5301475176,4.8490214824,0.7672824324\Bq,0,-0.6210067756,
 4.9287029131,0.7672824324\Bq,0,-0.7214892337,4.9958431452,0.7672824324
 \Bq,0,-0.8298756094,5.0492933906,0.7672824324\Bq,0,-0.9443113816,5.088
 1391008,0.7672824324\Bq,0,-1.0628385226,5.111715615,0.7672824324\Bq,0,
 -1.183429,5.1196195325,0.7672824324\Bq,0,-1.3040194774,5.111715615,0.7
 672824324\Bq,0,-1.4225466184,5.0881391008,0.7672824324\Bq,0,-1.5369823
 906,5.0492933906,0.7672824324\Bq,0,-1.6453687663,4.9958431452,0.767282
 4324\Bq,0,-1.7458512244,4.9287029131,0.7672824324\Bq,0,-1.8367104824,4
 .8490214824,0.7672824324\Bq,0,-1.9163919131,4.7581622244,0.7672824324\
 Bq,0,-1.9835321452,4.6576797663,0.7672824324\Bq,0,-2.0369823906,4.5492
 933906,0.7672824324\Bq,0,-2.0758281008,4.4348576184,0.7672824324\Bq,0,
 -2.099404615,4.3163304774,0.7672824324\Bq,0,-2.1073085325,4.19574,0.76
 72824324\Bq,0,-2.099404615,4.0751495226,0.7672824324\Bq,0,-2.075828100
 8,3.9566223816,0.7672824324\Bq,0,-0.2910298992,4.5653838106,0.64341804
 51\Bq,0,-0.3469126963,4.6787029131,0.6434180451\Bq,0,-0.4171085192,4.7
 837583863,0.6434180451\Bq,0,-0.5004162981,4.8787527019,0.6434180451\Bq
 ,0,-0.5954106137,4.9620604808,0.6434180451\Bq,0,-0.7004660869,5.032256
 3037,0.6434180451\Bq,0,-0.8137851894,5.0881391008,0.6434180451\Bq,0,-0
 .933429,5.1287527019,0.6434180451\Bq,0,-1.0573503799,5.1534021969,0.64
 34180451\Bq,0,-1.183429,5.1616658263,0.6434180451\Bq,0,-1.3095076201,5
 .1534021969,0.6434180451\Bq,0,-1.433429,5.1287527019,0.6434180451\Bq,0
 ,-1.5530728106,5.0881391008,0.6434180451\Bq,0,-1.6663919131,5.03225630
 37,0.6434180451\Bq,0,-1.7714473863,4.9620604808,0.6434180451\Bq,0,-1.8
 664417019,4.8787527019,0.6434180451\Bq,0,-1.9497494808,4.7837583863,0.
 6434180451\Bq,0,-2.0199453037,4.6787029131,0.6434180451\Bq,0,-2.075828
 1008,4.5653838106,0.6434180451\Bq,0,-2.1164417019,4.44574,0.6434180451
 \Bq,0,-2.1410911969,4.3218186201,0.6434180451\Bq,0,-2.1493548263,4.195
 74,0.6434180451\Bq,0,-2.1410911969,4.0696613799,0.6434180451\Bq,0,-2.1
 164417019,3.94574,0.6434180451\Bq,0,-0.267453385,4.5751495226,0.515125
 1922\Bq,0,-0.3248125636,4.6914624307,0.5151251922\Bq,0,-0.3968629075,4
 .7992933906,0.5151251922\Bq,0,-0.4823716154,4.8967973846,0.5151251922\
 Bq,0,-0.5798756094,4.9823060925,0.5151251922\Bq,0,-0.6877065693,5.0543
 564364,0.5151251922\Bq,0,-0.8040194774,5.111715615,0.5151251922\Bq,0,-
 0.9268241877,5.1534021969,0.5151251922\Bq,0,-1.0540194774,5.1787029131
 ,0.5151251922\Bq,0,-1.183429,5.1871848614,0.5151251922\Bq,0,-1.3128385
 226,5.1787029131,0.5151251922\Bq,0,-1.4400338123,5.1534021969,0.515125
 1922\Bq,0,-1.5628385226,5.111715615,0.5151251922\Bq,0,-1.6791514307,5.
 0543564364,0.5151251922\Bq,0,-1.7869823906,4.9823060925,0.5151251922\B
 q,0,-1.8844863846,4.8967973846,0.5151251922\Bq,0,-1.9699950925,4.79929
 33906,0.5151251922\Bq,0,-2.0420454364,4.6914624307,0.5151251922\Bq,0,-
 2.099404615,4.5751495226,0.5151251922\Bq,0,-2.1410911969,4.4523448123,
 0.5151251922\Bq,0,-2.1663919131,4.3251495226,0.5151251922\Bq,0,-2.1748
 738614,4.19574,0.5151251922\Bq,0,-2.1663919131,4.0663304774,0.51512519
 22\Bq,0,-2.1410911969,3.9391351877,0.5151251922\Bq,0,-0.3174035962,4.6
 9574,0.384599\Bq,0,-0.3900756597,4.804501429,0.384599\Bq,0,-0.47632221
 88,4.9028467812,0.384599\Bq,0,-0.574667571,4.9890933403,0.384599\Bq,0,
 -0.683429,5.0617654038,0.384599\Bq,0,-0.8007455676,5.1196195325,0.3845
 99\Bq,0,-0.9246099549,5.1616658263,0.384599\Bq,0,-1.0529028078,5.18718
 48614,0.384599\Bq,0,-1.183429,5.19574,0.384599\Bq,0,-1.3139551922,5.18
 71848614,0.384599\Bq,0,-1.4422480451,5.1616658263,0.384599\Bq,0,-1.566
 1124324,5.1196195325,0.384599\Bq,0,-1.683429,5.0617654038,0.384599\Bq,
 0,-1.792190429,4.9890933403,0.384599\Bq,0,-1.8905357812,4.9028467812,0
 .384599\Bq,0,-1.9767823403,4.804501429,0.384599\Bq,0,-2.0494544038,4.6
 9574,0.384599\Bq,0,-2.1073085325,4.5784234324,0.384599\Bq,0,-2.1493548
 263,4.4545590451,0.384599\Bq,0,-2.1748738614,4.3262661922,0.384599\Bq,
 0,-2.183429,4.19574,0.384599\Bq,0,-2.1748738614,4.0652138078,0.384599\
 Bq,0,-2.1493548263,3.9369209549,0.384599\Bq,0,-0.3248125636,4.69146243
 07,0.2540728078\Bq,0,-0.3968629075,4.7992933906,0.2540728078\Bq,0,-0.4
 823716154,4.8967973846,0.2540728078\Bq,0,-0.5798756094,4.9823060925,0.
 2540728078\Bq,0,-0.6877065693,5.0543564364,0.2540728078\Bq,0,-0.804019
 4774,5.111715615,0.2540728078\Bq,0,-0.9268241877,5.1534021969,0.254072
 8078\Bq,0,-1.0540194774,5.1787029131,0.2540728078\Bq,0,-1.183429,5.187
 1848614,0.2540728078\Bq,0,-1.3128385226,5.1787029131,0.2540728078\Bq,0
 ,-1.4400338123,5.1534021969,0.2540728078\Bq,0,-1.5628385226,5.11171561
 5,0.2540728078\Bq,0,-1.6791514307,5.0543564364,0.2540728078\Bq,0,-1.78
 69823906,4.9823060925,0.2540728078\Bq,0,-1.8844863846,4.8967973846,0.2
 540728078\Bq,0,-1.9699950925,4.7992933906,0.2540728078\Bq,0,-2.0420454
 364,4.6914624307,0.2540728078\Bq,0,-2.099404615,4.5751495226,0.2540728
 078\Bq,0,-2.1410911969,4.4523448123,0.2540728078\Bq,0,-2.1663919131,4.
 3251495226,0.2540728078\Bq,0,-2.1748738614,4.19574,0.2540728078\Bq,0,-
 2.1663919131,4.0663304774,0.2540728078\Bq,0,-2.1410911969,3.9391351877
 ,0.2540728078\Bq,0,-0.3469126963,4.6787029131,0.1257799549\Bq,0,-0.417
 1085192,4.7837583863,0.1257799549\Bq,0,-0.5004162981,4.8787527019,0.12
 57799549\Bq,0,-0.5954106137,4.9620604808,0.1257799549\Bq,0,-0.70046608
 69,5.0322563037,0.1257799549\Bq,0,-0.8137851894,5.0881391008,0.1257799
 549\Bq,0,-0.933429,5.1287527019,0.1257799549\Bq,0,-1.0573503799,5.1534
 021969,0.1257799549\Bq,0,-1.183429,5.1616658263,0.1257799549\Bq,0,-1.3
 095076201,5.1534021969,0.1257799549\Bq,0,-1.433429,5.1287527019,0.1257
 799549\Bq,0,-1.5530728106,5.0881391008,0.1257799549\Bq,0,-1.6663919131
 ,5.0322563037,0.1257799549\Bq,0,-1.7714473863,4.9620604808,0.125779954
 9\Bq,0,-1.8664417019,4.8787527019,0.1257799549\Bq,0,-1.9497494808,4.78
 37583863,0.1257799549\Bq,0,-2.0199453037,4.6787029131,0.1257799549\Bq,
 0,-2.0758281008,4.5653838106,0.1257799549\Bq,0,-2.1164417019,4.44574,0
 .1257799549\Bq,0,-2.1410911969,4.3218186201,0.1257799549\Bq,0,-2.14935
 48263,4.19574,0.1257799549\Bq,0,-2.1410911969,4.0696613799,0.125779954
 9\Bq,0,-2.1164417019,3.94574,0.1257799549\Bq,0,-2.0758281008,3.8260961
 894,0.1257799549\Bq,0,-0.3833258548,4.6576797663,0.0019155676\Bq,0,-0.
 4504660869,4.7581622244,0.0019155676\Bq,0,-0.5301475176,4.8490214824,0
 .0019155676\Bq,0,-0.6210067756,4.9287029131,0.0019155676\Bq,0,-0.72148
 92337,4.9958431452,0.0019155676\Bq,0,-0.8298756094,5.0492933906,0.0019
 155676\Bq,0,-0.9443113816,5.0881391008,0.0019155676\Bq,0,-1.0628385226
 ,5.111715615,0.0019155676\Bq,0,-1.183429,5.1196195325,0.0019155676\Bq,
 0,-1.3040194774,5.111715615,0.0019155676\Bq,0,-1.4225466184,5.08813910
 08,0.0019155676\Bq,0,-1.5369823906,5.0492933906,0.0019155676\Bq,0,-1.6
 453687663,4.9958431452,0.0019155676\Bq,0,-1.7458512244,4.9287029131,0.
 0019155676\Bq,0,-1.8367104824,4.8490214824,0.0019155676\Bq,0,-1.916391
 9131,4.7581622244,0.0019155676\Bq,0,-1.9835321452,4.6576797663,0.00191
 55676\Bq,0,-2.0369823906,4.5492933906,0.0019155676\Bq,0,-2.0758281008,
 4.4348576184,0.0019155676\Bq,0,-2.099404615,4.3163304774,0.0019155676\
 Bq,0,-2.1073085325,4.19574,0.0019155676\Bq,0,-2.099404615,4.0751495226
 ,0.0019155676\Bq,0,-2.0758281008,3.9566223816,0.0019155676\Bq,0,-2.036
 9823906,3.8421866094,0.0019155676\Bq,0,-0.433429,4.6287527019,-0.11540
 1\Bq,0,-0.4963648531,4.7229428624,-0.115401\Bq,0,-0.5710565643,4.80811
 24357,-0.115401\Bq,0,-0.6562261376,4.8828041469,-0.115401\Bq,0,-0.7504
 162981,4.94574,-0.115401\Bq,0,-0.852015426,4.9958431452,-0.115401\Bq,0
 ,-0.959285132,5.0322563037,-0.115401\Bq,0,-1.0703900017,5.0543564364,-
 0.115401\Bq,0,-1.183429,5.0617654038,-0.115401\Bq,0,-1.2964679983,5.05
 43564364,-0.115401\Bq,0,-1.407572868,5.0322563037,-0.115401\Bq,0,-1.51
 4842574,4.9958431452,-0.115401\\Version=ES64L-G09RevD.01\HF=-847.00373
 87\RMSD=4.082e-09\Dipole=0.0000004,0.0287843,0.0000009\Quadrupole=4.85
 45288,4.8066247,-9.6611535,-0.0000047,-3.6219991,-0.000002\PG=C01 [X(C
 22H14)]\\@


 QUANTUM MECHANICS IS BOHRING -- M.S. GORDON
 Job cpu time:       0 days  3 hours 27 minutes 26.1 seconds.
 File lengths (MBytes):  RWF=    184 Int=      0 D2E=      0 Chk=     21 Scr=      1
 Normal termination of Gaussian 09 at Tue Sep 15 11:33:42 2020.
