 Entering Gaussian System, Link 0=g09
 Input=input_batch_02400.com
 Output=input_batch_02400.log
 Initial command:
 /share/programs/GAUSSIAN/64/g09/l1.exe "/scratch/aartigas.38790/Gau-3240887.inp" -scrdir="/scratch/aartigas.38790/"
 Entering Link 1 = /share/programs/GAUSSIAN/64/g09/l1.exe PID=   3240888.
  
 Copyright (c) 1988,1990,1992,1993,1995,1998,2003,2009,2013,
            Gaussian, Inc.  All Rights Reserved.
  
 This is part of the Gaussian(R) 09 program.  It is based on
 the Gaussian(R) 03 system (copyright 2003, Gaussian, Inc.),
 the Gaussian(R) 98 system (copyright 1998, Gaussian, Inc.),
 the Gaussian(R) 94 system (copyright 1995, Gaussian, Inc.),
 the Gaussian 92(TM) system (copyright 1992, Gaussian, Inc.),
 the Gaussian 90(TM) system (copyright 1990, Gaussian, Inc.),
 the Gaussian 88(TM) system (copyright 1988, Gaussian, Inc.),
 the Gaussian 86(TM) system (copyright 1986, Carnegie Mellon
 University), and the Gaussian 82(TM) system (copyright 1983,
 Carnegie Mellon University). Gaussian is a federally registered
 trademark of Gaussian, Inc.
  
 This software contains proprietary and confidential information,
 including trade secrets, belonging to Gaussian, Inc.
  
 This software is provided under written license and may be
 used, copied, transmitted, or stored only in accord with that
 written license.
  
 The following legend is applicable only to US Government
 contracts under FAR:
  
                    RESTRICTED RIGHTS LEGEND
  
 Use, reproduction and disclosure by the US Government is
 subject to restrictions as set forth in subparagraphs (a)
 and (c) of the Commercial Computer Software - Restricted
 Rights clause in FAR 52.227-19.
  
 Gaussian, Inc.
 340 Quinnipiac St., Bldg. 40, Wallingford CT 06492
  
  
 ---------------------------------------------------------------
 Warning -- This program may not be used in any manner that
 competes with the business of Gaussian, Inc. or will provide
 assistance to any competitor of Gaussian, Inc.  The licensee
 of this program is prohibited from giving any competitor of
 Gaussian, Inc. access to this program.  By using this program,
 the user acknowledges that Gaussian, Inc. is engaged in the
 business of creating and licensing software in the field of
 computational chemistry and represents and warrants to the
 licensee that it is not a competitor of Gaussian, Inc. and that
 it will not use this program in any manner prohibited above.
 ---------------------------------------------------------------
  

 Cite this work as:
 Gaussian 09, Revision D.01,
 M. J. Frisch, G. W. Trucks, H. B. Schlegel, G. E. Scuseria, 
 M. A. Robb, J. R. Cheeseman, G. Scalmani, V. Barone, B. Mennucci, 
 G. A. Petersson, H. Nakatsuji, M. Caricato, X. Li, H. P. Hratchian, 
 A. F. Izmaylov, J. Bloino, G. Zheng, J. L. Sonnenberg, M. Hada, 
 M. Ehara, K. Toyota, R. Fukuda, J. Hasegawa, M. Ishida, T. Nakajima, 
 Y. Honda, O. Kitao, H. Nakai, T. Vreven, J. A. Montgomery, Jr., 
 J. E. Peralta, F. Ogliaro, M. Bearpark, J. J. Heyd, E. Brothers, 
 K. N. Kudin, V. N. Staroverov, T. Keith, R. Kobayashi, J. Normand, 
 K. Raghavachari, A. Rendell, J. C. Burant, S. S. Iyengar, J. Tomasi, 
 M. Cossi, N. Rega, J. M. Millam, M. Klene, J. E. Knox, J. B. Cross, 
 V. Bakken, C. Adamo, J. Jaramillo, R. Gomperts, R. E. Stratmann, 
 O. Yazyev, A. J. Austin, R. Cammi, C. Pomelli, J. W. Ochterski, 
 R. L. Martin, K. Morokuma, V. G. Zakrzewski, G. A. Voth, 
 P. Salvador, J. J. Dannenberg, S. Dapprich, A. D. Daniels, 
 O. Farkas, J. B. Foresman, J. V. Ortiz, J. Cioslowski, 
 and D. J. Fox, Gaussian, Inc., Wallingford CT, 2013.
 
 ******************************************
 Gaussian 09:  ES64L-G09RevD.01 24-Apr-2013
                15-Sep-2020 
 ******************************************
 %OldChk=/home/aartigas/chk/5_helicene_spe.chk
 %nproc=8
 Will use up to    8 processors via shared memory.
 %mem=1000MB
 Copying data from "/home/aartigas/chk/5_helicene_spe.chk" to current chk file "/scratch/aartigas.38790/Gau-3240888.chk".
 ----------------------------------------------------
 #P rb3lyp/6-311+g** NMR Guess=Read geom=connectivity
 ----------------------------------------------------
 1/38=1,57=2/1;
 2/12=2,17=6,18=5,40=1/2;
 3/5=4,6=6,7=111,11=2,16=1,25=1,30=1,74=-5,116=1/1,2,8,3;
 4/5=1/1;
 5/5=2,38=6/2;
 8/6=1,10=90,11=11/1;
 10/13=100,45=16/2;
 6/7=2,8=2,9=2,10=2,28=1/1;
 99/9=1/99;
 Leave Link    1 at Tue Sep 15 10:40:00 2020, MaxMem=   131072000 cpu:         0.5
 (Enter /share/programs/GAUSSIAN/64/g09/l101.exe)
 -----
 Title
 -----
 Symbolic Z-matrix:
 Charge =  0 Multiplicity = 1
 C                     0.65324   3.25786  -0.20251 
 C                    -0.65324   3.25786   0.20251 
 C                     1.3725    2.03296  -0.32081 
 C                    -1.3725    2.03296   0.32081 
 C                     0.72247   0.79567  -0.05039 
 C                    -0.72247   0.79567   0.05039 
 C                     2.76039   2.05393  -0.67427 
 C                     3.50887   0.91392  -0.67136 
 C                     2.95523  -0.30962  -0.17748 
 C                     1.57472  -0.36111   0.19709 
 H                     1.18343   4.19574  -0.3846 
 H                    -1.18343   4.19574   0.3846 
 H                     3.20628   3.01242  -0.95139 
 H                     4.56002   0.93296  -0.96933 
 C                     3.78302  -1.4431    0.02831 
 C                     1.13743  -1.50753   0.91211 
 C                     1.97369  -2.58435   1.13806 
 C                     3.30185  -2.57159   0.66118 
 H                     4.82575  -1.39123  -0.29548 
 H                     0.12465  -1.53279   1.30847 
 H                     1.60359  -3.44568   1.69898 
 H                     3.95274  -3.43353   0.82513 
 C                    -3.50887   0.91392   0.67136 
 C                    -2.76039   2.05393   0.67427 
 C                    -2.95523  -0.30962   0.17748 
 C                    -1.57472  -0.36111  -0.19709 
 C                    -3.78302  -1.4431   -0.02831 
 C                    -3.30185  -2.57159  -0.66118 
 C                    -1.97369  -2.58435  -1.13806 
 C                    -1.13743  -1.50753  -0.91211 
 H                    -4.56002   0.93295   0.96933 
 H                    -3.20628   3.01242   0.95139 
 H                    -4.82575  -1.39123   0.29548 
 H                    -3.95274  -3.43353  -0.82513 
 H                    -1.60359  -3.44568  -1.69898 
 H                    -0.12465  -1.53279  -1.30847 
 Bq                    0.72247   1.40443  -0.84374 
 Bq                    0.64301   1.39922  -0.84374 
 Bq                    0.56491   1.38368  -0.84374 
 Bq                    0.48951   1.35809  -0.84374 
 Bq                    0.41809   1.32287  -0.84374 
 Bq                    0.35188   1.27863  -0.84374 
 Bq                    0.29201   1.22613  -0.84374 
 Bq                    0.23951   1.16626  -0.84374 
 Bq                    0.19527   1.10005  -0.84374 
 Bq                    0.16005   1.02863  -0.84374 
 Bq                    0.13446   0.95323  -0.84374 
 Bq                    0.11892   0.87513  -0.84374 
 Bq                    0.11371   0.79567  -0.84374 
 Bq                    0.56491   0.20765  -0.84374 
 Bq                    0.64301   0.19211  -0.84374 
 Bq                    0.72247   0.1869   -0.84374 
 Bq                    0.80193   0.19211  -0.84374 
 Bq                    0.88003   0.20765  -0.84374 
 Bq                    0.95544   0.23324  -0.84374 
 Bq                    1.02685   0.26846  -0.84374 
 Bq                    1.09306   0.3127   -0.84374 
 Bq                    1.15293   0.36521  -0.84374 
 Bq                    1.20544   0.42508  -0.84374 
 Bq                    1.24968   0.49129  -0.84374 
 Bq                    1.2849    0.5627   -0.84374 
 Bq                    1.31049   0.63811  -0.84374 
 Bq                    1.32603   0.71621  -0.84374 
 Bq                    1.22247   0.79567  -0.91641 
 Bq                    1.2182    0.86093  -0.91641 
 Bq                    1.20544   0.92508  -0.91641 
 Bq                    1.18441   0.98701  -0.91641 
 Bq                    1.15549   1.04567  -0.91641 
 Bq                    1.11915   1.10005  -0.91641 
 Bq                    1.07603   1.14922  -0.91641 
 Bq                    1.02685   1.19234  -0.91641 
 Bq                    0.97247   1.22868  -0.91641 
 Bq                    0.91382   1.25761  -0.91641 
 Bq                    0.85188   1.27863  -0.91641 
 Bq                    0.78774   1.29139  -0.91641 
 Bq                    0.72247   1.29567  -0.91641 
 Bq                    0.65721   1.29139  -0.91641 
 Bq                    0.59306   1.27863  -0.91641 
 Bq                    0.53113   1.25761  -0.91641 
 Bq                    0.47247   1.22868  -0.91641 
 Bq                    0.41809   1.19234  -0.91641 
 Bq                    0.36892   1.14922  -0.91641 
 Bq                    0.3258    1.10005  -0.91641 
 Bq                    0.28946   1.04567  -0.91641 
 Bq                    0.26053   0.98701  -0.91641 
 Bq                    0.23951   0.92508  -0.91641 
 Bq                    0.22675   0.86093  -0.91641 
 Bq                    0.22247   0.79567  -0.91641 
 Bq                    0.22675   0.7304   -0.91641 
 Bq                    0.23951   0.66626  -0.91641 
 Bq                    0.26053   0.60432  -0.91641 
 Bq                    0.28946   0.54567  -0.91641 
 Bq                    0.3258    0.49129  -0.91641 
 Bq                    0.36892   0.44211  -0.91641 
 Bq                    0.41809   0.39899  -0.91641 
 Bq                    0.47247   0.36265  -0.91641 
 Bq                    0.53113   0.33373  -0.91641 
 Bq                    0.59306   0.3127   -0.91641 
 Bq                    0.65721   0.29994  -0.91641 
 Bq                    0.72247   0.29567  -0.91641 
 Bq                    0.78774   0.29994  -0.91641 
 Bq                    0.85188   0.3127   -0.91641 
 Bq                    0.91382   0.33373  -0.91641 
 Bq                    0.97247   0.36265  -0.91641 
 Bq                    1.02685   0.39899  -0.91641 
 Bq                    1.07603   0.44211  -0.91641 
 Bq                    1.11915   0.49129  -0.91641 
 Bq                    1.15549   0.54567  -0.91641 
 Bq                    1.18441   0.60432  -0.91641 
 Bq                    1.20544   0.66626  -0.91641 
 Bq                    1.2182    0.7304   -0.91641 
 Bq                    1.10516   0.79567  -0.97427 
 Bq                    1.10188   0.84562  -0.97427 
 Bq                    1.09212   0.89471  -0.97427 
 Bq                    1.07603   0.94211  -0.97427 
 Bq                    1.05389   0.98701  -0.97427 
 Bq                    1.02608   1.02863  -0.97427 
 Bq                    0.99307   1.06626  -0.97427 
 Bq                    0.95544   1.09927  -0.97427 
 Bq                    0.91382   1.12708  -0.97427 
 Bq                    0.86892   1.14922  -0.97427 
 Bq                    0.82152   1.16531  -0.97427 
 Bq                    0.77242   1.17508  -0.97427 
 Bq                    0.72247   1.17835  -0.97427 
 Bq                    0.67252   1.17508  -0.97427 
 Bq                    0.62343   1.16531  -0.97427 
 Bq                    0.57603   1.14922  -0.97427 
 Bq                    0.53113   1.12708  -0.97427 
 Bq                    0.48951   1.09927  -0.97427 
 Bq                    0.45188   1.06626  -0.97427 
 Bq                    0.41887   1.02863  -0.97427 
 Bq                    0.39106   0.98701  -0.97427 
 Bq                    0.36892   0.94211  -0.97427 
 Bq                    0.35283   0.89471  -0.97427 
 Bq                    0.34306   0.84562  -0.97427 
 Bq                    0.33979   0.79567  -0.97427 
 Bq                    0.34306   0.74572  -0.97427 
 Bq                    0.35283   0.69662  -0.97427 
 Bq                    0.36892   0.64922  -0.97427 
 Bq                    0.39106   0.60432  -0.97427 
 Bq                    0.41887   0.5627   -0.97427 
 Bq                    0.45188   0.52507  -0.97427 
 Bq                    0.48951   0.49206  -0.97427 
 Bq                    0.53113   0.46425  -0.97427 
 Bq                    0.57603   0.44211  -0.97427 
 Bq                    0.62343   0.42602  -0.97427 
 Bq                    0.67252   0.41626  -0.97427 
 Bq                    0.72247   0.41298  -0.97427 
 Bq                    0.77242   0.41626  -0.97427 
 Bq                    0.82152   0.42602  -0.97427 
 Bq                    0.86892   0.44211  -0.97427 
 Bq                    0.91382   0.46425  -0.97427 
 Bq                    0.95544   0.49206  -0.97427 
 Bq                    0.99307   0.52507  -0.97427 
 Bq                    1.02608   0.5627   -0.97427 
 Bq                    1.05389   0.60432  -0.97427 
 Bq                    1.07603   0.64922  -0.97427 
 Bq                    1.09212   0.69662  -0.97427 
 Bq                    1.10188   0.74572  -0.97427 
 Bq                    0.98129   0.79567  -1.01631 
 Bq                    0.97908   0.82945  -1.01631 
 Bq                    0.97247   0.86265  -1.01631 
 Bq                    0.96159   0.89471  -1.01631 
 Bq                    0.94662   0.92508  -1.01631 
 Bq                    0.92781   0.95323  -1.01631 
 Bq                    0.90549   0.97868  -1.01631 
 Bq                    0.88003   1.001    -1.01631 
 Bq                    0.85188   1.01981  -1.01631 
 Bq                    0.82152   1.03478  -1.01631 
 Bq                    0.78946   1.04567  -1.01631 
 Bq                    0.75626   1.05227  -1.01631 
 Bq                    0.72247   1.05449  -1.01631 
 Bq                    0.68869   1.05227  -1.01631 
 Bq                    0.65549   1.04567  -1.01631 
 Bq                    0.62343   1.03478  -1.01631 
 Bq                    0.59306   1.01981  -1.01631 
 Bq                    0.56491   1.001    -1.01631 
 Bq                    0.53946   0.97868  -1.01631 
 Bq                    0.51714   0.95323  -1.01631 
 Bq                    0.49833   0.92508  -1.01631 
 Bq                    0.48336   0.89471  -1.01631 
 Bq                    0.47247   0.86265  -1.01631 
 Bq                    0.46587   0.82945  -1.01631 
 Bq                    0.46365   0.79567  -1.01631 
 Bq                    0.46587   0.76188  -1.01631 
 Bq                    0.47247   0.72868  -1.01631 
 Bq                    0.48336   0.69662  -1.01631 
 Bq                    0.49833   0.66626  -1.01631 
 Bq                    0.51714   0.63811  -1.01631 
 Bq                    0.53946   0.61265  -1.01631 
 Bq                    0.56491   0.59033  -1.01631 
 Bq                    0.59306   0.57152  -1.01631 
 Bq                    0.62343   0.55655  -1.01631 
 Bq                    0.65549   0.54567  -1.01631 
 Bq                    0.68869   0.53906  -1.01631 
 Bq                    0.72247   0.53685  -1.01631 
 Bq                    0.75626   0.53906  -1.01631 
 Bq                    0.78946   0.54567  -1.01631 
 Bq                    0.82152   0.55655  -1.01631 
 Bq                    0.85188   0.57152  -1.01631 
 Bq                    0.88003   0.59033  -1.01631 
 Bq                    0.90549   0.61265  -1.01631 
 Bq                    0.92781   0.63811  -1.01631 
 Bq                    0.94662   0.66626  -1.01631 
 Bq                    0.96159   0.69662  -1.01631 
 Bq                    0.97247   0.72868  -1.01631 
 Bq                    0.97908   0.76188  -1.01631 
 Bq                    0.853     0.79567  -1.04183 
 Bq                    0.85188   0.8127   -1.04183 
 Bq                    0.84855   0.82945  -1.04183 
 Bq                    0.84306   0.84562  -1.04183 
 Bq                    0.83551   0.86093  -1.04183 
 Bq                    0.82603   0.87513  -1.04183 
 Bq                    0.81477   0.88796  -1.04183 
 Bq                    0.80193   0.89922  -1.04183 
 Bq                    0.78774   0.9087   -1.04183 
 Bq                    0.77242   0.91626  -1.04183 
 Bq                    0.75626   0.92174  -1.04183 
 Bq                    0.73951   0.92508  -1.04183 
 Bq                    0.72247   0.92619  -1.04183 
 Bq                    0.70544   0.92508  -1.04183 
 Bq                    0.68869   0.92174  -1.04183 
 Bq                    0.67252   0.91626  -1.04183 
 Bq                    0.65721   0.9087   -1.04183 
 Bq                    0.64301   0.89922  -1.04183 
 Bq                    0.63018   0.88796  -1.04183 
 Bq                    0.61892   0.87513  -1.04183 
 Bq                    0.60944   0.86093  -1.04183 
 Bq                    0.60188   0.84562  -1.04183 
 Bq                    0.5964    0.82945  -1.04183 
 Bq                    0.59306   0.8127   -1.04183 
 Bq                    0.59195   0.79567  -1.04183 
 Bq                    0.59306   0.77863  -1.04183 
 Bq                    0.5964    0.76188  -1.04183 
 Bq                    0.60188   0.74572  -1.04183 
 Bq                    0.60944   0.7304   -1.04183 
 
 NAtoms=    236 NQM=      236 NQMF=       0 NMMI=      0 NMMIF=      0
                NMic=       0 NMicF=      0.
                    Isotopes and Nuclear Properties:
 (Nuclear quadrupole moments (NQMom) in fm**2, nuclear magnetic moments (NMagM)
  in nuclear magnetons)

  Atom         1           2           3           4           5           6           7           8           9          10
 IAtWgt=          12          12          12          12          12          12          12          12          12          12
 AtmWgt=  12.0000000  12.0000000  12.0000000  12.0000000  12.0000000  12.0000000  12.0000000  12.0000000  12.0000000  12.0000000
 NucSpn=           0           0           0           0           0           0           0           0           0           0
 AtZEff=   0.0000000   0.0000000   0.0000000   0.0000000   0.0000000   0.0000000   0.0000000   0.0000000   0.0000000   0.0000000
 NQMom=    0.0000000   0.0000000   0.0000000   0.0000000   0.0000000   0.0000000   0.0000000   0.0000000   0.0000000   0.0000000
 NMagM=    0.0000000   0.0000000   0.0000000   0.0000000   0.0000000   0.0000000   0.0000000   0.0000000   0.0000000   0.0000000
 AtZNuc=   6.0000000   6.0000000   6.0000000   6.0000000   6.0000000   6.0000000   6.0000000   6.0000000   6.0000000   6.0000000

  Atom        11          12          13          14          15          16          17          18          19          20
 IAtWgt=           1           1           1           1          12          12          12          12           1           1
 AtmWgt=   1.0078250   1.0078250   1.0078250   1.0078250  12.0000000  12.0000000  12.0000000  12.0000000   1.0078250   1.0078250
 NucSpn=           1           1           1           1           0           0           0           0           1           1
 AtZEff=   0.0000000   0.0000000   0.0000000   0.0000000   0.0000000   0.0000000   0.0000000   0.0000000   0.0000000   0.0000000
 NQMom=    0.0000000   0.0000000   0.0000000   0.0000000   0.0000000   0.0000000   0.0000000   0.0000000   0.0000000   0.0000000
 NMagM=    2.7928460   2.7928460   2.7928460   2.7928460   0.0000000   0.0000000   0.0000000   0.0000000   2.7928460   2.7928460
 AtZNuc=   1.0000000   1.0000000   1.0000000   1.0000000   6.0000000   6.0000000   6.0000000   6.0000000   1.0000000   1.0000000

  Atom        21          22          23          24          25          26          27          28          29          30
 IAtWgt=           1           1          12          12          12          12          12          12          12          12
 AtmWgt=   1.0078250   1.0078250  12.0000000  12.0000000  12.0000000  12.0000000  12.0000000  12.0000000  12.0000000  12.0000000
 NucSpn=           1           1           0           0           0           0           0           0           0           0
 AtZEff=   0.0000000   0.0000000   0.0000000   0.0000000   0.0000000   0.0000000   0.0000000   0.0000000   0.0000000   0.0000000
 NQMom=    0.0000000   0.0000000   0.0000000   0.0000000   0.0000000   0.0000000   0.0000000   0.0000000   0.0000000   0.0000000
 NMagM=    2.7928460   2.7928460   0.0000000   0.0000000   0.0000000   0.0000000   0.0000000   0.0000000   0.0000000   0.0000000
 AtZNuc=   1.0000000   1.0000000   6.0000000   6.0000000   6.0000000   6.0000000   6.0000000   6.0000000   6.0000000   6.0000000

  Atom        31          32          33          34          35          36          37          38          39          40
 IAtWgt=           1           1           1           1           1           1           0           0           0           0
 AtmWgt=   1.0078250   1.0078250   1.0078250   1.0078250   1.0078250   1.0078250   0.0000000   0.0000000   0.0000000   0.0000000
 NucSpn=           1           1           1           1           1           1           0           0           0           0
 AtZEff=   0.0000000   0.0000000   0.0000000   0.0000000   0.0000000   0.0000000   0.0000000   0.0000000   0.0000000   0.0000000
 NQMom=    0.0000000   0.0000000   0.0000000   0.0000000   0.0000000   0.0000000   0.0000000   0.0000000   0.0000000   0.0000000
 NMagM=    2.7928460   2.7928460   2.7928460   2.7928460   2.7928460   2.7928460   0.0000000   0.0000000   0.0000000   0.0000000
 AtZNuc=   1.0000000   1.0000000   1.0000000   1.0000000   1.0000000   1.0000000   0.0000000   0.0000000   0.0000000   0.0000000

  Atom        41          42          43          44          45          46          47          48          49          50
 IAtWgt=           0           0           0           0           0           0           0           0           0           0
 AtmWgt=   0.0000000   0.0000000   0.0000000   0.0000000   0.0000000   0.0000000   0.0000000   0.0000000   0.0000000   0.0000000
 NucSpn=           0           0           0           0           0           0           0           0           0           0
 AtZEff=   0.0000000   0.0000000   0.0000000   0.0000000   0.0000000   0.0000000   0.0000000   0.0000000   0.0000000   0.0000000
 NQMom=    0.0000000   0.0000000   0.0000000   0.0000000   0.0000000   0.0000000   0.0000000   0.0000000   0.0000000   0.0000000
 NMagM=    0.0000000   0.0000000   0.0000000   0.0000000   0.0000000   0.0000000   0.0000000   0.0000000   0.0000000   0.0000000
 AtZNuc=   0.0000000   0.0000000   0.0000000   0.0000000   0.0000000   0.0000000   0.0000000   0.0000000   0.0000000   0.0000000

  Atom        51          52          53          54          55          56          57          58          59          60
 IAtWgt=           0           0           0           0           0           0           0           0           0           0
 AtmWgt=   0.0000000   0.0000000   0.0000000   0.0000000   0.0000000   0.0000000   0.0000000   0.0000000   0.0000000   0.0000000
 NucSpn=           0           0           0           0           0           0           0           0           0           0
 AtZEff=   0.0000000   0.0000000   0.0000000   0.0000000   0.0000000   0.0000000   0.0000000   0.0000000   0.0000000   0.0000000
 NQMom=    0.0000000   0.0000000   0.0000000   0.0000000   0.0000000   0.0000000   0.0000000   0.0000000   0.0000000   0.0000000
 NMagM=    0.0000000   0.0000000   0.0000000   0.0000000   0.0000000   0.0000000   0.0000000   0.0000000   0.0000000   0.0000000
 AtZNuc=   0.0000000   0.0000000   0.0000000   0.0000000   0.0000000   0.0000000   0.0000000   0.0000000   0.0000000   0.0000000

  Atom        61          62          63          64          65          66          67          68          69          70
 IAtWgt=           0           0           0           0           0           0           0           0           0           0
 AtmWgt=   0.0000000   0.0000000   0.0000000   0.0000000   0.0000000   0.0000000   0.0000000   0.0000000   0.0000000   0.0000000
 NucSpn=           0           0           0           0           0           0           0           0           0           0
 AtZEff=   0.0000000   0.0000000   0.0000000   0.0000000   0.0000000   0.0000000   0.0000000   0.0000000   0.0000000   0.0000000
 NQMom=    0.0000000   0.0000000   0.0000000   0.0000000   0.0000000   0.0000000   0.0000000   0.0000000   0.0000000   0.0000000
 NMagM=    0.0000000   0.0000000   0.0000000   0.0000000   0.0000000   0.0000000   0.0000000   0.0000000   0.0000000   0.0000000
 AtZNuc=   0.0000000   0.0000000   0.0000000   0.0000000   0.0000000   0.0000000   0.0000000   0.0000000   0.0000000   0.0000000

  Atom        71          72          73          74          75          76          77          78          79          80
 IAtWgt=           0           0           0           0           0           0           0           0           0           0
 AtmWgt=   0.0000000   0.0000000   0.0000000   0.0000000   0.0000000   0.0000000   0.0000000   0.0000000   0.0000000   0.0000000
 NucSpn=           0           0           0           0           0           0           0           0           0           0
 AtZEff=   0.0000000   0.0000000   0.0000000   0.0000000   0.0000000   0.0000000   0.0000000   0.0000000   0.0000000   0.0000000
 NQMom=    0.0000000   0.0000000   0.0000000   0.0000000   0.0000000   0.0000000   0.0000000   0.0000000   0.0000000   0.0000000
 NMagM=    0.0000000   0.0000000   0.0000000   0.0000000   0.0000000   0.0000000   0.0000000   0.0000000   0.0000000   0.0000000
 AtZNuc=   0.0000000   0.0000000   0.0000000   0.0000000   0.0000000   0.0000000   0.0000000   0.0000000   0.0000000   0.0000000

  Atom        81          82          83          84          85          86          87          88          89          90
 IAtWgt=           0           0           0           0           0           0           0           0           0           0
 AtmWgt=   0.0000000   0.0000000   0.0000000   0.0000000   0.0000000   0.0000000   0.0000000   0.0000000   0.0000000   0.0000000
 NucSpn=           0           0           0           0           0           0           0           0           0           0
 AtZEff=   0.0000000   0.0000000   0.0000000   0.0000000   0.0000000   0.0000000   0.0000000   0.0000000   0.0000000   0.0000000
 NQMom=    0.0000000   0.0000000   0.0000000   0.0000000   0.0000000   0.0000000   0.0000000   0.0000000   0.0000000   0.0000000
 NMagM=    0.0000000   0.0000000   0.0000000   0.0000000   0.0000000   0.0000000   0.0000000   0.0000000   0.0000000   0.0000000
 AtZNuc=   0.0000000   0.0000000   0.0000000   0.0000000   0.0000000   0.0000000   0.0000000   0.0000000   0.0000000   0.0000000

  Atom        91          92          93          94          95          96          97          98          99         100
 IAtWgt=           0           0           0           0           0           0           0           0           0           0
 AtmWgt=   0.0000000   0.0000000   0.0000000   0.0000000   0.0000000   0.0000000   0.0000000   0.0000000   0.0000000   0.0000000
 NucSpn=           0           0           0           0           0           0           0           0           0           0
 AtZEff=   0.0000000   0.0000000   0.0000000   0.0000000   0.0000000   0.0000000   0.0000000   0.0000000   0.0000000   0.0000000
 NQMom=    0.0000000   0.0000000   0.0000000   0.0000000   0.0000000   0.0000000   0.0000000   0.0000000   0.0000000   0.0000000
 NMagM=    0.0000000   0.0000000   0.0000000   0.0000000   0.0000000   0.0000000   0.0000000   0.0000000   0.0000000   0.0000000
 AtZNuc=   0.0000000   0.0000000   0.0000000   0.0000000   0.0000000   0.0000000   0.0000000   0.0000000   0.0000000   0.0000000

  Atom       101         102         103         104         105         106         107         108         109         110
 IAtWgt=           0           0           0           0           0           0           0           0           0           0
 AtmWgt=   0.0000000   0.0000000   0.0000000   0.0000000   0.0000000   0.0000000   0.0000000   0.0000000   0.0000000   0.0000000
 NucSpn=           0           0           0           0           0           0           0           0           0           0
 AtZEff=   0.0000000   0.0000000   0.0000000   0.0000000   0.0000000   0.0000000   0.0000000   0.0000000   0.0000000   0.0000000
 NQMom=    0.0000000   0.0000000   0.0000000   0.0000000   0.0000000   0.0000000   0.0000000   0.0000000   0.0000000   0.0000000
 NMagM=    0.0000000   0.0000000   0.0000000   0.0000000   0.0000000   0.0000000   0.0000000   0.0000000   0.0000000   0.0000000
 AtZNuc=   0.0000000   0.0000000   0.0000000   0.0000000   0.0000000   0.0000000   0.0000000   0.0000000   0.0000000   0.0000000

  Atom       111         112         113         114         115         116         117         118         119         120
 IAtWgt=           0           0           0           0           0           0           0           0           0           0
 AtmWgt=   0.0000000   0.0000000   0.0000000   0.0000000   0.0000000   0.0000000   0.0000000   0.0000000   0.0000000   0.0000000
 NucSpn=           0           0           0           0           0           0           0           0           0           0
 AtZEff=   0.0000000   0.0000000   0.0000000   0.0000000   0.0000000   0.0000000   0.0000000   0.0000000   0.0000000   0.0000000
 NQMom=    0.0000000   0.0000000   0.0000000   0.0000000   0.0000000   0.0000000   0.0000000   0.0000000   0.0000000   0.0000000
 NMagM=    0.0000000   0.0000000   0.0000000   0.0000000   0.0000000   0.0000000   0.0000000   0.0000000   0.0000000   0.0000000
 AtZNuc=   0.0000000   0.0000000   0.0000000   0.0000000   0.0000000   0.0000000   0.0000000   0.0000000   0.0000000   0.0000000

  Atom       121         122         123         124         125         126         127         128         129         130
 IAtWgt=           0           0           0           0           0           0           0           0           0           0
 AtmWgt=   0.0000000   0.0000000   0.0000000   0.0000000   0.0000000   0.0000000   0.0000000   0.0000000   0.0000000   0.0000000
 NucSpn=           0           0           0           0           0           0           0           0           0           0
 AtZEff=   0.0000000   0.0000000   0.0000000   0.0000000   0.0000000   0.0000000   0.0000000   0.0000000   0.0000000   0.0000000
 NQMom=    0.0000000   0.0000000   0.0000000   0.0000000   0.0000000   0.0000000   0.0000000   0.0000000   0.0000000   0.0000000
 NMagM=    0.0000000   0.0000000   0.0000000   0.0000000   0.0000000   0.0000000   0.0000000   0.0000000   0.0000000   0.0000000
 AtZNuc=   0.0000000   0.0000000   0.0000000   0.0000000   0.0000000   0.0000000   0.0000000   0.0000000   0.0000000   0.0000000

  Atom       131         132         133         134         135         136         137         138         139         140
 IAtWgt=           0           0           0           0           0           0           0           0           0           0
 AtmWgt=   0.0000000   0.0000000   0.0000000   0.0000000   0.0000000   0.0000000   0.0000000   0.0000000   0.0000000   0.0000000
 NucSpn=           0           0           0           0           0           0           0           0           0           0
 AtZEff=   0.0000000   0.0000000   0.0000000   0.0000000   0.0000000   0.0000000   0.0000000   0.0000000   0.0000000   0.0000000
 NQMom=    0.0000000   0.0000000   0.0000000   0.0000000   0.0000000   0.0000000   0.0000000   0.0000000   0.0000000   0.0000000
 NMagM=    0.0000000   0.0000000   0.0000000   0.0000000   0.0000000   0.0000000   0.0000000   0.0000000   0.0000000   0.0000000
 AtZNuc=   0.0000000   0.0000000   0.0000000   0.0000000   0.0000000   0.0000000   0.0000000   0.0000000   0.0000000   0.0000000

  Atom       141         142         143         144         145         146         147         148         149         150
 IAtWgt=           0           0           0           0           0           0           0           0           0           0
 AtmWgt=   0.0000000   0.0000000   0.0000000   0.0000000   0.0000000   0.0000000   0.0000000   0.0000000   0.0000000   0.0000000
 NucSpn=           0           0           0           0           0           0           0           0           0           0
 AtZEff=   0.0000000   0.0000000   0.0000000   0.0000000   0.0000000   0.0000000   0.0000000   0.0000000   0.0000000   0.0000000
 NQMom=    0.0000000   0.0000000   0.0000000   0.0000000   0.0000000   0.0000000   0.0000000   0.0000000   0.0000000   0.0000000
 NMagM=    0.0000000   0.0000000   0.0000000   0.0000000   0.0000000   0.0000000   0.0000000   0.0000000   0.0000000   0.0000000
 AtZNuc=   0.0000000   0.0000000   0.0000000   0.0000000   0.0000000   0.0000000   0.0000000   0.0000000   0.0000000   0.0000000

  Atom       151         152         153         154         155         156         157         158         159         160
 IAtWgt=           0           0           0           0           0           0           0           0           0           0
 AtmWgt=   0.0000000   0.0000000   0.0000000   0.0000000   0.0000000   0.0000000   0.0000000   0.0000000   0.0000000   0.0000000
 NucSpn=           0           0           0           0           0           0           0           0           0           0
 AtZEff=   0.0000000   0.0000000   0.0000000   0.0000000   0.0000000   0.0000000   0.0000000   0.0000000   0.0000000   0.0000000
 NQMom=    0.0000000   0.0000000   0.0000000   0.0000000   0.0000000   0.0000000   0.0000000   0.0000000   0.0000000   0.0000000
 NMagM=    0.0000000   0.0000000   0.0000000   0.0000000   0.0000000   0.0000000   0.0000000   0.0000000   0.0000000   0.0000000
 AtZNuc=   0.0000000   0.0000000   0.0000000   0.0000000   0.0000000   0.0000000   0.0000000   0.0000000   0.0000000   0.0000000

  Atom       161         162         163         164         165         166         167         168         169         170
 IAtWgt=           0           0           0           0           0           0           0           0           0           0
 AtmWgt=   0.0000000   0.0000000   0.0000000   0.0000000   0.0000000   0.0000000   0.0000000   0.0000000   0.0000000   0.0000000
 NucSpn=           0           0           0           0           0           0           0           0           0           0
 AtZEff=   0.0000000   0.0000000   0.0000000   0.0000000   0.0000000   0.0000000   0.0000000   0.0000000   0.0000000   0.0000000
 NQMom=    0.0000000   0.0000000   0.0000000   0.0000000   0.0000000   0.0000000   0.0000000   0.0000000   0.0000000   0.0000000
 NMagM=    0.0000000   0.0000000   0.0000000   0.0000000   0.0000000   0.0000000   0.0000000   0.0000000   0.0000000   0.0000000
 AtZNuc=   0.0000000   0.0000000   0.0000000   0.0000000   0.0000000   0.0000000   0.0000000   0.0000000   0.0000000   0.0000000

  Atom       171         172         173         174         175         176         177         178         179         180
 IAtWgt=           0           0           0           0           0           0           0           0           0           0
 AtmWgt=   0.0000000   0.0000000   0.0000000   0.0000000   0.0000000   0.0000000   0.0000000   0.0000000   0.0000000   0.0000000
 NucSpn=           0           0           0           0           0           0           0           0           0           0
 AtZEff=   0.0000000   0.0000000   0.0000000   0.0000000   0.0000000   0.0000000   0.0000000   0.0000000   0.0000000   0.0000000
 NQMom=    0.0000000   0.0000000   0.0000000   0.0000000   0.0000000   0.0000000   0.0000000   0.0000000   0.0000000   0.0000000
 NMagM=    0.0000000   0.0000000   0.0000000   0.0000000   0.0000000   0.0000000   0.0000000   0.0000000   0.0000000   0.0000000
 AtZNuc=   0.0000000   0.0000000   0.0000000   0.0000000   0.0000000   0.0000000   0.0000000   0.0000000   0.0000000   0.0000000

  Atom       181         182         183         184         185         186         187         188         189         190
 IAtWgt=           0           0           0           0           0           0           0           0           0           0
 AtmWgt=   0.0000000   0.0000000   0.0000000   0.0000000   0.0000000   0.0000000   0.0000000   0.0000000   0.0000000   0.0000000
 NucSpn=           0           0           0           0           0           0           0           0           0           0
 AtZEff=   0.0000000   0.0000000   0.0000000   0.0000000   0.0000000   0.0000000   0.0000000   0.0000000   0.0000000   0.0000000
 NQMom=    0.0000000   0.0000000   0.0000000   0.0000000   0.0000000   0.0000000   0.0000000   0.0000000   0.0000000   0.0000000
 NMagM=    0.0000000   0.0000000   0.0000000   0.0000000   0.0000000   0.0000000   0.0000000   0.0000000   0.0000000   0.0000000
 AtZNuc=   0.0000000   0.0000000   0.0000000   0.0000000   0.0000000   0.0000000   0.0000000   0.0000000   0.0000000   0.0000000

  Atom       191         192         193         194         195         196         197         198         199         200
 IAtWgt=           0           0           0           0           0           0           0           0           0           0
 AtmWgt=   0.0000000   0.0000000   0.0000000   0.0000000   0.0000000   0.0000000   0.0000000   0.0000000   0.0000000   0.0000000
 NucSpn=           0           0           0           0           0           0           0           0           0           0
 AtZEff=   0.0000000   0.0000000   0.0000000   0.0000000   0.0000000   0.0000000   0.0000000   0.0000000   0.0000000   0.0000000
 NQMom=    0.0000000   0.0000000   0.0000000   0.0000000   0.0000000   0.0000000   0.0000000   0.0000000   0.0000000   0.0000000
 NMagM=    0.0000000   0.0000000   0.0000000   0.0000000   0.0000000   0.0000000   0.0000000   0.0000000   0.0000000   0.0000000
 AtZNuc=   0.0000000   0.0000000   0.0000000   0.0000000   0.0000000   0.0000000   0.0000000   0.0000000   0.0000000   0.0000000

  Atom       201         202         203         204         205         206         207         208         209         210
 IAtWgt=           0           0           0           0           0           0           0           0           0           0
 AtmWgt=   0.0000000   0.0000000   0.0000000   0.0000000   0.0000000   0.0000000   0.0000000   0.0000000   0.0000000   0.0000000
 NucSpn=           0           0           0           0           0           0           0           0           0           0
 AtZEff=   0.0000000   0.0000000   0.0000000   0.0000000   0.0000000   0.0000000   0.0000000   0.0000000   0.0000000   0.0000000
 NQMom=    0.0000000   0.0000000   0.0000000   0.0000000   0.0000000   0.0000000   0.0000000   0.0000000   0.0000000   0.0000000
 NMagM=    0.0000000   0.0000000   0.0000000   0.0000000   0.0000000   0.0000000   0.0000000   0.0000000   0.0000000   0.0000000
 AtZNuc=   0.0000000   0.0000000   0.0000000   0.0000000   0.0000000   0.0000000   0.0000000   0.0000000   0.0000000   0.0000000

  Atom       211         212         213         214         215         216         217         218         219         220
 IAtWgt=           0           0           0           0           0           0           0           0           0           0
 AtmWgt=   0.0000000   0.0000000   0.0000000   0.0000000   0.0000000   0.0000000   0.0000000   0.0000000   0.0000000   0.0000000
 NucSpn=           0           0           0           0           0           0           0           0           0           0
 AtZEff=   0.0000000   0.0000000   0.0000000   0.0000000   0.0000000   0.0000000   0.0000000   0.0000000   0.0000000   0.0000000
 NQMom=    0.0000000   0.0000000   0.0000000   0.0000000   0.0000000   0.0000000   0.0000000   0.0000000   0.0000000   0.0000000
 NMagM=    0.0000000   0.0000000   0.0000000   0.0000000   0.0000000   0.0000000   0.0000000   0.0000000   0.0000000   0.0000000
 AtZNuc=   0.0000000   0.0000000   0.0000000   0.0000000   0.0000000   0.0000000   0.0000000   0.0000000   0.0000000   0.0000000

  Atom       221         222         223         224         225         226         227         228         229         230
 IAtWgt=           0           0           0           0           0           0           0           0           0           0
 AtmWgt=   0.0000000   0.0000000   0.0000000   0.0000000   0.0000000   0.0000000   0.0000000   0.0000000   0.0000000   0.0000000
 NucSpn=           0           0           0           0           0           0           0           0           0           0
 AtZEff=   0.0000000   0.0000000   0.0000000   0.0000000   0.0000000   0.0000000   0.0000000   0.0000000   0.0000000   0.0000000
 NQMom=    0.0000000   0.0000000   0.0000000   0.0000000   0.0000000   0.0000000   0.0000000   0.0000000   0.0000000   0.0000000
 NMagM=    0.0000000   0.0000000   0.0000000   0.0000000   0.0000000   0.0000000   0.0000000   0.0000000   0.0000000   0.0000000
 AtZNuc=   0.0000000   0.0000000   0.0000000   0.0000000   0.0000000   0.0000000   0.0000000   0.0000000   0.0000000   0.0000000

  Atom       231         232         233         234         235         236
 IAtWgt=           0           0           0           0           0           0
 AtmWgt=   0.0000000   0.0000000   0.0000000   0.0000000   0.0000000   0.0000000
 NucSpn=           0           0           0           0           0           0
 AtZEff=   0.0000000   0.0000000   0.0000000   0.0000000   0.0000000   0.0000000
 NQMom=    0.0000000   0.0000000   0.0000000   0.0000000   0.0000000   0.0000000
 NMagM=    0.0000000   0.0000000   0.0000000   0.0000000   0.0000000   0.0000000
 AtZNuc=   0.0000000   0.0000000   0.0000000   0.0000000   0.0000000   0.0000000
 Leave Link  101 at Tue Sep 15 10:40:01 2020, MaxMem=   131072000 cpu:         4.4
 (Enter /share/programs/GAUSSIAN/64/g09/l202.exe)
 Symmetry turned off:
 Cannot cope with ghost atoms or with translation vectors.
 Stoichiometry    C22H14
 Framework group  C1[X(C22H14)]
 NUMDOF-- NAT=    36 NAtoms=   236
 Deg. of freedom     0
 Full point group                 C1      NOp   1
                          Input orientation:                          
 ---------------------------------------------------------------------
 Center     Atomic      Atomic             Coordinates (Angstroms)
 Number     Number       Type             X           Y           Z
 ---------------------------------------------------------------------
      1          6           0        0.653241    3.257859   -0.202510
      2          6           0       -0.653243    3.257860    0.202510
      3          6           0        1.372495    2.032956   -0.320807
      4          6           0       -1.372495    2.032956    0.320807
      5          6           0        0.722474    0.795666   -0.050388
      6          6           0       -0.722474    0.795667    0.050387
      7          6           0        2.760385    2.053927   -0.674268
      8          6           0        3.508866    0.913916   -0.671362
      9          6           0        2.955226   -0.309622   -0.177479
     10          6           0        1.574722   -0.361114    0.197094
     11          1           0        1.183427    4.195740   -0.384599
     12          1           0       -1.183429    4.195740    0.384599
     13          1           0        3.206283    3.012423   -0.951392
     14          1           0        4.560023    0.932956   -0.969333
     15          6           0        3.783020   -1.443098    0.028309
     16          6           0        1.137427   -1.507533    0.912109
     17          6           0        1.973691   -2.584349    1.138062
     18          6           0        3.301853   -2.571588    0.661177
     19          1           0        4.825754   -1.391230   -0.295484
     20          1           0        0.124652   -1.532788    1.308472
     21          1           0        1.603586   -3.445682    1.698977
     22          1           0        3.952742   -3.433526    0.825134
     23          6           0       -3.508866    0.913915    0.671362
     24          6           0       -2.760386    2.053926    0.674268
     25          6           0       -2.955226   -0.309623    0.177479
     26          6           0       -1.574722   -0.361114   -0.197094
     27          6           0       -3.783020   -1.443099   -0.028309
     28          6           0       -3.301852   -2.571589   -0.661177
     29          6           0       -1.973690   -2.584349   -1.138061
     30          6           0       -1.137426   -1.507534   -0.912109
     31          1           0       -4.560022    0.932954    0.969334
     32          1           0       -3.206283    3.012421    0.951392
     33          1           0       -4.825754   -1.391232    0.295484
     34          1           0       -3.952741   -3.433528   -0.825134
     35          1           0       -1.603585   -3.445682   -1.698976
     36          1           0       -0.124652   -1.532788   -1.308471
     37          0           0        0.722474    1.404427   -0.843741
     38          0           0        0.643015    1.399219   -0.843741
     39          0           0        0.564915    1.383684   -0.843741
     40          0           0        0.489511    1.358088   -0.843741
     41          0           0        0.418093    1.322869   -0.843741
     42          0           0        0.351884    1.278629   -0.843741
     43          0           0        0.292015    1.226125   -0.843741
     44          0           0        0.239511    1.166256   -0.843741
     45          0           0        0.195271    1.100047   -0.843741
     46          0           0        0.160052    1.028629   -0.843741
     47          0           0        0.134456    0.953225   -0.843741
     48          0           0        0.118921    0.875125   -0.843741
     49          0           0        0.113713    0.795666   -0.843741
     50          0           0        0.564915    0.207648   -0.843741
     51          0           0        0.643015    0.192113   -0.843741
     52          0           0        0.722474    0.186905   -0.843741
     53          0           0        0.801933    0.192113   -0.843741
     54          0           0        0.880033    0.207648   -0.843741
     55          0           0        0.955437    0.233244   -0.843741
     56          0           0        1.026855    0.268463   -0.843741
     57          0           0        1.093064    0.312703   -0.843741
     58          0           0        1.152933    0.365207   -0.843741
     59          0           0        1.205437    0.425076   -0.843741
     60          0           0        1.249677    0.491285   -0.843741
     61          0           0        1.284896    0.562703   -0.843741
     62          0           0        1.310492    0.638107   -0.843741
     63          0           0        1.326027    0.716207   -0.843741
     64          0           0        1.222474    0.795666   -0.916413
     65          0           0        1.218196    0.860929   -0.916413
     66          0           0        1.205437    0.925076   -0.916413
     67          0           0        1.184414    0.987008   -0.916413
     68          0           0        1.155487    1.045666   -0.916413
     69          0           0        1.119151    1.100047   -0.916413
     70          0           0        1.076027    1.149219   -0.916413
     71          0           0        1.026855    1.192343   -0.916413
     72          0           0        0.972474    1.228679   -0.916413
     73          0           0        0.913816    1.257606   -0.916413
     74          0           0        0.851884    1.278629   -0.916413
     75          0           0        0.787737    1.291388   -0.916413
     76          0           0        0.722474    1.295666   -0.916413
     77          0           0        0.657211    1.291388   -0.916413
     78          0           0        0.593064    1.278629   -0.916413
     79          0           0        0.531132    1.257606   -0.916413
     80          0           0        0.472474    1.228679   -0.916413
     81          0           0        0.418093    1.192343   -0.916413
     82          0           0        0.368921    1.149219   -0.916413
     83          0           0        0.325797    1.100047   -0.916413
     84          0           0        0.289461    1.045666   -0.916413
     85          0           0        0.260534    0.987008   -0.916413
     86          0           0        0.239511    0.925076   -0.916413
     87          0           0        0.226752    0.860929   -0.916413
     88          0           0        0.222474    0.795666   -0.916413
     89          0           0        0.226752    0.730403   -0.916413
     90          0           0        0.239511    0.666256   -0.916413
     91          0           0        0.260534    0.604324   -0.916413
     92          0           0        0.289461    0.545666   -0.916413
     93          0           0        0.325797    0.491285   -0.916413
     94          0           0        0.368921    0.442113   -0.916413
     95          0           0        0.418093    0.398989   -0.916413
     96          0           0        0.472474    0.362653   -0.916413
     97          0           0        0.531132    0.333726   -0.916413
     98          0           0        0.593064    0.312703   -0.916413
     99          0           0        0.657211    0.299944   -0.916413
    100          0           0        0.722474    0.295666   -0.916413
    101          0           0        0.787737    0.299944   -0.916413
    102          0           0        0.851884    0.312703   -0.916413
    103          0           0        0.913816    0.333726   -0.916413
    104          0           0        0.972474    0.362653   -0.916413
    105          0           0        1.026855    0.398989   -0.916413
    106          0           0        1.076027    0.442113   -0.916413
    107          0           0        1.119151    0.491285   -0.916413
    108          0           0        1.155487    0.545666   -0.916413
    109          0           0        1.184414    0.604324   -0.916413
    110          0           0        1.205437    0.666256   -0.916413
    111          0           0        1.218196    0.730403   -0.916413
    112          0           0        1.105157    0.795666   -0.974268
    113          0           0        1.101884    0.845616   -0.974268
    114          0           0        1.092118    0.894712   -0.974268
    115          0           0        1.076027    0.942113   -0.974268
    116          0           0        1.053888    0.987008   -0.974268
    117          0           0        1.026077    1.028629   -0.974268
    118          0           0        0.993072    1.066264   -0.974268
    119          0           0        0.955437    1.099269   -0.974268
    120          0           0        0.913816    1.127080   -0.974268
    121          0           0        0.868921    1.149219   -0.974268
    122          0           0        0.821520    1.165310   -0.974268
    123          0           0        0.772424    1.175076   -0.974268
    124          0           0        0.722474    1.178349   -0.974268
    125          0           0        0.672524    1.175076   -0.974268
    126          0           0        0.623428    1.165310   -0.974268
    127          0           0        0.576027    1.149219   -0.974268
    128          0           0        0.531132    1.127080   -0.974268
    129          0           0        0.489511    1.099269   -0.974268
    130          0           0        0.451876    1.066264   -0.974268
    131          0           0        0.418871    1.028629   -0.974268
    132          0           0        0.391060    0.987008   -0.974268
    133          0           0        0.368921    0.942113   -0.974268
    134          0           0        0.352830    0.894712   -0.974268
    135          0           0        0.343064    0.845616   -0.974268
    136          0           0        0.339791    0.795666   -0.974268
    137          0           0        0.343064    0.745716   -0.974268
    138          0           0        0.352830    0.696620   -0.974268
    139          0           0        0.368921    0.649219   -0.974268
    140          0           0        0.391060    0.604324   -0.974268
    141          0           0        0.418871    0.562703   -0.974268
    142          0           0        0.451876    0.525068   -0.974268
    143          0           0        0.489511    0.492063   -0.974268
    144          0           0        0.531132    0.464252   -0.974268
    145          0           0        0.576027    0.442113   -0.974268
    146          0           0        0.623428    0.426022   -0.974268
    147          0           0        0.672524    0.416256   -0.974268
    148          0           0        0.722474    0.412983   -0.974268
    149          0           0        0.772424    0.416256   -0.974268
    150          0           0        0.821520    0.426022   -0.974268
    151          0           0        0.868921    0.442113   -0.974268
    152          0           0        0.913816    0.464252   -0.974268
    153          0           0        0.955437    0.492063   -0.974268
    154          0           0        0.993072    0.525068   -0.974268
    155          0           0        1.026077    0.562703   -0.974268
    156          0           0        1.053888    0.604324   -0.974268
    157          0           0        1.076027    0.649219   -0.974268
    158          0           0        1.092118    0.696620   -0.974268
    159          0           0        1.101884    0.745716   -0.974268
    160          0           0        0.981293    0.795666   -1.016314
    161          0           0        0.979079    0.829449   -1.016314
    162          0           0        0.972474    0.862653   -1.016314
    163          0           0        0.961592    0.894712   -1.016314
    164          0           0        0.946618    0.925076   -1.016314
    165          0           0        0.927809    0.953225   -1.016314
    166          0           0        0.905487    0.978679   -1.016314
    167          0           0        0.880033    1.001001   -1.016314
    168          0           0        0.851884    1.019810   -1.016314
    169          0           0        0.821520    1.034784   -1.016314
    170          0           0        0.789461    1.045666   -1.016314
    171          0           0        0.756257    1.052271   -1.016314
    172          0           0        0.722474    1.054485   -1.016314
    173          0           0        0.688691    1.052271   -1.016314
    174          0           0        0.655487    1.045666   -1.016314
    175          0           0        0.623428    1.034784   -1.016314
    176          0           0        0.593064    1.019810   -1.016314
    177          0           0        0.564915    1.001001   -1.016314
    178          0           0        0.539461    0.978679   -1.016314
    179          0           0        0.517139    0.953225   -1.016314
    180          0           0        0.498330    0.925076   -1.016314
    181          0           0        0.483356    0.894712   -1.016314
    182          0           0        0.472474    0.862653   -1.016314
    183          0           0        0.465869    0.829449   -1.016314
    184          0           0        0.463655    0.795666   -1.016314
    185          0           0        0.465869    0.761883   -1.016314
    186          0           0        0.472474    0.728679   -1.016314
    187          0           0        0.483356    0.696620   -1.016314
    188          0           0        0.498330    0.666256   -1.016314
    189          0           0        0.517139    0.638107   -1.016314
    190          0           0        0.539461    0.612653   -1.016314
    191          0           0        0.564915    0.590331   -1.016314
    192          0           0        0.593064    0.571522   -1.016314
    193          0           0        0.623428    0.556548   -1.016314
    194          0           0        0.655487    0.545666   -1.016314
    195          0           0        0.688691    0.539061   -1.016314
    196          0           0        0.722474    0.536847   -1.016314
    197          0           0        0.756257    0.539061   -1.016314
    198          0           0        0.789461    0.545666   -1.016314
    199          0           0        0.821520    0.556548   -1.016314
    200          0           0        0.851884    0.571522   -1.016314
    201          0           0        0.880033    0.590331   -1.016314
    202          0           0        0.905487    0.612653   -1.016314
    203          0           0        0.927809    0.638107   -1.016314
    204          0           0        0.946618    0.666256   -1.016314
    205          0           0        0.961592    0.696620   -1.016314
    206          0           0        0.972474    0.728679   -1.016314
    207          0           0        0.979079    0.761883   -1.016314
    208          0           0        0.853000    0.795666   -1.041833
    209          0           0        0.851884    0.812703   -1.041833
    210          0           0        0.848553    0.829449   -1.041833
    211          0           0        0.843064    0.845616   -1.041833
    212          0           0        0.835513    0.860929   -1.041833
    213          0           0        0.826027    0.875125   -1.041833
    214          0           0        0.814770    0.887962   -1.041833
    215          0           0        0.801933    0.899219   -1.041833
    216          0           0        0.787737    0.908705   -1.041833
    217          0           0        0.772424    0.916256   -1.041833
    218          0           0        0.756257    0.921745   -1.041833
    219          0           0        0.739511    0.925076   -1.041833
    220          0           0        0.722474    0.926192   -1.041833
    221          0           0        0.705437    0.925076   -1.041833
    222          0           0        0.688691    0.921745   -1.041833
    223          0           0        0.672524    0.916256   -1.041833
    224          0           0        0.657211    0.908705   -1.041833
    225          0           0        0.643015    0.899219   -1.041833
    226          0           0        0.630178    0.887962   -1.041833
    227          0           0        0.618921    0.875125   -1.041833
    228          0           0        0.609435    0.860929   -1.041833
    229          0           0        0.601884    0.845616   -1.041833
    230          0           0        0.596395    0.829449   -1.041833
    231          0           0        0.593064    0.812703   -1.041833
    232          0           0        0.591948    0.795666   -1.041833
    233          0           0        0.593064    0.778629   -1.041833
    234          0           0        0.596395    0.761883   -1.041833
    235          0           0        0.601884    0.745716   -1.041833
    236          0           0        0.609435    0.730403   -1.041833
 ---------------------------------------------------------------------
 Rotational constants (GHZ):      0.4454681      0.2811480      0.1854303
 Leave Link  202 at Tue Sep 15 10:40:01 2020, MaxMem=   131072000 cpu:         0.0
 (Enter /share/programs/GAUSSIAN/64/g09/l301.exe)
 Standard basis: 6-311+G(d,p) (5D, 7F)
 Warning:  center  37 has no basis functions!
 Warning:  center  38 has no basis functions!
 Warning:  center  39 has no basis functions!
 Warning:  center  40 has no basis functions!
 Warning:  center  41 has no basis functions!
 Warning:  center  42 has no basis functions!
 Warning:  center  43 has no basis functions!
 Warning:  center  44 has no basis functions!
 Warning:  center  45 has no basis functions!
 Warning:  center  46 has no basis functions!
 Warning:  center  47 has no basis functions!
 Warning:  center  48 has no basis functions!
 Warning:  center  49 has no basis functions!
 Warning:  center  50 has no basis functions!
 Warning:  center  51 has no basis functions!
 Warning:  center  52 has no basis functions!
 Warning:  center  53 has no basis functions!
 Warning:  center  54 has no basis functions!
 Warning:  center  55 has no basis functions!
 Warning:  center  56 has no basis functions!
 Warning:  center  57 has no basis functions!
 Warning:  center  58 has no basis functions!
 Warning:  center  59 has no basis functions!
 Warning:  center  60 has no basis functions!
 Warning:  center  61 has no basis functions!
 Warning:  center  62 has no basis functions!
 Warning:  center  63 has no basis functions!
 Warning:  center  64 has no basis functions!
 Warning:  center  65 has no basis functions!
 Warning:  center  66 has no basis functions!
 Warning:  center  67 has no basis functions!
 Warning:  center  68 has no basis functions!
 Warning:  center  69 has no basis functions!
 Warning:  center  70 has no basis functions!
 Warning:  center  71 has no basis functions!
 Warning:  center  72 has no basis functions!
 Warning:  center  73 has no basis functions!
 Warning:  center  74 has no basis functions!
 Warning:  center  75 has no basis functions!
 Warning:  center  76 has no basis functions!
 Warning:  center  77 has no basis functions!
 Warning:  center  78 has no basis functions!
 Warning:  center  79 has no basis functions!
 Warning:  center  80 has no basis functions!
 Warning:  center  81 has no basis functions!
 Warning:  center  82 has no basis functions!
 Warning:  center  83 has no basis functions!
 Warning:  center  84 has no basis functions!
 Warning:  center  85 has no basis functions!
 Warning:  center  86 has no basis functions!
 Warning:  center  87 has no basis functions!
 Warning:  center  88 has no basis functions!
 Warning:  center  89 has no basis functions!
 Warning:  center  90 has no basis functions!
 Warning:  center  91 has no basis functions!
 Warning:  center  92 has no basis functions!
 Warning:  center  93 has no basis functions!
 Warning:  center  94 has no basis functions!
 Warning:  center  95 has no basis functions!
 Warning:  center  96 has no basis functions!
 Warning:  center  97 has no basis functions!
 Warning:  center  98 has no basis functions!
 Warning:  center  99 has no basis functions!
 Warning:  center 100 has no basis functions!
 Warning:  center 101 has no basis functions!
 Warning:  center 102 has no basis functions!
 Warning:  center 103 has no basis functions!
 Warning:  center 104 has no basis functions!
 Warning:  center 105 has no basis functions!
 Warning:  center 106 has no basis functions!
 Warning:  center 107 has no basis functions!
 Warning:  center 108 has no basis functions!
 Warning:  center 109 has no basis functions!
 Warning:  center 110 has no basis functions!
 Warning:  center 111 has no basis functions!
 Warning:  center 112 has no basis functions!
 Warning:  center 113 has no basis functions!
 Warning:  center 114 has no basis functions!
 Warning:  center 115 has no basis functions!
 Warning:  center 116 has no basis functions!
 Warning:  center 117 has no basis functions!
 Warning:  center 118 has no basis functions!
 Warning:  center 119 has no basis functions!
 Warning:  center 120 has no basis functions!
 Warning:  center 121 has no basis functions!
 Warning:  center 122 has no basis functions!
 Warning:  center 123 has no basis functions!
 Warning:  center 124 has no basis functions!
 Warning:  center 125 has no basis functions!
 Warning:  center 126 has no basis functions!
 Warning:  center 127 has no basis functions!
 Warning:  center 128 has no basis functions!
 Warning:  center 129 has no basis functions!
 Warning:  center 130 has no basis functions!
 Warning:  center 131 has no basis functions!
 Warning:  center 132 has no basis functions!
 Warning:  center 133 has no basis functions!
 Warning:  center 134 has no basis functions!
 Warning:  center 135 has no basis functions!
 Warning:  center 136 has no basis functions!
 Warning:  center 137 has no basis functions!
 Warning:  center 138 has no basis functions!
 Warning:  center 139 has no basis functions!
 Warning:  center 140 has no basis functions!
 Warning:  center 141 has no basis functions!
 Warning:  center 142 has no basis functions!
 Warning:  center 143 has no basis functions!
 Warning:  center 144 has no basis functions!
 Warning:  center 145 has no basis functions!
 Warning:  center 146 has no basis functions!
 Warning:  center 147 has no basis functions!
 Warning:  center 148 has no basis functions!
 Warning:  center 149 has no basis functions!
 Warning:  center 150 has no basis functions!
 Warning:  center 151 has no basis functions!
 Warning:  center 152 has no basis functions!
 Warning:  center 153 has no basis functions!
 Warning:  center 154 has no basis functions!
 Warning:  center 155 has no basis functions!
 Warning:  center 156 has no basis functions!
 Warning:  center 157 has no basis functions!
 Warning:  center 158 has no basis functions!
 Warning:  center 159 has no basis functions!
 Warning:  center 160 has no basis functions!
 Warning:  center 161 has no basis functions!
 Warning:  center 162 has no basis functions!
 Warning:  center 163 has no basis functions!
 Warning:  center 164 has no basis functions!
 Warning:  center 165 has no basis functions!
 Warning:  center 166 has no basis functions!
 Warning:  center 167 has no basis functions!
 Warning:  center 168 has no basis functions!
 Warning:  center 169 has no basis functions!
 Warning:  center 170 has no basis functions!
 Warning:  center 171 has no basis functions!
 Warning:  center 172 has no basis functions!
 Warning:  center 173 has no basis functions!
 Warning:  center 174 has no basis functions!
 Warning:  center 175 has no basis functions!
 Warning:  center 176 has no basis functions!
 Warning:  center 177 has no basis functions!
 Warning:  center 178 has no basis functions!
 Warning:  center 179 has no basis functions!
 Warning:  center 180 has no basis functions!
 Warning:  center 181 has no basis functions!
 Warning:  center 182 has no basis functions!
 Warning:  center 183 has no basis functions!
 Warning:  center 184 has no basis functions!
 Warning:  center 185 has no basis functions!
 Warning:  center 186 has no basis functions!
 Warning:  center 187 has no basis functions!
 Warning:  center 188 has no basis functions!
 Warning:  center 189 has no basis functions!
 Warning:  center 190 has no basis functions!
 Warning:  center 191 has no basis functions!
 Warning:  center 192 has no basis functions!
 Warning:  center 193 has no basis functions!
 Warning:  center 194 has no basis functions!
 Warning:  center 195 has no basis functions!
 Warning:  center 196 has no basis functions!
 Warning:  center 197 has no basis functions!
 Warning:  center 198 has no basis functions!
 Warning:  center 199 has no basis functions!
 Warning:  center 200 has no basis functions!
 Warning:  center 201 has no basis functions!
 Warning:  center 202 has no basis functions!
 Warning:  center 203 has no basis functions!
 Warning:  center 204 has no basis functions!
 Warning:  center 205 has no basis functions!
 Warning:  center 206 has no basis functions!
 Warning:  center 207 has no basis functions!
 Warning:  center 208 has no basis functions!
 Warning:  center 209 has no basis functions!
 Warning:  center 210 has no basis functions!
 Warning:  center 211 has no basis functions!
 Warning:  center 212 has no basis functions!
 Warning:  center 213 has no basis functions!
 Warning:  center 214 has no basis functions!
 Warning:  center 215 has no basis functions!
 Warning:  center 216 has no basis functions!
 Warning:  center 217 has no basis functions!
 Warning:  center 218 has no basis functions!
 Warning:  center 219 has no basis functions!
 Warning:  center 220 has no basis functions!
 Warning:  center 221 has no basis functions!
 Warning:  center 222 has no basis functions!
 Warning:  center 223 has no basis functions!
 Warning:  center 224 has no basis functions!
 Warning:  center 225 has no basis functions!
 Warning:  center 226 has no basis functions!
 Warning:  center 227 has no basis functions!
 Warning:  center 228 has no basis functions!
 Warning:  center 229 has no basis functions!
 Warning:  center 230 has no basis functions!
 Warning:  center 231 has no basis functions!
 Warning:  center 232 has no basis functions!
 Warning:  center 233 has no basis functions!
 Warning:  center 234 has no basis functions!
 Warning:  center 235 has no basis functions!
 Warning:  center 236 has no basis functions!
 Ernie: Thresh=  0.10000D-02 Tol=  0.10000D-05 Strict=F.
   568 basis functions,   904 primitive gaussians,   590 cartesian basis functions
    73 alpha electrons       73 beta electrons
       nuclear repulsion energy      1599.9156270972 Hartrees.
 IExCor=  402 DFT=T Ex+Corr=B3LYP ExCW=0 ScaHFX=  0.200000
 ScaDFX=  0.800000  0.720000  1.000000  0.810000 ScalE2=  1.000000  1.000000
 IRadAn=      0 IRanWt=     -1 IRanGd=            0 ICorTp=0 IEmpDi=  4
 NAtoms=  236 NActive=  236 NUniq=  236 SFac= 1.00D+00 NAtFMM=   60 NAOKFM=T Big=T
 Integral buffers will be    131072 words long.
 Raffenetti 2 integral format.
 Two-electron integral symmetry is turned off.
 Leave Link  301 at Tue Sep 15 10:40:01 2020, MaxMem=   131072000 cpu:         0.5
 (Enter /share/programs/GAUSSIAN/64/g09/l302.exe)
 NPDir=0 NMtPBC=     1 NCelOv=     1 NCel=       1 NClECP=     1 NCelD=      1
         NCelK=      1 NCelE2=     1 NClLst=     1 CellRange=     0.0.
 One-electron integrals computed using PRISM.
 NBasis=   568 RedAO= T EigKep=  1.01D-06  NBF=   568
 NBsUse=   557 1.00D-06 EigRej=  9.19D-07 NBFU=   557
 Precomputing XC quadrature grid using
 IXCGrd= 4 IRadAn=           0 IRanWt=          -1 IRanGd=           0 AccXCQ= 0.00D+00.
 Generated NRdTot=       0 NPtTot=           0 NUsed=           0 NTot=          32
 NSgBfM=   587   588   588   589   589 MxSgAt=   236 MxSgA2=    36.
 Leave Link  302 at Tue Sep 15 10:40:04 2020, MaxMem=   131072000 cpu:        21.5
 (Enter /share/programs/GAUSSIAN/64/g09/l308.exe)
 Leave Link  308 at Tue Sep 15 10:40:04 2020, MaxMem=   131072000 cpu:         1.1
 (Enter /share/programs/GAUSSIAN/64/g09/l303.exe)
 DipDrv:  MaxL=1.
 Leave Link  303 at Tue Sep 15 10:40:04 2020, MaxMem=   131072000 cpu:         0.8
 (Enter /share/programs/GAUSSIAN/64/g09/l401.exe)
 Initial guess from the checkpoint file:  "/scratch/aartigas.38790/Gau-3240888.chk"
 Skipping rotation of guess because NAtoms(RWF)=  236 differs from NAtoms(Chk)=   36.
 Guess basis will be translated and rotated to current coordinates.
 JPrj=2 DoOrth=T DoCkMO=T.
 Leave Link  401 at Tue Sep 15 10:40:08 2020, MaxMem=   131072000 cpu:        16.4
 (Enter /share/programs/GAUSSIAN/64/g09/l502.exe)
 Closed shell SCF:
 Using DIIS extrapolation, IDIIS=  1040.
 Two-electron integral symmetry not used.
 IVT=     1071582 IEndB=     1071582 NGot=   131072000 MDV=   130365749
 LenX=   130365749 LenY=   130017059
 Requested convergence on RMS density matrix=1.00D-08 within 128 cycles.
 Requested convergence on MAX density matrix=1.00D-06.
 Requested convergence on             energy=1.00D-06.
 No special actions if energy rises.
 Fock matrices will be formed incrementally for  20 cycles.

 Cycle   1  Pass 1  IDiag  1:
 FoFJK:  IHMeth= 1 ICntrl=       0 DoSepK=F KAlg= 0 I1Cent=   0 FoldK=F
 IRaf= 940000000 NMat=   1 IRICut=       1 DoRegI=T DoRafI=F ISym2E= 0.
 FoFCou: FMM=T IPFlag=           0 FMFlag=      100000 FMFlg1=        2001
         NFxFlg=           0 DoJE=F BraDBF=F KetDBF=F FulRan=T
         wScrn=  0.000000 ICntrl=       0 IOpCl=  0 I1Cent=           0 NGrid=           0
         NMat0=    1 NMatS0=      1 NMatT0=    0 NMatD0=    1 NMtDS0=    0 NMtDT0=    0
 Symmetry not used in FoFCou.
 FMM levels:  10  Number of levels for PrismC:   9
 E= -847.003738666966    
 DIIS: error= 5.05D-08 at cycle   1 NSaved=   1.
 NSaved= 1 IEnMin= 1 EnMin= -847.003738666966     IErMin= 1 ErrMin= 5.05D-08
 ErrMax= 5.05D-08  0.00D+00 EMaxC= 1.00D-01 BMatC= 3.55D-12 BMatP= 3.55D-12
 IDIUse=1 WtCom= 1.00D+00 WtEn= 0.00D+00
 Coeff-Com:  0.100D+01
 Coeff:      0.100D+01
 Gap=     0.151 Goal=   None    Shift=    0.000
 RMSDP=2.89D-07 MaxDP=1.34D-05              OVMax= 3.94D-07

 Cycle   2  Pass 1  IDiag  1:
 RMSU=  2.86D-07    CP:  1.00D+00
 E= -847.003738666811     Delta-E=        0.000000000154 Rises=F Damp=F
 DIIS: error= 1.42D-08 at cycle   2 NSaved=   2.
 NSaved= 2 IEnMin= 1 EnMin= -847.003738666966     IErMin= 2 ErrMin= 1.42D-08
 ErrMax= 1.42D-08  0.00D+00 EMaxC= 1.00D-01 BMatC= 2.13D-13 BMatP= 3.55D-12
 IDIUse=1 WtCom= 1.00D+00 WtEn= 0.00D+00
 Coeff-Com:  0.627D-01 0.937D+00
 Coeff:      0.627D-01 0.937D+00
 Gap=     0.151 Goal=   None    Shift=    0.000
 RMSDP=1.57D-08 MaxDP=7.85D-07 DE= 1.54D-10 OVMax= 3.02D-07

 Cycle   3  Pass 1  IDiag  1:
 RMSU=  1.32D-08    CP:  1.00D+00  1.02D+00
 E= -847.003738666841     Delta-E=       -0.000000000030 Rises=F Damp=F
 DIIS: error= 2.51D-08 at cycle   3 NSaved=   3.
 NSaved= 3 IEnMin= 1 EnMin= -847.003738666966     IErMin= 2 ErrMin= 1.42D-08
 ErrMax= 2.51D-08  0.00D+00 EMaxC= 1.00D-01 BMatC= 5.05D-13 BMatP= 2.13D-13
 IDIUse=1 WtCom= 1.00D+00 WtEn= 0.00D+00
 Coeff-Com: -0.107D-01 0.616D+00 0.395D+00
 Coeff:     -0.107D-01 0.616D+00 0.395D+00
 Gap=     0.151 Goal=   None    Shift=    0.000
 RMSDP=1.03D-08 MaxDP=4.16D-07 DE=-2.96D-11 OVMax= 2.17D-07

 Cycle   4  Pass 1  IDiag  1:
 RMSU=  5.90D-09    CP:  1.00D+00  1.02D+00  3.92D-01
 E= -847.003738666760     Delta-E=        0.000000000081 Rises=F Damp=F
 DIIS: error= 8.06D-09 at cycle   4 NSaved=   4.
 NSaved= 4 IEnMin= 1 EnMin= -847.003738666966     IErMin= 4 ErrMin= 8.06D-09
 ErrMax= 8.06D-09  0.00D+00 EMaxC= 1.00D-01 BMatC= 2.07D-14 BMatP= 2.13D-13
 IDIUse=1 WtCom= 1.00D+00 WtEn= 0.00D+00
 Coeff-Com: -0.876D-02 0.309D+00 0.241D+00 0.459D+00
 Coeff:     -0.876D-02 0.309D+00 0.241D+00 0.459D+00
 Gap=     0.151 Goal=   None    Shift=    0.000
 RMSDP=4.11D-09 MaxDP=1.57D-07 DE= 8.09D-11 OVMax= 6.88D-08

 SCF Done:  E(RB3LYP) =  -847.003738667     A.U. after    4 cycles
            NFock=  4  Conv=0.41D-08     -V/T= 2.0049
 KE= 8.428349970566D+02 PE=-5.164192584015D+03 EE= 1.874438221195D+03
 Leave Link  502 at Tue Sep 15 10:41:56 2020, MaxMem=   131072000 cpu:       853.0
 (Enter /share/programs/GAUSSIAN/64/g09/l801.exe)
 DoSCS=F DFT=T ScalE2(SS,OS)=  1.000000  1.000000
 Range of M.O.s used for correlation:     1   557
 NBasis=   568 NAE=    73 NBE=    73 NFC=     0 NFV=     0
 NROrb=    557 NOA=    73 NOB=    73 NVA=   484 NVB=   484

 **** Warning!!: The largest alpha MO coefficient is  0.14271948D+03

 Leave Link  801 at Tue Sep 15 10:41:56 2020, MaxMem=   131072000 cpu:         0.2
 (Enter /share/programs/GAUSSIAN/64/g09/l1002.exe)
 Minotr:  Closed shell wavefunction.
          Direct CPHF calculation.
          Differentiating once with respect to magnetic field using GIAOs.
          Electric field/nuclear overlap derivatives assumed to be zero.
          Requested convergence is 1.0D-08 RMS, and 1.0D-07 maximum.
          Secondary convergence is 1.0D-12 RMS, and 1.0D-12 maximum.
          NewPWx=T KeepS1=F KeepF1=F KeepIn=T MapXYZ=F SortEE=F KeepMc=T.
          MDV=     131069551 using IRadAn=       2.
 Generate precomputed XC quadrature information.
          Solving linear equations simultaneously, MaxMat=      72.
 FoFCou: FMM=F IPFlag=           0 FMFlag=      100000 FMFlg1=        2001
         NFxFlg=           0 DoJE=F BraDBF=F KetDBF=T FulRan=T
         wScrn=  0.000000 ICntrl=    6100 IOpCl=  0 I1Cent=           7 NGrid=         236
         NMat0=    1 NMatS0=      1 NMatT0=    0 NMatD0=    1 NMtDS0=    0 NMtDT0=    0
 Symmetry not used in FoFCou.
 FoFJK:  IHMeth= 1 ICntrl=    6127 DoSepK=F KAlg= 0 I1Cent=   0 FoldK=F
 IRaf=         1 NMat=   1 IRICut=       1 DoRegI=T DoRafI=F ISym2E= 0.
          There are     3 degrees of freedom in the 1st order CPHF.  IDoFFX=0 NUNeed=     3.
      3 vectors produced by pass  0 Test12= 1.18D-12 3.33D-08 XBig12= 1.96D+03 8.77D+00.
 AX will form     3 AO Fock derivatives at one time.
      3 vectors produced by pass  1 Test12= 1.18D-12 3.33D-08 XBig12= 3.18D+00 7.58D-01.
      3 vectors produced by pass  2 Test12= 1.18D-12 3.33D-08 XBig12= 1.86D-02 5.85D-02.
      3 vectors produced by pass  3 Test12= 1.18D-12 3.33D-08 XBig12= 4.29D-05 1.35D-03.
      3 vectors produced by pass  4 Test12= 1.18D-12 3.33D-08 XBig12= 9.75D-08 7.22D-05.
      3 vectors produced by pass  5 Test12= 1.18D-12 3.33D-08 XBig12= 3.97D-10 5.92D-06.
      3 vectors produced by pass  6 Test12= 1.18D-12 3.33D-08 XBig12= 1.51D-12 4.40D-07.
 InvSVY:  IOpt=1 It=  1 EMax= 3.55D-15
 Solved reduced A of dimension    21 with     3 vectors.
 Calculating GIAO nuclear magnetic shielding tensors.
 SCF GIAO Magnetic shielding tensor (ppm):
      1  C    Isotropic =    49.6861   Anisotropy =   149.7970
   XX=    46.3088   YX=   -25.0950   ZX=    31.4786
   XY=   -31.1109   YY=   -39.0339   ZY=    13.2621
   XZ=    24.9178   YZ=     8.9888   ZZ=   141.7833
   Eigenvalues:   -49.3507    48.8581   149.5507
      2  C    Isotropic =    49.6861   Anisotropy =   149.7971
   XX=    46.3088   YX=    25.0953   ZX=    31.4786
   XY=    31.1111   YY=   -39.0339   ZY=   -13.2621
   XZ=    24.9177   YZ=    -8.9889   ZZ=   141.7834
   Eigenvalues:   -49.3508    48.8583   149.5509
      3  C    Isotropic =    44.4899   Anisotropy =   204.7372
   XX=   -22.2199   YX=    10.8075   ZX=    51.2710
   XY=     4.9259   YY=   -14.7126   ZY=    14.7921
   XZ=    32.3655   YZ=    21.2392   ZZ=   170.4022
   Eigenvalues:   -31.9593   -15.5523   180.9814
      4  C    Isotropic =    44.4899   Anisotropy =   204.7373
   XX=   -22.2198   YX=   -10.8075   ZX=    51.2710
   XY=    -4.9256   YY=   -14.7126   ZY=   -14.7922
   XZ=    32.3656   YZ=   -21.2393   ZZ=   170.4023
   Eigenvalues:   -31.9592   -15.5524   180.9815
      5  C    Isotropic =    48.5420   Anisotropy =   189.5490
   XX=   -14.6790   YX=     4.7342   ZX=     8.4333
   XY=    20.3759   YY=    -5.5375   ZY=    31.5121
   XZ=    65.1218   YZ=     0.8640   ZZ=   165.8426
   Eigenvalues:   -26.3226    -2.9593   174.9080
      6  C    Isotropic =    48.5421   Anisotropy =   189.5489
   XX=   -14.6789   YX=    -4.7340   ZX=     8.4335
   XY=   -20.3758   YY=    -5.5374   ZY=   -31.5121
   XZ=    65.1218   YZ=    -0.8638   ZZ=   165.8426
   Eigenvalues:   -26.3224    -2.9594   174.9080
      7  C    Isotropic =    50.1907   Anisotropy =   149.2089
   XX=    19.7303   YX=   -44.2755   ZX=    41.2886
   XY=   -38.0437   YY=    -2.7069   ZY=    36.9011
   XZ=    36.5866   YZ=    37.5458   ZZ=   133.5487
   Eigenvalues:   -49.6656    50.5744   149.6633
      8  C    Isotropic =    48.9362   Anisotropy =   152.4339
   XX=   -31.5093   YX=   -11.4921   ZX=    54.7730
   XY=   -19.0468   YY=    46.5898   ZY=    27.5522
   XZ=    42.2451   YZ=    29.8391   ZZ=   131.7282
   Eigenvalues:   -50.1461    46.3960   150.5589
      9  C    Isotropic =    44.4204   Anisotropy =   209.3981
   XX=   -10.1987   YX=    16.7536   ZX=    44.4888
   XY=     8.9342   YY=    -7.7270   ZY=    61.4651
   XZ=    43.3269   YZ=    64.9792   ZZ=   151.1869
   Eigenvalues:   -30.3689   -20.3891   184.0192
     10  C    Isotropic =    45.3894   Anisotropy =   198.3236
   XX=    -5.9706   YX=    23.3819   ZX=    35.6519
   XY=    38.1954   YY=     1.7271   ZY=    73.1370
   XZ=    54.0013   YZ=    45.7045   ZZ=   140.4116
   Eigenvalues:   -33.5315    -7.9055   177.6051
     11  H    Isotropic =    23.8179   Anisotropy =     7.5674
   XX=    27.2191   YX=    -1.9090   ZX=    -2.2602
   XY=    -1.7961   YY=    24.8722   ZY=    -0.1966
   XZ=    -3.3763   YZ=    -0.1950   ZZ=    19.3625
   Eigenvalues:    18.3647    24.2263    28.8628
     12  H    Isotropic =    23.8179   Anisotropy =     7.5674
   XX=    27.2191   YX=     1.9090   ZX=    -2.2602
   XY=     1.7961   YY=    24.8722   ZY=     0.1966
   XZ=    -3.3763   YZ=     0.1950   ZZ=    19.3625
   Eigenvalues:    18.3647    24.2263    28.8628
     13  H    Isotropic =    23.8548   Anisotropy =     7.5124
[...]
   128  Bq   0.000000
   129  Bq   0.000000
   130  Bq   0.000000
   131  Bq   0.000000
   132  Bq   0.000000
   133  Bq   0.000000
   134  Bq   0.000000
   135  Bq   0.000000
   136  Bq   0.000000
   137  Bq   0.000000
   138  Bq   0.000000
   139  Bq   0.000000
   140  Bq   0.000000
   141  Bq   0.000000
   142  Bq   0.000000
   143  Bq   0.000000
   144  Bq   0.000000
   145  Bq   0.000000
   146  Bq   0.000000
   147  Bq   0.000000
   148  Bq   0.000000
   149  Bq   0.000000
   150  Bq   0.000000
   151  Bq   0.000000
   152  Bq   0.000000
   153  Bq   0.000000
   154  Bq   0.000000
   155  Bq   0.000000
   156  Bq   0.000000
   157  Bq   0.000000
   158  Bq   0.000000
   159  Bq   0.000000
   160  Bq   0.000000
   161  Bq   0.000000
   162  Bq   0.000000
   163  Bq   0.000000
   164  Bq   0.000000
   165  Bq   0.000000
   166  Bq   0.000000
   167  Bq   0.000000
   168  Bq   0.000000
   169  Bq   0.000000
   170  Bq   0.000000
   171  Bq   0.000000
   172  Bq   0.000000
   173  Bq   0.000000
   174  Bq   0.000000
   175  Bq   0.000000
   176  Bq   0.000000
   177  Bq   0.000000
   178  Bq   0.000000
   179  Bq   0.000000
   180  Bq   0.000000
   181  Bq   0.000000
   182  Bq   0.000000
   183  Bq   0.000000
   184  Bq   0.000000
   185  Bq   0.000000
   186  Bq   0.000000
   187  Bq   0.000000
   188  Bq   0.000000
   189  Bq   0.000000
   190  Bq   0.000000
   191  Bq   0.000000
   192  Bq   0.000000
   193  Bq   0.000000
   194  Bq   0.000000
   195  Bq   0.000000
   196  Bq   0.000000
   197  Bq   0.000000
   198  Bq   0.000000
   199  Bq   0.000000
   200  Bq   0.000000
   201  Bq   0.000000
   202  Bq   0.000000
   203  Bq   0.000000
   204  Bq   0.000000
   205  Bq   0.000000
   206  Bq   0.000000
   207  Bq   0.000000
   208  Bq   0.000000
   209  Bq   0.000000
   210  Bq   0.000000
   211  Bq   0.000000
   212  Bq   0.000000
   213  Bq   0.000000
   214  Bq   0.000000
   215  Bq   0.000000
   216  Bq   0.000000
   217  Bq   0.000000
   218  Bq   0.000000
   219  Bq   0.000000
   220  Bq   0.000000
   221  Bq   0.000000
   222  Bq   0.000000
   223  Bq   0.000000
   224  Bq   0.000000
   225  Bq   0.000000
   226  Bq   0.000000
   227  Bq   0.000000
   228  Bq   0.000000
   229  Bq   0.000000
   230  Bq   0.000000
   231  Bq   0.000000
   232  Bq   0.000000
   233  Bq   0.000000
   234  Bq   0.000000
   235  Bq   0.000000
   236  Bq   0.000000
 Sum of Mulliken charges =   0.00000
 Mulliken charges with hydrogens summed into heavy atoms:
               1
     1  C   -0.262865
     2  C   -0.262866
     3  C    0.737923
     4  C    0.737922
     5  C   -0.039994
     6  C   -0.040001
     7  C    0.075155
     8  C   -0.330147
     9  C    0.780501
    10  C   -0.200782
    15  C    0.249272
    16  C   -0.533462
    17  C   -0.189404
    18  C   -0.286191
    23  C   -0.330145
    24  C    0.075154
    25  C    0.780496
    26  C   -0.200782
    27  C    0.249273
    28  C   -0.286192
    29  C   -0.189403
    30  C   -0.533462
    37  Bq   0.000000
    38  Bq   0.000000
    39  Bq   0.000000
    40  Bq   0.000000
    41  Bq   0.000000
    42  Bq   0.000000
    43  Bq   0.000000
    44  Bq   0.000000
    45  Bq   0.000000
    46  Bq   0.000000
    47  Bq   0.000000
    48  Bq   0.000000
    49  Bq   0.000000
    50  Bq   0.000000
    51  Bq   0.000000
    52  Bq   0.000000
    53  Bq   0.000000
    54  Bq   0.000000
    55  Bq   0.000000
    56  Bq   0.000000
    57  Bq   0.000000
    58  Bq   0.000000
    59  Bq   0.000000
    60  Bq   0.000000
    61  Bq   0.000000
    62  Bq   0.000000
    63  Bq   0.000000
    64  Bq   0.000000
    65  Bq   0.000000
    66  Bq   0.000000
    67  Bq   0.000000
    68  Bq   0.000000
    69  Bq   0.000000
    70  Bq   0.000000
    71  Bq   0.000000
    72  Bq   0.000000
    73  Bq   0.000000
    74  Bq   0.000000
    75  Bq   0.000000
    76  Bq   0.000000
    77  Bq   0.000000
    78  Bq   0.000000
    79  Bq   0.000000
    80  Bq   0.000000
    81  Bq   0.000000
    82  Bq   0.000000
    83  Bq   0.000000
    84  Bq   0.000000
    85  Bq   0.000000
    86  Bq   0.000000
    87  Bq   0.000000
    88  Bq   0.000000
    89  Bq   0.000000
    90  Bq   0.000000
    91  Bq   0.000000
    92  Bq   0.000000
    93  Bq   0.000000
    94  Bq   0.000000
    95  Bq   0.000000
    96  Bq   0.000000
    97  Bq   0.000000
    98  Bq   0.000000
    99  Bq   0.000000
   100  Bq   0.000000
   101  Bq   0.000000
   102  Bq   0.000000
   103  Bq   0.000000
   104  Bq   0.000000
   105  Bq   0.000000
   106  Bq   0.000000
   107  Bq   0.000000
   108  Bq   0.000000
   109  Bq   0.000000
   110  Bq   0.000000
   111  Bq   0.000000
   112  Bq   0.000000
   113  Bq   0.000000
   114  Bq   0.000000
   115  Bq   0.000000
   116  Bq   0.000000
   117  Bq   0.000000
   118  Bq   0.000000
   119  Bq   0.000000
   120  Bq   0.000000
   121  Bq   0.000000
   122  Bq   0.000000
   123  Bq   0.000000
   124  Bq   0.000000
   125  Bq   0.000000
   126  Bq   0.000000
   127  Bq   0.000000
   128  Bq   0.000000
   129  Bq   0.000000
   130  Bq   0.000000
   131  Bq   0.000000
   132  Bq   0.000000
   133  Bq   0.000000
   134  Bq   0.000000
   135  Bq   0.000000
   136  Bq   0.000000
   137  Bq   0.000000
   138  Bq   0.000000
   139  Bq   0.000000
   140  Bq   0.000000
   141  Bq   0.000000
   142  Bq   0.000000
   143  Bq   0.000000
   144  Bq   0.000000
   145  Bq   0.000000
   146  Bq   0.000000
   147  Bq   0.000000
   148  Bq   0.000000
   149  Bq   0.000000
   150  Bq   0.000000
   151  Bq   0.000000
   152  Bq   0.000000
   153  Bq   0.000000
   154  Bq   0.000000
   155  Bq   0.000000
   156  Bq   0.000000
   157  Bq   0.000000
   158  Bq   0.000000
   159  Bq   0.000000
   160  Bq   0.000000
   161  Bq   0.000000
   162  Bq   0.000000
   163  Bq   0.000000
   164  Bq   0.000000
   165  Bq   0.000000
   166  Bq   0.000000
   167  Bq   0.000000
   168  Bq   0.000000
   169  Bq   0.000000
   170  Bq   0.000000
   171  Bq   0.000000
   172  Bq   0.000000
   173  Bq   0.000000
   174  Bq   0.000000
   175  Bq   0.000000
   176  Bq   0.000000
   177  Bq   0.000000
   178  Bq   0.000000
   179  Bq   0.000000
   180  Bq   0.000000
   181  Bq   0.000000
   182  Bq   0.000000
   183  Bq   0.000000
   184  Bq   0.000000
   185  Bq   0.000000
   186  Bq   0.000000
   187  Bq   0.000000
   188  Bq   0.000000
   189  Bq   0.000000
   190  Bq   0.000000
   191  Bq   0.000000
   192  Bq   0.000000
   193  Bq   0.000000
   194  Bq   0.000000
   195  Bq   0.000000
   196  Bq   0.000000
   197  Bq   0.000000
   198  Bq   0.000000
   199  Bq   0.000000
   200  Bq   0.000000
   201  Bq   0.000000
   202  Bq   0.000000
   203  Bq   0.000000
   204  Bq   0.000000
   205  Bq   0.000000
   206  Bq   0.000000
   207  Bq   0.000000
   208  Bq   0.000000
   209  Bq   0.000000
   210  Bq   0.000000
   211  Bq   0.000000
   212  Bq   0.000000
   213  Bq   0.000000
   214  Bq   0.000000
   215  Bq   0.000000
   216  Bq   0.000000
   217  Bq   0.000000
   218  Bq   0.000000
   219  Bq   0.000000
   220  Bq   0.000000
   221  Bq   0.000000
   222  Bq   0.000000
   223  Bq   0.000000
   224  Bq   0.000000
   225  Bq   0.000000
   226  Bq   0.000000
   227  Bq   0.000000
   228  Bq   0.000000
   229  Bq   0.000000
   230  Bq   0.000000
   231  Bq   0.000000
   232  Bq   0.000000
   233  Bq   0.000000
   234  Bq   0.000000
   235  Bq   0.000000
   236  Bq   0.000000
 Electronic spatial extent (au):  <R**2>=           5804.3227
 Charge=              0.0000 electrons
 Dipole moment (field-independent basis, Debye):
    X=              0.0000    Y=              0.0732    Z=              0.0000  Tot=              0.0732
 Quadrupole moment (field-independent basis, Debye-Ang):
   XX=           -113.9137   YY=           -113.9781   ZZ=           -133.4378
   XY=              0.0000   XZ=             -4.8717   YZ=              0.0000
 Traceless Quadrupole moment (field-independent basis, Debye-Ang):
   XX=              6.5295   YY=              6.4651   ZZ=            -12.9946
   XY=              0.0000   XZ=             -4.8717   YZ=              0.0000
 Octapole moment (field-independent basis, Debye-Ang**2):
  XXX=              0.0000  YYY=             11.7108  ZZZ=              0.0000  XYY=              0.0000
  XXY=             -6.4067  XXZ=              0.0000  XZZ=              0.0000  YZZ=             -7.8695
  YYZ=              0.0000  XYZ=            -16.2862
 Hexadecapole moment (field-independent basis, Debye-Ang**3):
 XXXX=          -4416.4021 YYYY=          -2784.9756 ZZZZ=           -481.5690 XXXY=              0.0001
 XXXZ=           -124.3517 YYYX=             -0.0003 YYYZ=              0.0001 ZZZX=             -4.4782
 ZZZY=              0.0001 XXYY=          -1189.3576 XXZZ=           -942.9016 YYZZ=           -589.4012
 XXYZ=              0.0000 YYXZ=              7.8297 ZZXY=             -0.0001
 N-N= 1.599915627097D+03 E-N=-5.164192587538D+03  KE= 8.428349970566D+02
 Leave Link  601 at Tue Sep 15 10:50:20 2020, MaxMem=   131072000 cpu:         1.0
 (Enter /share/programs/GAUSSIAN/64/g09/l9999.exe)
 1\1\GINC-PLANA\SP\RB3LYP\6-311+G(d,p)\C22H14\AARTIGAS\15-Sep-2020\0\\#
 P rb3lyp/6-311+g** NMR Guess=Read geom=connectivity\\Title\\0,1\C,0,0.
 653241,3.257859,-0.20251\C,0,-0.653243,3.25786,0.20251\C,0,1.372495,2.
 032956,-0.320807\C,0,-1.372495,2.032956,0.320807\C,0,0.722474,0.795666
 ,-0.050388\C,0,-0.722474,0.795667,0.050387\C,0,2.760385,2.053927,-0.67
 4268\C,0,3.508866,0.913916,-0.671362\C,0,2.955226,-0.309622,-0.177479\
 C,0,1.574722,-0.361114,0.197094\H,0,1.183427,4.19574,-0.384599\H,0,-1.
 183429,4.19574,0.384599\H,0,3.206283,3.012423,-0.951392\H,0,4.560023,0
 .932956,-0.969333\C,0,3.78302,-1.443098,0.028309\C,0,1.137427,-1.50753
 3,0.912109\C,0,1.973691,-2.584349,1.138062\C,0,3.301853,-2.571588,0.66
 1177\H,0,4.825754,-1.39123,-0.295484\H,0,0.124652,-1.532788,1.308472\H
 ,0,1.603586,-3.445682,1.698977\H,0,3.952742,-3.433526,0.825134\C,0,-3.
 508866,0.913915,0.671362\C,0,-2.760386,2.053926,0.674268\C,0,-2.955226
 ,-0.309623,0.177479\C,0,-1.574722,-0.361114,-0.197094\C,0,-3.78302,-1.
 443099,-0.028309\C,0,-3.301852,-2.571589,-0.661177\C,0,-1.97369,-2.584
 349,-1.138061\C,0,-1.137426,-1.507534,-0.912109\H,0,-4.560022,0.932954
 ,0.969334\H,0,-3.206283,3.012421,0.951392\H,0,-4.825754,-1.391232,0.29
 5484\H,0,-3.952741,-3.433528,-0.825134\H,0,-1.603585,-3.445682,-1.6989
 76\H,0,-0.124652,-1.532788,-1.308471\Bq,0,0.722474,1.404427429,-0.8437
 413403\Bq,0,0.6430146887,1.3992193906,-0.8437413403\Bq,0,0.5649149482,
 1.3836843863,-0.8437413403\Bq,0,0.4895110869,1.3580882244,-0.843741340
 3\Bq,0,0.4180932855,1.3228688624,-0.8437413403\Bq,0,0.3518835226,1.278
 6289131,-0.8437413403\Bq,0,0.2920146654,1.2261253346,-0.8437413403\Bq,
 0,0.2395110869,1.1662564774,-0.8437413403\Bq,0,0.1952711376,1.10004671
 45,-0.8437413403\Bq,0,0.1600517756,1.0286289131,-0.8437413403\Bq,0,0.1
 344556137,0.9532250518,-0.8437413403\Bq,0,0.1189206094,0.8751253113,-0
 .8437413403\Bq,0,0.113712571,0.795666,-0.8437413403\Bq,0,0.5649149482,
 0.2076476137,-0.8437413403\Bq,0,0.6430146887,0.1921126094,-0.843741340
 3\Bq,0,0.722474,0.186904571,-0.8437413403\Bq,0,0.8019333113,0.19211260
 94,-0.8437413403\Bq,0,0.8800330518,0.2076476137,-0.8437413403\Bq,0,0.9
 554369131,0.2332437756,-0.8437413403\Bq,0,1.0268547145,0.2684631376,-0
 .8437413403\Bq,0,1.0930644774,0.3127030869,-0.8437413403\Bq,0,1.152933
 3346,0.3652066654,-0.8437413403\Bq,0,1.2054369131,0.4250755226,-0.8437
 413403\Bq,0,1.2496768624,0.4912852855,-0.8437413403\Bq,0,1.2848962244,
 0.5627030869,-0.8437413403\Bq,0,1.3104923863,0.6381069482,-0.843741340
 3\Bq,0,1.3260273906,0.7162066887,-0.8437413403\Bq,0,1.222474,0.795666,
 -0.9164134038\Bq,0,1.2181964307,0.8609290961,-0.9164134038\Bq,0,1.2054
 369131,0.9250755226,-0.9164134038\Bq,0,1.1844137663,0.9870077162,-0.91
 64134038\Bq,0,1.1554867019,1.045666,-0.9164134038\Bq,0,1.1191506701,1.
 1000467145,-0.9164134038\Bq,0,1.0760273906,1.1492193906,-0.9164134038\
 Bq,0,1.0268547145,1.1923426701,-0.9164134038\Bq,0,0.972474,1.228678701
 9,-0.9164134038\Bq,0,0.9138157162,1.2576057663,-0.9164134038\Bq,0,0.85
 18835226,1.2786289131,-0.9164134038\Bq,0,0.7877370961,1.2913884307,-0.
 9164134038\Bq,0,0.722474,1.295666,-0.9164134038\Bq,0,0.6572109039,1.29
 13884307,-0.9164134038\Bq,0,0.5930644774,1.2786289131,-0.9164134038\Bq
 ,0,0.5311322838,1.2576057663,-0.9164134038\Bq,0,0.472474,1.2286787019,
 -0.9164134038\Bq,0,0.4180932855,1.1923426701,-0.9164134038\Bq,0,0.3689
 206094,1.1492193906,-0.9164134038\Bq,0,0.3257973299,1.1000467145,-0.91
 64134038\Bq,0,0.2894612981,1.045666,-0.9164134038\Bq,0,0.2605342337,0.
 9870077162,-0.9164134038\Bq,0,0.2395110869,0.9250755226,-0.9164134038\
 Bq,0,0.2267515693,0.8609290961,-0.9164134038\Bq,0,0.222474,0.795666,-0
 .9164134038\Bq,0,0.2267515693,0.7304029039,-0.9164134038\Bq,0,0.239511
 0869,0.6662564774,-0.9164134038\Bq,0,0.2605342337,0.6043242838,-0.9164
 134038\Bq,0,0.2894612981,0.545666,-0.9164134038\Bq,0,0.3257973299,0.49
 12852855,-0.9164134038\Bq,0,0.3689206094,0.4421126094,-0.9164134038\Bq
 ,0,0.4180932855,0.3989893299,-0.9164134038\Bq,0,0.472474,0.3626532981,
 -0.9164134038\Bq,0,0.5311322838,0.3337262337,-0.9164134038\Bq,0,0.5930
 644774,0.3127030869,-0.9164134038\Bq,0,0.6572109039,0.2999435693,-0.91
 64134038\Bq,0,0.722474,0.295666,-0.9164134038\Bq,0,0.7877370961,0.2999
 435693,-0.9164134038\Bq,0,0.8518835226,0.3127030869,-0.9164134038\Bq,0
 ,0.9138157162,0.3337262337,-0.9164134038\Bq,0,0.972474,0.3626532981,-0
 .9164134038\Bq,0,1.0268547145,0.3989893299,-0.9164134038\Bq,0,1.076027
 3906,0.4421126094,-0.9164134038\Bq,0,1.1191506701,0.4912852855,-0.9164
 134038\Bq,0,1.1554867019,0.545666,-0.9164134038\Bq,0,1.1844137663,0.60
 43242838,-0.9164134038\Bq,0,1.2054369131,0.6662564774,-0.9164134038\Bq
 ,0,1.2181964307,0.7304029039,-0.9164134038\Bq,0,1.1051574324,0.795666,
 -0.9742675325\Bq,0,1.1018835226,0.8456162113,-0.9742675325\Bq,0,1.0921
 178106,0.8947117605,-0.9742675325\Bq,0,1.0760273906,0.9421126094,-0.97
 42675325\Bq,0,1.053887574,0.9870077162,-0.9742675325\Bq,0,1.0260771793
 ,1.0286289131,-0.9742675325\Bq,0,0.9930720501,1.0662640501,-0.97426753
 25\Bq,0,0.9554369131,1.0992691793,-0.9742675325\Bq,0,0.9138157162,1.12
 7079574,-0.9742675325\Bq,0,0.8689206094,1.1492193906,-0.9742675325\Bq,
 0,0.8215197605,1.1653098106,-0.9742675325\Bq,0,0.7724242113,1.17507552
 26,-0.9742675325\Bq,0,0.722474,1.1783494324,-0.9742675325\Bq,0,0.67252
 37887,1.1750755226,-0.9742675325\Bq,0,0.6234282395,1.1653098106,-0.974
 2675325\Bq,0,0.5760273906,1.1492193906,-0.9742675325\Bq,0,0.5311322838
 ,1.127079574,-0.9742675325\Bq,0,0.4895110869,1.0992691793,-0.974267532
 5\Bq,0,0.4518759499,1.0662640501,-0.9742675325\Bq,0,0.4188708207,1.028
 6289131,-0.9742675325\Bq,0,0.391060426,0.9870077162,-0.9742675325\Bq,0
 ,0.3689206094,0.9421126094,-0.9742675325\Bq,0,0.3528301894,0.894711760
 5,-0.9742675325\Bq,0,0.3430644774,0.8456162113,-0.9742675325\Bq,0,0.33
 97905676,0.795666,-0.9742675325\Bq,0,0.3430644774,0.7457157887,-0.9742
 675325\Bq,0,0.3528301894,0.6966202395,-0.9742675325\Bq,0,0.3689206094,
 0.6492193906,-0.9742675325\Bq,0,0.391060426,0.6043242838,-0.9742675325
 \Bq,0,0.4188708207,0.5627030869,-0.9742675325\Bq,0,0.4518759499,0.5250
 679499,-0.9742675325\Bq,0,0.4895110869,0.4920628207,-0.9742675325\Bq,0
 ,0.5311322838,0.464252426,-0.9742675325\Bq,0,0.5760273906,0.4421126094
 ,-0.9742675325\Bq,0,0.6234282395,0.4260221894,-0.9742675325\Bq,0,0.672
 5237887,0.4162564774,-0.9742675325\Bq,0,0.722474,0.4129825676,-0.97426
 75325\Bq,0,0.7724242113,0.4162564774,-0.9742675325\Bq,0,0.8215197605,0
 .4260221894,-0.9742675325\Bq,0,0.8689206094,0.4421126094,-0.9742675325
 \Bq,0,0.9138157162,0.464252426,-0.9742675325\Bq,0,0.9554369131,0.49206
 28207,-0.9742675325\Bq,0,0.9930720501,0.5250679499,-0.9742675325\Bq,0,
 1.0260771793,0.5627030869,-0.9742675325\Bq,0,1.053887574,0.6043242838,
 -0.9742675325\Bq,0,1.0760273906,0.6492193906,-0.9742675325\Bq,0,1.0921
 178106,0.6966202395,-0.9742675325\Bq,0,1.1018835226,0.7457157887,-0.97
 42675325\Bq,0,0.9812930451,0.795666,-1.0163138263\Bq,0,0.9790788123,0.
 8294486644,-1.0163138263\Bq,0,0.972474,0.8626532981,-1.0163138263\Bq,0
 ,0.9615916184,0.8947117605,-1.0163138263\Bq,0,0.946617868,0.9250755226
 ,-1.0163138263\Bq,0,0.927808954,0.9532250518,-1.0163138263\Bq,0,0.9054
 867019,0.9786787019,-1.0163138263\Bq,0,0.8800330518,1.001000954,-1.016
 3138263\Bq,0,0.8518835226,1.019809868,-1.0163138263\Bq,0,0.8215197605,
 1.0347836184,-1.0163138263\Bq,0,0.7894612981,1.045666,-1.0163138263\Bq
 ,0,0.7562566644,1.0522708123,-1.0163138263\Bq,0,0.722474,1.0544850451,
 -1.0163138263\Bq,0,0.6886913356,1.0522708123,-1.0163138263\Bq,0,0.6554
 867019,1.045666,-1.0163138263\Bq,0,0.6234282395,1.0347836184,-1.016313
 8263\Bq,0,0.5930644774,1.019809868,-1.0163138263\Bq,0,0.5649149482,1.0
 01000954,-1.0163138263\Bq,0,0.5394612981,0.9786787019,-1.0163138263\Bq
 ,0,0.517139046,0.9532250518,-1.0163138263\Bq,0,0.498330132,0.925075522
 6,-1.0163138263\Bq,0,0.4833563816,0.8947117605,-1.0163138263\Bq,0,0.47
 2474,0.8626532981,-1.0163138263\Bq,0,0.4658691877,0.8294486644,-1.0163
 138263\Bq,0,0.4636549549,0.795666,-1.0163138263\Bq,0,0.4658691877,0.76
 18833356,-1.0163138263\Bq,0,0.472474,0.7286787019,-1.0163138263\Bq,0,0
 .4833563816,0.6966202395,-1.0163138263\Bq,0,0.498330132,0.6662564774,-
 1.0163138263\Bq,0,0.517139046,0.6381069482,-1.0163138263\Bq,0,0.539461
 2981,0.6126532981,-1.0163138263\Bq,0,0.5649149482,0.590331046,-1.01631
 38263\Bq,0,0.5930644774,0.571522132,-1.0163138263\Bq,0,0.6234282395,0.
 5565483816,-1.0163138263\Bq,0,0.6554867019,0.545666,-1.0163138263\Bq,0
 ,0.6886913356,0.5390611877,-1.0163138263\Bq,0,0.722474,0.5368469549,-1
 .0163138263\Bq,0,0.7562566644,0.5390611877,-1.0163138263\Bq,0,0.789461
 2981,0.545666,-1.0163138263\Bq,0,0.8215197605,0.5565483816,-1.01631382
 63\Bq,0,0.8518835226,0.571522132,-1.0163138263\Bq,0,0.8800330518,0.590
 331046,-1.0163138263\Bq,0,0.9054867019,0.6126532981,-1.0163138263\Bq,0
 ,0.927808954,0.6381069482,-1.0163138263\Bq,0,0.946617868,0.6662564774,
 -1.0163138263\Bq,0,0.9615916184,0.6966202395,-1.0163138263\Bq,0,0.9724
 74,0.7286787019,-1.0163138263\Bq,0,0.9790788123,0.7618833356,-1.016313
 8263\Bq,0,0.8530001922,0.795666,-1.0418328614\Bq,0,0.8518835226,0.8127
 030869,-1.0418328614\Bq,0,0.8485526201,0.8294486644,-1.0418328614\Bq,0
 ,0.8430644774,0.8456162113,-1.0418328614\Bq,0,0.8355129983,0.860929096
 1,-1.0418328614\Bq,0,0.8260273906,0.8751253113,-1.0418328614\Bq,0,0.81
 47699556,0.8879619556,-1.0418328614\Bq,0,0.8019333113,0.8992193906,-1.
 0418328614\Bq,0,0.7877370961,0.9087049983,-1.0418328614\Bq,0,0.7724242
 113,0.9162564774,-1.0418328614\Bq,0,0.7562566644,0.9217446201,-1.04183
 28614\Bq,0,0.7395110869,0.9250755226,-1.0418328614\Bq,0,0.722474,0.926
 1921922,-1.0418328614\Bq,0,0.7054369131,0.9250755226,-1.0418328614\Bq,
 0,0.6886913356,0.9217446201,-1.0418328614\Bq,0,0.6725237887,0.91625647
 74,-1.0418328614\Bq,0,0.6572109039,0.9087049983,-1.0418328614\Bq,0,0.6
 430146887,0.8992193906,-1.0418328614\Bq,0,0.6301780444,0.8879619556,-1
 .0418328614\Bq,0,0.6189206094,0.8751253113,-1.0418328614\Bq,0,0.609435
 0017,0.8609290961,-1.0418328614\Bq,0,0.6018835226,0.8456162113,-1.0418
 328614\Bq,0,0.5963953799,0.8294486644,-1.0418328614\Bq,0,0.5930644774,
 0.8127030869,-1.0418328614\Bq,0,0.5919478078,0.795666,-1.0418328614\Bq
 ,0,0.5930644774,0.7786289131,-1.0418328614\Bq,0,0.5963953799,0.7618833
 356,-1.0418328614\Bq,0,0.6018835226,0.7457157887,-1.0418328614\Bq,0,0.
 6094350017,0.7304029039,-1.0418328614\\Version=ES64L-G09RevD.01\HF=-84
 7.0037387\RMSD=4.111e-09\Dipole=0.0000004,0.0287843,0.0000009\Quadrupo
 le=4.8545288,4.8066247,-9.6611535,-0.0000047,-3.6219991,-0.000002\PG=C
 01 [X(C22H14)]\\@


 "MATHEMATICS IS THE ART OF GIVING THE SAME NAME
 TO DIFFERENT THINGS."
                    - H. POINCARE
 Job cpu time:       0 days  1 hours 20 minutes  4.4 seconds.
 File lengths (MBytes):  RWF=    184 Int=      0 D2E=      0 Chk=     21 Scr=      1
 Normal termination of Gaussian 09 at Tue Sep 15 10:50:20 2020.
