 Entering Gaussian System, Link 0=g09
 Input=input_batch_01800.com
 Output=input_batch_01800.log
 Initial command:
 /share/programs/GAUSSIAN/64/g09/l1.exe "/scratch/aartigas.38786/Gau-3531194.inp" -scrdir="/scratch/aartigas.38786/"
 Entering Link 1 = /share/programs/GAUSSIAN/64/g09/l1.exe PID=   3531195.
  
 Copyright (c) 1988,1990,1992,1993,1995,1998,2003,2009,2013,
            Gaussian, Inc.  All Rights Reserved.
  
 This is part of the Gaussian(R) 09 program.  It is based on
 the Gaussian(R) 03 system (copyright 2003, Gaussian, Inc.),
 the Gaussian(R) 98 system (copyright 1998, Gaussian, Inc.),
 the Gaussian(R) 94 system (copyright 1995, Gaussian, Inc.),
 the Gaussian 92(TM) system (copyright 1992, Gaussian, Inc.),
 the Gaussian 90(TM) system (copyright 1990, Gaussian, Inc.),
 the Gaussian 88(TM) system (copyright 1988, Gaussian, Inc.),
 the Gaussian 86(TM) system (copyright 1986, Carnegie Mellon
 University), and the Gaussian 82(TM) system (copyright 1983,
 Carnegie Mellon University). Gaussian is a federally registered
 trademark of Gaussian, Inc.
  
 This software contains proprietary and confidential information,
 including trade secrets, belonging to Gaussian, Inc.
  
 This software is provided under written license and may be
 used, copied, transmitted, or stored only in accord with that
 written license.
  
 The following legend is applicable only to US Government
 contracts under FAR:
  
                    RESTRICTED RIGHTS LEGEND
  
 Use, reproduction and disclosure by the US Government is
 subject to restrictions as set forth in subparagraphs (a)
 and (c) of the Commercial Computer Software - Restricted
 Rights clause in FAR 52.227-19.
  
 Gaussian, Inc.
 340 Quinnipiac St., Bldg. 40, Wallingford CT 06492
  
  
 ---------------------------------------------------------------
 Warning -- This program may not be used in any manner that
 competes with the business of Gaussian, Inc. or will provide
 assistance to any competitor of Gaussian, Inc.  The licensee
 of this program is prohibited from giving any competitor of
 Gaussian, Inc. access to this program.  By using this program,
 the user acknowledges that Gaussian, Inc. is engaged in the
 business of creating and licensing software in the field of
 computational chemistry and represents and warrants to the
 licensee that it is not a competitor of Gaussian, Inc. and that
 it will not use this program in any manner prohibited above.
 ---------------------------------------------------------------
  

 Cite this work as:
 Gaussian 09, Revision D.01,
 M. J. Frisch, G. W. Trucks, H. B. Schlegel, G. E. Scuseria, 
 M. A. Robb, J. R. Cheeseman, G. Scalmani, V. Barone, B. Mennucci, 
 G. A. Petersson, H. Nakatsuji, M. Caricato, X. Li, H. P. Hratchian, 
 A. F. Izmaylov, J. Bloino, G. Zheng, J. L. Sonnenberg, M. Hada, 
 M. Ehara, K. Toyota, R. Fukuda, J. Hasegawa, M. Ishida, T. Nakajima, 
 Y. Honda, O. Kitao, H. Nakai, T. Vreven, J. A. Montgomery, Jr., 
 J. E. Peralta, F. Ogliaro, M. Bearpark, J. J. Heyd, E. Brothers, 
 K. N. Kudin, V. N. Staroverov, T. Keith, R. Kobayashi, J. Normand, 
 K. Raghavachari, A. Rendell, J. C. Burant, S. S. Iyengar, J. Tomasi, 
 M. Cossi, N. Rega, J. M. Millam, M. Klene, J. E. Knox, J. B. Cross, 
 V. Bakken, C. Adamo, J. Jaramillo, R. Gomperts, R. E. Stratmann, 
 O. Yazyev, A. J. Austin, R. Cammi, C. Pomelli, J. W. Ochterski, 
 R. L. Martin, K. Morokuma, V. G. Zakrzewski, G. A. Voth, 
 P. Salvador, J. J. Dannenberg, S. Dapprich, A. D. Daniels, 
 O. Farkas, J. B. Foresman, J. V. Ortiz, J. Cioslowski, 
 and D. J. Fox, Gaussian, Inc., Wallingford CT, 2013.
 
 ******************************************
 Gaussian 09:  ES64L-G09RevD.01 24-Apr-2013
                15-Sep-2020 
 ******************************************
 %OldChk=/home/aartigas/chk/5_helicene_spe.chk
 %nproc=8
 Will use up to    8 processors via shared memory.
 %mem=1000MB
 Copying data from "/home/aartigas/chk/5_helicene_spe.chk" to current chk file "/scratch/aartigas.38786/Gau-3531195.chk".
 ----------------------------------------------------
 #P rb3lyp/6-311+g** NMR Guess=Read geom=connectivity
 ----------------------------------------------------
 1/38=1,57=2/1;
 2/12=2,17=6,18=5,40=1/2;
 3/5=4,6=6,7=111,11=2,16=1,25=1,30=1,74=-5,116=1/1,2,8,3;
 4/5=1/1;
 5/5=2,38=6/2;
 8/6=1,10=90,11=11/1;
 10/13=100,45=16/2;
 6/7=2,8=2,9=2,10=2,28=1/1;
 99/9=1/99;
 Leave Link    1 at Tue Sep 15 10:38:38 2020, MaxMem=   131072000 cpu:         0.4
 (Enter /share/programs/GAUSSIAN/64/g09/l101.exe)
 -----
 Title
 -----
 Symbolic Z-matrix:
 Charge =  0 Multiplicity = 1
 C                     0.65324   3.25786  -0.20251 
 C                    -0.65324   3.25786   0.20251 
 C                     1.3725    2.03296  -0.32081 
 C                    -1.3725    2.03296   0.32081 
 C                     0.72247   0.79567  -0.05039 
 C                    -0.72247   0.79567   0.05039 
 C                     2.76039   2.05393  -0.67427 
 C                     3.50887   0.91392  -0.67136 
 C                     2.95523  -0.30962  -0.17748 
 C                     1.57472  -0.36111   0.19709 
 H                     1.18343   4.19574  -0.3846 
 H                    -1.18343   4.19574   0.3846 
 H                     3.20628   3.01242  -0.95139 
 H                     4.56002   0.93296  -0.96933 
 C                     3.78302  -1.4431    0.02831 
 C                     1.13743  -1.50753   0.91211 
 C                     1.97369  -2.58435   1.13806 
 C                     3.30185  -2.57159   0.66118 
 H                     4.82575  -1.39123  -0.29548 
 H                     0.12465  -1.53279   1.30847 
 H                     1.60359  -3.44568   1.69898 
 H                     3.95274  -3.43353   0.82513 
 C                    -3.50887   0.91392   0.67136 
 C                    -2.76039   2.05393   0.67427 
 C                    -2.95523  -0.30962   0.17748 
 C                    -1.57472  -0.36111  -0.19709 
 C                    -3.78302  -1.4431   -0.02831 
 C                    -3.30185  -2.57159  -0.66118 
 C                    -1.97369  -2.58435  -1.13806 
 C                    -1.13743  -1.50753  -0.91211 
 H                    -4.56002   0.93295   0.96933 
 H                    -3.20628   3.01242   0.95139 
 H                    -4.82575  -1.39123   0.29548 
 H                    -3.95274  -3.43353  -0.82513 
 H                    -1.60359  -3.44568  -1.69898 
 H                    -0.12465  -1.53279  -1.30847 
 Bq                   -0.63953   2.33656   0.92957 
 Bq                   -0.68543   2.42963   0.92957 
 Bq                   -0.74309   2.51592   0.92957 
 Bq                   -1.47605   1.24639   0.92957 
 Bq                   -1.3725    1.2396    0.92957 
 Bq                   -1.26894   1.24639   0.92957 
 Bq                   -1.16716   1.26664   0.92957 
 Bq                   -1.06889   1.29999   0.92957 
 Bq                   -0.97582   1.34589   0.92957 
 Bq                   -0.88953   1.40355   0.92957 
 Bq                   -0.81151   1.47197   0.92957 
 Bq                   -0.74309   1.54999   0.92957 
 Bq                   -0.68543   1.63628   0.92957 
 Bq                   -0.63953   1.72935   0.92957 
 Bq                   -0.60617   1.82762   0.92957 
 Bq                   -0.58593   1.9294    0.92957 
 Bq                   -0.53598   2.2571    0.82081 
 Bq                   -0.57239   2.36437   0.82081 
 Bq                   -0.6225    2.46597   0.82081 
 Bq                   -1.25946   1.17434   0.82081 
 Bq                   -0.68543   1.50575   0.82081 
 Bq                   -0.6225    1.59994   0.82081 
 Bq                   -0.57239   1.70154   0.82081 
 Bq                   -0.53598   1.80881   0.82081 
 Bq                   -0.57239   1.57102   0.70349 
 Bq                   -2.20901   2.2571   -0.17919 
 Bq                   -2.23111   2.14599  -0.17919 
 Bq                   -2.23852   2.03296  -0.17919 
 Bq                   -2.23111   1.91992  -0.17919 
 Bq                   -2.20901   1.80881  -0.17919 
 Bq                   -2.10546   2.33656  -0.28795 
 Bq                   -2.13882   2.23829  -0.28795 
 Bq                   -2.15906   2.13651  -0.28795 
 Bq                   -2.16585   2.03296  -0.28795 
 Bq                   -2.15906   1.9294   -0.28795 
 Bq                   -2.13882   1.82762  -0.28795 
 Bq                   -2.10546   1.72935  -0.28795 
 Bq                   -1.2802    2.73401  -0.3863 
 Bq                   -1.3725    2.74006  -0.3863 
 Bq                   -1.93348   2.46342  -0.3863 
 Bq                   -1.98487   2.38651  -0.3863 
 Bq                   -2.02578   2.30355  -0.3863 
 Bq                   -2.05551   2.21597  -0.3863 
 Bq                   -2.07355   2.12525  -0.3863 
 Bq                   -2.0796    2.03296  -0.3863 
 Bq                   -2.07355   1.94066  -0.3863 
 Bq                   -2.05551   1.84994  -0.3863 
 Bq                   -2.02578   1.76236  -0.3863 
 Bq                   -1.98487   1.6794   -0.3863 
 Bq                   -1.93348   1.6025   -0.3863 
 Bq                   -1.55551   1.34994  -0.3863 
 Bq                   -1.46479   1.3319   -0.3863 
 Bq                   -0.84529   2.33734  -0.47255 
 Bq                   -0.88953   2.40355  -0.47255 
 Bq                   -0.94204   2.46342  -0.47255 
 Bq                   -1.0019    2.51592  -0.47255 
 Bq                   -1.06811   2.56016  -0.47255 
 Bq                   -1.13953   2.59538  -0.47255 
 Bq                   -1.21494   2.62097  -0.47255 
 Bq                   -1.29304   2.63651  -0.47255 
 Bq                   -1.3725    2.64172  -0.47255 
 Bq                   -1.45195   2.63651  -0.47255 
 Bq                   -1.53005   2.62097  -0.47255 
 Bq                   -1.60546   2.59538  -0.47255 
 Bq                   -1.67688   2.56016  -0.47255 
 Bq                   -1.74309   2.51592  -0.47255 
 Bq                   -1.80295   2.46342  -0.47255 
 Bq                   -1.85546   2.40355  -0.47255 
 Bq                   -1.8997    2.33734  -0.47255 
 Bq                   -1.93492   2.26592  -0.47255 
 Bq                   -1.96051   2.19052  -0.47255 
 Bq                   -1.97605   2.11242  -0.47255 
 Bq                   -1.98126   2.03296  -0.47255 
 Bq                   -1.97605   1.9535   -0.47255 
 Bq                   -1.96051   1.8754   -0.47255 
 Bq                   -1.93492   1.79999  -0.47255 
 Bq                   -1.8997    1.72858  -0.47255 
 Bq                   -1.85546   1.66237  -0.47255 
 Bq                   -1.80295   1.6025   -0.47255 
 Bq                   -1.74309   1.54999  -0.47255 
 Bq                   -1.67688   1.50575  -0.47255 
 Bq                   -1.60546   1.47053  -0.47255 
 Bq                   -1.53005   1.44494  -0.47255 
 Bq                   -1.45195   1.4294   -0.47255 
 Bq                   -1.3725    1.42419  -0.47255 
 Bq                   -1.29304   1.4294   -0.47255 
 Bq                   -0.88953   1.66237  -0.47255 
 Bq                   -0.84529   1.72858  -0.47255 
 Bq                   -0.8725    2.03296  -0.54522 
 Bq                   -0.87677   2.09822  -0.54522 
 Bq                   -0.88953   2.16237  -0.54522 
 Bq                   -0.91056   2.2243   -0.54522 
 Bq                   -0.93948   2.28296  -0.54522 
 Bq                   -0.97582   2.33734  -0.54522 
 Bq                   -1.01894   2.38651  -0.54522 
 Bq                   -1.06811   2.42963  -0.54522 
 Bq                   -1.1225    2.46597  -0.54522 
 Bq                   -1.18115   2.4949   -0.54522 
 Bq                   -1.24309   2.51592  -0.54522 
 Bq                   -1.30723   2.52868  -0.54522 
 Bq                   -1.3725    2.53296  -0.54522 
 Bq                   -1.43776   2.52868  -0.54522 
 Bq                   -1.5019    2.51592  -0.54522 
 Bq                   -1.56384   2.4949   -0.54522 
 Bq                   -1.6225    2.46597  -0.54522 
 Bq                   -1.67688   2.42963  -0.54522 
 Bq                   -1.72605   2.38651  -0.54522 
 Bq                   -1.76917   2.33734  -0.54522 
 Bq                   -1.80551   2.28296  -0.54522 
 Bq                   -1.83443   2.2243   -0.54522 
 Bq                   -1.85546   2.16237  -0.54522 
 Bq                   -1.86822   2.09822  -0.54522 
 Bq                   -1.8725    2.03296  -0.54522 
 Bq                   -1.86822   1.96769  -0.54522 
 Bq                   -1.85546   1.90355  -0.54522 
 Bq                   -1.83443   1.84161  -0.54522 
 Bq                   -1.80551   1.78296  -0.54522 
 Bq                   -1.76917   1.72858  -0.54522 
 Bq                   -1.72605   1.6794   -0.54522 
 Bq                   -1.67688   1.63628  -0.54522 
 Bq                   -1.6225    1.59994  -0.54522 
 Bq                   -1.56384   1.57102  -0.54522 
 Bq                   -1.5019    1.54999  -0.54522 
 Bq                   -1.43776   1.53723  -0.54522 
 Bq                   -1.3725    1.53296  -0.54522 
 Bq                   -1.30723   1.53723  -0.54522 
 Bq                   -1.24309   1.54999  -0.54522 
 Bq                   -1.18115   1.57102  -0.54522 
 Bq                   -1.1225    1.59994  -0.54522 
 Bq                   -1.06811   1.63628  -0.54522 
 Bq                   -1.01894   1.6794   -0.54522 
 Bq                   -0.97582   1.72858  -0.54522 
 Bq                   -0.93948   1.78296  -0.54522 
 Bq                   -0.91056   1.84161  -0.54522 
 Bq                   -0.88953   1.90355  -0.54522 
 Bq                   -0.87677   1.96769  -0.54522 
 Bq                   -0.98981   2.03296  -0.60307 
 Bq                   -0.99309   2.08291  -0.60307 
 Bq                   -1.00285   2.132    -0.60307 
 Bq                   -1.01894   2.1794   -0.60307 
 Bq                   -1.04108   2.2243   -0.60307 
 Bq                   -1.06889   2.26592  -0.60307 
 Bq                   -1.1019    2.30355  -0.60307 
 Bq                   -1.13953   2.33656  -0.60307 
 Bq                   -1.18115   2.36437  -0.60307 
 Bq                   -1.22605   2.38651  -0.60307 
 Bq                   -1.27345   2.4026   -0.60307 
 Bq                   -1.32254   2.41237  -0.60307 
 Bq                   -1.3725    2.41564  -0.60307 
 Bq                   -1.42245   2.41237  -0.60307 
 Bq                   -1.47154   2.4026   -0.60307 
 Bq                   -1.51894   2.38651  -0.60307 
 Bq                   -1.56384   2.36437  -0.60307 
 Bq                   -1.60546   2.33656  -0.60307 
 Bq                   -1.64309   2.30355  -0.60307 
 Bq                   -1.6761    2.26592  -0.60307 
 Bq                   -1.70391   2.2243   -0.60307 
 Bq                   -1.72605   2.1794   -0.60307 
 Bq                   -1.74214   2.132    -0.60307 
 Bq                   -1.7519    2.08291  -0.60307 
 Bq                   -1.75518   2.03296  -0.60307 
 Bq                   -1.7519    1.98301  -0.60307 
 Bq                   -1.74214   1.93391  -0.60307 
 Bq                   -1.72605   1.88651  -0.60307 
 Bq                   -1.70391   1.84161  -0.60307 
 Bq                   -1.6761    1.79999  -0.60307 
 Bq                   -1.64309   1.76236  -0.60307 
 Bq                   -1.60546   1.72935  -0.60307 
 Bq                   -1.56384   1.70154  -0.60307 
 Bq                   -1.51894   1.6794   -0.60307 
 Bq                   -1.47154   1.66331  -0.60307 
 Bq                   -1.42245   1.65355  -0.60307 
 Bq                   -1.3725    1.65027  -0.60307 
 Bq                   -1.32254   1.65355  -0.60307 
 Bq                   -1.27345   1.66331  -0.60307 
 Bq                   -1.22605   1.6794   -0.60307 
 Bq                   -1.18115   1.70154  -0.60307 
 Bq                   -1.13953   1.72935  -0.60307 
 Bq                   -1.1019    1.76236  -0.60307 
 Bq                   -1.06889   1.79999  -0.60307 
 Bq                   -1.04108   1.84161  -0.60307 
 Bq                   -1.01894   1.88651  -0.60307 
 Bq                   -1.00285   1.93391  -0.60307 
 Bq                   -0.99309   1.98301  -0.60307 
 Bq                   -1.11368   2.03296  -0.64512 
 Bq                   -1.11589   2.06674  -0.64512 
 Bq                   -1.1225    2.09994  -0.64512 
 Bq                   -1.13338   2.132    -0.64512 
 Bq                   -1.14835   2.16237  -0.64512 
 Bq                   -1.16716   2.19052  -0.64512 
 Bq                   -1.18948   2.21597  -0.64512 
 Bq                   -1.21494   2.23829  -0.64512 
 Bq                   -1.24309   2.2571   -0.64512 
 Bq                   -1.27345   2.27207  -0.64512 
 Bq                   -1.30551   2.28296  -0.64512 
 Bq                   -1.33871   2.28956  -0.64512 
 Bq                   -1.3725    2.29178  -0.64512 
 Bq                   -1.40628   2.28956  -0.64512 
 Bq                   -1.43948   2.28296  -0.64512 
 Bq                   -1.47154   2.27207  -0.64512 
 
 NAtoms=    236 NQM=      236 NQMF=       0 NMMI=      0 NMMIF=      0
                NMic=       0 NMicF=      0.
                    Isotopes and Nuclear Properties:
 (Nuclear quadrupole moments (NQMom) in fm**2, nuclear magnetic moments (NMagM)
  in nuclear magnetons)

  Atom         1           2           3           4           5           6           7           8           9          10
 IAtWgt=          12          12          12          12          12          12          12          12          12          12
 AtmWgt=  12.0000000  12.0000000  12.0000000  12.0000000  12.0000000  12.0000000  12.0000000  12.0000000  12.0000000  12.0000000
 NucSpn=           0           0           0           0           0           0           0           0           0           0
 AtZEff=   0.0000000   0.0000000   0.0000000   0.0000000   0.0000000   0.0000000   0.0000000   0.0000000   0.0000000   0.0000000
 NQMom=    0.0000000   0.0000000   0.0000000   0.0000000   0.0000000   0.0000000   0.0000000   0.0000000   0.0000000   0.0000000
 NMagM=    0.0000000   0.0000000   0.0000000   0.0000000   0.0000000   0.0000000   0.0000000   0.0000000   0.0000000   0.0000000
 AtZNuc=   6.0000000   6.0000000   6.0000000   6.0000000   6.0000000   6.0000000   6.0000000   6.0000000   6.0000000   6.0000000

  Atom        11          12          13          14          15          16          17          18          19          20
 IAtWgt=           1           1           1           1          12          12          12          12           1           1
 AtmWgt=   1.0078250   1.0078250   1.0078250   1.0078250  12.0000000  12.0000000  12.0000000  12.0000000   1.0078250   1.0078250
 NucSpn=           1           1           1           1           0           0           0           0           1           1
 AtZEff=   0.0000000   0.0000000   0.0000000   0.0000000   0.0000000   0.0000000   0.0000000   0.0000000   0.0000000   0.0000000
 NQMom=    0.0000000   0.0000000   0.0000000   0.0000000   0.0000000   0.0000000   0.0000000   0.0000000   0.0000000   0.0000000
 NMagM=    2.7928460   2.7928460   2.7928460   2.7928460   0.0000000   0.0000000   0.0000000   0.0000000   2.7928460   2.7928460
 AtZNuc=   1.0000000   1.0000000   1.0000000   1.0000000   6.0000000   6.0000000   6.0000000   6.0000000   1.0000000   1.0000000

  Atom        21          22          23          24          25          26          27          28          29          30
 IAtWgt=           1           1          12          12          12          12          12          12          12          12
 AtmWgt=   1.0078250   1.0078250  12.0000000  12.0000000  12.0000000  12.0000000  12.0000000  12.0000000  12.0000000  12.0000000
 NucSpn=           1           1           0           0           0           0           0           0           0           0
 AtZEff=   0.0000000   0.0000000   0.0000000   0.0000000   0.0000000   0.0000000   0.0000000   0.0000000   0.0000000   0.0000000
 NQMom=    0.0000000   0.0000000   0.0000000   0.0000000   0.0000000   0.0000000   0.0000000   0.0000000   0.0000000   0.0000000
 NMagM=    2.7928460   2.7928460   0.0000000   0.0000000   0.0000000   0.0000000   0.0000000   0.0000000   0.0000000   0.0000000
 AtZNuc=   1.0000000   1.0000000   6.0000000   6.0000000   6.0000000   6.0000000   6.0000000   6.0000000   6.0000000   6.0000000

  Atom        31          32          33          34          35          36          37          38          39          40
 IAtWgt=           1           1           1           1           1           1           0           0           0           0
 AtmWgt=   1.0078250   1.0078250   1.0078250   1.0078250   1.0078250   1.0078250   0.0000000   0.0000000   0.0000000   0.0000000
 NucSpn=           1           1           1           1           1           1           0           0           0           0
 AtZEff=   0.0000000   0.0000000   0.0000000   0.0000000   0.0000000   0.0000000   0.0000000   0.0000000   0.0000000   0.0000000
 NQMom=    0.0000000   0.0000000   0.0000000   0.0000000   0.0000000   0.0000000   0.0000000   0.0000000   0.0000000   0.0000000
 NMagM=    2.7928460   2.7928460   2.7928460   2.7928460   2.7928460   2.7928460   0.0000000   0.0000000   0.0000000   0.0000000
 AtZNuc=   1.0000000   1.0000000   1.0000000   1.0000000   1.0000000   1.0000000   0.0000000   0.0000000   0.0000000   0.0000000

  Atom        41          42          43          44          45          46          47          48          49          50
 IAtWgt=           0           0           0           0           0           0           0           0           0           0
 AtmWgt=   0.0000000   0.0000000   0.0000000   0.0000000   0.0000000   0.0000000   0.0000000   0.0000000   0.0000000   0.0000000
 NucSpn=           0           0           0           0           0           0           0           0           0           0
 AtZEff=   0.0000000   0.0000000   0.0000000   0.0000000   0.0000000   0.0000000   0.0000000   0.0000000   0.0000000   0.0000000
 NQMom=    0.0000000   0.0000000   0.0000000   0.0000000   0.0000000   0.0000000   0.0000000   0.0000000   0.0000000   0.0000000
 NMagM=    0.0000000   0.0000000   0.0000000   0.0000000   0.0000000   0.0000000   0.0000000   0.0000000   0.0000000   0.0000000
 AtZNuc=   0.0000000   0.0000000   0.0000000   0.0000000   0.0000000   0.0000000   0.0000000   0.0000000   0.0000000   0.0000000

  Atom        51          52          53          54          55          56          57          58          59          60
 IAtWgt=           0           0           0           0           0           0           0           0           0           0
 AtmWgt=   0.0000000   0.0000000   0.0000000   0.0000000   0.0000000   0.0000000   0.0000000   0.0000000   0.0000000   0.0000000
 NucSpn=           0           0           0           0           0           0           0           0           0           0
 AtZEff=   0.0000000   0.0000000   0.0000000   0.0000000   0.0000000   0.0000000   0.0000000   0.0000000   0.0000000   0.0000000
 NQMom=    0.0000000   0.0000000   0.0000000   0.0000000   0.0000000   0.0000000   0.0000000   0.0000000   0.0000000   0.0000000
 NMagM=    0.0000000   0.0000000   0.0000000   0.0000000   0.0000000   0.0000000   0.0000000   0.0000000   0.0000000   0.0000000
 AtZNuc=   0.0000000   0.0000000   0.0000000   0.0000000   0.0000000   0.0000000   0.0000000   0.0000000   0.0000000   0.0000000

  Atom        61          62          63          64          65          66          67          68          69          70
 IAtWgt=           0           0           0           0           0           0           0           0           0           0
 AtmWgt=   0.0000000   0.0000000   0.0000000   0.0000000   0.0000000   0.0000000   0.0000000   0.0000000   0.0000000   0.0000000
 NucSpn=           0           0           0           0           0           0           0           0           0           0
 AtZEff=   0.0000000   0.0000000   0.0000000   0.0000000   0.0000000   0.0000000   0.0000000   0.0000000   0.0000000   0.0000000
 NQMom=    0.0000000   0.0000000   0.0000000   0.0000000   0.0000000   0.0000000   0.0000000   0.0000000   0.0000000   0.0000000
 NMagM=    0.0000000   0.0000000   0.0000000   0.0000000   0.0000000   0.0000000   0.0000000   0.0000000   0.0000000   0.0000000
 AtZNuc=   0.0000000   0.0000000   0.0000000   0.0000000   0.0000000   0.0000000   0.0000000   0.0000000   0.0000000   0.0000000

  Atom        71          72          73          74          75          76          77          78          79          80
 IAtWgt=           0           0           0           0           0           0           0           0           0           0
 AtmWgt=   0.0000000   0.0000000   0.0000000   0.0000000   0.0000000   0.0000000   0.0000000   0.0000000   0.0000000   0.0000000
 NucSpn=           0           0           0           0           0           0           0           0           0           0
 AtZEff=   0.0000000   0.0000000   0.0000000   0.0000000   0.0000000   0.0000000   0.0000000   0.0000000   0.0000000   0.0000000
 NQMom=    0.0000000   0.0000000   0.0000000   0.0000000   0.0000000   0.0000000   0.0000000   0.0000000   0.0000000   0.0000000
 NMagM=    0.0000000   0.0000000   0.0000000   0.0000000   0.0000000   0.0000000   0.0000000   0.0000000   0.0000000   0.0000000
 AtZNuc=   0.0000000   0.0000000   0.0000000   0.0000000   0.0000000   0.0000000   0.0000000   0.0000000   0.0000000   0.0000000

  Atom        81          82          83          84          85          86          87          88          89          90
 IAtWgt=           0           0           0           0           0           0           0           0           0           0
 AtmWgt=   0.0000000   0.0000000   0.0000000   0.0000000   0.0000000   0.0000000   0.0000000   0.0000000   0.0000000   0.0000000
 NucSpn=           0           0           0           0           0           0           0           0           0           0
 AtZEff=   0.0000000   0.0000000   0.0000000   0.0000000   0.0000000   0.0000000   0.0000000   0.0000000   0.0000000   0.0000000
 NQMom=    0.0000000   0.0000000   0.0000000   0.0000000   0.0000000   0.0000000   0.0000000   0.0000000   0.0000000   0.0000000
 NMagM=    0.0000000   0.0000000   0.0000000   0.0000000   0.0000000   0.0000000   0.0000000   0.0000000   0.0000000   0.0000000
 AtZNuc=   0.0000000   0.0000000   0.0000000   0.0000000   0.0000000   0.0000000   0.0000000   0.0000000   0.0000000   0.0000000

  Atom        91          92          93          94          95          96          97          98          99         100
 IAtWgt=           0           0           0           0           0           0           0           0           0           0
 AtmWgt=   0.0000000   0.0000000   0.0000000   0.0000000   0.0000000   0.0000000   0.0000000   0.0000000   0.0000000   0.0000000
 NucSpn=           0           0           0           0           0           0           0           0           0           0
 AtZEff=   0.0000000   0.0000000   0.0000000   0.0000000   0.0000000   0.0000000   0.0000000   0.0000000   0.0000000   0.0000000
 NQMom=    0.0000000   0.0000000   0.0000000   0.0000000   0.0000000   0.0000000   0.0000000   0.0000000   0.0000000   0.0000000
 NMagM=    0.0000000   0.0000000   0.0000000   0.0000000   0.0000000   0.0000000   0.0000000   0.0000000   0.0000000   0.0000000
 AtZNuc=   0.0000000   0.0000000   0.0000000   0.0000000   0.0000000   0.0000000   0.0000000   0.0000000   0.0000000   0.0000000

  Atom       101         102         103         104         105         106         107         108         109         110
 IAtWgt=           0           0           0           0           0           0           0           0           0           0
 AtmWgt=   0.0000000   0.0000000   0.0000000   0.0000000   0.0000000   0.0000000   0.0000000   0.0000000   0.0000000   0.0000000
 NucSpn=           0           0           0           0           0           0           0           0           0           0
 AtZEff=   0.0000000   0.0000000   0.0000000   0.0000000   0.0000000   0.0000000   0.0000000   0.0000000   0.0000000   0.0000000
 NQMom=    0.0000000   0.0000000   0.0000000   0.0000000   0.0000000   0.0000000   0.0000000   0.0000000   0.0000000   0.0000000
 NMagM=    0.0000000   0.0000000   0.0000000   0.0000000   0.0000000   0.0000000   0.0000000   0.0000000   0.0000000   0.0000000
 AtZNuc=   0.0000000   0.0000000   0.0000000   0.0000000   0.0000000   0.0000000   0.0000000   0.0000000   0.0000000   0.0000000

  Atom       111         112         113         114         115         116         117         118         119         120
 IAtWgt=           0           0           0           0           0           0           0           0           0           0
 AtmWgt=   0.0000000   0.0000000   0.0000000   0.0000000   0.0000000   0.0000000   0.0000000   0.0000000   0.0000000   0.0000000
 NucSpn=           0           0           0           0           0           0           0           0           0           0
 AtZEff=   0.0000000   0.0000000   0.0000000   0.0000000   0.0000000   0.0000000   0.0000000   0.0000000   0.0000000   0.0000000
 NQMom=    0.0000000   0.0000000   0.0000000   0.0000000   0.0000000   0.0000000   0.0000000   0.0000000   0.0000000   0.0000000
 NMagM=    0.0000000   0.0000000   0.0000000   0.0000000   0.0000000   0.0000000   0.0000000   0.0000000   0.0000000   0.0000000
 AtZNuc=   0.0000000   0.0000000   0.0000000   0.0000000   0.0000000   0.0000000   0.0000000   0.0000000   0.0000000   0.0000000

  Atom       121         122         123         124         125         126         127         128         129         130
 IAtWgt=           0           0           0           0           0           0           0           0           0           0
 AtmWgt=   0.0000000   0.0000000   0.0000000   0.0000000   0.0000000   0.0000000   0.0000000   0.0000000   0.0000000   0.0000000
 NucSpn=           0           0           0           0           0           0           0           0           0           0
 AtZEff=   0.0000000   0.0000000   0.0000000   0.0000000   0.0000000   0.0000000   0.0000000   0.0000000   0.0000000   0.0000000
 NQMom=    0.0000000   0.0000000   0.0000000   0.0000000   0.0000000   0.0000000   0.0000000   0.0000000   0.0000000   0.0000000
 NMagM=    0.0000000   0.0000000   0.0000000   0.0000000   0.0000000   0.0000000   0.0000000   0.0000000   0.0000000   0.0000000
 AtZNuc=   0.0000000   0.0000000   0.0000000   0.0000000   0.0000000   0.0000000   0.0000000   0.0000000   0.0000000   0.0000000

  Atom       131         132         133         134         135         136         137         138         139         140
 IAtWgt=           0           0           0           0           0           0           0           0           0           0
 AtmWgt=   0.0000000   0.0000000   0.0000000   0.0000000   0.0000000   0.0000000   0.0000000   0.0000000   0.0000000   0.0000000
 NucSpn=           0           0           0           0           0           0           0           0           0           0
 AtZEff=   0.0000000   0.0000000   0.0000000   0.0000000   0.0000000   0.0000000   0.0000000   0.0000000   0.0000000   0.0000000
 NQMom=    0.0000000   0.0000000   0.0000000   0.0000000   0.0000000   0.0000000   0.0000000   0.0000000   0.0000000   0.0000000
 NMagM=    0.0000000   0.0000000   0.0000000   0.0000000   0.0000000   0.0000000   0.0000000   0.0000000   0.0000000   0.0000000
 AtZNuc=   0.0000000   0.0000000   0.0000000   0.0000000   0.0000000   0.0000000   0.0000000   0.0000000   0.0000000   0.0000000

  Atom       141         142         143         144         145         146         147         148         149         150
 IAtWgt=           0           0           0           0           0           0           0           0           0           0
 AtmWgt=   0.0000000   0.0000000   0.0000000   0.0000000   0.0000000   0.0000000   0.0000000   0.0000000   0.0000000   0.0000000
 NucSpn=           0           0           0           0           0           0           0           0           0           0
 AtZEff=   0.0000000   0.0000000   0.0000000   0.0000000   0.0000000   0.0000000   0.0000000   0.0000000   0.0000000   0.0000000
 NQMom=    0.0000000   0.0000000   0.0000000   0.0000000   0.0000000   0.0000000   0.0000000   0.0000000   0.0000000   0.0000000
 NMagM=    0.0000000   0.0000000   0.0000000   0.0000000   0.0000000   0.0000000   0.0000000   0.0000000   0.0000000   0.0000000
 AtZNuc=   0.0000000   0.0000000   0.0000000   0.0000000   0.0000000   0.0000000   0.0000000   0.0000000   0.0000000   0.0000000

  Atom       151         152         153         154         155         156         157         158         159         160
 IAtWgt=           0           0           0           0           0           0           0           0           0           0
 AtmWgt=   0.0000000   0.0000000   0.0000000   0.0000000   0.0000000   0.0000000   0.0000000   0.0000000   0.0000000   0.0000000
 NucSpn=           0           0           0           0           0           0           0           0           0           0
 AtZEff=   0.0000000   0.0000000   0.0000000   0.0000000   0.0000000   0.0000000   0.0000000   0.0000000   0.0000000   0.0000000
 NQMom=    0.0000000   0.0000000   0.0000000   0.0000000   0.0000000   0.0000000   0.0000000   0.0000000   0.0000000   0.0000000
 NMagM=    0.0000000   0.0000000   0.0000000   0.0000000   0.0000000   0.0000000   0.0000000   0.0000000   0.0000000   0.0000000
 AtZNuc=   0.0000000   0.0000000   0.0000000   0.0000000   0.0000000   0.0000000   0.0000000   0.0000000   0.0000000   0.0000000

  Atom       161         162         163         164         165         166         167         168         169         170
 IAtWgt=           0           0           0           0           0           0           0           0           0           0
 AtmWgt=   0.0000000   0.0000000   0.0000000   0.0000000   0.0000000   0.0000000   0.0000000   0.0000000   0.0000000   0.0000000
 NucSpn=           0           0           0           0           0           0           0           0           0           0
 AtZEff=   0.0000000   0.0000000   0.0000000   0.0000000   0.0000000   0.0000000   0.0000000   0.0000000   0.0000000   0.0000000
 NQMom=    0.0000000   0.0000000   0.0000000   0.0000000   0.0000000   0.0000000   0.0000000   0.0000000   0.0000000   0.0000000
 NMagM=    0.0000000   0.0000000   0.0000000   0.0000000   0.0000000   0.0000000   0.0000000   0.0000000   0.0000000   0.0000000
 AtZNuc=   0.0000000   0.0000000   0.0000000   0.0000000   0.0000000   0.0000000   0.0000000   0.0000000   0.0000000   0.0000000

  Atom       171         172         173         174         175         176         177         178         179         180
 IAtWgt=           0           0           0           0           0           0           0           0           0           0
 AtmWgt=   0.0000000   0.0000000   0.0000000   0.0000000   0.0000000   0.0000000   0.0000000   0.0000000   0.0000000   0.0000000
 NucSpn=           0           0           0           0           0           0           0           0           0           0
 AtZEff=   0.0000000   0.0000000   0.0000000   0.0000000   0.0000000   0.0000000   0.0000000   0.0000000   0.0000000   0.0000000
 NQMom=    0.0000000   0.0000000   0.0000000   0.0000000   0.0000000   0.0000000   0.0000000   0.0000000   0.0000000   0.0000000
 NMagM=    0.0000000   0.0000000   0.0000000   0.0000000   0.0000000   0.0000000   0.0000000   0.0000000   0.0000000   0.0000000
 AtZNuc=   0.0000000   0.0000000   0.0000000   0.0000000   0.0000000   0.0000000   0.0000000   0.0000000   0.0000000   0.0000000

  Atom       181         182         183         184         185         186         187         188         189         190
 IAtWgt=           0           0           0           0           0           0           0           0           0           0
 AtmWgt=   0.0000000   0.0000000   0.0000000   0.0000000   0.0000000   0.0000000   0.0000000   0.0000000   0.0000000   0.0000000
 NucSpn=           0           0           0           0           0           0           0           0           0           0
 AtZEff=   0.0000000   0.0000000   0.0000000   0.0000000   0.0000000   0.0000000   0.0000000   0.0000000   0.0000000   0.0000000
 NQMom=    0.0000000   0.0000000   0.0000000   0.0000000   0.0000000   0.0000000   0.0000000   0.0000000   0.0000000   0.0000000
 NMagM=    0.0000000   0.0000000   0.0000000   0.0000000   0.0000000   0.0000000   0.0000000   0.0000000   0.0000000   0.0000000
 AtZNuc=   0.0000000   0.0000000   0.0000000   0.0000000   0.0000000   0.0000000   0.0000000   0.0000000   0.0000000   0.0000000

  Atom       191         192         193         194         195         196         197         198         199         200
 IAtWgt=           0           0           0           0           0           0           0           0           0           0
 AtmWgt=   0.0000000   0.0000000   0.0000000   0.0000000   0.0000000   0.0000000   0.0000000   0.0000000   0.0000000   0.0000000
 NucSpn=           0           0           0           0           0           0           0           0           0           0
 AtZEff=   0.0000000   0.0000000   0.0000000   0.0000000   0.0000000   0.0000000   0.0000000   0.0000000   0.0000000   0.0000000
 NQMom=    0.0000000   0.0000000   0.0000000   0.0000000   0.0000000   0.0000000   0.0000000   0.0000000   0.0000000   0.0000000
 NMagM=    0.0000000   0.0000000   0.0000000   0.0000000   0.0000000   0.0000000   0.0000000   0.0000000   0.0000000   0.0000000
 AtZNuc=   0.0000000   0.0000000   0.0000000   0.0000000   0.0000000   0.0000000   0.0000000   0.0000000   0.0000000   0.0000000

  Atom       201         202         203         204         205         206         207         208         209         210
 IAtWgt=           0           0           0           0           0           0           0           0           0           0
 AtmWgt=   0.0000000   0.0000000   0.0000000   0.0000000   0.0000000   0.0000000   0.0000000   0.0000000   0.0000000   0.0000000
 NucSpn=           0           0           0           0           0           0           0           0           0           0
 AtZEff=   0.0000000   0.0000000   0.0000000   0.0000000   0.0000000   0.0000000   0.0000000   0.0000000   0.0000000   0.0000000
 NQMom=    0.0000000   0.0000000   0.0000000   0.0000000   0.0000000   0.0000000   0.0000000   0.0000000   0.0000000   0.0000000
 NMagM=    0.0000000   0.0000000   0.0000000   0.0000000   0.0000000   0.0000000   0.0000000   0.0000000   0.0000000   0.0000000
 AtZNuc=   0.0000000   0.0000000   0.0000000   0.0000000   0.0000000   0.0000000   0.0000000   0.0000000   0.0000000   0.0000000

  Atom       211         212         213         214         215         216         217         218         219         220
 IAtWgt=           0           0           0           0           0           0           0           0           0           0
 AtmWgt=   0.0000000   0.0000000   0.0000000   0.0000000   0.0000000   0.0000000   0.0000000   0.0000000   0.0000000   0.0000000
 NucSpn=           0           0           0           0           0           0           0           0           0           0
 AtZEff=   0.0000000   0.0000000   0.0000000   0.0000000   0.0000000   0.0000000   0.0000000   0.0000000   0.0000000   0.0000000
 NQMom=    0.0000000   0.0000000   0.0000000   0.0000000   0.0000000   0.0000000   0.0000000   0.0000000   0.0000000   0.0000000
 NMagM=    0.0000000   0.0000000   0.0000000   0.0000000   0.0000000   0.0000000   0.0000000   0.0000000   0.0000000   0.0000000
 AtZNuc=   0.0000000   0.0000000   0.0000000   0.0000000   0.0000000   0.0000000   0.0000000   0.0000000   0.0000000   0.0000000

  Atom       221         222         223         224         225         226         227         228         229         230
 IAtWgt=           0           0           0           0           0           0           0           0           0           0
 AtmWgt=   0.0000000   0.0000000   0.0000000   0.0000000   0.0000000   0.0000000   0.0000000   0.0000000   0.0000000   0.0000000
 NucSpn=           0           0           0           0           0           0           0           0           0           0
 AtZEff=   0.0000000   0.0000000   0.0000000   0.0000000   0.0000000   0.0000000   0.0000000   0.0000000   0.0000000   0.0000000
 NQMom=    0.0000000   0.0000000   0.0000000   0.0000000   0.0000000   0.0000000   0.0000000   0.0000000   0.0000000   0.0000000
 NMagM=    0.0000000   0.0000000   0.0000000   0.0000000   0.0000000   0.0000000   0.0000000   0.0000000   0.0000000   0.0000000
 AtZNuc=   0.0000000   0.0000000   0.0000000   0.0000000   0.0000000   0.0000000   0.0000000   0.0000000   0.0000000   0.0000000

  Atom       231         232         233         234         235         236
 IAtWgt=           0           0           0           0           0           0
 AtmWgt=   0.0000000   0.0000000   0.0000000   0.0000000   0.0000000   0.0000000
 NucSpn=           0           0           0           0           0           0
 AtZEff=   0.0000000   0.0000000   0.0000000   0.0000000   0.0000000   0.0000000
 NQMom=    0.0000000   0.0000000   0.0000000   0.0000000   0.0000000   0.0000000
 NMagM=    0.0000000   0.0000000   0.0000000   0.0000000   0.0000000   0.0000000
 AtZNuc=   0.0000000   0.0000000   0.0000000   0.0000000   0.0000000   0.0000000
 Leave Link  101 at Tue Sep 15 10:38:39 2020, MaxMem=   131072000 cpu:         2.8
 (Enter /share/programs/GAUSSIAN/64/g09/l202.exe)
 Symmetry turned off:
 Cannot cope with ghost atoms or with translation vectors.
 Stoichiometry    C22H14
 Framework group  C1[X(C22H14)]
 NUMDOF-- NAT=    36 NAtoms=   236
 Deg. of freedom     0
 Full point group                 C1      NOp   1
                          Input orientation:                          
 ---------------------------------------------------------------------
 Center     Atomic      Atomic             Coordinates (Angstroms)
 Number     Number       Type             X           Y           Z
 ---------------------------------------------------------------------
      1          6           0        0.653241    3.257859   -0.202510
      2          6           0       -0.653243    3.257860    0.202510
      3          6           0        1.372495    2.032956   -0.320807
      4          6           0       -1.372495    2.032956    0.320807
      5          6           0        0.722474    0.795666   -0.050388
      6          6           0       -0.722474    0.795667    0.050387
      7          6           0        2.760385    2.053927   -0.674268
      8          6           0        3.508866    0.913916   -0.671362
      9          6           0        2.955226   -0.309622   -0.177479
     10          6           0        1.574722   -0.361114    0.197094
     11          1           0        1.183427    4.195740   -0.384599
     12          1           0       -1.183429    4.195740    0.384599
     13          1           0        3.206283    3.012423   -0.951392
     14          1           0        4.560023    0.932956   -0.969333
     15          6           0        3.783020   -1.443098    0.028309
     16          6           0        1.137427   -1.507533    0.912109
     17          6           0        1.973691   -2.584349    1.138062
     18          6           0        3.301853   -2.571588    0.661177
     19          1           0        4.825754   -1.391230   -0.295484
     20          1           0        0.124652   -1.532788    1.308472
     21          1           0        1.603586   -3.445682    1.698977
     22          1           0        3.952742   -3.433526    0.825134
     23          6           0       -3.508866    0.913915    0.671362
     24          6           0       -2.760386    2.053926    0.674268
     25          6           0       -2.955226   -0.309623    0.177479
     26          6           0       -1.574722   -0.361114   -0.197094
     27          6           0       -3.783020   -1.443099   -0.028309
     28          6           0       -3.301852   -2.571589   -0.661177
     29          6           0       -1.973690   -2.584349   -1.138061
     30          6           0       -1.137426   -1.507534   -0.912109
     31          1           0       -4.560022    0.932954    0.969334
     32          1           0       -3.206283    3.012421    0.951392
     33          1           0       -4.825754   -1.391232    0.295484
     34          1           0       -3.952741   -3.433528   -0.825134
     35          1           0       -1.603585   -3.445682   -1.698976
     36          1           0       -0.124652   -1.532788   -1.308471
     37          0           0       -0.639532    2.336559    0.929568
     38          0           0       -0.685431    2.429633    0.929568
     39          0           0       -0.743085    2.515919    0.929568
     40          0           0       -1.476048    1.246390    0.929568
     41          0           0       -1.372495    1.239603    0.929568
     42          0           0       -1.268942    1.246390    0.929568
     43          0           0       -1.167160    1.266636    0.929568
     44          0           0       -1.068892    1.299993    0.929568
     45          0           0       -0.975818    1.345892    0.929568
     46          0           0       -0.889532    1.403546    0.929568
     47          0           0       -0.811509    1.471970    0.929568
     48          0           0       -0.743085    1.549993    0.929568
     49          0           0       -0.685431    1.636279    0.929568
     50          0           0       -0.639532    1.729353    0.929568
     51          0           0       -0.606175    1.827621    0.929568
     52          0           0       -0.585929    1.929403    0.929568
     53          0           0       -0.535979    2.257100    0.820807
     54          0           0       -0.572392    2.364370    0.820807
     55          0           0       -0.622495    2.465969    0.820807
     56          0           0       -1.259456    1.174340    0.820807
     57          0           0       -0.685431    1.505753    0.820807
     58          0           0       -0.622495    1.599943    0.820807
     59          0           0       -0.572392    1.701542    0.820807
     60          0           0       -0.535979    1.808812    0.820807
     61          0           0       -0.572392    1.571016    0.703490
     62          0           0       -2.209011    2.257100   -0.179193
     63          0           0       -2.231111    2.145995   -0.179193
     64          0           0       -2.238520    2.032956   -0.179193
     65          0           0       -2.231111    1.919917   -0.179193
     66          0           0       -2.209011    1.808812   -0.179193
     67          0           0       -2.105458    2.336559   -0.287954
     68          0           0       -2.138815    2.238291   -0.287954
     69          0           0       -2.159061    2.136509   -0.287954
     70          0           0       -2.165848    2.032956   -0.287954
     71          0           0       -2.159061    1.929403   -0.287954
     72          0           0       -2.138815    1.827621   -0.287954
     73          0           0       -2.105458    1.729353   -0.287954
     74          0           0       -1.280199    2.734013   -0.386300
     75          0           0       -1.372495    2.740063   -0.386300
     76          0           0       -1.933481    2.463415   -0.386300
     77          0           0       -1.984867    2.386509   -0.386300
     78          0           0       -2.025776    2.303554   -0.386300
     79          0           0       -2.055508    2.215969   -0.386300
     80          0           0       -2.073552    2.125252   -0.386300
     81          0           0       -2.079602    2.032956   -0.386300
     82          0           0       -2.073552    1.940660   -0.386300
     83          0           0       -2.055508    1.849943   -0.386300
     84          0           0       -2.025776    1.762358   -0.386300
     85          0           0       -1.984867    1.679403   -0.386300
     86          0           0       -1.933481    1.602497   -0.386300
     87          0           0       -1.555508    1.349943   -0.386300
     88          0           0       -1.464791    1.331899   -0.386300
     89          0           0       -0.845292    2.337337   -0.472546
     90          0           0       -0.889532    2.403546   -0.472546
     91          0           0       -0.942036    2.463415   -0.472546
     92          0           0       -1.001905    2.515919   -0.472546
     93          0           0       -1.068114    2.560159   -0.472546
     94          0           0       -1.139532    2.595378   -0.472546
     95          0           0       -1.214936    2.620974   -0.472546
     96          0           0       -1.293036    2.636509   -0.472546
     97          0           0       -1.372495    2.641717   -0.472546
     98          0           0       -1.451954    2.636509   -0.472546
     99          0           0       -1.530054    2.620974   -0.472546
    100          0           0       -1.605458    2.595378   -0.472546
    101          0           0       -1.676876    2.560159   -0.472546
    102          0           0       -1.743085    2.515919   -0.472546
    103          0           0       -1.802954    2.463415   -0.472546
    104          0           0       -1.855458    2.403546   -0.472546
    105          0           0       -1.899698    2.337337   -0.472546
    106          0           0       -1.934917    2.265919   -0.472546
    107          0           0       -1.960513    2.190515   -0.472546
    108          0           0       -1.976048    2.112415   -0.472546
    109          0           0       -1.981256    2.032956   -0.472546
    110          0           0       -1.976048    1.953497   -0.472546
    111          0           0       -1.960513    1.875397   -0.472546
    112          0           0       -1.934917    1.799993   -0.472546
    113          0           0       -1.899698    1.728575   -0.472546
    114          0           0       -1.855458    1.662366   -0.472546
    115          0           0       -1.802954    1.602497   -0.472546
    116          0           0       -1.743085    1.549993   -0.472546
    117          0           0       -1.676876    1.505753   -0.472546
    118          0           0       -1.605458    1.470534   -0.472546
    119          0           0       -1.530054    1.444938   -0.472546
    120          0           0       -1.451954    1.429403   -0.472546
    121          0           0       -1.372495    1.424195   -0.472546
    122          0           0       -1.293036    1.429403   -0.472546
    123          0           0       -0.889532    1.662366   -0.472546
    124          0           0       -0.845292    1.728575   -0.472546
    125          0           0       -0.872495    2.032956   -0.545218
    126          0           0       -0.876773    2.098219   -0.545218
    127          0           0       -0.889532    2.162366   -0.545218
    128          0           0       -0.910555    2.224298   -0.545218
    129          0           0       -0.939482    2.282956   -0.545218
    130          0           0       -0.975818    2.337337   -0.545218
    131          0           0       -1.018942    2.386509   -0.545218
    132          0           0       -1.068114    2.429633   -0.545218
    133          0           0       -1.122495    2.465969   -0.545218
    134          0           0       -1.181153    2.494896   -0.545218
    135          0           0       -1.243085    2.515919   -0.545218
    136          0           0       -1.307232    2.528678   -0.545218
    137          0           0       -1.372495    2.532956   -0.545218
    138          0           0       -1.437758    2.528678   -0.545218
    139          0           0       -1.501905    2.515919   -0.545218
    140          0           0       -1.563837    2.494896   -0.545218
    141          0           0       -1.622495    2.465969   -0.545218
    142          0           0       -1.676876    2.429633   -0.545218
    143          0           0       -1.726048    2.386509   -0.545218
    144          0           0       -1.769172    2.337337   -0.545218
    145          0           0       -1.805508    2.282956   -0.545218
    146          0           0       -1.834435    2.224298   -0.545218
    147          0           0       -1.855458    2.162366   -0.545218
    148          0           0       -1.868217    2.098219   -0.545218
    149          0           0       -1.872495    2.032956   -0.545218
    150          0           0       -1.868217    1.967693   -0.545218
    151          0           0       -1.855458    1.903546   -0.545218
    152          0           0       -1.834435    1.841614   -0.545218
    153          0           0       -1.805508    1.782956   -0.545218
    154          0           0       -1.769172    1.728575   -0.545218
    155          0           0       -1.726048    1.679403   -0.545218
    156          0           0       -1.676876    1.636279   -0.545218
    157          0           0       -1.622495    1.599943   -0.545218
    158          0           0       -1.563837    1.571016   -0.545218
    159          0           0       -1.501905    1.549993   -0.545218
    160          0           0       -1.437758    1.537234   -0.545218
    161          0           0       -1.372495    1.532956   -0.545218
    162          0           0       -1.307232    1.537234   -0.545218
    163          0           0       -1.243085    1.549993   -0.545218
    164          0           0       -1.181153    1.571016   -0.545218
    165          0           0       -1.122495    1.599943   -0.545218
    166          0           0       -1.068114    1.636279   -0.545218
    167          0           0       -1.018942    1.679403   -0.545218
    168          0           0       -0.975818    1.728575   -0.545218
    169          0           0       -0.939482    1.782956   -0.545218
    170          0           0       -0.910555    1.841614   -0.545218
    171          0           0       -0.889532    1.903546   -0.545218
    172          0           0       -0.876773    1.967693   -0.545218
    173          0           0       -0.989812    2.032956   -0.603073
    174          0           0       -0.993085    2.082906   -0.603073
    175          0           0       -1.002851    2.132002   -0.603073
    176          0           0       -1.018942    2.179403   -0.603073
    177          0           0       -1.041081    2.224298   -0.603073
    178          0           0       -1.068892    2.265919   -0.603073
    179          0           0       -1.101897    2.303554   -0.603073
    180          0           0       -1.139532    2.336559   -0.603073
    181          0           0       -1.181153    2.364370   -0.603073
    182          0           0       -1.226048    2.386509   -0.603073
    183          0           0       -1.273449    2.402600   -0.603073
    184          0           0       -1.322545    2.412366   -0.603073
    185          0           0       -1.372495    2.415639   -0.603073
    186          0           0       -1.422445    2.412366   -0.603073
    187          0           0       -1.471541    2.402600   -0.603073
    188          0           0       -1.518942    2.386509   -0.603073
    189          0           0       -1.563837    2.364370   -0.603073
    190          0           0       -1.605458    2.336559   -0.603073
    191          0           0       -1.643093    2.303554   -0.603073
    192          0           0       -1.676098    2.265919   -0.603073
    193          0           0       -1.703909    2.224298   -0.603073
    194          0           0       -1.726048    2.179403   -0.603073
    195          0           0       -1.742139    2.132002   -0.603073
    196          0           0       -1.751905    2.082906   -0.603073
    197          0           0       -1.755178    2.032956   -0.603073
    198          0           0       -1.751905    1.983006   -0.603073
    199          0           0       -1.742139    1.933910   -0.603073
    200          0           0       -1.726048    1.886509   -0.603073
    201          0           0       -1.703909    1.841614   -0.603073
    202          0           0       -1.676098    1.799993   -0.603073
    203          0           0       -1.643093    1.762358   -0.603073
    204          0           0       -1.605458    1.729353   -0.603073
    205          0           0       -1.563837    1.701542   -0.603073
    206          0           0       -1.518942    1.679403   -0.603073
    207          0           0       -1.471541    1.663312   -0.603073
    208          0           0       -1.422445    1.653546   -0.603073
    209          0           0       -1.372495    1.650273   -0.603073
    210          0           0       -1.322545    1.653546   -0.603073
    211          0           0       -1.273449    1.663312   -0.603073
    212          0           0       -1.226048    1.679403   -0.603073
    213          0           0       -1.181153    1.701542   -0.603073
    214          0           0       -1.139532    1.729353   -0.603073
    215          0           0       -1.101897    1.762358   -0.603073
    216          0           0       -1.068892    1.799993   -0.603073
    217          0           0       -1.041081    1.841614   -0.603073
    218          0           0       -1.018942    1.886509   -0.603073
    219          0           0       -1.002851    1.933910   -0.603073
    220          0           0       -0.993085    1.983006   -0.603073
    221          0           0       -1.113676    2.032956   -0.645119
    222          0           0       -1.115890    2.066739   -0.645119
    223          0           0       -1.122495    2.099943   -0.645119
    224          0           0       -1.133377    2.132002   -0.645119
    225          0           0       -1.148351    2.162366   -0.645119
    226          0           0       -1.167160    2.190515   -0.645119
    227          0           0       -1.189482    2.215969   -0.645119
    228          0           0       -1.214936    2.238291   -0.645119
    229          0           0       -1.243085    2.257100   -0.645119
    230          0           0       -1.273449    2.272074   -0.645119
    231          0           0       -1.305508    2.282956   -0.645119
    232          0           0       -1.338712    2.289561   -0.645119
    233          0           0       -1.372495    2.291775   -0.645119
    234          0           0       -1.406278    2.289561   -0.645119
    235          0           0       -1.439482    2.282956   -0.645119
    236          0           0       -1.471541    2.272074   -0.645119
 ---------------------------------------------------------------------
 Rotational constants (GHZ):      0.4454681      0.2811480      0.1854303
 Leave Link  202 at Tue Sep 15 10:38:39 2020, MaxMem=   131072000 cpu:         0.0
 (Enter /share/programs/GAUSSIAN/64/g09/l301.exe)
 Standard basis: 6-311+G(d,p) (5D, 7F)
 Warning:  center  37 has no basis functions!
 Warning:  center  38 has no basis functions!
 Warning:  center  39 has no basis functions!
 Warning:  center  40 has no basis functions!
 Warning:  center  41 has no basis functions!
 Warning:  center  42 has no basis functions!
 Warning:  center  43 has no basis functions!
 Warning:  center  44 has no basis functions!
 Warning:  center  45 has no basis functions!
 Warning:  center  46 has no basis functions!
 Warning:  center  47 has no basis functions!
 Warning:  center  48 has no basis functions!
 Warning:  center  49 has no basis functions!
 Warning:  center  50 has no basis functions!
 Warning:  center  51 has no basis functions!
 Warning:  center  52 has no basis functions!
 Warning:  center  53 has no basis functions!
 Warning:  center  54 has no basis functions!
 Warning:  center  55 has no basis functions!
 Warning:  center  56 has no basis functions!
 Warning:  center  57 has no basis functions!
 Warning:  center  58 has no basis functions!
 Warning:  center  59 has no basis functions!
 Warning:  center  60 has no basis functions!
 Warning:  center  61 has no basis functions!
 Warning:  center  62 has no basis functions!
 Warning:  center  63 has no basis functions!
 Warning:  center  64 has no basis functions!
 Warning:  center  65 has no basis functions!
 Warning:  center  66 has no basis functions!
 Warning:  center  67 has no basis functions!
 Warning:  center  68 has no basis functions!
 Warning:  center  69 has no basis functions!
 Warning:  center  70 has no basis functions!
 Warning:  center  71 has no basis functions!
 Warning:  center  72 has no basis functions!
 Warning:  center  73 has no basis functions!
 Warning:  center  74 has no basis functions!
 Warning:  center  75 has no basis functions!
 Warning:  center  76 has no basis functions!
 Warning:  center  77 has no basis functions!
 Warning:  center  78 has no basis functions!
 Warning:  center  79 has no basis functions!
 Warning:  center  80 has no basis functions!
 Warning:  center  81 has no basis functions!
 Warning:  center  82 has no basis functions!
 Warning:  center  83 has no basis functions!
 Warning:  center  84 has no basis functions!
 Warning:  center  85 has no basis functions!
 Warning:  center  86 has no basis functions!
 Warning:  center  87 has no basis functions!
 Warning:  center  88 has no basis functions!
 Warning:  center  89 has no basis functions!
 Warning:  center  90 has no basis functions!
 Warning:  center  91 has no basis functions!
 Warning:  center  92 has no basis functions!
 Warning:  center  93 has no basis functions!
 Warning:  center  94 has no basis functions!
 Warning:  center  95 has no basis functions!
 Warning:  center  96 has no basis functions!
 Warning:  center  97 has no basis functions!
 Warning:  center  98 has no basis functions!
 Warning:  center  99 has no basis functions!
 Warning:  center 100 has no basis functions!
 Warning:  center 101 has no basis functions!
 Warning:  center 102 has no basis functions!
 Warning:  center 103 has no basis functions!
 Warning:  center 104 has no basis functions!
 Warning:  center 105 has no basis functions!
 Warning:  center 106 has no basis functions!
 Warning:  center 107 has no basis functions!
 Warning:  center 108 has no basis functions!
 Warning:  center 109 has no basis functions!
 Warning:  center 110 has no basis functions!
 Warning:  center 111 has no basis functions!
 Warning:  center 112 has no basis functions!
 Warning:  center 113 has no basis functions!
 Warning:  center 114 has no basis functions!
 Warning:  center 115 has no basis functions!
 Warning:  center 116 has no basis functions!
 Warning:  center 117 has no basis functions!
 Warning:  center 118 has no basis functions!
 Warning:  center 119 has no basis functions!
 Warning:  center 120 has no basis functions!
 Warning:  center 121 has no basis functions!
 Warning:  center 122 has no basis functions!
 Warning:  center 123 has no basis functions!
 Warning:  center 124 has no basis functions!
 Warning:  center 125 has no basis functions!
 Warning:  center 126 has no basis functions!
 Warning:  center 127 has no basis functions!
 Warning:  center 128 has no basis functions!
 Warning:  center 129 has no basis functions!
 Warning:  center 130 has no basis functions!
 Warning:  center 131 has no basis functions!
 Warning:  center 132 has no basis functions!
 Warning:  center 133 has no basis functions!
 Warning:  center 134 has no basis functions!
 Warning:  center 135 has no basis functions!
 Warning:  center 136 has no basis functions!
 Warning:  center 137 has no basis functions!
 Warning:  center 138 has no basis functions!
 Warning:  center 139 has no basis functions!
 Warning:  center 140 has no basis functions!
 Warning:  center 141 has no basis functions!
 Warning:  center 142 has no basis functions!
 Warning:  center 143 has no basis functions!
 Warning:  center 144 has no basis functions!
 Warning:  center 145 has no basis functions!
 Warning:  center 146 has no basis functions!
 Warning:  center 147 has no basis functions!
 Warning:  center 148 has no basis functions!
 Warning:  center 149 has no basis functions!
 Warning:  center 150 has no basis functions!
 Warning:  center 151 has no basis functions!
 Warning:  center 152 has no basis functions!
 Warning:  center 153 has no basis functions!
 Warning:  center 154 has no basis functions!
 Warning:  center 155 has no basis functions!
 Warning:  center 156 has no basis functions!
 Warning:  center 157 has no basis functions!
 Warning:  center 158 has no basis functions!
 Warning:  center 159 has no basis functions!
 Warning:  center 160 has no basis functions!
 Warning:  center 161 has no basis functions!
 Warning:  center 162 has no basis functions!
 Warning:  center 163 has no basis functions!
 Warning:  center 164 has no basis functions!
 Warning:  center 165 has no basis functions!
 Warning:  center 166 has no basis functions!
 Warning:  center 167 has no basis functions!
 Warning:  center 168 has no basis functions!
 Warning:  center 169 has no basis functions!
 Warning:  center 170 has no basis functions!
 Warning:  center 171 has no basis functions!
 Warning:  center 172 has no basis functions!
 Warning:  center 173 has no basis functions!
 Warning:  center 174 has no basis functions!
 Warning:  center 175 has no basis functions!
 Warning:  center 176 has no basis functions!
 Warning:  center 177 has no basis functions!
 Warning:  center 178 has no basis functions!
 Warning:  center 179 has no basis functions!
 Warning:  center 180 has no basis functions!
 Warning:  center 181 has no basis functions!
 Warning:  center 182 has no basis functions!
 Warning:  center 183 has no basis functions!
 Warning:  center 184 has no basis functions!
 Warning:  center 185 has no basis functions!
 Warning:  center 186 has no basis functions!
 Warning:  center 187 has no basis functions!
 Warning:  center 188 has no basis functions!
 Warning:  center 189 has no basis functions!
 Warning:  center 190 has no basis functions!
 Warning:  center 191 has no basis functions!
 Warning:  center 192 has no basis functions!
 Warning:  center 193 has no basis functions!
 Warning:  center 194 has no basis functions!
 Warning:  center 195 has no basis functions!
 Warning:  center 196 has no basis functions!
 Warning:  center 197 has no basis functions!
 Warning:  center 198 has no basis functions!
 Warning:  center 199 has no basis functions!
 Warning:  center 200 has no basis functions!
 Warning:  center 201 has no basis functions!
 Warning:  center 202 has no basis functions!
 Warning:  center 203 has no basis functions!
 Warning:  center 204 has no basis functions!
 Warning:  center 205 has no basis functions!
 Warning:  center 206 has no basis functions!
 Warning:  center 207 has no basis functions!
 Warning:  center 208 has no basis functions!
 Warning:  center 209 has no basis functions!
 Warning:  center 210 has no basis functions!
 Warning:  center 211 has no basis functions!
 Warning:  center 212 has no basis functions!
 Warning:  center 213 has no basis functions!
 Warning:  center 214 has no basis functions!
 Warning:  center 215 has no basis functions!
 Warning:  center 216 has no basis functions!
 Warning:  center 217 has no basis functions!
 Warning:  center 218 has no basis functions!
 Warning:  center 219 has no basis functions!
 Warning:  center 220 has no basis functions!
 Warning:  center 221 has no basis functions!
 Warning:  center 222 has no basis functions!
 Warning:  center 223 has no basis functions!
 Warning:  center 224 has no basis functions!
 Warning:  center 225 has no basis functions!
 Warning:  center 226 has no basis functions!
 Warning:  center 227 has no basis functions!
 Warning:  center 228 has no basis functions!
 Warning:  center 229 has no basis functions!
 Warning:  center 230 has no basis functions!
 Warning:  center 231 has no basis functions!
 Warning:  center 232 has no basis functions!
 Warning:  center 233 has no basis functions!
 Warning:  center 234 has no basis functions!
 Warning:  center 235 has no basis functions!
 Warning:  center 236 has no basis functions!
 Ernie: Thresh=  0.10000D-02 Tol=  0.10000D-05 Strict=F.
   568 basis functions,   904 primitive gaussians,   590 cartesian basis functions
    73 alpha electrons       73 beta electrons
       nuclear repulsion energy      1599.9156270972 Hartrees.
 IExCor=  402 DFT=T Ex+Corr=B3LYP ExCW=0 ScaHFX=  0.200000
 ScaDFX=  0.800000  0.720000  1.000000  0.810000 ScalE2=  1.000000  1.000000
 IRadAn=      0 IRanWt=     -1 IRanGd=            0 ICorTp=0 IEmpDi=  4
 NAtoms=  236 NActive=  236 NUniq=  236 SFac= 1.00D+00 NAtFMM=   60 NAOKFM=T Big=T
 Integral buffers will be    131072 words long.
 Raffenetti 2 integral format.
 Two-electron integral symmetry is turned off.
 Leave Link  301 at Tue Sep 15 10:38:39 2020, MaxMem=   131072000 cpu:         0.3
 (Enter /share/programs/GAUSSIAN/64/g09/l302.exe)
 NPDir=0 NMtPBC=     1 NCelOv=     1 NCel=       1 NClECP=     1 NCelD=      1
         NCelK=      1 NCelE2=     1 NClLst=     1 CellRange=     0.0.
 One-electron integrals computed using PRISM.
 NBasis=   568 RedAO= T EigKep=  1.01D-06  NBF=   568
 NBsUse=   557 1.00D-06 EigRej=  9.19D-07 NBFU=   557
 Precomputing XC quadrature grid using
 IXCGrd= 4 IRadAn=           0 IRanWt=          -1 IRanGd=           0 AccXCQ= 0.00D+00.
 Generated NRdTot=       0 NPtTot=           0 NUsed=           0 NTot=          32
 NSgBfM=   587   588   588   589   589 MxSgAt=   236 MxSgA2=    36.
 Leave Link  302 at Tue Sep 15 10:38:40 2020, MaxMem=   131072000 cpu:        11.4
 (Enter /share/programs/GAUSSIAN/64/g09/l308.exe)
 Leave Link  308 at Tue Sep 15 10:38:40 2020, MaxMem=   131072000 cpu:         0.8
 (Enter /share/programs/GAUSSIAN/64/g09/l303.exe)
 DipDrv:  MaxL=1.
 Leave Link  303 at Tue Sep 15 10:38:41 2020, MaxMem=   131072000 cpu:         0.6
 (Enter /share/programs/GAUSSIAN/64/g09/l401.exe)
 Initial guess from the checkpoint file:  "/scratch/aartigas.38786/Gau-3531195.chk"
 Skipping rotation of guess because NAtoms(RWF)=  236 differs from NAtoms(Chk)=   36.
 Guess basis will be translated and rotated to current coordinates.
 JPrj=2 DoOrth=T DoCkMO=T.
 Leave Link  401 at Tue Sep 15 10:38:42 2020, MaxMem=   131072000 cpu:         7.7
 (Enter /share/programs/GAUSSIAN/64/g09/l502.exe)
 Closed shell SCF:
 Using DIIS extrapolation, IDIIS=  1040.
 Two-electron integral symmetry not used.
 IVT=     1071582 IEndB=     1071582 NGot=   131072000 MDV=   130365749
 LenX=   130365749 LenY=   130017059
 Requested convergence on RMS density matrix=1.00D-08 within 128 cycles.
 Requested convergence on MAX density matrix=1.00D-06.
 Requested convergence on             energy=1.00D-06.
 No special actions if energy rises.
 Fock matrices will be formed incrementally for  20 cycles.

 Cycle   1  Pass 1  IDiag  1:
 FoFJK:  IHMeth= 1 ICntrl=       0 DoSepK=F KAlg= 0 I1Cent=   0 FoldK=F
 IRaf= 940000000 NMat=   1 IRICut=       1 DoRegI=T DoRafI=F ISym2E= 0.
 FoFCou: FMM=T IPFlag=           0 FMFlag=      100000 FMFlg1=        2001
         NFxFlg=           0 DoJE=F BraDBF=F KetDBF=F FulRan=T
         wScrn=  0.000000 ICntrl=       0 IOpCl=  0 I1Cent=           0 NGrid=           0
         NMat0=    1 NMatS0=      1 NMatT0=    0 NMatD0=    1 NMtDS0=    0 NMtDT0=    0
 Symmetry not used in FoFCou.
 FMM levels:  10  Number of levels for PrismC:   9
 E= -847.003738666971    
 DIIS: error= 5.05D-08 at cycle   1 NSaved=   1.
 NSaved= 1 IEnMin= 1 EnMin= -847.003738666971     IErMin= 1 ErrMin= 5.05D-08
 ErrMax= 5.05D-08  0.00D+00 EMaxC= 1.00D-01 BMatC= 3.55D-12 BMatP= 3.55D-12
 IDIUse=1 WtCom= 1.00D+00 WtEn= 0.00D+00
 Coeff-Com:  0.100D+01
 Coeff:      0.100D+01
 Gap=     0.151 Goal=   None    Shift=    0.000
 RMSDP=2.89D-07 MaxDP=1.34D-05              OVMax= 3.94D-07

 Cycle   2  Pass 1  IDiag  1:
 RMSU=  2.86D-07    CP:  1.00D+00
 E= -847.003738666765     Delta-E=        0.000000000206 Rises=F Damp=F
 DIIS: error= 1.42D-08 at cycle   2 NSaved=   2.
 NSaved= 2 IEnMin= 1 EnMin= -847.003738666971     IErMin= 2 ErrMin= 1.42D-08
 ErrMax= 1.42D-08  0.00D+00 EMaxC= 1.00D-01 BMatC= 2.13D-13 BMatP= 3.55D-12
 IDIUse=1 WtCom= 1.00D+00 WtEn= 0.00D+00
 Coeff-Com:  0.627D-01 0.937D+00
 Coeff:      0.627D-01 0.937D+00
 Gap=     0.151 Goal=   None    Shift=    0.000
 RMSDP=1.58D-08 MaxDP=7.87D-07 DE= 2.06D-10 OVMax= 3.02D-07

 Cycle   3  Pass 1  IDiag  1:
 RMSU=  1.33D-08    CP:  1.00D+00  1.02D+00
 E= -847.003738666898     Delta-E=       -0.000000000133 Rises=F Damp=F
 DIIS: error= 2.51D-08 at cycle   3 NSaved=   3.
 NSaved= 3 IEnMin= 1 EnMin= -847.003738666971     IErMin= 2 ErrMin= 1.42D-08
 ErrMax= 2.51D-08  0.00D+00 EMaxC= 1.00D-01 BMatC= 5.05D-13 BMatP= 2.13D-13
 IDIUse=1 WtCom= 1.00D+00 WtEn= 0.00D+00
 Coeff-Com: -0.107D-01 0.616D+00 0.395D+00
 Coeff:     -0.107D-01 0.616D+00 0.395D+00
 Gap=     0.151 Goal=   None    Shift=    0.000
 RMSDP=1.03D-08 MaxDP=4.12D-07 DE=-1.33D-10 OVMax= 2.17D-07

 Cycle   4  Pass 1  IDiag  1:
 RMSU=  5.86D-09    CP:  1.00D+00  1.02D+00  3.93D-01
 E= -847.003738666843     Delta-E=        0.000000000055 Rises=F Damp=F
 DIIS: error= 8.06D-09 at cycle   4 NSaved=   4.
 NSaved= 4 IEnMin= 1 EnMin= -847.003738666971     IErMin= 4 ErrMin= 8.06D-09
 ErrMax= 8.06D-09  0.00D+00 EMaxC= 1.00D-01 BMatC= 2.06D-14 BMatP= 2.13D-13
 IDIUse=1 WtCom= 1.00D+00 WtEn= 0.00D+00
 Coeff-Com: -0.876D-02 0.309D+00 0.241D+00 0.459D+00
 Coeff:     -0.876D-02 0.309D+00 0.241D+00 0.459D+00
 Gap=     0.151 Goal=   None    Shift=    0.000
 RMSDP=4.05D-09 MaxDP=1.48D-07 DE= 5.50D-11 OVMax= 6.88D-08

 SCF Done:  E(RB3LYP) =  -847.003738667     A.U. after    4 cycles
            NFock=  4  Conv=0.41D-08     -V/T= 2.0049
 KE= 8.428349970566D+02 PE=-5.164192584015D+03 EE= 1.874438221195D+03
 Leave Link  502 at Tue Sep 15 10:40:04 2020, MaxMem=   131072000 cpu:       651.4
 (Enter /share/programs/GAUSSIAN/64/g09/l801.exe)
 DoSCS=F DFT=T ScalE2(SS,OS)=  1.000000  1.000000
 Range of M.O.s used for correlation:     1   557
 NBasis=   568 NAE=    73 NBE=    73 NFC=     0 NFV=     0
 NROrb=    557 NOA=    73 NOB=    73 NVA=   484 NVB=   484

 **** Warning!!: The largest alpha MO coefficient is  0.14271950D+03

 Leave Link  801 at Tue Sep 15 10:40:04 2020, MaxMem=   131072000 cpu:         0.2
 (Enter /share/programs/GAUSSIAN/64/g09/l1002.exe)
 Minotr:  Closed shell wavefunction.
          Direct CPHF calculation.
          Differentiating once with respect to magnetic field using GIAOs.
          Electric field/nuclear overlap derivatives assumed to be zero.
          Requested convergence is 1.0D-08 RMS, and 1.0D-07 maximum.
          Secondary convergence is 1.0D-12 RMS, and 1.0D-12 maximum.
          NewPWx=T KeepS1=F KeepF1=F KeepIn=T MapXYZ=F SortEE=F KeepMc=T.
          MDV=     131069551 using IRadAn=       2.
 Generate precomputed XC quadrature information.
          Solving linear equations simultaneously, MaxMat=      72.
 FoFCou: FMM=F IPFlag=           0 FMFlag=      100000 FMFlg1=        2001
         NFxFlg=           0 DoJE=F BraDBF=F KetDBF=T FulRan=T
         wScrn=  0.000000 ICntrl=    6100 IOpCl=  0 I1Cent=           7 NGrid=         236
         NMat0=    1 NMatS0=      1 NMatT0=    0 NMatD0=    1 NMtDS0=    0 NMtDT0=    0
 Symmetry not used in FoFCou.
 FoFJK:  IHMeth= 1 ICntrl=    6127 DoSepK=F KAlg= 0 I1Cent=   0 FoldK=F
 IRaf=         1 NMat=   1 IRICut=       1 DoRegI=T DoRafI=F ISym2E= 0.
          There are     3 degrees of freedom in the 1st order CPHF.  IDoFFX=0 NUNeed=     3.
      3 vectors produced by pass  0 Test12= 1.18D-12 3.33D-08 XBig12= 1.96D+03 8.77D+00.
 AX will form     3 AO Fock derivatives at one time.
      3 vectors produced by pass  1 Test12= 1.18D-12 3.33D-08 XBig12= 3.18D+00 7.58D-01.
      3 vectors produced by pass  2 Test12= 1.18D-12 3.33D-08 XBig12= 1.86D-02 5.85D-02.
      3 vectors produced by pass  3 Test12= 1.18D-12 3.33D-08 XBig12= 4.29D-05 1.35D-03.
      3 vectors produced by pass  4 Test12= 1.18D-12 3.33D-08 XBig12= 9.75D-08 7.22D-05.
      3 vectors produced by pass  5 Test12= 1.18D-12 3.33D-08 XBig12= 3.97D-10 5.92D-06.
      3 vectors produced by pass  6 Test12= 1.18D-12 3.33D-08 XBig12= 1.51D-12 4.40D-07.
 InvSVY:  IOpt=1 It=  1 EMax= 1.42D-14
 Solved reduced A of dimension    21 with     3 vectors.
 Calculating GIAO nuclear magnetic shielding tensors.
 SCF GIAO Magnetic shielding tensor (ppm):
      1  C    Isotropic =    49.6861   Anisotropy =   149.7970
   XX=    46.3088   YX=   -25.0950   ZX=    31.4786
   XY=   -31.1109   YY=   -39.0339   ZY=    13.2621
   XZ=    24.9178   YZ=     8.9888   ZZ=   141.7833
   Eigenvalues:   -49.3507    48.8581   149.5507
      2  C    Isotropic =    49.6861   Anisotropy =   149.7971
   XX=    46.3088   YX=    25.0953   ZX=    31.4786
   XY=    31.1111   YY=   -39.0339   ZY=   -13.2621
   XZ=    24.9177   YZ=    -8.9889   ZZ=   141.7834
   Eigenvalues:   -49.3508    48.8583   149.5509
      3  C    Isotropic =    44.4899   Anisotropy =   204.7372
   XX=   -22.2199   YX=    10.8075   ZX=    51.2710
   XY=     4.9259   YY=   -14.7126   ZY=    14.7921
   XZ=    32.3655   YZ=    21.2392   ZZ=   170.4022
   Eigenvalues:   -31.9593   -15.5523   180.9814
      4  C    Isotropic =    44.4899   Anisotropy =   204.7373
   XX=   -22.2198   YX=   -10.8075   ZX=    51.2710
   XY=    -4.9256   YY=   -14.7126   ZY=   -14.7922
   XZ=    32.3656   YZ=   -21.2393   ZZ=   170.4023
   Eigenvalues:   -31.9592   -15.5524   180.9815
      5  C    Isotropic =    48.5420   Anisotropy =   189.5490
   XX=   -14.6790   YX=     4.7342   ZX=     8.4333
   XY=    20.3759   YY=    -5.5375   ZY=    31.5121
   XZ=    65.1218   YZ=     0.8640   ZZ=   165.8426
   Eigenvalues:   -26.3226    -2.9593   174.9080
      6  C    Isotropic =    48.5421   Anisotropy =   189.5489
   XX=   -14.6789   YX=    -4.7340   ZX=     8.4335
   XY=   -20.3758   YY=    -5.5374   ZY=   -31.5121
   XZ=    65.1218   YZ=    -0.8638   ZZ=   165.8426
   Eigenvalues:   -26.3224    -2.9594   174.9080
      7  C    Isotropic =    50.1907   Anisotropy =   149.2089
   XX=    19.7303   YX=   -44.2755   ZX=    41.2886
   XY=   -38.0437   YY=    -2.7069   ZY=    36.9011
   XZ=    36.5866   YZ=    37.5458   ZZ=   133.5487
   Eigenvalues:   -49.6656    50.5744   149.6633
      8  C    Isotropic =    48.9362   Anisotropy =   152.4339
   XX=   -31.5093   YX=   -11.4921   ZX=    54.7730
   XY=   -19.0468   YY=    46.5898   ZY=    27.5522
   XZ=    42.2451   YZ=    29.8391   ZZ=   131.7282
   Eigenvalues:   -50.1461    46.3960   150.5589
      9  C    Isotropic =    44.4204   Anisotropy =   209.3981
   XX=   -10.1987   YX=    16.7536   ZX=    44.4888
   XY=     8.9342   YY=    -7.7270   ZY=    61.4651
   XZ=    43.3269   YZ=    64.9792   ZZ=   151.1869
   Eigenvalues:   -30.3689   -20.3891   184.0192
     10  C    Isotropic =    45.3894   Anisotropy =   198.3236
   XX=    -5.9706   YX=    23.3819   ZX=    35.6519
   XY=    38.1954   YY=     1.7271   ZY=    73.1370
   XZ=    54.0013   YZ=    45.7045   ZZ=   140.4116
   Eigenvalues:   -33.5315    -7.9055   177.6051
     11  H    Isotropic =    23.8179   Anisotropy =     7.5674
   XX=    27.2191   YX=    -1.9090   ZX=    -2.2602
   XY=    -1.7961   YY=    24.8722   ZY=    -0.1966
   XZ=    -3.3763   YZ=    -0.1950   ZZ=    19.3625
   Eigenvalues:    18.3647    24.2263    28.8628
     12  H    Isotropic =    23.8179   Anisotropy =     7.5674
   XX=    27.2191   YX=     1.9090   ZX=    -2.2602
   XY=     1.7961   YY=    24.8722   ZY=     0.1966
   XZ=    -3.3763   YZ=     0.1950   ZZ=    19.3625
   Eigenvalues:    18.3647    24.2263    28.8628
     13  H    Isotropic =    23.8548   Anisotropy =     7.5124
   XX=    26.7195   YX=    -2.1358   ZX=    -2.0755
[...]
   134  Bq   0.000000
   135  Bq   0.000000
   136  Bq   0.000000
   137  Bq   0.000000
   138  Bq   0.000000
   139  Bq   0.000000
   140  Bq   0.000000
   141  Bq   0.000000
   142  Bq   0.000000
   143  Bq   0.000000
   144  Bq   0.000000
   145  Bq   0.000000
   146  Bq   0.000000
   147  Bq   0.000000
   148  Bq   0.000000
   149  Bq   0.000000
   150  Bq   0.000000
   151  Bq   0.000000
   152  Bq   0.000000
   153  Bq   0.000000
   154  Bq   0.000000
   155  Bq   0.000000
   156  Bq   0.000000
   157  Bq   0.000000
   158  Bq   0.000000
   159  Bq   0.000000
   160  Bq   0.000000
   161  Bq   0.000000
   162  Bq   0.000000
   163  Bq   0.000000
   164  Bq   0.000000
   165  Bq   0.000000
   166  Bq   0.000000
   167  Bq   0.000000
   168  Bq   0.000000
   169  Bq   0.000000
   170  Bq   0.000000
   171  Bq   0.000000
   172  Bq   0.000000
   173  Bq   0.000000
   174  Bq   0.000000
   175  Bq   0.000000
   176  Bq   0.000000
   177  Bq   0.000000
   178  Bq   0.000000
   179  Bq   0.000000
   180  Bq   0.000000
   181  Bq   0.000000
   182  Bq   0.000000
   183  Bq   0.000000
   184  Bq   0.000000
   185  Bq   0.000000
   186  Bq   0.000000
   187  Bq   0.000000
   188  Bq   0.000000
   189  Bq   0.000000
   190  Bq   0.000000
   191  Bq   0.000000
   192  Bq   0.000000
   193  Bq   0.000000
   194  Bq   0.000000
   195  Bq   0.000000
   196  Bq   0.000000
   197  Bq   0.000000
   198  Bq   0.000000
   199  Bq   0.000000
   200  Bq   0.000000
   201  Bq   0.000000
   202  Bq   0.000000
   203  Bq   0.000000
   204  Bq   0.000000
   205  Bq   0.000000
   206  Bq   0.000000
   207  Bq   0.000000
   208  Bq   0.000000
   209  Bq   0.000000
   210  Bq   0.000000
   211  Bq   0.000000
   212  Bq   0.000000
   213  Bq   0.000000
   214  Bq   0.000000
   215  Bq   0.000000
   216  Bq   0.000000
   217  Bq   0.000000
   218  Bq   0.000000
   219  Bq   0.000000
   220  Bq   0.000000
   221  Bq   0.000000
   222  Bq   0.000000
   223  Bq   0.000000
   224  Bq   0.000000
   225  Bq   0.000000
   226  Bq   0.000000
   227  Bq   0.000000
   228  Bq   0.000000
   229  Bq   0.000000
   230  Bq   0.000000
   231  Bq   0.000000
   232  Bq   0.000000
   233  Bq   0.000000
   234  Bq   0.000000
   235  Bq   0.000000
   236  Bq   0.000000
 Sum of Mulliken charges =   0.00000
 Mulliken charges with hydrogens summed into heavy atoms:
               1
     1  C   -0.262865
     2  C   -0.262866
     3  C    0.737923
     4  C    0.737922
     5  C   -0.039994
     6  C   -0.040001
     7  C    0.075155
     8  C   -0.330147
     9  C    0.780501
    10  C   -0.200782
    15  C    0.249272
    16  C   -0.533462
    17  C   -0.189405
    18  C   -0.286191
    23  C   -0.330145
    24  C    0.075154
    25  C    0.780496
    26  C   -0.200782
    27  C    0.249273
    28  C   -0.286192
    29  C   -0.189403
    30  C   -0.533462
    37  Bq   0.000000
    38  Bq   0.000000
    39  Bq   0.000000
    40  Bq   0.000000
    41  Bq   0.000000
    42  Bq   0.000000
    43  Bq   0.000000
    44  Bq   0.000000
    45  Bq   0.000000
    46  Bq   0.000000
    47  Bq   0.000000
    48  Bq   0.000000
    49  Bq   0.000000
    50  Bq   0.000000
    51  Bq   0.000000
    52  Bq   0.000000
    53  Bq   0.000000
    54  Bq   0.000000
    55  Bq   0.000000
    56  Bq   0.000000
    57  Bq   0.000000
    58  Bq   0.000000
    59  Bq   0.000000
    60  Bq   0.000000
    61  Bq   0.000000
    62  Bq   0.000000
    63  Bq   0.000000
    64  Bq   0.000000
    65  Bq   0.000000
    66  Bq   0.000000
    67  Bq   0.000000
    68  Bq   0.000000
    69  Bq   0.000000
    70  Bq   0.000000
    71  Bq   0.000000
    72  Bq   0.000000
    73  Bq   0.000000
    74  Bq   0.000000
    75  Bq   0.000000
    76  Bq   0.000000
    77  Bq   0.000000
    78  Bq   0.000000
    79  Bq   0.000000
    80  Bq   0.000000
    81  Bq   0.000000
    82  Bq   0.000000
    83  Bq   0.000000
    84  Bq   0.000000
    85  Bq   0.000000
    86  Bq   0.000000
    87  Bq   0.000000
    88  Bq   0.000000
    89  Bq   0.000000
    90  Bq   0.000000
    91  Bq   0.000000
    92  Bq   0.000000
    93  Bq   0.000000
    94  Bq   0.000000
    95  Bq   0.000000
    96  Bq   0.000000
    97  Bq   0.000000
    98  Bq   0.000000
    99  Bq   0.000000
   100  Bq   0.000000
   101  Bq   0.000000
   102  Bq   0.000000
   103  Bq   0.000000
   104  Bq   0.000000
   105  Bq   0.000000
   106  Bq   0.000000
   107  Bq   0.000000
   108  Bq   0.000000
   109  Bq   0.000000
   110  Bq   0.000000
   111  Bq   0.000000
   112  Bq   0.000000
   113  Bq   0.000000
   114  Bq   0.000000
   115  Bq   0.000000
   116  Bq   0.000000
   117  Bq   0.000000
   118  Bq   0.000000
   119  Bq   0.000000
   120  Bq   0.000000
   121  Bq   0.000000
   122  Bq   0.000000
   123  Bq   0.000000
   124  Bq   0.000000
   125  Bq   0.000000
   126  Bq   0.000000
   127  Bq   0.000000
   128  Bq   0.000000
   129  Bq   0.000000
   130  Bq   0.000000
   131  Bq   0.000000
   132  Bq   0.000000
   133  Bq   0.000000
   134  Bq   0.000000
   135  Bq   0.000000
   136  Bq   0.000000
   137  Bq   0.000000
   138  Bq   0.000000
   139  Bq   0.000000
   140  Bq   0.000000
   141  Bq   0.000000
   142  Bq   0.000000
   143  Bq   0.000000
   144  Bq   0.000000
   145  Bq   0.000000
   146  Bq   0.000000
   147  Bq   0.000000
   148  Bq   0.000000
   149  Bq   0.000000
   150  Bq   0.000000
   151  Bq   0.000000
   152  Bq   0.000000
   153  Bq   0.000000
   154  Bq   0.000000
   155  Bq   0.000000
   156  Bq   0.000000
   157  Bq   0.000000
   158  Bq   0.000000
   159  Bq   0.000000
   160  Bq   0.000000
   161  Bq   0.000000
   162  Bq   0.000000
   163  Bq   0.000000
   164  Bq   0.000000
   165  Bq   0.000000
   166  Bq   0.000000
   167  Bq   0.000000
   168  Bq   0.000000
   169  Bq   0.000000
   170  Bq   0.000000
   171  Bq   0.000000
   172  Bq   0.000000
   173  Bq   0.000000
   174  Bq   0.000000
   175  Bq   0.000000
   176  Bq   0.000000
   177  Bq   0.000000
   178  Bq   0.000000
   179  Bq   0.000000
   180  Bq   0.000000
   181  Bq   0.000000
   182  Bq   0.000000
   183  Bq   0.000000
   184  Bq   0.000000
   185  Bq   0.000000
   186  Bq   0.000000
   187  Bq   0.000000
   188  Bq   0.000000
   189  Bq   0.000000
   190  Bq   0.000000
   191  Bq   0.000000
   192  Bq   0.000000
   193  Bq   0.000000
   194  Bq   0.000000
   195  Bq   0.000000
   196  Bq   0.000000
   197  Bq   0.000000
   198  Bq   0.000000
   199  Bq   0.000000
   200  Bq   0.000000
   201  Bq   0.000000
   202  Bq   0.000000
   203  Bq   0.000000
   204  Bq   0.000000
   205  Bq   0.000000
   206  Bq   0.000000
   207  Bq   0.000000
   208  Bq   0.000000
   209  Bq   0.000000
   210  Bq   0.000000
   211  Bq   0.000000
   212  Bq   0.000000
   213  Bq   0.000000
   214  Bq   0.000000
   215  Bq   0.000000
   216  Bq   0.000000
   217  Bq   0.000000
   218  Bq   0.000000
   219  Bq   0.000000
   220  Bq   0.000000
   221  Bq   0.000000
   222  Bq   0.000000
   223  Bq   0.000000
   224  Bq   0.000000
   225  Bq   0.000000
   226  Bq   0.000000
   227  Bq   0.000000
   228  Bq   0.000000
   229  Bq   0.000000
   230  Bq   0.000000
   231  Bq   0.000000
   232  Bq   0.000000
   233  Bq   0.000000
   234  Bq   0.000000
   235  Bq   0.000000
   236  Bq   0.000000
 Electronic spatial extent (au):  <R**2>=           5804.3227
 Charge=              0.0000 electrons
 Dipole moment (field-independent basis, Debye):
    X=              0.0000    Y=              0.0732    Z=              0.0000  Tot=              0.0732
 Quadrupole moment (field-independent basis, Debye-Ang):
   XX=           -113.9137   YY=           -113.9781   ZZ=           -133.4378
   XY=              0.0000   XZ=             -4.8717   YZ=              0.0000
 Traceless Quadrupole moment (field-independent basis, Debye-Ang):
   XX=              6.5295   YY=              6.4651   ZZ=            -12.9946
   XY=              0.0000   XZ=             -4.8717   YZ=              0.0000
 Octapole moment (field-independent basis, Debye-Ang**2):
  XXX=              0.0000  YYY=             11.7108  ZZZ=              0.0000  XYY=              0.0000
  XXY=             -6.4067  XXZ=              0.0000  XZZ=              0.0000  YZZ=             -7.8695
  YYZ=              0.0000  XYZ=            -16.2862
 Hexadecapole moment (field-independent basis, Debye-Ang**3):
 XXXX=          -4416.4021 YYYY=          -2784.9756 ZZZZ=           -481.5690 XXXY=              0.0001
 XXXZ=           -124.3517 YYYX=             -0.0003 YYYZ=              0.0001 ZZZX=             -4.4782
 ZZZY=              0.0001 XXYY=          -1189.3576 XXZZ=           -942.9016 YYZZ=           -589.4012
 XXYZ=              0.0000 YYXZ=              7.8297 ZZXY=             -0.0001
 N-N= 1.599915627097D+03 E-N=-5.164192587538D+03  KE= 8.428349970566D+02
 Leave Link  601 at Tue Sep 15 10:46:17 2020, MaxMem=   131072000 cpu:         0.6
 (Enter /share/programs/GAUSSIAN/64/g09/l9999.exe)
 1\1\GINC-MUHKA\SP\RB3LYP\6-311+G(d,p)\C22H14\AARTIGAS\15-Sep-2020\0\\#
 P rb3lyp/6-311+g** NMR Guess=Read geom=connectivity\\Title\\0,1\C,0,0.
 653241,3.257859,-0.20251\C,0,-0.653243,3.25786,0.20251\C,0,1.372495,2.
 032956,-0.320807\C,0,-1.372495,2.032956,0.320807\C,0,0.722474,0.795666
 ,-0.050388\C,0,-0.722474,0.795667,0.050387\C,0,2.760385,2.053927,-0.67
 4268\C,0,3.508866,0.913916,-0.671362\C,0,2.955226,-0.309622,-0.177479\
 C,0,1.574722,-0.361114,0.197094\H,0,1.183427,4.19574,-0.384599\H,0,-1.
 183429,4.19574,0.384599\H,0,3.206283,3.012423,-0.951392\H,0,4.560023,0
 .932956,-0.969333\C,0,3.78302,-1.443098,0.028309\C,0,1.137427,-1.50753
 3,0.912109\C,0,1.973691,-2.584349,1.138062\C,0,3.301853,-2.571588,0.66
 1177\H,0,4.825754,-1.39123,-0.295484\H,0,0.124652,-1.532788,1.308472\H
 ,0,1.603586,-3.445682,1.698977\H,0,3.952742,-3.433526,0.825134\C,0,-3.
 508866,0.913915,0.671362\C,0,-2.760386,2.053926,0.674268\C,0,-2.955226
 ,-0.309623,0.177479\C,0,-1.574722,-0.361114,-0.197094\C,0,-3.78302,-1.
 443099,-0.028309\C,0,-3.301852,-2.571589,-0.661177\C,0,-1.97369,-2.584
 349,-1.138061\C,0,-1.137426,-1.507534,-0.912109\H,0,-4.560022,0.932954
 ,0.969334\H,0,-3.206283,3.012421,0.951392\H,0,-4.825754,-1.391232,0.29
 5484\H,0,-3.952741,-3.433528,-0.825134\H,0,-1.603585,-3.445682,-1.6989
 76\H,0,-0.124652,-1.532788,-1.308471\Bq,0,-0.6395320869,2.3365591793,0
 .929568429\Bq,0,-0.6854308531,2.4296326701,0.929568429\Bq,0,-0.7430854
 774,2.5159189131,0.929568429\Bq,0,-1.4760483906,1.2463899075,0.9295684
 29\Bq,0,-1.372495,1.2396026597,0.929568429\Bq,0,-1.2689416094,1.246389
 9075,0.929568429\Bq,0,-1.167160046,1.2666355192,0.929568429\Bq,0,-1.06
 88918207,1.2999930869,0.929568429\Bq,0,-0.9758183299,1.3458918531,0.92
 9568429\Bq,0,-0.8895320869,1.4035464774,0.929568429\Bq,0,-0.8115094732
 ,1.4719704732,0.929568429\Bq,0,-0.7430854774,1.5499930869,0.929568429\
 Bq,0,-0.6854308531,1.6362793299,0.929568429\Bq,0,-0.6395320869,1.72935
 28207,0.929568429\Bq,0,-0.6061745192,1.827621046,0.929568429\Bq,0,-0.5
 859289075,1.9294026094,0.929568429\Bq,0,-0.5359786963,2.257099868,0.82
 0807\Bq,0,-0.5723918548,2.364369574,0.820807\Bq,0,-0.622495,2.46596870
 19,0.820807\Bq,0,-1.2594560017,1.1743395636,0.820807\Bq,0,-0.685430853
 1,1.5057531376,0.820807\Bq,0,-0.622495,1.5999432981,0.820807\Bq,0,-0.5
 723918548,1.701542426,0.820807\Bq,0,-0.5359786963,1.808812132,0.820807
 \Bq,0,-0.5723918548,1.5710162337,0.7034904324\Bq,0,-2.2090113037,2.257
 099868,-0.179193\Bq,0,-2.2311114364,2.1459949983,-0.179193\Bq,0,-2.238
 5204038,2.032956,-0.179193\Bq,0,-2.2311114364,1.9199170017,-0.179193\B
 q,0,-2.2090113037,1.808812132,-0.179193\Bq,0,-2.1054579131,2.336559179
 3,-0.287954429\Bq,0,-2.1388154808,2.238290954,-0.287954429\Bq,0,-2.159
 0610925,2.1365093906,-0.287954429\Bq,0,-2.1658483403,2.032956,-0.28795
 4429\Bq,0,-2.1590610925,1.9294026094,-0.287954429\Bq,0,-2.1388154808,1
 .827621046,-0.287954429\Bq,0,-2.1054579131,1.7293528207,-0.287954429\B
 q,0,-1.2801990444,2.7340133846,-0.3862997812\Bq,0,-1.372495,2.74006278
 12,-0.3862997812\Bq,0,-1.9334805268,2.4634153346,-0.3862997812\Bq,0,-1
 .9848674357,2.3865093906,-0.3862997812\Bq,0,-2.0257764824,2.3035540501
 ,-0.3862997812\Bq,0,-2.0555077019,2.2159687019,-0.3862997812\Bq,0,-2.0
 735523846,2.1252519556,-0.3862997812\Bq,0,-2.0796017812,2.032956,-0.38
 62997812\Bq,0,-2.0735523846,1.9406600444,-0.3862997812\Bq,0,-2.0555077
 019,1.8499432981,-0.3862997812\Bq,0,-2.0257764824,1.7623579499,-0.3862
 997812\Bq,0,-1.9848674357,1.6794026094,-0.3862997812\Bq,0,-1.933480526
 8,1.6024966654,-0.3862997812\Bq,0,-1.5555077019,1.3499432981,-0.386299
 7812\Bq,0,-1.4647909556,1.3318986154,-0.3862997812\Bq,0,-0.8452921376,
 2.3373367145,-0.4725463403\Bq,0,-0.8895320869,2.4035464774,-0.47254634
 03\Bq,0,-0.9420356654,2.4634153346,-0.4725463403\Bq,0,-1.0019045226,2.
 5159189131,-0.4725463403\Bq,0,-1.0681142855,2.5601588624,-0.4725463403
 \Bq,0,-1.1395320869,2.5953782244,-0.4725463403\Bq,0,-1.2149359482,2.62
 09743863,-0.4725463403\Bq,0,-1.2930356887,2.6365093906,-0.4725463403\B
 q,0,-1.372495,2.641717429,-0.4725463403\Bq,0,-1.4519543113,2.636509390
 6,-0.4725463403\Bq,0,-1.5300540518,2.6209743863,-0.4725463403\Bq,0,-1.
 6054579131,2.5953782244,-0.4725463403\Bq,0,-1.6768757145,2.5601588624,
 -0.4725463403\Bq,0,-1.7430854774,2.5159189131,-0.4725463403\Bq,0,-1.80
 29543346,2.4634153346,-0.4725463403\Bq,0,-1.8554579131,2.4035464774,-0
 .4725463403\Bq,0,-1.8996978624,2.3373367145,-0.4725463403\Bq,0,-1.9349
 172244,2.2659189131,-0.4725463403\Bq,0,-1.9605133863,2.1905150518,-0.4
 725463403\Bq,0,-1.9760483906,2.1124153113,-0.4725463403\Bq,0,-1.981256
 429,2.032956,-0.4725463403\Bq,0,-1.9760483906,1.9534966887,-0.47254634
 03\Bq,0,-1.9605133863,1.8753969482,-0.4725463403\Bq,0,-1.9349172244,1.
 7999930869,-0.4725463403\Bq,0,-1.8996978624,1.7285752855,-0.4725463403
 \Bq,0,-1.8554579131,1.6623655226,-0.4725463403\Bq,0,-1.8029543346,1.60
 24966654,-0.4725463403\Bq,0,-1.7430854774,1.5499930869,-0.4725463403\B
 q,0,-1.6768757145,1.5057531376,-0.4725463403\Bq,0,-1.6054579131,1.4705
 337756,-0.4725463403\Bq,0,-1.5300540518,1.4449376137,-0.4725463403\Bq,
 0,-1.4519543113,1.4294026094,-0.4725463403\Bq,0,-1.372495,1.424194571,
 -0.4725463403\Bq,0,-1.2930356887,1.4294026094,-0.4725463403\Bq,0,-0.88
 95320869,1.6623655226,-0.4725463403\Bq,0,-0.8452921376,1.7285752855,-0
 .4725463403\Bq,0,-0.872495,2.032956,-0.5452184038\Bq,0,-0.8767725693,2
 .0982190961,-0.5452184038\Bq,0,-0.8895320869,2.1623655226,-0.545218403
 8\Bq,0,-0.9105552337,2.2242977162,-0.5452184038\Bq,0,-0.9394822981,2.2
 82956,-0.5452184038\Bq,0,-0.9758183299,2.3373367145,-0.5452184038\Bq,0
 ,-1.0189416094,2.3865093906,-0.5452184038\Bq,0,-1.0681142855,2.4296326
 701,-0.5452184038\Bq,0,-1.122495,2.4659687019,-0.5452184038\Bq,0,-1.18
 11532838,2.4948957663,-0.5452184038\Bq,0,-1.2430854774,2.5159189131,-0
 .5452184038\Bq,0,-1.3072319039,2.5286784307,-0.5452184038\Bq,0,-1.3724
 95,2.532956,-0.5452184038\Bq,0,-1.4377580961,2.5286784307,-0.545218403
 8\Bq,0,-1.5019045226,2.5159189131,-0.5452184038\Bq,0,-1.5638367162,2.4
 948957663,-0.5452184038\Bq,0,-1.622495,2.4659687019,-0.5452184038\Bq,0
 ,-1.6768757145,2.4296326701,-0.5452184038\Bq,0,-1.7260483906,2.3865093
 906,-0.5452184038\Bq,0,-1.7691716701,2.3373367145,-0.5452184038\Bq,0,-
 1.8055077019,2.282956,-0.5452184038\Bq,0,-1.8344347663,2.2242977162,-0
 .5452184038\Bq,0,-1.8554579131,2.1623655226,-0.5452184038\Bq,0,-1.8682
 174307,2.0982190961,-0.5452184038\Bq,0,-1.872495,2.032956,-0.545218403
 8\Bq,0,-1.8682174307,1.9676929039,-0.5452184038\Bq,0,-1.8554579131,1.9
 035464774,-0.5452184038\Bq,0,-1.8344347663,1.8416142838,-0.5452184038\
 Bq,0,-1.8055077019,1.782956,-0.5452184038\Bq,0,-1.7691716701,1.7285752
 855,-0.5452184038\Bq,0,-1.7260483906,1.6794026094,-0.5452184038\Bq,0,-
 1.6768757145,1.6362793299,-0.5452184038\Bq,0,-1.622495,1.5999432981,-0
 .5452184038\Bq,0,-1.5638367162,1.5710162337,-0.5452184038\Bq,0,-1.5019
 045226,1.5499930869,-0.5452184038\Bq,0,-1.4377580961,1.5372335693,-0.5
 452184038\Bq,0,-1.372495,1.532956,-0.5452184038\Bq,0,-1.3072319039,1.5
 372335693,-0.5452184038\Bq,0,-1.2430854774,1.5499930869,-0.5452184038\
 Bq,0,-1.1811532838,1.5710162337,-0.5452184038\Bq,0,-1.122495,1.5999432
 981,-0.5452184038\Bq,0,-1.0681142855,1.6362793299,-0.5452184038\Bq,0,-
 1.0189416094,1.6794026094,-0.5452184038\Bq,0,-0.9758183299,1.728575285
 5,-0.5452184038\Bq,0,-0.9394822981,1.782956,-0.5452184038\Bq,0,-0.9105
 552337,1.8416142838,-0.5452184038\Bq,0,-0.8895320869,1.9035464774,-0.5
 452184038\Bq,0,-0.8767725693,1.9676929039,-0.5452184038\Bq,0,-0.989811
 5676,2.032956,-0.6030725325\Bq,0,-0.9930854774,2.0829062113,-0.6030725
 325\Bq,0,-1.0028511894,2.1320017605,-0.6030725325\Bq,0,-1.0189416094,2
 .1794026094,-0.6030725325\Bq,0,-1.041081426,2.2242977162,-0.6030725325
 \Bq,0,-1.0688918207,2.2659189131,-0.6030725325\Bq,0,-1.1018969499,2.30
 35540501,-0.6030725325\Bq,0,-1.1395320869,2.3365591793,-0.6030725325\B
 q,0,-1.1811532838,2.364369574,-0.6030725325\Bq,0,-1.2260483906,2.38650
 93906,-0.6030725325\Bq,0,-1.2734492395,2.4025998106,-0.6030725325\Bq,0
 ,-1.3225447887,2.4123655226,-0.6030725325\Bq,0,-1.372495,2.4156394324,
 -0.6030725325\Bq,0,-1.4224452113,2.4123655226,-0.6030725325\Bq,0,-1.47
 15407605,2.4025998106,-0.6030725325\Bq,0,-1.5189416094,2.3865093906,-0
 .6030725325\Bq,0,-1.5638367162,2.364369574,-0.6030725325\Bq,0,-1.60545
 79131,2.3365591793,-0.6030725325\Bq,0,-1.6430930501,2.3035540501,-0.60
 30725325\Bq,0,-1.6760981793,2.2659189131,-0.6030725325\Bq,0,-1.7039085
 74,2.2242977162,-0.6030725325\Bq,0,-1.7260483906,2.1794026094,-0.60307
 25325\Bq,0,-1.7421388106,2.1320017605,-0.6030725325\Bq,0,-1.7519045226
 ,2.0829062113,-0.6030725325\Bq,0,-1.7551784324,2.032956,-0.6030725325\
 Bq,0,-1.7519045226,1.9830057887,-0.6030725325\Bq,0,-1.7421388106,1.933
 9102395,-0.6030725325\Bq,0,-1.7260483906,1.8865093906,-0.6030725325\Bq
 ,0,-1.703908574,1.8416142838,-0.6030725325\Bq,0,-1.6760981793,1.799993
 0869,-0.6030725325\Bq,0,-1.6430930501,1.7623579499,-0.6030725325\Bq,0,
 -1.6054579131,1.7293528207,-0.6030725325\Bq,0,-1.5638367162,1.70154242
 6,-0.6030725325\Bq,0,-1.5189416094,1.6794026094,-0.6030725325\Bq,0,-1.
 4715407605,1.6633121894,-0.6030725325\Bq,0,-1.4224452113,1.6535464774,
 -0.6030725325\Bq,0,-1.372495,1.6502725676,-0.6030725325\Bq,0,-1.322544
 7887,1.6535464774,-0.6030725325\Bq,0,-1.2734492395,1.6633121894,-0.603
 0725325\Bq,0,-1.2260483906,1.6794026094,-0.6030725325\Bq,0,-1.18115328
 38,1.701542426,-0.6030725325\Bq,0,-1.1395320869,1.7293528207,-0.603072
 5325\Bq,0,-1.1018969499,1.7623579499,-0.6030725325\Bq,0,-1.0688918207,
 1.7999930869,-0.6030725325\Bq,0,-1.041081426,1.8416142838,-0.603072532
 5\Bq,0,-1.0189416094,1.8865093906,-0.6030725325\Bq,0,-1.0028511894,1.9
 339102395,-0.6030725325\Bq,0,-0.9930854774,1.9830057887,-0.6030725325\
 Bq,0,-1.1136759549,2.032956,-0.6451188263\Bq,0,-1.1158901877,2.0667386
 644,-0.6451188263\Bq,0,-1.122495,2.0999432981,-0.6451188263\Bq,0,-1.13
 33773816,2.1320017605,-0.6451188263\Bq,0,-1.148351132,2.1623655226,-0.
 6451188263\Bq,0,-1.167160046,2.1905150518,-0.6451188263\Bq,0,-1.189482
 2981,2.2159687019,-0.6451188263\Bq,0,-1.2149359482,2.238290954,-0.6451
 188263\Bq,0,-1.2430854774,2.257099868,-0.6451188263\Bq,0,-1.2734492395
 ,2.2720736184,-0.6451188263\Bq,0,-1.3055077019,2.282956,-0.6451188263\
 Bq,0,-1.3387123356,2.2895608123,-0.6451188263\Bq,0,-1.372495,2.2917750
 451,-0.6451188263\Bq,0,-1.4062776644,2.2895608123,-0.6451188263\Bq,0,-
 1.4394822981,2.282956,-0.6451188263\Bq,0,-1.4715407605,2.2720736184,-0
 .6451188263\\Version=ES64L-G09RevD.01\HF=-847.0037387\RMSD=4.051e-09\D
 ipole=0.0000004,0.0287843,0.0000009\Quadrupole=4.8545288,4.8066247,-9.
 6611535,-0.0000047,-3.6219991,-0.000002\PG=C01 [X(C22H14)]\\@


  DISAPPOINTMENT IS THE NURSE OF WISDOM.               
                              SIR BOYLE ROCHE                 
 Job cpu time:       0 days  0 hours 59 minutes 11.2 seconds.
 File lengths (MBytes):  RWF=    184 Int=      0 D2E=      0 Chk=     21 Scr=      1
 Normal termination of Gaussian 09 at Tue Sep 15 10:46:17 2020.
