 Entering Gaussian System, Link 0=g09
 Input=input_batch_21800.com
 Output=input_batch_21800.log
 Initial command:
 /share/programs/GAUSSIAN/64/g09/l1.exe "/scratch/aartigas.39140/Gau-422.inp" -scrdir="/scratch/aartigas.39140/"
 Entering Link 1 = /share/programs/GAUSSIAN/64/g09/l1.exe PID=       423.
  
 Copyright (c) 1988,1990,1992,1993,1995,1998,2003,2009,2013,
            Gaussian, Inc.  All Rights Reserved.
  
 This is part of the Gaussian(R) 09 program.  It is based on
 the Gaussian(R) 03 system (copyright 2003, Gaussian, Inc.),
 the Gaussian(R) 98 system (copyright 1998, Gaussian, Inc.),
 the Gaussian(R) 94 system (copyright 1995, Gaussian, Inc.),
 the Gaussian 92(TM) system (copyright 1992, Gaussian, Inc.),
 the Gaussian 90(TM) system (copyright 1990, Gaussian, Inc.),
 the Gaussian 88(TM) system (copyright 1988, Gaussian, Inc.),
 the Gaussian 86(TM) system (copyright 1986, Carnegie Mellon
 University), and the Gaussian 82(TM) system (copyright 1983,
 Carnegie Mellon University). Gaussian is a federally registered
 trademark of Gaussian, Inc.
  
 This software contains proprietary and confidential information,
 including trade secrets, belonging to Gaussian, Inc.
  
 This software is provided under written license and may be
 used, copied, transmitted, or stored only in accord with that
 written license.
  
 The following legend is applicable only to US Government
 contracts under FAR:
  
                    RESTRICTED RIGHTS LEGEND
  
 Use, reproduction and disclosure by the US Government is
 subject to restrictions as set forth in subparagraphs (a)
 and (c) of the Commercial Computer Software - Restricted
 Rights clause in FAR 52.227-19.
  
 Gaussian, Inc.
 340 Quinnipiac St., Bldg. 40, Wallingford CT 06492
  
  
 ---------------------------------------------------------------
 Warning -- This program may not be used in any manner that
 competes with the business of Gaussian, Inc. or will provide
 assistance to any competitor of Gaussian, Inc.  The licensee
 of this program is prohibited from giving any competitor of
 Gaussian, Inc. access to this program.  By using this program,
 the user acknowledges that Gaussian, Inc. is engaged in the
 business of creating and licensing software in the field of
 computational chemistry and represents and warrants to the
 licensee that it is not a competitor of Gaussian, Inc. and that
 it will not use this program in any manner prohibited above.
 ---------------------------------------------------------------
  

 Cite this work as:
 Gaussian 09, Revision D.01,
 M. J. Frisch, G. W. Trucks, H. B. Schlegel, G. E. Scuseria, 
 M. A. Robb, J. R. Cheeseman, G. Scalmani, V. Barone, B. Mennucci, 
 G. A. Petersson, H. Nakatsuji, M. Caricato, X. Li, H. P. Hratchian, 
 A. F. Izmaylov, J. Bloino, G. Zheng, J. L. Sonnenberg, M. Hada, 
 M. Ehara, K. Toyota, R. Fukuda, J. Hasegawa, M. Ishida, T. Nakajima, 
 Y. Honda, O. Kitao, H. Nakai, T. Vreven, J. A. Montgomery, Jr., 
 J. E. Peralta, F. Ogliaro, M. Bearpark, J. J. Heyd, E. Brothers, 
 K. N. Kudin, V. N. Staroverov, T. Keith, R. Kobayashi, J. Normand, 
 K. Raghavachari, A. Rendell, J. C. Burant, S. S. Iyengar, J. Tomasi, 
 M. Cossi, N. Rega, J. M. Millam, M. Klene, J. E. Knox, J. B. Cross, 
 V. Bakken, C. Adamo, J. Jaramillo, R. Gomperts, R. E. Stratmann, 
 O. Yazyev, A. J. Austin, R. Cammi, C. Pomelli, J. W. Ochterski, 
 R. L. Martin, K. Morokuma, V. G. Zakrzewski, G. A. Voth, 
 P. Salvador, J. J. Dannenberg, S. Dapprich, A. D. Daniels, 
 O. Farkas, J. B. Foresman, J. V. Ortiz, J. Cioslowski, 
 and D. J. Fox, Gaussian, Inc., Wallingford CT, 2013.
 
 ******************************************
 Gaussian 09:  ES64L-G09RevD.01 24-Apr-2013
                15-Sep-2020 
 ******************************************
 %OldChk=/home/aartigas/chk/5_helicene_spe.chk
 %nproc=8
 Will use up to    8 processors via shared memory.
 %mem=1000MB
 Copying data from "/home/aartigas/chk/5_helicene_spe.chk" to current chk file "/scratch/aartigas.39140/Gau-423.chk".
 ----------------------------------------------------
 #P rb3lyp/6-311+g** NMR Guess=Read geom=connectivity
 ----------------------------------------------------
 1/38=1,57=2/1;
 2/12=2,17=6,18=5,40=1/2;
 3/5=4,6=6,7=111,11=2,16=1,25=1,30=1,74=-5,116=1/1,2,8,3;
 4/5=1/1;
 5/5=2,38=6/2;
 8/6=1,10=90,11=11/1;
 10/13=100,45=16/2;
 6/7=2,8=2,9=2,10=2,28=1/1;
 99/9=1/99;
 Leave Link    1 at Tue Sep 15 13:16:16 2020, MaxMem=   131072000 cpu:         0.4
 (Enter /share/programs/GAUSSIAN/64/g09/l101.exe)
 -----
 Title
 -----
 Symbolic Z-matrix:
 Charge =  0 Multiplicity = 1
 C                     0.65324   3.25786  -0.20251 
 C                    -0.65324   3.25786   0.20251 
 C                     1.3725    2.03296  -0.32081 
 C                    -1.3725    2.03296   0.32081 
 C                     0.72247   0.79567  -0.05039 
 C                    -0.72247   0.79567   0.05039 
 C                     2.76039   2.05393  -0.67427 
 C                     3.50887   0.91392  -0.67136 
 C                     2.95523  -0.30962  -0.17748 
 C                     1.57472  -0.36111   0.19709 
 H                     1.18343   4.19574  -0.3846 
 H                    -1.18343   4.19574   0.3846 
 H                     3.20628   3.01242  -0.95139 
 H                     4.56002   0.93296  -0.96933 
 C                     3.78302  -1.4431    0.02831 
 C                     1.13743  -1.50753   0.91211 
 C                     1.97369  -2.58435   1.13806 
 C                     3.30185  -2.57159   0.66118 
 H                     4.82575  -1.39123  -0.29548 
 H                     0.12465  -1.53279   1.30847 
 H                     1.60359  -3.44568   1.69898 
 H                     3.95274  -3.43353   0.82513 
 C                    -3.50887   0.91392   0.67136 
 C                    -2.76039   2.05393   0.67427 
 C                    -2.95523  -0.30962   0.17748 
 C                    -1.57472  -0.36111  -0.19709 
 C                    -3.78302  -1.4431   -0.02831 
 C                    -3.30185  -2.57159  -0.66118 
 C                    -1.97369  -2.58435  -1.13806 
 C                    -1.13743  -1.50753  -0.91211 
 H                    -4.56002   0.93295   0.96933 
 H                    -3.20628   3.01242   0.95139 
 H                    -4.82575  -1.39123   0.29548 
 H                    -3.95274  -3.43353  -0.82513 
 H                    -1.60359  -3.44568  -1.69898 
 H                    -0.12465  -1.53279  -1.30847 
 Bq                    0.2289   -1.17923  -2.1745 
 Bq                    0.17973  -1.13611  -2.1745 
 Bq                    0.12535  -1.09978  -2.1745 
 Bq                    0.06669  -1.07085  -2.1745 
 Bq                    0.00476  -1.04983  -2.1745 
 Bq                   -0.05939  -1.03707  -2.1745 
 Bq                   -0.12465  -1.03279  -2.1745 
 Bq                   -0.18992  -1.03707  -2.1745 
 Bq                   -0.25406  -1.04983  -2.1745 
 Bq                   -0.31599  -1.07085  -2.1745 
 Bq                   -0.37465  -1.09978  -2.1745 
 Bq                   -0.42903  -1.13611  -2.1745 
 Bq                   -0.47821  -1.17923  -2.1745 
 Bq                   -0.52133  -1.22841  -2.1745 
 Bq                   -0.55766  -1.28279  -2.1745 
 Bq                   -0.58659  -1.34145  -2.1745 
 Bq                   -0.60761  -1.40338  -2.1745 
 Bq                   -0.62037  -1.46752  -2.1745 
 Bq                   -0.62465  -1.53279  -2.1745 
 Bq                   -0.62037  -1.59805  -2.1745 
 Bq                   -0.60761  -1.6622   -2.1745 
 Bq                   -0.58659  -1.72413  -2.1745 
 Bq                   -0.55766  -1.78279  -2.1745 
 Bq                   -0.52133  -1.83717  -2.1745 
 Bq                   -0.47821  -1.88634  -2.1745 
 Bq                   -0.42903  -1.92946  -2.1745 
 Bq                   -0.37465  -1.9658   -2.1745 
 Bq                   -0.31599  -1.99473  -2.1745 
 Bq                   -0.25406  -2.01575  -2.1745 
 Bq                   -0.18992  -2.02851  -2.1745 
 Bq                   -0.12465  -2.03279  -2.1745 
 Bq                   -0.05939  -2.02851  -2.1745 
 Bq                    0.00476  -2.01575  -2.1745 
 Bq                    0.06669  -1.99473  -2.1745 
 Bq                    0.12535  -1.9658   -2.1745 
 Bq                    0.17973  -1.92946  -2.1745 
 Bq                    0.2289   -1.88634  -2.1745 
 Bq                    0.27202  -1.83717  -2.1745 
 Bq                    0.30836  -1.78279  -2.1745 
 Bq                    0.33729  -1.72413  -2.1745 
 Bq                    0.35831  -1.6622   -2.1745 
 Bq                    0.37107  -1.59805  -2.1745 
 Bq                    0.25803  -1.53279  -2.23235 
 Bq                    0.25476  -1.48284  -2.23235 
 Bq                    0.24499  -1.43374  -2.23235 
 Bq                    0.2289   -1.38634  -2.23235 
 Bq                    0.20676  -1.34145  -2.23235 
 Bq                    0.17895  -1.29983  -2.23235 
 Bq                    0.14595  -1.26219  -2.23235 
 Bq                    0.10831  -1.22918  -2.23235 
 Bq                    0.06669  -1.20137  -2.23235 
 Bq                    0.02179  -1.17923  -2.23235 
 Bq                   -0.02561  -1.16314  -2.23235 
 Bq                   -0.0747   -1.15338  -2.23235 
 Bq                   -0.12465  -1.1501   -2.23235 
 Bq                   -0.1746   -1.15338  -2.23235 
 Bq                   -0.2237   -1.16314  -2.23235 
 Bq                   -0.2711   -1.17923  -2.23235 
 Bq                   -0.31599  -1.20137  -2.23235 
 Bq                   -0.35761  -1.22918  -2.23235 
 Bq                   -0.39525  -1.26219  -2.23235 
 Bq                   -0.42826  -1.29983  -2.23235 
 Bq                   -0.45607  -1.34145  -2.23235 
 Bq                   -0.47821  -1.38634  -2.23235 
 Bq                   -0.4943   -1.43374  -2.23235 
 Bq                   -0.50406  -1.48284  -2.23235 
 Bq                   -0.50734  -1.53279  -2.23235 
 Bq                   -0.50406  -1.58274  -2.23235 
 Bq                   -0.4943   -1.63183  -2.23235 
 Bq                   -0.47821  -1.67923  -2.23235 
 Bq                   -0.45607  -1.72413  -2.23235 
 Bq                   -0.42826  -1.76575  -2.23235 
 Bq                   -0.39525  -1.80339  -2.23235 
 Bq                   -0.35761  -1.83639  -2.23235 
 Bq                   -0.31599  -1.8642   -2.23235 
 Bq                   -0.2711   -1.88634  -2.23235 
 Bq                   -0.2237   -1.90243  -2.23235 
 Bq                   -0.1746   -1.9122   -2.23235 
 Bq                   -0.12465  -1.91547  -2.23235 
 Bq                   -0.0747   -1.9122   -2.23235 
 Bq                   -0.02561  -1.90243  -2.23235 
 Bq                    0.02179  -1.88634  -2.23235 
 Bq                    0.06669  -1.8642   -2.23235 
 Bq                    0.10831  -1.83639  -2.23235 
 Bq                    0.14595  -1.80339  -2.23235 
 Bq                    0.17895  -1.76575  -2.23235 
 Bq                    0.20676  -1.72413  -2.23235 
 Bq                    0.2289   -1.67923  -2.23235 
 Bq                    0.24499  -1.63183  -2.23235 
 Bq                    0.25476  -1.58274  -2.23235 
 Bq                    0.13417  -1.53279  -2.2744 
 Bq                    0.13195  -1.49901  -2.2744 
 Bq                    0.12535  -1.4658   -2.2744 
 Bq                    0.11447  -1.43374  -2.2744 
 Bq                    0.09949  -1.40338  -2.2744 
 Bq                    0.08068  -1.37523  -2.2744 
 Bq                    0.05836  -1.34978  -2.2744 
 Bq                    0.03291  -1.32745  -2.2744 
 Bq                    0.00476  -1.30864  -2.2744 
 Bq                   -0.02561  -1.29367  -2.2744 
 Bq                   -0.05766  -1.28279  -2.2744 
 Bq                   -0.09087  -1.27618  -2.2744 
 Bq                   -0.12465  -1.27397  -2.2744 
 Bq                   -0.15843  -1.27618  -2.2744 
 Bq                   -0.19164  -1.28279  -2.2744 
 Bq                   -0.2237   -1.29367  -2.2744 
 Bq                   -0.25406  -1.30864  -2.2744 
 Bq                   -0.28221  -1.32745  -2.2744 
 Bq                   -0.30766  -1.34978  -2.2744 
 Bq                   -0.32999  -1.37523  -2.2744 
 Bq                   -0.3488   -1.40338  -2.2744 
 Bq                   -0.36377  -1.43374  -2.2744 
 Bq                   -0.37465  -1.4658   -2.2744 
 Bq                   -0.38126  -1.49901  -2.2744 
 Bq                   -0.38347  -1.53279  -2.2744 
 Bq                   -0.38126  -1.56657  -2.2744 
 Bq                   -0.37465  -1.59978  -2.2744 
 Bq                   -0.36377  -1.63183  -2.2744 
 Bq                   -0.3488   -1.6622   -2.2744 
 Bq                   -0.32999  -1.69035  -2.2744 
 Bq                   -0.30766  -1.7158   -2.2744 
 Bq                   -0.28221  -1.73812  -2.2744 
 Bq                   -0.25406  -1.75693  -2.2744 
 Bq                   -0.2237   -1.77191  -2.2744 
 Bq                   -0.19164  -1.78279  -2.2744 
 Bq                   -0.15843  -1.78939  -2.2744 
 Bq                   -0.12465  -1.79161  -2.2744 
 Bq                   -0.09087  -1.78939  -2.2744 
 Bq                   -0.05766  -1.78279  -2.2744 
 Bq                   -0.02561  -1.77191  -2.2744 
 Bq                    0.00476  -1.75693  -2.2744 
 Bq                    0.03291  -1.73812  -2.2744 
 Bq                    0.05836  -1.7158   -2.2744 
 Bq                    0.08068  -1.69035  -2.2744 
 Bq                    0.09949  -1.6622   -2.2744 
 Bq                    0.11447  -1.63183  -2.2744 
 Bq                    0.12535  -1.59978  -2.2744 
 Bq                    0.13195  -1.56657  -2.2744 
 Bq                    0.00587  -1.53279  -2.29992 
 Bq                    0.00476  -1.51575  -2.29992 
 Bq                    0.00143  -1.49901  -2.29992 
 Bq                   -0.00406  -1.48284  -2.29992 
 Bq                   -0.01161  -1.46752  -2.29992 
 Bq                   -0.0211   -1.45333  -2.29992 
 Bq                   -0.03236  -1.44049  -2.29992 
 Bq                   -0.04519  -1.42923  -2.29992 
 Bq                   -0.05939  -1.41975  -2.29992 
 Bq                   -0.0747   -1.4122   -2.29992 
 Bq                   -0.09087  -1.40671  -2.29992 
 Bq                   -0.10761  -1.40338  -2.29992 
 Bq                   -0.12465  -1.40226  -2.29992 
 Bq                   -0.14169  -1.40338  -2.29992 
 Bq                   -0.15843  -1.40671  -2.29992 
 Bq                   -0.1746   -1.4122   -2.29992 
 Bq                   -0.18992  -1.41975  -2.29992 
 Bq                   -0.20411  -1.42923  -2.29992 
 Bq                   -0.21695  -1.44049  -2.29992 
 Bq                   -0.22821  -1.45333  -2.29992 
 Bq                   -0.23769  -1.46752  -2.29992 
 Bq                   -0.24524  -1.48284  -2.29992 
 Bq                   -0.25073  -1.49901  -2.29992 
 Bq                   -0.25406  -1.51575  -2.29992 
 Bq                   -0.25518  -1.53279  -2.29992 
 Bq                   -0.25406  -1.54983  -2.29992 
 Bq                   -0.25073  -1.56657  -2.29992 
 Bq                   -0.24524  -1.58274  -2.29992 
 Bq                   -0.23769  -1.59805  -2.29992 
 Bq                   -0.22821  -1.61225  -2.29992 
 Bq                   -0.21695  -1.62508  -2.29992 
 Bq                   -0.20411  -1.63634  -2.29992 
 Bq                   -0.18992  -1.64583  -2.29992 
 Bq                   -0.1746   -1.65338  -2.29992 
 Bq                   -0.15843  -1.65887  -2.29992 
 Bq                   -0.14169  -1.6622   -2.29992 
 Bq                   -0.12465  -1.66331  -2.29992 
 Bq                   -0.10761  -1.6622   -2.29992 
 Bq                   -0.09087  -1.65887  -2.29992 
 Bq                   -0.0747   -1.65338  -2.29992 
 Bq                   -0.05939  -1.64583  -2.29992 
 Bq                   -0.04519  -1.63634  -2.29992 
 Bq                   -0.03236  -1.62508  -2.29992 
 Bq                   -0.0211   -1.61225  -2.29992 
 Bq                   -0.01161  -1.59805  -2.29992 
 Bq                   -0.00406  -1.58274  -2.29992 
 Bq                    0.00143  -1.56657  -2.29992 
 Bq                    0.00476  -1.54983  -2.29992 
 Bq                   -0.68795  -0.31207   0.50791 
 Bq                   -0.69344  -0.32824   0.50791 
 Bq                   -0.69677  -0.34498   0.50791 
 Bq                   -0.69789  -0.36202   0.50791 
 Bq                   -0.69677  -0.37906   0.50791 
 Bq                   -0.69344  -0.3958    0.50791 
 Bq                   -0.68795  -0.41197   0.50791 
 Bq                   -0.6804   -0.42728   0.50791 
 Bq                   -0.67091  -0.44148   0.50791 
 Bq                   -0.65966  -0.45432   0.50791 
 Bq                   -0.64682  -0.46557   0.50791 
 Bq                   -0.63262  -0.47506   0.50791 
 Bq                   -0.61731  -0.48261   0.50791 
 Bq                   -0.60114  -0.4881    0.50791 
 
 NAtoms=    236 NQM=      236 NQMF=       0 NMMI=      0 NMMIF=      0
                NMic=       0 NMicF=      0.
                    Isotopes and Nuclear Properties:
 (Nuclear quadrupole moments (NQMom) in fm**2, nuclear magnetic moments (NMagM)
  in nuclear magnetons)

  Atom         1           2           3           4           5           6           7           8           9          10
 IAtWgt=          12          12          12          12          12          12          12          12          12          12
 AtmWgt=  12.0000000  12.0000000  12.0000000  12.0000000  12.0000000  12.0000000  12.0000000  12.0000000  12.0000000  12.0000000
 NucSpn=           0           0           0           0           0           0           0           0           0           0
 AtZEff=   0.0000000   0.0000000   0.0000000   0.0000000   0.0000000   0.0000000   0.0000000   0.0000000   0.0000000   0.0000000
 NQMom=    0.0000000   0.0000000   0.0000000   0.0000000   0.0000000   0.0000000   0.0000000   0.0000000   0.0000000   0.0000000
 NMagM=    0.0000000   0.0000000   0.0000000   0.0000000   0.0000000   0.0000000   0.0000000   0.0000000   0.0000000   0.0000000
 AtZNuc=   6.0000000   6.0000000   6.0000000   6.0000000   6.0000000   6.0000000   6.0000000   6.0000000   6.0000000   6.0000000

  Atom        11          12          13          14          15          16          17          18          19          20
 IAtWgt=           1           1           1           1          12          12          12          12           1           1
 AtmWgt=   1.0078250   1.0078250   1.0078250   1.0078250  12.0000000  12.0000000  12.0000000  12.0000000   1.0078250   1.0078250
 NucSpn=           1           1           1           1           0           0           0           0           1           1
 AtZEff=   0.0000000   0.0000000   0.0000000   0.0000000   0.0000000   0.0000000   0.0000000   0.0000000   0.0000000   0.0000000
 NQMom=    0.0000000   0.0000000   0.0000000   0.0000000   0.0000000   0.0000000   0.0000000   0.0000000   0.0000000   0.0000000
 NMagM=    2.7928460   2.7928460   2.7928460   2.7928460   0.0000000   0.0000000   0.0000000   0.0000000   2.7928460   2.7928460
 AtZNuc=   1.0000000   1.0000000   1.0000000   1.0000000   6.0000000   6.0000000   6.0000000   6.0000000   1.0000000   1.0000000

  Atom        21          22          23          24          25          26          27          28          29          30
 IAtWgt=           1           1          12          12          12          12          12          12          12          12
 AtmWgt=   1.0078250   1.0078250  12.0000000  12.0000000  12.0000000  12.0000000  12.0000000  12.0000000  12.0000000  12.0000000
 NucSpn=           1           1           0           0           0           0           0           0           0           0
 AtZEff=   0.0000000   0.0000000   0.0000000   0.0000000   0.0000000   0.0000000   0.0000000   0.0000000   0.0000000   0.0000000
 NQMom=    0.0000000   0.0000000   0.0000000   0.0000000   0.0000000   0.0000000   0.0000000   0.0000000   0.0000000   0.0000000
 NMagM=    2.7928460   2.7928460   0.0000000   0.0000000   0.0000000   0.0000000   0.0000000   0.0000000   0.0000000   0.0000000
 AtZNuc=   1.0000000   1.0000000   6.0000000   6.0000000   6.0000000   6.0000000   6.0000000   6.0000000   6.0000000   6.0000000

  Atom        31          32          33          34          35          36          37          38          39          40
 IAtWgt=           1           1           1           1           1           1           0           0           0           0
 AtmWgt=   1.0078250   1.0078250   1.0078250   1.0078250   1.0078250   1.0078250   0.0000000   0.0000000   0.0000000   0.0000000
 NucSpn=           1           1           1           1           1           1           0           0           0           0
 AtZEff=   0.0000000   0.0000000   0.0000000   0.0000000   0.0000000   0.0000000   0.0000000   0.0000000   0.0000000   0.0000000
 NQMom=    0.0000000   0.0000000   0.0000000   0.0000000   0.0000000   0.0000000   0.0000000   0.0000000   0.0000000   0.0000000
 NMagM=    2.7928460   2.7928460   2.7928460   2.7928460   2.7928460   2.7928460   0.0000000   0.0000000   0.0000000   0.0000000
 AtZNuc=   1.0000000   1.0000000   1.0000000   1.0000000   1.0000000   1.0000000   0.0000000   0.0000000   0.0000000   0.0000000

  Atom        41          42          43          44          45          46          47          48          49          50
 IAtWgt=           0           0           0           0           0           0           0           0           0           0
 AtmWgt=   0.0000000   0.0000000   0.0000000   0.0000000   0.0000000   0.0000000   0.0000000   0.0000000   0.0000000   0.0000000
 NucSpn=           0           0           0           0           0           0           0           0           0           0
 AtZEff=   0.0000000   0.0000000   0.0000000   0.0000000   0.0000000   0.0000000   0.0000000   0.0000000   0.0000000   0.0000000
 NQMom=    0.0000000   0.0000000   0.0000000   0.0000000   0.0000000   0.0000000   0.0000000   0.0000000   0.0000000   0.0000000
 NMagM=    0.0000000   0.0000000   0.0000000   0.0000000   0.0000000   0.0000000   0.0000000   0.0000000   0.0000000   0.0000000
 AtZNuc=   0.0000000   0.0000000   0.0000000   0.0000000   0.0000000   0.0000000   0.0000000   0.0000000   0.0000000   0.0000000

  Atom        51          52          53          54          55          56          57          58          59          60
 IAtWgt=           0           0           0           0           0           0           0           0           0           0
 AtmWgt=   0.0000000   0.0000000   0.0000000   0.0000000   0.0000000   0.0000000   0.0000000   0.0000000   0.0000000   0.0000000
 NucSpn=           0           0           0           0           0           0           0           0           0           0
 AtZEff=   0.0000000   0.0000000   0.0000000   0.0000000   0.0000000   0.0000000   0.0000000   0.0000000   0.0000000   0.0000000
 NQMom=    0.0000000   0.0000000   0.0000000   0.0000000   0.0000000   0.0000000   0.0000000   0.0000000   0.0000000   0.0000000
 NMagM=    0.0000000   0.0000000   0.0000000   0.0000000   0.0000000   0.0000000   0.0000000   0.0000000   0.0000000   0.0000000
 AtZNuc=   0.0000000   0.0000000   0.0000000   0.0000000   0.0000000   0.0000000   0.0000000   0.0000000   0.0000000   0.0000000

  Atom        61          62          63          64          65          66          67          68          69          70
 IAtWgt=           0           0           0           0           0           0           0           0           0           0
 AtmWgt=   0.0000000   0.0000000   0.0000000   0.0000000   0.0000000   0.0000000   0.0000000   0.0000000   0.0000000   0.0000000
 NucSpn=           0           0           0           0           0           0           0           0           0           0
 AtZEff=   0.0000000   0.0000000   0.0000000   0.0000000   0.0000000   0.0000000   0.0000000   0.0000000   0.0000000   0.0000000
 NQMom=    0.0000000   0.0000000   0.0000000   0.0000000   0.0000000   0.0000000   0.0000000   0.0000000   0.0000000   0.0000000
 NMagM=    0.0000000   0.0000000   0.0000000   0.0000000   0.0000000   0.0000000   0.0000000   0.0000000   0.0000000   0.0000000
 AtZNuc=   0.0000000   0.0000000   0.0000000   0.0000000   0.0000000   0.0000000   0.0000000   0.0000000   0.0000000   0.0000000

  Atom        71          72          73          74          75          76          77          78          79          80
 IAtWgt=           0           0           0           0           0           0           0           0           0           0
 AtmWgt=   0.0000000   0.0000000   0.0000000   0.0000000   0.0000000   0.0000000   0.0000000   0.0000000   0.0000000   0.0000000
 NucSpn=           0           0           0           0           0           0           0           0           0           0
 AtZEff=   0.0000000   0.0000000   0.0000000   0.0000000   0.0000000   0.0000000   0.0000000   0.0000000   0.0000000   0.0000000
 NQMom=    0.0000000   0.0000000   0.0000000   0.0000000   0.0000000   0.0000000   0.0000000   0.0000000   0.0000000   0.0000000
 NMagM=    0.0000000   0.0000000   0.0000000   0.0000000   0.0000000   0.0000000   0.0000000   0.0000000   0.0000000   0.0000000
 AtZNuc=   0.0000000   0.0000000   0.0000000   0.0000000   0.0000000   0.0000000   0.0000000   0.0000000   0.0000000   0.0000000

  Atom        81          82          83          84          85          86          87          88          89          90
 IAtWgt=           0           0           0           0           0           0           0           0           0           0
 AtmWgt=   0.0000000   0.0000000   0.0000000   0.0000000   0.0000000   0.0000000   0.0000000   0.0000000   0.0000000   0.0000000
 NucSpn=           0           0           0           0           0           0           0           0           0           0
 AtZEff=   0.0000000   0.0000000   0.0000000   0.0000000   0.0000000   0.0000000   0.0000000   0.0000000   0.0000000   0.0000000
 NQMom=    0.0000000   0.0000000   0.0000000   0.0000000   0.0000000   0.0000000   0.0000000   0.0000000   0.0000000   0.0000000
 NMagM=    0.0000000   0.0000000   0.0000000   0.0000000   0.0000000   0.0000000   0.0000000   0.0000000   0.0000000   0.0000000
 AtZNuc=   0.0000000   0.0000000   0.0000000   0.0000000   0.0000000   0.0000000   0.0000000   0.0000000   0.0000000   0.0000000

  Atom        91          92          93          94          95          96          97          98          99         100
 IAtWgt=           0           0           0           0           0           0           0           0           0           0
 AtmWgt=   0.0000000   0.0000000   0.0000000   0.0000000   0.0000000   0.0000000   0.0000000   0.0000000   0.0000000   0.0000000
 NucSpn=           0           0           0           0           0           0           0           0           0           0
 AtZEff=   0.0000000   0.0000000   0.0000000   0.0000000   0.0000000   0.0000000   0.0000000   0.0000000   0.0000000   0.0000000
 NQMom=    0.0000000   0.0000000   0.0000000   0.0000000   0.0000000   0.0000000   0.0000000   0.0000000   0.0000000   0.0000000
 NMagM=    0.0000000   0.0000000   0.0000000   0.0000000   0.0000000   0.0000000   0.0000000   0.0000000   0.0000000   0.0000000
 AtZNuc=   0.0000000   0.0000000   0.0000000   0.0000000   0.0000000   0.0000000   0.0000000   0.0000000   0.0000000   0.0000000

  Atom       101         102         103         104         105         106         107         108         109         110
 IAtWgt=           0           0           0           0           0           0           0           0           0           0
 AtmWgt=   0.0000000   0.0000000   0.0000000   0.0000000   0.0000000   0.0000000   0.0000000   0.0000000   0.0000000   0.0000000
 NucSpn=           0           0           0           0           0           0           0           0           0           0
 AtZEff=   0.0000000   0.0000000   0.0000000   0.0000000   0.0000000   0.0000000   0.0000000   0.0000000   0.0000000   0.0000000
 NQMom=    0.0000000   0.0000000   0.0000000   0.0000000   0.0000000   0.0000000   0.0000000   0.0000000   0.0000000   0.0000000
 NMagM=    0.0000000   0.0000000   0.0000000   0.0000000   0.0000000   0.0000000   0.0000000   0.0000000   0.0000000   0.0000000
 AtZNuc=   0.0000000   0.0000000   0.0000000   0.0000000   0.0000000   0.0000000   0.0000000   0.0000000   0.0000000   0.0000000

  Atom       111         112         113         114         115         116         117         118         119         120
 IAtWgt=           0           0           0           0           0           0           0           0           0           0
 AtmWgt=   0.0000000   0.0000000   0.0000000   0.0000000   0.0000000   0.0000000   0.0000000   0.0000000   0.0000000   0.0000000
 NucSpn=           0           0           0           0           0           0           0           0           0           0
 AtZEff=   0.0000000   0.0000000   0.0000000   0.0000000   0.0000000   0.0000000   0.0000000   0.0000000   0.0000000   0.0000000
 NQMom=    0.0000000   0.0000000   0.0000000   0.0000000   0.0000000   0.0000000   0.0000000   0.0000000   0.0000000   0.0000000
 NMagM=    0.0000000   0.0000000   0.0000000   0.0000000   0.0000000   0.0000000   0.0000000   0.0000000   0.0000000   0.0000000
 AtZNuc=   0.0000000   0.0000000   0.0000000   0.0000000   0.0000000   0.0000000   0.0000000   0.0000000   0.0000000   0.0000000

  Atom       121         122         123         124         125         126         127         128         129         130
 IAtWgt=           0           0           0           0           0           0           0           0           0           0
 AtmWgt=   0.0000000   0.0000000   0.0000000   0.0000000   0.0000000   0.0000000   0.0000000   0.0000000   0.0000000   0.0000000
 NucSpn=           0           0           0           0           0           0           0           0           0           0
 AtZEff=   0.0000000   0.0000000   0.0000000   0.0000000   0.0000000   0.0000000   0.0000000   0.0000000   0.0000000   0.0000000
 NQMom=    0.0000000   0.0000000   0.0000000   0.0000000   0.0000000   0.0000000   0.0000000   0.0000000   0.0000000   0.0000000
 NMagM=    0.0000000   0.0000000   0.0000000   0.0000000   0.0000000   0.0000000   0.0000000   0.0000000   0.0000000   0.0000000
 AtZNuc=   0.0000000   0.0000000   0.0000000   0.0000000   0.0000000   0.0000000   0.0000000   0.0000000   0.0000000   0.0000000

  Atom       131         132         133         134         135         136         137         138         139         140
 IAtWgt=           0           0           0           0           0           0           0           0           0           0
 AtmWgt=   0.0000000   0.0000000   0.0000000   0.0000000   0.0000000   0.0000000   0.0000000   0.0000000   0.0000000   0.0000000
 NucSpn=           0           0           0           0           0           0           0           0           0           0
 AtZEff=   0.0000000   0.0000000   0.0000000   0.0000000   0.0000000   0.0000000   0.0000000   0.0000000   0.0000000   0.0000000
 NQMom=    0.0000000   0.0000000   0.0000000   0.0000000   0.0000000   0.0000000   0.0000000   0.0000000   0.0000000   0.0000000
 NMagM=    0.0000000   0.0000000   0.0000000   0.0000000   0.0000000   0.0000000   0.0000000   0.0000000   0.0000000   0.0000000
 AtZNuc=   0.0000000   0.0000000   0.0000000   0.0000000   0.0000000   0.0000000   0.0000000   0.0000000   0.0000000   0.0000000

  Atom       141         142         143         144         145         146         147         148         149         150
 IAtWgt=           0           0           0           0           0           0           0           0           0           0
 AtmWgt=   0.0000000   0.0000000   0.0000000   0.0000000   0.0000000   0.0000000   0.0000000   0.0000000   0.0000000   0.0000000
 NucSpn=           0           0           0           0           0           0           0           0           0           0
 AtZEff=   0.0000000   0.0000000   0.0000000   0.0000000   0.0000000   0.0000000   0.0000000   0.0000000   0.0000000   0.0000000
 NQMom=    0.0000000   0.0000000   0.0000000   0.0000000   0.0000000   0.0000000   0.0000000   0.0000000   0.0000000   0.0000000
 NMagM=    0.0000000   0.0000000   0.0000000   0.0000000   0.0000000   0.0000000   0.0000000   0.0000000   0.0000000   0.0000000
 AtZNuc=   0.0000000   0.0000000   0.0000000   0.0000000   0.0000000   0.0000000   0.0000000   0.0000000   0.0000000   0.0000000

  Atom       151         152         153         154         155         156         157         158         159         160
 IAtWgt=           0           0           0           0           0           0           0           0           0           0
 AtmWgt=   0.0000000   0.0000000   0.0000000   0.0000000   0.0000000   0.0000000   0.0000000   0.0000000   0.0000000   0.0000000
 NucSpn=           0           0           0           0           0           0           0           0           0           0
 AtZEff=   0.0000000   0.0000000   0.0000000   0.0000000   0.0000000   0.0000000   0.0000000   0.0000000   0.0000000   0.0000000
 NQMom=    0.0000000   0.0000000   0.0000000   0.0000000   0.0000000   0.0000000   0.0000000   0.0000000   0.0000000   0.0000000
 NMagM=    0.0000000   0.0000000   0.0000000   0.0000000   0.0000000   0.0000000   0.0000000   0.0000000   0.0000000   0.0000000
 AtZNuc=   0.0000000   0.0000000   0.0000000   0.0000000   0.0000000   0.0000000   0.0000000   0.0000000   0.0000000   0.0000000

  Atom       161         162         163         164         165         166         167         168         169         170
 IAtWgt=           0           0           0           0           0           0           0           0           0           0
 AtmWgt=   0.0000000   0.0000000   0.0000000   0.0000000   0.0000000   0.0000000   0.0000000   0.0000000   0.0000000   0.0000000
 NucSpn=           0           0           0           0           0           0           0           0           0           0
 AtZEff=   0.0000000   0.0000000   0.0000000   0.0000000   0.0000000   0.0000000   0.0000000   0.0000000   0.0000000   0.0000000
 NQMom=    0.0000000   0.0000000   0.0000000   0.0000000   0.0000000   0.0000000   0.0000000   0.0000000   0.0000000   0.0000000
 NMagM=    0.0000000   0.0000000   0.0000000   0.0000000   0.0000000   0.0000000   0.0000000   0.0000000   0.0000000   0.0000000
 AtZNuc=   0.0000000   0.0000000   0.0000000   0.0000000   0.0000000   0.0000000   0.0000000   0.0000000   0.0000000   0.0000000

  Atom       171         172         173         174         175         176         177         178         179         180
 IAtWgt=           0           0           0           0           0           0           0           0           0           0
 AtmWgt=   0.0000000   0.0000000   0.0000000   0.0000000   0.0000000   0.0000000   0.0000000   0.0000000   0.0000000   0.0000000
 NucSpn=           0           0           0           0           0           0           0           0           0           0
 AtZEff=   0.0000000   0.0000000   0.0000000   0.0000000   0.0000000   0.0000000   0.0000000   0.0000000   0.0000000   0.0000000
 NQMom=    0.0000000   0.0000000   0.0000000   0.0000000   0.0000000   0.0000000   0.0000000   0.0000000   0.0000000   0.0000000
 NMagM=    0.0000000   0.0000000   0.0000000   0.0000000   0.0000000   0.0000000   0.0000000   0.0000000   0.0000000   0.0000000
 AtZNuc=   0.0000000   0.0000000   0.0000000   0.0000000   0.0000000   0.0000000   0.0000000   0.0000000   0.0000000   0.0000000

  Atom       181         182         183         184         185         186         187         188         189         190
 IAtWgt=           0           0           0           0           0           0           0           0           0           0
 AtmWgt=   0.0000000   0.0000000   0.0000000   0.0000000   0.0000000   0.0000000   0.0000000   0.0000000   0.0000000   0.0000000
 NucSpn=           0           0           0           0           0           0           0           0           0           0
 AtZEff=   0.0000000   0.0000000   0.0000000   0.0000000   0.0000000   0.0000000   0.0000000   0.0000000   0.0000000   0.0000000
 NQMom=    0.0000000   0.0000000   0.0000000   0.0000000   0.0000000   0.0000000   0.0000000   0.0000000   0.0000000   0.0000000
 NMagM=    0.0000000   0.0000000   0.0000000   0.0000000   0.0000000   0.0000000   0.0000000   0.0000000   0.0000000   0.0000000
 AtZNuc=   0.0000000   0.0000000   0.0000000   0.0000000   0.0000000   0.0000000   0.0000000   0.0000000   0.0000000   0.0000000

  Atom       191         192         193         194         195         196         197         198         199         200
 IAtWgt=           0           0           0           0           0           0           0           0           0           0
 AtmWgt=   0.0000000   0.0000000   0.0000000   0.0000000   0.0000000   0.0000000   0.0000000   0.0000000   0.0000000   0.0000000
 NucSpn=           0           0           0           0           0           0           0           0           0           0
 AtZEff=   0.0000000   0.0000000   0.0000000   0.0000000   0.0000000   0.0000000   0.0000000   0.0000000   0.0000000   0.0000000
 NQMom=    0.0000000   0.0000000   0.0000000   0.0000000   0.0000000   0.0000000   0.0000000   0.0000000   0.0000000   0.0000000
 NMagM=    0.0000000   0.0000000   0.0000000   0.0000000   0.0000000   0.0000000   0.0000000   0.0000000   0.0000000   0.0000000
 AtZNuc=   0.0000000   0.0000000   0.0000000   0.0000000   0.0000000   0.0000000   0.0000000   0.0000000   0.0000000   0.0000000

  Atom       201         202         203         204         205         206         207         208         209         210
 IAtWgt=           0           0           0           0           0           0           0           0           0           0
 AtmWgt=   0.0000000   0.0000000   0.0000000   0.0000000   0.0000000   0.0000000   0.0000000   0.0000000   0.0000000   0.0000000
 NucSpn=           0           0           0           0           0           0           0           0           0           0
 AtZEff=   0.0000000   0.0000000   0.0000000   0.0000000   0.0000000   0.0000000   0.0000000   0.0000000   0.0000000   0.0000000
 NQMom=    0.0000000   0.0000000   0.0000000   0.0000000   0.0000000   0.0000000   0.0000000   0.0000000   0.0000000   0.0000000
 NMagM=    0.0000000   0.0000000   0.0000000   0.0000000   0.0000000   0.0000000   0.0000000   0.0000000   0.0000000   0.0000000
 AtZNuc=   0.0000000   0.0000000   0.0000000   0.0000000   0.0000000   0.0000000   0.0000000   0.0000000   0.0000000   0.0000000

  Atom       211         212         213         214         215         216         217         218         219         220
 IAtWgt=           0           0           0           0           0           0           0           0           0           0
 AtmWgt=   0.0000000   0.0000000   0.0000000   0.0000000   0.0000000   0.0000000   0.0000000   0.0000000   0.0000000   0.0000000
 NucSpn=           0           0           0           0           0           0           0           0           0           0
 AtZEff=   0.0000000   0.0000000   0.0000000   0.0000000   0.0000000   0.0000000   0.0000000   0.0000000   0.0000000   0.0000000
 NQMom=    0.0000000   0.0000000   0.0000000   0.0000000   0.0000000   0.0000000   0.0000000   0.0000000   0.0000000   0.0000000
 NMagM=    0.0000000   0.0000000   0.0000000   0.0000000   0.0000000   0.0000000   0.0000000   0.0000000   0.0000000   0.0000000
 AtZNuc=   0.0000000   0.0000000   0.0000000   0.0000000   0.0000000   0.0000000   0.0000000   0.0000000   0.0000000   0.0000000

  Atom       221         222         223         224         225         226         227         228         229         230
 IAtWgt=           0           0           0           0           0           0           0           0           0           0
 AtmWgt=   0.0000000   0.0000000   0.0000000   0.0000000   0.0000000   0.0000000   0.0000000   0.0000000   0.0000000   0.0000000
 NucSpn=           0           0           0           0           0           0           0           0           0           0
 AtZEff=   0.0000000   0.0000000   0.0000000   0.0000000   0.0000000   0.0000000   0.0000000   0.0000000   0.0000000   0.0000000
 NQMom=    0.0000000   0.0000000   0.0000000   0.0000000   0.0000000   0.0000000   0.0000000   0.0000000   0.0000000   0.0000000
 NMagM=    0.0000000   0.0000000   0.0000000   0.0000000   0.0000000   0.0000000   0.0000000   0.0000000   0.0000000   0.0000000
 AtZNuc=   0.0000000   0.0000000   0.0000000   0.0000000   0.0000000   0.0000000   0.0000000   0.0000000   0.0000000   0.0000000

  Atom       231         232         233         234         235         236
 IAtWgt=           0           0           0           0           0           0
 AtmWgt=   0.0000000   0.0000000   0.0000000   0.0000000   0.0000000   0.0000000
 NucSpn=           0           0           0           0           0           0
 AtZEff=   0.0000000   0.0000000   0.0000000   0.0000000   0.0000000   0.0000000
 NQMom=    0.0000000   0.0000000   0.0000000   0.0000000   0.0000000   0.0000000
 NMagM=    0.0000000   0.0000000   0.0000000   0.0000000   0.0000000   0.0000000
 AtZNuc=   0.0000000   0.0000000   0.0000000   0.0000000   0.0000000   0.0000000
 Leave Link  101 at Tue Sep 15 13:16:16 2020, MaxMem=   131072000 cpu:         3.1
 (Enter /share/programs/GAUSSIAN/64/g09/l202.exe)
 Symmetry turned off:
 Cannot cope with ghost atoms or with translation vectors.
 Stoichiometry    C22H14
 Framework group  C1[X(C22H14)]
 NUMDOF-- NAT=    36 NAtoms=   236
 Deg. of freedom     0
 Full point group                 C1      NOp   1
                          Input orientation:                          
 ---------------------------------------------------------------------
 Center     Atomic      Atomic             Coordinates (Angstroms)
 Number     Number       Type             X           Y           Z
 ---------------------------------------------------------------------
      1          6           0        0.653241    3.257859   -0.202510
      2          6           0       -0.653243    3.257860    0.202510
      3          6           0        1.372495    2.032956   -0.320807
      4          6           0       -1.372495    2.032956    0.320807
      5          6           0        0.722474    0.795666   -0.050388
      6          6           0       -0.722474    0.795667    0.050387
      7          6           0        2.760385    2.053927   -0.674268
      8          6           0        3.508866    0.913916   -0.671362
      9          6           0        2.955226   -0.309622   -0.177479
     10          6           0        1.574722   -0.361114    0.197094
     11          1           0        1.183427    4.195740   -0.384599
     12          1           0       -1.183429    4.195740    0.384599
     13          1           0        3.206283    3.012423   -0.951392
     14          1           0        4.560023    0.932956   -0.969333
     15          6           0        3.783020   -1.443098    0.028309
     16          6           0        1.137427   -1.507533    0.912109
     17          6           0        1.973691   -2.584349    1.138062
     18          6           0        3.301853   -2.571588    0.661177
     19          1           0        4.825754   -1.391230   -0.295484
     20          1           0        0.124652   -1.532788    1.308472
     21          1           0        1.603586   -3.445682    1.698977
     22          1           0        3.952742   -3.433526    0.825134
     23          6           0       -3.508866    0.913915    0.671362
     24          6           0       -2.760386    2.053926    0.674268
     25          6           0       -2.955226   -0.309623    0.177479
     26          6           0       -1.574722   -0.361114   -0.197094
     27          6           0       -3.783020   -1.443099   -0.028309
     28          6           0       -3.301852   -2.571589   -0.661177
     29          6           0       -1.973690   -2.584349   -1.138061
     30          6           0       -1.137426   -1.507534   -0.912109
     31          1           0       -4.560022    0.932954    0.969334
     32          1           0       -3.206283    3.012421    0.951392
     33          1           0       -4.825754   -1.391232    0.295484
     34          1           0       -3.952741   -3.433528   -0.825134
     35          1           0       -1.603585   -3.445682   -1.698976
     36          1           0       -0.124652   -1.532788   -1.308471
     37          0           0        0.228901   -1.179235   -2.174496
     38          0           0        0.179729   -1.136111   -2.174496
     39          0           0        0.125348   -1.099775   -2.174496
     40          0           0        0.066690   -1.070848   -2.174496
     41          0           0        0.004758   -1.049825   -2.174496
     42          0           0       -0.059389   -1.037066   -2.174496
     43          0           0       -0.124652   -1.032788   -2.174496
     44          0           0       -0.189915   -1.037066   -2.174496
     45          0           0       -0.254062   -1.049825   -2.174496
     46          0           0       -0.315994   -1.070848   -2.174496
     47          0           0       -0.374652   -1.099775   -2.174496
     48          0           0       -0.429033   -1.136111   -2.174496
     49          0           0       -0.478205   -1.179235   -2.174496
     50          0           0       -0.521329   -1.228407   -2.174496
     51          0           0       -0.557665   -1.282788   -2.174496
     52          0           0       -0.586592   -1.341446   -2.174496
     53          0           0       -0.607615   -1.403378   -2.174496
     54          0           0       -0.620374   -1.467525   -2.174496
     55          0           0       -0.624652   -1.532788   -2.174496
     56          0           0       -0.620374   -1.598051   -2.174496
     57          0           0       -0.607615   -1.662198   -2.174496
     58          0           0       -0.586592   -1.724130   -2.174496
     59          0           0       -0.557665   -1.782788   -2.174496
     60          0           0       -0.521329   -1.837169   -2.174496
     61          0           0       -0.478205   -1.886341   -2.174496
     62          0           0       -0.429033   -1.929465   -2.174496
     63          0           0       -0.374652   -1.965801   -2.174496
     64          0           0       -0.315994   -1.994728   -2.174496
     65          0           0       -0.254062   -2.015751   -2.174496
     66          0           0       -0.189915   -2.028510   -2.174496
     67          0           0       -0.124652   -2.032788   -2.174496
     68          0           0       -0.059389   -2.028510   -2.174496
     69          0           0        0.004758   -2.015751   -2.174496
     70          0           0        0.066690   -1.994728   -2.174496
     71          0           0        0.125348   -1.965801   -2.174496
     72          0           0        0.179729   -1.929465   -2.174496
     73          0           0        0.228901   -1.886341   -2.174496
     74          0           0        0.272025   -1.837169   -2.174496
     75          0           0        0.308361   -1.782788   -2.174496
     76          0           0        0.337288   -1.724130   -2.174496
     77          0           0        0.358311   -1.662198   -2.174496
     78          0           0        0.371070   -1.598051   -2.174496
     79          0           0        0.258031   -1.532788   -2.232351
     80          0           0        0.254758   -1.482838   -2.232351
     81          0           0        0.244992   -1.433742   -2.232351
     82          0           0        0.228901   -1.386341   -2.232351
     83          0           0        0.206762   -1.341446   -2.232351
     84          0           0        0.178951   -1.299825   -2.232351
     85          0           0        0.145946   -1.262190   -2.232351
     86          0           0        0.108311   -1.229185   -2.232351
     87          0           0        0.066690   -1.201374   -2.232351
     88          0           0        0.021795   -1.179235   -2.232351
     89          0           0       -0.025606   -1.163144   -2.232351
     90          0           0       -0.074702   -1.153378   -2.232351
     91          0           0       -0.124652   -1.150105   -2.232351
     92          0           0       -0.174602   -1.153378   -2.232351
     93          0           0       -0.223698   -1.163144   -2.232351
     94          0           0       -0.271099   -1.179235   -2.232351
     95          0           0       -0.315994   -1.201374   -2.232351
     96          0           0       -0.357615   -1.229185   -2.232351
     97          0           0       -0.395250   -1.262190   -2.232351
     98          0           0       -0.428255   -1.299825   -2.232351
     99          0           0       -0.456066   -1.341446   -2.232351
    100          0           0       -0.478205   -1.386341   -2.232351
    101          0           0       -0.494296   -1.433742   -2.232351
    102          0           0       -0.504062   -1.482838   -2.232351
    103          0           0       -0.507335   -1.532788   -2.232351
    104          0           0       -0.504062   -1.582738   -2.232351
    105          0           0       -0.494296   -1.631834   -2.232351
    106          0           0       -0.478205   -1.679235   -2.232351
    107          0           0       -0.456066   -1.724130   -2.232351
    108          0           0       -0.428255   -1.765751   -2.232351
    109          0           0       -0.395250   -1.803386   -2.232351
    110          0           0       -0.357615   -1.836391   -2.232351
    111          0           0       -0.315994   -1.864202   -2.232351
    112          0           0       -0.271099   -1.886341   -2.232351
    113          0           0       -0.223698   -1.902432   -2.232351
    114          0           0       -0.174602   -1.912198   -2.232351
    115          0           0       -0.124652   -1.915471   -2.232351
    116          0           0       -0.074702   -1.912198   -2.232351
    117          0           0       -0.025606   -1.902432   -2.232351
    118          0           0        0.021795   -1.886341   -2.232351
    119          0           0        0.066690   -1.864202   -2.232351
    120          0           0        0.108311   -1.836391   -2.232351
    121          0           0        0.145946   -1.803386   -2.232351
    122          0           0        0.178951   -1.765751   -2.232351
    123          0           0        0.206762   -1.724130   -2.232351
    124          0           0        0.228901   -1.679235   -2.232351
    125          0           0        0.244992   -1.631834   -2.232351
    126          0           0        0.254758   -1.582738   -2.232351
    127          0           0        0.134167   -1.532788   -2.274397
    128          0           0        0.131953   -1.499005   -2.274397
    129          0           0        0.125348   -1.465801   -2.274397
    130          0           0        0.114466   -1.433742   -2.274397
    131          0           0        0.099492   -1.403378   -2.274397
    132          0           0        0.080683   -1.375229   -2.274397
    133          0           0        0.058361   -1.349775   -2.274397
    134          0           0        0.032907   -1.327453   -2.274397
    135          0           0        0.004758   -1.308644   -2.274397
    136          0           0       -0.025606   -1.293670   -2.274397
    137          0           0       -0.057665   -1.282788   -2.274397
    138          0           0       -0.090869   -1.276183   -2.274397
    139          0           0       -0.124652   -1.273969   -2.274397
    140          0           0       -0.158435   -1.276183   -2.274397
    141          0           0       -0.191639   -1.282788   -2.274397
    142          0           0       -0.223698   -1.293670   -2.274397
    143          0           0       -0.254062   -1.308644   -2.274397
    144          0           0       -0.282211   -1.327453   -2.274397
    145          0           0       -0.307665   -1.349775   -2.274397
    146          0           0       -0.329987   -1.375229   -2.274397
    147          0           0       -0.348796   -1.403378   -2.274397
    148          0           0       -0.363770   -1.433742   -2.274397
    149          0           0       -0.374652   -1.465801   -2.274397
    150          0           0       -0.381257   -1.499005   -2.274397
    151          0           0       -0.383471   -1.532788   -2.274397
    152          0           0       -0.381257   -1.566571   -2.274397
    153          0           0       -0.374652   -1.599775   -2.274397
    154          0           0       -0.363770   -1.631834   -2.274397
    155          0           0       -0.348796   -1.662198   -2.274397
    156          0           0       -0.329987   -1.690347   -2.274397
    157          0           0       -0.307665   -1.715801   -2.274397
    158          0           0       -0.282211   -1.738123   -2.274397
    159          0           0       -0.254062   -1.756932   -2.274397
    160          0           0       -0.223698   -1.771906   -2.274397
    161          0           0       -0.191639   -1.782788   -2.274397
    162          0           0       -0.158435   -1.789393   -2.274397
    163          0           0       -0.124652   -1.791607   -2.274397
    164          0           0       -0.090869   -1.789393   -2.274397
    165          0           0       -0.057665   -1.782788   -2.274397
    166          0           0       -0.025606   -1.771906   -2.274397
    167          0           0        0.004758   -1.756932   -2.274397
    168          0           0        0.032907   -1.738123   -2.274397
    169          0           0        0.058361   -1.715801   -2.274397
    170          0           0        0.080683   -1.690347   -2.274397
    171          0           0        0.099492   -1.662198   -2.274397
    172          0           0        0.114466   -1.631834   -2.274397
    173          0           0        0.125348   -1.599775   -2.274397
    174          0           0        0.131953   -1.566571   -2.274397
    175          0           0        0.005874   -1.532788   -2.299916
    176          0           0        0.004758   -1.515751   -2.299916
    177          0           0        0.001427   -1.499005   -2.299916
    178          0           0       -0.004062   -1.482838   -2.299916
    179          0           0       -0.011613   -1.467525   -2.299916
    180          0           0       -0.021099   -1.453329   -2.299916
    181          0           0       -0.032356   -1.440492   -2.299916
    182          0           0       -0.045193   -1.429235   -2.299916
    183          0           0       -0.059389   -1.419749   -2.299916
    184          0           0       -0.074702   -1.412198   -2.299916
    185          0           0       -0.090869   -1.406709   -2.299916
    186          0           0       -0.107615   -1.403378   -2.299916
    187          0           0       -0.124652   -1.402262   -2.299916
    188          0           0       -0.141689   -1.403378   -2.299916
    189          0           0       -0.158435   -1.406709   -2.299916
    190          0           0       -0.174602   -1.412198   -2.299916
    191          0           0       -0.189915   -1.419749   -2.299916
    192          0           0       -0.204111   -1.429235   -2.299916
    193          0           0       -0.216948   -1.440492   -2.299916
    194          0           0       -0.228205   -1.453329   -2.299916
    195          0           0       -0.237691   -1.467525   -2.299916
    196          0           0       -0.245242   -1.482838   -2.299916
    197          0           0       -0.250731   -1.499005   -2.299916
    198          0           0       -0.254062   -1.515751   -2.299916
    199          0           0       -0.255178   -1.532788   -2.299916
    200          0           0       -0.254062   -1.549825   -2.299916
    201          0           0       -0.250731   -1.566571   -2.299916
    202          0           0       -0.245242   -1.582738   -2.299916
    203          0           0       -0.237691   -1.598051   -2.299916
    204          0           0       -0.228205   -1.612247   -2.299916
    205          0           0       -0.216948   -1.625084   -2.299916
    206          0           0       -0.204111   -1.636341   -2.299916
    207          0           0       -0.189915   -1.645827   -2.299916
    208          0           0       -0.174602   -1.653378   -2.299916
    209          0           0       -0.158435   -1.658867   -2.299916
    210          0           0       -0.141689   -1.662198   -2.299916
    211          0           0       -0.124652   -1.663314   -2.299916
    212          0           0       -0.107615   -1.662198   -2.299916
    213          0           0       -0.090869   -1.658867   -2.299916
    214          0           0       -0.074702   -1.653378   -2.299916
    215          0           0       -0.059389   -1.645827   -2.299916
    216          0           0       -0.045193   -1.636341   -2.299916
    217          0           0       -0.032356   -1.625084   -2.299916
    218          0           0       -0.021099   -1.612247   -2.299916
    219          0           0       -0.011613   -1.598051   -2.299916
    220          0           0       -0.004062   -1.582738   -2.299916
    221          0           0        0.001427   -1.566571   -2.299916
    222          0           0        0.004758   -1.549825   -2.299916
    223          0           0       -0.687950   -0.312070    0.507910
    224          0           0       -0.693439   -0.328238    0.507910
    225          0           0       -0.696770   -0.344984    0.507910
    226          0           0       -0.697886   -0.362021    0.507910
    227          0           0       -0.696770   -0.379058    0.507910
    228          0           0       -0.693439   -0.395803    0.507910
    229          0           0       -0.687950   -0.411971    0.507910
    230          0           0       -0.680399   -0.427284    0.507910
    231          0           0       -0.670913   -0.441480    0.507910
    232          0           0       -0.659656   -0.454317    0.507910
    233          0           0       -0.646819   -0.465574    0.507910
    234          0           0       -0.632623   -0.475060    0.507910
    235          0           0       -0.617310   -0.482611    0.507910
    236          0           0       -0.601143   -0.488099    0.507910
 ---------------------------------------------------------------------
 Rotational constants (GHZ):      0.4454681      0.2811480      0.1854303
 Leave Link  202 at Tue Sep 15 13:16:16 2020, MaxMem=   131072000 cpu:         0.0
 (Enter /share/programs/GAUSSIAN/64/g09/l301.exe)
 Standard basis: 6-311+G(d,p) (5D, 7F)
 Warning:  center  37 has no basis functions!
 Warning:  center  38 has no basis functions!
 Warning:  center  39 has no basis functions!
 Warning:  center  40 has no basis functions!
 Warning:  center  41 has no basis functions!
 Warning:  center  42 has no basis functions!
 Warning:  center  43 has no basis functions!
 Warning:  center  44 has no basis functions!
 Warning:  center  45 has no basis functions!
 Warning:  center  46 has no basis functions!
 Warning:  center  47 has no basis functions!
 Warning:  center  48 has no basis functions!
 Warning:  center  49 has no basis functions!
 Warning:  center  50 has no basis functions!
 Warning:  center  51 has no basis functions!
 Warning:  center  52 has no basis functions!
 Warning:  center  53 has no basis functions!
 Warning:  center  54 has no basis functions!
 Warning:  center  55 has no basis functions!
 Warning:  center  56 has no basis functions!
 Warning:  center  57 has no basis functions!
 Warning:  center  58 has no basis functions!
 Warning:  center  59 has no basis functions!
 Warning:  center  60 has no basis functions!
 Warning:  center  61 has no basis functions!
 Warning:  center  62 has no basis functions!
 Warning:  center  63 has no basis functions!
 Warning:  center  64 has no basis functions!
 Warning:  center  65 has no basis functions!
 Warning:  center  66 has no basis functions!
 Warning:  center  67 has no basis functions!
 Warning:  center  68 has no basis functions!
 Warning:  center  69 has no basis functions!
 Warning:  center  70 has no basis functions!
 Warning:  center  71 has no basis functions!
 Warning:  center  72 has no basis functions!
 Warning:  center  73 has no basis functions!
 Warning:  center  74 has no basis functions!
 Warning:  center  75 has no basis functions!
 Warning:  center  76 has no basis functions!
 Warning:  center  77 has no basis functions!
 Warning:  center  78 has no basis functions!
 Warning:  center  79 has no basis functions!
 Warning:  center  80 has no basis functions!
 Warning:  center  81 has no basis functions!
 Warning:  center  82 has no basis functions!
 Warning:  center  83 has no basis functions!
 Warning:  center  84 has no basis functions!
 Warning:  center  85 has no basis functions!
 Warning:  center  86 has no basis functions!
 Warning:  center  87 has no basis functions!
 Warning:  center  88 has no basis functions!
 Warning:  center  89 has no basis functions!
 Warning:  center  90 has no basis functions!
 Warning:  center  91 has no basis functions!
 Warning:  center  92 has no basis functions!
 Warning:  center  93 has no basis functions!
 Warning:  center  94 has no basis functions!
 Warning:  center  95 has no basis functions!
 Warning:  center  96 has no basis functions!
 Warning:  center  97 has no basis functions!
 Warning:  center  98 has no basis functions!
 Warning:  center  99 has no basis functions!
 Warning:  center 100 has no basis functions!
 Warning:  center 101 has no basis functions!
 Warning:  center 102 has no basis functions!
 Warning:  center 103 has no basis functions!
 Warning:  center 104 has no basis functions!
 Warning:  center 105 has no basis functions!
 Warning:  center 106 has no basis functions!
 Warning:  center 107 has no basis functions!
 Warning:  center 108 has no basis functions!
 Warning:  center 109 has no basis functions!
 Warning:  center 110 has no basis functions!
 Warning:  center 111 has no basis functions!
 Warning:  center 112 has no basis functions!
 Warning:  center 113 has no basis functions!
 Warning:  center 114 has no basis functions!
 Warning:  center 115 has no basis functions!
 Warning:  center 116 has no basis functions!
 Warning:  center 117 has no basis functions!
 Warning:  center 118 has no basis functions!
 Warning:  center 119 has no basis functions!
 Warning:  center 120 has no basis functions!
 Warning:  center 121 has no basis functions!
 Warning:  center 122 has no basis functions!
 Warning:  center 123 has no basis functions!
 Warning:  center 124 has no basis functions!
 Warning:  center 125 has no basis functions!
 Warning:  center 126 has no basis functions!
 Warning:  center 127 has no basis functions!
 Warning:  center 128 has no basis functions!
 Warning:  center 129 has no basis functions!
 Warning:  center 130 has no basis functions!
 Warning:  center 131 has no basis functions!
 Warning:  center 132 has no basis functions!
 Warning:  center 133 has no basis functions!
 Warning:  center 134 has no basis functions!
 Warning:  center 135 has no basis functions!
 Warning:  center 136 has no basis functions!
 Warning:  center 137 has no basis functions!
 Warning:  center 138 has no basis functions!
 Warning:  center 139 has no basis functions!
 Warning:  center 140 has no basis functions!
 Warning:  center 141 has no basis functions!
 Warning:  center 142 has no basis functions!
 Warning:  center 143 has no basis functions!
 Warning:  center 144 has no basis functions!
 Warning:  center 145 has no basis functions!
 Warning:  center 146 has no basis functions!
 Warning:  center 147 has no basis functions!
 Warning:  center 148 has no basis functions!
 Warning:  center 149 has no basis functions!
 Warning:  center 150 has no basis functions!
 Warning:  center 151 has no basis functions!
 Warning:  center 152 has no basis functions!
 Warning:  center 153 has no basis functions!
 Warning:  center 154 has no basis functions!
 Warning:  center 155 has no basis functions!
 Warning:  center 156 has no basis functions!
 Warning:  center 157 has no basis functions!
 Warning:  center 158 has no basis functions!
 Warning:  center 159 has no basis functions!
 Warning:  center 160 has no basis functions!
 Warning:  center 161 has no basis functions!
 Warning:  center 162 has no basis functions!
 Warning:  center 163 has no basis functions!
 Warning:  center 164 has no basis functions!
 Warning:  center 165 has no basis functions!
 Warning:  center 166 has no basis functions!
 Warning:  center 167 has no basis functions!
 Warning:  center 168 has no basis functions!
 Warning:  center 169 has no basis functions!
 Warning:  center 170 has no basis functions!
 Warning:  center 171 has no basis functions!
 Warning:  center 172 has no basis functions!
 Warning:  center 173 has no basis functions!
 Warning:  center 174 has no basis functions!
 Warning:  center 175 has no basis functions!
 Warning:  center 176 has no basis functions!
 Warning:  center 177 has no basis functions!
 Warning:  center 178 has no basis functions!
 Warning:  center 179 has no basis functions!
 Warning:  center 180 has no basis functions!
 Warning:  center 181 has no basis functions!
 Warning:  center 182 has no basis functions!
 Warning:  center 183 has no basis functions!
 Warning:  center 184 has no basis functions!
 Warning:  center 185 has no basis functions!
 Warning:  center 186 has no basis functions!
 Warning:  center 187 has no basis functions!
 Warning:  center 188 has no basis functions!
 Warning:  center 189 has no basis functions!
 Warning:  center 190 has no basis functions!
 Warning:  center 191 has no basis functions!
 Warning:  center 192 has no basis functions!
 Warning:  center 193 has no basis functions!
 Warning:  center 194 has no basis functions!
 Warning:  center 195 has no basis functions!
 Warning:  center 196 has no basis functions!
 Warning:  center 197 has no basis functions!
 Warning:  center 198 has no basis functions!
 Warning:  center 199 has no basis functions!
 Warning:  center 200 has no basis functions!
 Warning:  center 201 has no basis functions!
 Warning:  center 202 has no basis functions!
 Warning:  center 203 has no basis functions!
 Warning:  center 204 has no basis functions!
 Warning:  center 205 has no basis functions!
 Warning:  center 206 has no basis functions!
 Warning:  center 207 has no basis functions!
 Warning:  center 208 has no basis functions!
 Warning:  center 209 has no basis functions!
 Warning:  center 210 has no basis functions!
 Warning:  center 211 has no basis functions!
 Warning:  center 212 has no basis functions!
 Warning:  center 213 has no basis functions!
 Warning:  center 214 has no basis functions!
 Warning:  center 215 has no basis functions!
 Warning:  center 216 has no basis functions!
 Warning:  center 217 has no basis functions!
 Warning:  center 218 has no basis functions!
 Warning:  center 219 has no basis functions!
 Warning:  center 220 has no basis functions!
 Warning:  center 221 has no basis functions!
 Warning:  center 222 has no basis functions!
 Warning:  center 223 has no basis functions!
 Warning:  center 224 has no basis functions!
 Warning:  center 225 has no basis functions!
 Warning:  center 226 has no basis functions!
 Warning:  center 227 has no basis functions!
 Warning:  center 228 has no basis functions!
 Warning:  center 229 has no basis functions!
 Warning:  center 230 has no basis functions!
 Warning:  center 231 has no basis functions!
 Warning:  center 232 has no basis functions!
 Warning:  center 233 has no basis functions!
 Warning:  center 234 has no basis functions!
 Warning:  center 235 has no basis functions!
 Warning:  center 236 has no basis functions!
 Ernie: Thresh=  0.10000D-02 Tol=  0.10000D-05 Strict=F.
   568 basis functions,   904 primitive gaussians,   590 cartesian basis functions
    73 alpha electrons       73 beta electrons
       nuclear repulsion energy      1599.9156270972 Hartrees.
 IExCor=  402 DFT=T Ex+Corr=B3LYP ExCW=0 ScaHFX=  0.200000
 ScaDFX=  0.800000  0.720000  1.000000  0.810000 ScalE2=  1.000000  1.000000
 IRadAn=      0 IRanWt=     -1 IRanGd=            0 ICorTp=0 IEmpDi=  4
 NAtoms=  236 NActive=  236 NUniq=  236 SFac= 1.00D+00 NAtFMM=   60 NAOKFM=T Big=T
 Integral buffers will be    131072 words long.
 Raffenetti 2 integral format.
 Two-electron integral symmetry is turned off.
 Leave Link  301 at Tue Sep 15 13:16:16 2020, MaxMem=   131072000 cpu:         0.5
 (Enter /share/programs/GAUSSIAN/64/g09/l302.exe)
 NPDir=0 NMtPBC=     1 NCelOv=     1 NCel=       1 NClECP=     1 NCelD=      1
         NCelK=      1 NCelE2=     1 NClLst=     1 CellRange=     0.0.
 One-electron integrals computed using PRISM.
 NBasis=   568 RedAO= T EigKep=  1.01D-06  NBF=   568
 NBsUse=   557 1.00D-06 EigRej=  9.19D-07 NBFU=   557
 Precomputing XC quadrature grid using
 IXCGrd= 4 IRadAn=           0 IRanWt=          -1 IRanGd=           0 AccXCQ= 0.00D+00.
 Generated NRdTot=       0 NPtTot=           0 NUsed=           0 NTot=          32
 NSgBfM=   587   588   588   589   589 MxSgAt=   236 MxSgA2=    36.
 Leave Link  302 at Tue Sep 15 13:16:18 2020, MaxMem=   131072000 cpu:        15.0
 (Enter /share/programs/GAUSSIAN/64/g09/l308.exe)
 Leave Link  308 at Tue Sep 15 13:16:18 2020, MaxMem=   131072000 cpu:         1.2
 (Enter /share/programs/GAUSSIAN/64/g09/l303.exe)
 DipDrv:  MaxL=1.
 Leave Link  303 at Tue Sep 15 13:16:18 2020, MaxMem=   131072000 cpu:         0.8
 (Enter /share/programs/GAUSSIAN/64/g09/l401.exe)
 Initial guess from the checkpoint file:  "/scratch/aartigas.39140/Gau-423.chk"
 Skipping rotation of guess because NAtoms(RWF)=  236 differs from NAtoms(Chk)=   36.
 Guess basis will be translated and rotated to current coordinates.
 JPrj=2 DoOrth=T DoCkMO=T.
 Leave Link  401 at Tue Sep 15 13:16:20 2020, MaxMem=   131072000 cpu:        10.3
 (Enter /share/programs/GAUSSIAN/64/g09/l502.exe)
 Closed shell SCF:
 Using DIIS extrapolation, IDIIS=  1040.
 Two-electron integral symmetry not used.
 IVT=     1071582 IEndB=     1071582 NGot=   131072000 MDV=   130365749
 LenX=   130365749 LenY=   130017059
 Requested convergence on RMS density matrix=1.00D-08 within 128 cycles.
 Requested convergence on MAX density matrix=1.00D-06.
 Requested convergence on             energy=1.00D-06.
 No special actions if energy rises.
 Fock matrices will be formed incrementally for  20 cycles.

 Cycle   1  Pass 1  IDiag  1:
 FoFJK:  IHMeth= 1 ICntrl=       0 DoSepK=F KAlg= 0 I1Cent=   0 FoldK=F
 IRaf= 940000000 NMat=   1 IRICut=       1 DoRegI=T DoRafI=F ISym2E= 0.
 FoFCou: FMM=T IPFlag=           0 FMFlag=      100000 FMFlg1=        2001
         NFxFlg=           0 DoJE=F BraDBF=F KetDBF=F FulRan=T
         wScrn=  0.000000 ICntrl=       0 IOpCl=  0 I1Cent=           0 NGrid=           0
         NMat0=    1 NMatS0=      1 NMatT0=    0 NMatD0=    1 NMtDS0=    0 NMtDT0=    0
 Symmetry not used in FoFCou.
 FMM levels:  10  Number of levels for PrismC:   9
 E= -847.003738666967    
 DIIS: error= 5.05D-08 at cycle   1 NSaved=   1.
 NSaved= 1 IEnMin= 1 EnMin= -847.003738666967     IErMin= 1 ErrMin= 5.05D-08
 ErrMax= 5.05D-08  0.00D+00 EMaxC= 1.00D-01 BMatC= 3.55D-12 BMatP= 3.55D-12
 IDIUse=1 WtCom= 1.00D+00 WtEn= 0.00D+00
 Coeff-Com:  0.100D+01
 Coeff:      0.100D+01
 Gap=     0.151 Goal=   None    Shift=    0.000
 RMSDP=2.88D-07 MaxDP=1.33D-05              OVMax= 3.94D-07

 Cycle   2  Pass 1  IDiag  1:
 RMSU=  2.85D-07    CP:  1.00D+00
 E= -847.003738666925     Delta-E=        0.000000000042 Rises=F Damp=F
 DIIS: error= 1.42D-08 at cycle   2 NSaved=   2.
 NSaved= 2 IEnMin= 1 EnMin= -847.003738666967     IErMin= 2 ErrMin= 1.42D-08
 ErrMax= 1.42D-08  0.00D+00 EMaxC= 1.00D-01 BMatC= 2.13D-13 BMatP= 3.55D-12
 IDIUse=1 WtCom= 1.00D+00 WtEn= 0.00D+00
 Coeff-Com:  0.627D-01 0.937D+00
 Coeff:      0.627D-01 0.937D+00
 Gap=     0.151 Goal=   None    Shift=    0.000
 RMSDP=1.57D-08 MaxDP=7.84D-07 DE= 4.23D-11 OVMax= 3.02D-07

 Cycle   3  Pass 1  IDiag  1:
 RMSU=  1.32D-08    CP:  1.00D+00  1.02D+00
 E= -847.003738666856     Delta-E=        0.000000000070 Rises=F Damp=F
 DIIS: error= 2.51D-08 at cycle   3 NSaved=   3.
 NSaved= 3 IEnMin= 1 EnMin= -847.003738666967     IErMin= 2 ErrMin= 1.42D-08
 ErrMax= 2.51D-08  0.00D+00 EMaxC= 1.00D-01 BMatC= 5.05D-13 BMatP= 2.13D-13
 IDIUse=1 WtCom= 1.00D+00 WtEn= 0.00D+00
 Coeff-Com: -0.107D-01 0.616D+00 0.395D+00
 Coeff:     -0.107D-01 0.616D+00 0.395D+00
 Gap=     0.151 Goal=   None    Shift=    0.000
 RMSDP=1.03D-08 MaxDP=4.18D-07 DE= 6.96D-11 OVMax= 2.17D-07

 Cycle   4  Pass 1  IDiag  1:
 RMSU=  5.85D-09    CP:  1.00D+00  1.03D+00  3.90D-01
 E= -847.003738666774     Delta-E=        0.000000000082 Rises=F Damp=F
 DIIS: error= 8.06D-09 at cycle   4 NSaved=   4.
 NSaved= 4 IEnMin= 1 EnMin= -847.003738666967     IErMin= 4 ErrMin= 8.06D-09
 ErrMax= 8.06D-09  0.00D+00 EMaxC= 1.00D-01 BMatC= 2.07D-14 BMatP= 2.13D-13
 IDIUse=1 WtCom= 1.00D+00 WtEn= 0.00D+00
 Coeff-Com: -0.876D-02 0.309D+00 0.241D+00 0.459D+00
 Coeff:     -0.876D-02 0.309D+00 0.241D+00 0.459D+00
 Gap=     0.151 Goal=   None    Shift=    0.000
 RMSDP=4.16D-09 MaxDP=1.74D-07 DE= 8.19D-11 OVMax= 6.88D-08

 SCF Done:  E(RB3LYP) =  -847.003738667     A.U. after    4 cycles
            NFock=  4  Conv=0.42D-08     -V/T= 2.0049
 KE= 8.428349970567D+02 PE=-5.164192584015D+03 EE= 1.874438221195D+03
 Leave Link  502 at Tue Sep 15 13:18:31 2020, MaxMem=   131072000 cpu:      1039.9
 (Enter /share/programs/GAUSSIAN/64/g09/l801.exe)
 DoSCS=F DFT=T ScalE2(SS,OS)=  1.000000  1.000000
 Range of M.O.s used for correlation:     1   557
 NBasis=   568 NAE=    73 NBE=    73 NFC=     0 NFV=     0
 NROrb=    557 NOA=    73 NOB=    73 NVA=   484 NVB=   484

 **** Warning!!: The largest alpha MO coefficient is  0.14271945D+03

 Leave Link  801 at Tue Sep 15 13:18:31 2020, MaxMem=   131072000 cpu:         0.3
 (Enter /share/programs/GAUSSIAN/64/g09/l1002.exe)
 Minotr:  Closed shell wavefunction.
          Direct CPHF calculation.
          Differentiating once with respect to magnetic field using GIAOs.
          Electric field/nuclear overlap derivatives assumed to be zero.
          Requested convergence is 1.0D-08 RMS, and 1.0D-07 maximum.
          Secondary convergence is 1.0D-12 RMS, and 1.0D-12 maximum.
          NewPWx=T KeepS1=F KeepF1=F KeepIn=T MapXYZ=F SortEE=F KeepMc=T.
          MDV=     131069551 using IRadAn=       2.
 Generate precomputed XC quadrature information.
          Solving linear equations simultaneously, MaxMat=      72.
 FoFCou: FMM=F IPFlag=           0 FMFlag=      100000 FMFlg1=        2001
         NFxFlg=           0 DoJE=F BraDBF=F KetDBF=T FulRan=T
         wScrn=  0.000000 ICntrl=    6100 IOpCl=  0 I1Cent=           7 NGrid=         236
         NMat0=    1 NMatS0=      1 NMatT0=    0 NMatD0=    1 NMtDS0=    0 NMtDT0=    0
 Symmetry not used in FoFCou.
 FoFJK:  IHMeth= 1 ICntrl=    6127 DoSepK=F KAlg= 0 I1Cent=   0 FoldK=F
 IRaf=         1 NMat=   1 IRICut=       1 DoRegI=T DoRafI=F ISym2E= 0.
          There are     3 degrees of freedom in the 1st order CPHF.  IDoFFX=0 NUNeed=     3.
      3 vectors produced by pass  0 Test12= 1.18D-12 3.33D-08 XBig12= 1.96D+03 8.77D+00.
 AX will form     3 AO Fock derivatives at one time.
      3 vectors produced by pass  1 Test12= 1.18D-12 3.33D-08 XBig12= 3.18D+00 7.58D-01.
      3 vectors produced by pass  2 Test12= 1.18D-12 3.33D-08 XBig12= 1.86D-02 5.85D-02.
      3 vectors produced by pass  3 Test12= 1.18D-12 3.33D-08 XBig12= 4.29D-05 1.35D-03.
      3 vectors produced by pass  4 Test12= 1.18D-12 3.33D-08 XBig12= 9.75D-08 7.22D-05.
      3 vectors produced by pass  5 Test12= 1.18D-12 3.33D-08 XBig12= 3.97D-10 5.92D-06.
      3 vectors produced by pass  6 Test12= 1.18D-12 3.33D-08 XBig12= 1.51D-12 4.40D-07.
 InvSVY:  IOpt=1 It=  1 EMax= 2.13D-14
 Solved reduced A of dimension    21 with     3 vectors.
 Calculating GIAO nuclear magnetic shielding tensors.
 SCF GIAO Magnetic shielding tensor (ppm):
      1  C    Isotropic =    49.6861   Anisotropy =   149.7970
   XX=    46.3088   YX=   -25.0950   ZX=    31.4786
   XY=   -31.1109   YY=   -39.0339   ZY=    13.2621
   XZ=    24.9178   YZ=     8.9888   ZZ=   141.7833
   Eigenvalues:   -49.3507    48.8581   149.5507
      2  C    Isotropic =    49.6861   Anisotropy =   149.7971
   XX=    46.3088   YX=    25.0953   ZX=    31.4786
   XY=    31.1111   YY=   -39.0339   ZY=   -13.2621
   XZ=    24.9177   YZ=    -8.9889   ZZ=   141.7834
   Eigenvalues:   -49.3508    48.8583   149.5509
      3  C    Isotropic =    44.4899   Anisotropy =   204.7372
   XX=   -22.2199   YX=    10.8075   ZX=    51.2710
   XY=     4.9259   YY=   -14.7126   ZY=    14.7921
   XZ=    32.3655   YZ=    21.2392   ZZ=   170.4022
   Eigenvalues:   -31.9593   -15.5523   180.9814
      4  C    Isotropic =    44.4899   Anisotropy =   204.7373
   XX=   -22.2198   YX=   -10.8075   ZX=    51.2710
   XY=    -4.9256   YY=   -14.7126   ZY=   -14.7922
   XZ=    32.3656   YZ=   -21.2393   ZZ=   170.4023
   Eigenvalues:   -31.9592   -15.5524   180.9815
      5  C    Isotropic =    48.5420   Anisotropy =   189.5490
   XX=   -14.6790   YX=     4.7342   ZX=     8.4333
   XY=    20.3759   YY=    -5.5375   ZY=    31.5121
   XZ=    65.1218   YZ=     0.8640   ZZ=   165.8426
   Eigenvalues:   -26.3226    -2.9593   174.9080
      6  C    Isotropic =    48.5421   Anisotropy =   189.5489
   XX=   -14.6789   YX=    -4.7340   ZX=     8.4335
   XY=   -20.3758   YY=    -5.5374   ZY=   -31.5121
   XZ=    65.1218   YZ=    -0.8638   ZZ=   165.8426
   Eigenvalues:   -26.3224    -2.9594   174.9080
      7  C    Isotropic =    50.1907   Anisotropy =   149.2089
   XX=    19.7303   YX=   -44.2755   ZX=    41.2886
   XY=   -38.0437   YY=    -2.7069   ZY=    36.9011
   XZ=    36.5866   YZ=    37.5458   ZZ=   133.5487
   Eigenvalues:   -49.6656    50.5744   149.6633
      8  C    Isotropic =    48.9362   Anisotropy =   152.4339
   XX=   -31.5093   YX=   -11.4921   ZX=    54.7730
   XY=   -19.0468   YY=    46.5898   ZY=    27.5522
   XZ=    42.2451   YZ=    29.8391   ZZ=   131.7282
   Eigenvalues:   -50.1461    46.3960   150.5589
      9  C    Isotropic =    44.4204   Anisotropy =   209.3981
   XX=   -10.1987   YX=    16.7536   ZX=    44.4888
   XY=     8.9342   YY=    -7.7270   ZY=    61.4651
   XZ=    43.3269   YZ=    64.9792   ZZ=   151.1869
   Eigenvalues:   -30.3689   -20.3891   184.0192
     10  C    Isotropic =    45.3894   Anisotropy =   198.3236
   XX=    -5.9706   YX=    23.3819   ZX=    35.6519
   XY=    38.1954   YY=     1.7271   ZY=    73.1370
   XZ=    54.0013   YZ=    45.7045   ZZ=   140.4116
   Eigenvalues:   -33.5315    -7.9055   177.6051
     11  H    Isotropic =    23.8179   Anisotropy =     7.5674
   XX=    27.2191   YX=    -1.9090   ZX=    -2.2602
   XY=    -1.7961   YY=    24.8722   ZY=    -0.1966
   XZ=    -3.3763   YZ=    -0.1950   ZZ=    19.3625
   Eigenvalues:    18.3647    24.2263    28.8628
     12  H    Isotropic =    23.8179   Anisotropy =     7.5674
   XX=    27.2191   YX=     1.9090   ZX=    -2.2602
   XY=     1.7961   YY=    24.8722   ZY=     0.1966
   XZ=    -3.3763   YZ=     0.1950   ZZ=    19.3625
   Eigenvalues:    18.3647    24.2263    28.8628
     13  H    Isotropic =    23.8548   Anisotropy =     7.5124
   XX=    26.7195   YX=    -2.1358   ZX=    -2.0755
   XY=    -2.5603   YY=    25.7083   ZY=    -0.6280
[...]
   147  Bq   0.000000
   148  Bq   0.000000
   149  Bq   0.000000
   150  Bq   0.000000
   151  Bq   0.000000
   152  Bq   0.000000
   153  Bq   0.000000
   154  Bq   0.000000
   155  Bq   0.000000
   156  Bq   0.000000
   157  Bq   0.000000
   158  Bq   0.000000
   159  Bq   0.000000
   160  Bq   0.000000
   161  Bq   0.000000
   162  Bq   0.000000
   163  Bq   0.000000
   164  Bq   0.000000
   165  Bq   0.000000
   166  Bq   0.000000
   167  Bq   0.000000
   168  Bq   0.000000
   169  Bq   0.000000
   170  Bq   0.000000
   171  Bq   0.000000
   172  Bq   0.000000
   173  Bq   0.000000
   174  Bq   0.000000
   175  Bq   0.000000
   176  Bq   0.000000
   177  Bq   0.000000
   178  Bq   0.000000
   179  Bq   0.000000
   180  Bq   0.000000
   181  Bq   0.000000
   182  Bq   0.000000
   183  Bq   0.000000
   184  Bq   0.000000
   185  Bq   0.000000
   186  Bq   0.000000
   187  Bq   0.000000
   188  Bq   0.000000
   189  Bq   0.000000
   190  Bq   0.000000
   191  Bq   0.000000
   192  Bq   0.000000
   193  Bq   0.000000
   194  Bq   0.000000
   195  Bq   0.000000
   196  Bq   0.000000
   197  Bq   0.000000
   198  Bq   0.000000
   199  Bq   0.000000
   200  Bq   0.000000
   201  Bq   0.000000
   202  Bq   0.000000
   203  Bq   0.000000
   204  Bq   0.000000
   205  Bq   0.000000
   206  Bq   0.000000
   207  Bq   0.000000
   208  Bq   0.000000
   209  Bq   0.000000
   210  Bq   0.000000
   211  Bq   0.000000
   212  Bq   0.000000
   213  Bq   0.000000
   214  Bq   0.000000
   215  Bq   0.000000
   216  Bq   0.000000
   217  Bq   0.000000
   218  Bq   0.000000
   219  Bq   0.000000
   220  Bq   0.000000
   221  Bq   0.000000
   222  Bq   0.000000
   223  Bq   0.000000
   224  Bq   0.000000
   225  Bq   0.000000
   226  Bq   0.000000
   227  Bq   0.000000
   228  Bq   0.000000
   229  Bq   0.000000
   230  Bq   0.000000
   231  Bq   0.000000
   232  Bq   0.000000
   233  Bq   0.000000
   234  Bq   0.000000
   235  Bq   0.000000
   236  Bq   0.000000
 Sum of Mulliken charges =   0.00000
 Mulliken charges with hydrogens summed into heavy atoms:
               1
     1  C   -0.262865
     2  C   -0.262866
     3  C    0.737923
     4  C    0.737922
     5  C   -0.039994
     6  C   -0.040001
     7  C    0.075155
     8  C   -0.330147
     9  C    0.780501
    10  C   -0.200782
    15  C    0.249272
    16  C   -0.533462
    17  C   -0.189404
    18  C   -0.286191
    23  C   -0.330145
    24  C    0.075154
    25  C    0.780496
    26  C   -0.200782
    27  C    0.249273
    28  C   -0.286192
    29  C   -0.189403
    30  C   -0.679961
    37  Bq   0.000000
    38  Bq   0.000000
    39  Bq   0.000000
    40  Bq   0.000000
    41  Bq   0.000000
    42  Bq   0.000000
    43  Bq   0.000000
    44  Bq   0.000000
    45  Bq   0.000000
    46  Bq   0.000000
    47  Bq   0.000000
    48  Bq   0.000000
    49  Bq   0.000000
    50  Bq   0.000000
    51  Bq   0.000000
    52  Bq   0.000000
    53  Bq   0.000000
    54  Bq   0.000000
    55  Bq   0.000000
    56  Bq   0.000000
    57  Bq   0.000000
    58  Bq   0.000000
    59  Bq   0.000000
    60  Bq   0.000000
    61  Bq   0.000000
    62  Bq   0.000000
    63  Bq   0.000000
    64  Bq   0.000000
    65  Bq   0.000000
    66  Bq   0.000000
    67  Bq   0.000000
    68  Bq   0.000000
    69  Bq   0.000000
    70  Bq   0.000000
    71  Bq   0.000000
    72  Bq   0.000000
    73  Bq   0.000000
    74  Bq   0.000000
    75  Bq   0.000000
    76  Bq   0.000000
    77  Bq   0.000000
    78  Bq   0.000000
    79  Bq   0.000000
    80  Bq   0.000000
    81  Bq   0.000000
    82  Bq   0.000000
    83  Bq   0.000000
    84  Bq   0.146499
    85  Bq   0.000000
    86  Bq   0.000000
    87  Bq   0.000000
    88  Bq   0.000000
    89  Bq   0.000000
    90  Bq   0.000000
    91  Bq   0.000000
    92  Bq   0.000000
    93  Bq   0.000000
    94  Bq   0.000000
    95  Bq   0.000000
    96  Bq   0.000000
    97  Bq   0.000000
    98  Bq   0.000000
    99  Bq   0.000000
   100  Bq   0.000000
   101  Bq   0.000000
   102  Bq   0.000000
   103  Bq   0.000000
   104  Bq   0.000000
   105  Bq   0.000000
   106  Bq   0.000000
   107  Bq   0.000000
   108  Bq   0.000000
   109  Bq   0.000000
   110  Bq   0.000000
   111  Bq   0.000000
   112  Bq   0.000000
   113  Bq   0.000000
   114  Bq   0.000000
   115  Bq   0.000000
   116  Bq   0.000000
   117  Bq   0.000000
   118  Bq   0.000000
   119  Bq   0.000000
   120  Bq   0.000000
   121  Bq   0.000000
   122  Bq   0.000000
   123  Bq   0.000000
   124  Bq   0.000000
   125  Bq   0.000000
   126  Bq   0.000000
   127  Bq   0.000000
   128  Bq   0.000000
   129  Bq   0.000000
   130  Bq   0.000000
   131  Bq   0.000000
   132  Bq   0.000000
   133  Bq   0.000000
   134  Bq   0.000000
   135  Bq   0.000000
   136  Bq   0.000000
   137  Bq   0.000000
   138  Bq   0.000000
   139  Bq   0.000000
   140  Bq   0.000000
   141  Bq   0.000000
   142  Bq   0.000000
   143  Bq   0.000000
   144  Bq   0.000000
   145  Bq   0.000000
   146  Bq   0.000000
   147  Bq   0.000000
   148  Bq   0.000000
   149  Bq   0.000000
   150  Bq   0.000000
   151  Bq   0.000000
   152  Bq   0.000000
   153  Bq   0.000000
   154  Bq   0.000000
   155  Bq   0.000000
   156  Bq   0.000000
   157  Bq   0.000000
   158  Bq   0.000000
   159  Bq   0.000000
   160  Bq   0.000000
   161  Bq   0.000000
   162  Bq   0.000000
   163  Bq   0.000000
   164  Bq   0.000000
   165  Bq   0.000000
   166  Bq   0.000000
   167  Bq   0.000000
   168  Bq   0.000000
   169  Bq   0.000000
   170  Bq   0.000000
   171  Bq   0.000000
   172  Bq   0.000000
   173  Bq   0.000000
   174  Bq   0.000000
   175  Bq   0.000000
   176  Bq   0.000000
   177  Bq   0.000000
   178  Bq   0.000000
   179  Bq   0.000000
   180  Bq   0.000000
   181  Bq   0.000000
   182  Bq   0.000000
   183  Bq   0.000000
   184  Bq   0.000000
   185  Bq   0.000000
   186  Bq   0.000000
   187  Bq   0.000000
   188  Bq   0.000000
   189  Bq   0.000000
   190  Bq   0.000000
   191  Bq   0.000000
   192  Bq   0.000000
   193  Bq   0.000000
   194  Bq   0.000000
   195  Bq   0.000000
   196  Bq   0.000000
   197  Bq   0.000000
   198  Bq   0.000000
   199  Bq   0.000000
   200  Bq   0.000000
   201  Bq   0.000000
   202  Bq   0.000000
   203  Bq   0.000000
   204  Bq   0.000000
   205  Bq   0.000000
   206  Bq   0.000000
   207  Bq   0.000000
   208  Bq   0.000000
   209  Bq   0.000000
   210  Bq   0.000000
   211  Bq   0.000000
   212  Bq   0.000000
   213  Bq   0.000000
   214  Bq   0.000000
   215  Bq   0.000000
   216  Bq   0.000000
   217  Bq   0.000000
   218  Bq   0.000000
   219  Bq   0.000000
   220  Bq   0.000000
   221  Bq   0.000000
   222  Bq   0.000000
   223  Bq   0.000000
   224  Bq   0.000000
   225  Bq   0.000000
   226  Bq   0.000000
   227  Bq   0.000000
   228  Bq   0.000000
   229  Bq   0.000000
   230  Bq   0.000000
   231  Bq   0.000000
   232  Bq   0.000000
   233  Bq   0.000000
   234  Bq   0.000000
   235  Bq   0.000000
   236  Bq   0.000000
 Electronic spatial extent (au):  <R**2>=           5804.3227
 Charge=              0.0000 electrons
 Dipole moment (field-independent basis, Debye):
    X=              0.0000    Y=              0.0732    Z=              0.0000  Tot=              0.0732
 Quadrupole moment (field-independent basis, Debye-Ang):
   XX=           -113.9137   YY=           -113.9781   ZZ=           -133.4378
   XY=              0.0000   XZ=             -4.8717   YZ=              0.0000
 Traceless Quadrupole moment (field-independent basis, Debye-Ang):
   XX=              6.5295   YY=              6.4651   ZZ=            -12.9946
   XY=              0.0000   XZ=             -4.8717   YZ=              0.0000
 Octapole moment (field-independent basis, Debye-Ang**2):
  XXX=              0.0000  YYY=             11.7108  ZZZ=              0.0000  XYY=              0.0000
  XXY=             -6.4067  XXZ=              0.0000  XZZ=              0.0000  YZZ=             -7.8695
  YYZ=              0.0000  XYZ=            -16.2862
 Hexadecapole moment (field-independent basis, Debye-Ang**3):
 XXXX=          -4416.4021 YYYY=          -2784.9756 ZZZZ=           -481.5690 XXXY=              0.0001
 XXXZ=           -124.3517 YYYX=             -0.0003 YYYZ=              0.0001 ZZZX=             -4.4782
 ZZZY=              0.0001 XXYY=          -1189.3576 XXZZ=           -942.9016 YYZZ=           -589.4012
 XXYZ=              0.0000 YYXZ=              7.8297 ZZXY=             -0.0001
 N-N= 1.599915627097D+03 E-N=-5.164192587538D+03  KE= 8.428349970567D+02
 Leave Link  601 at Tue Sep 15 13:29:06 2020, MaxMem=   131072000 cpu:         0.8
 (Enter /share/programs/GAUSSIAN/64/g09/l9999.exe)
 1\1\GINC-XHYSTOS\SP\RB3LYP\6-311+G(d,p)\C22H14\AARTIGAS\15-Sep-2020\0\
 \#P rb3lyp/6-311+g** NMR Guess=Read geom=connectivity\\Title\\0,1\C,0,
 0.653241,3.257859,-0.20251\C,0,-0.653243,3.25786,0.20251\C,0,1.372495,
 2.032956,-0.320807\C,0,-1.372495,2.032956,0.320807\C,0,0.722474,0.7956
 66,-0.050388\C,0,-0.722474,0.795667,0.050387\C,0,2.760385,2.053927,-0.
 674268\C,0,3.508866,0.913916,-0.671362\C,0,2.955226,-0.309622,-0.17747
 9\C,0,1.574722,-0.361114,0.197094\H,0,1.183427,4.19574,-0.384599\H,0,-
 1.183429,4.19574,0.384599\H,0,3.206283,3.012423,-0.951392\H,0,4.560023
 ,0.932956,-0.969333\C,0,3.78302,-1.443098,0.028309\C,0,1.137427,-1.507
 533,0.912109\C,0,1.973691,-2.584349,1.138062\C,0,3.301853,-2.571588,0.
 661177\H,0,4.825754,-1.39123,-0.295484\H,0,0.124652,-1.532788,1.308472
 \H,0,1.603586,-3.445682,1.698977\H,0,3.952742,-3.433526,0.825134\C,0,-
 3.508866,0.913915,0.671362\C,0,-2.760386,2.053926,0.674268\C,0,-2.9552
 26,-0.309623,0.177479\C,0,-1.574722,-0.361114,-0.197094\C,0,-3.78302,-
 1.443099,-0.028309\C,0,-3.301852,-2.571589,-0.661177\C,0,-1.97369,-2.5
 84349,-1.138061\C,0,-1.137426,-1.507534,-0.912109\H,0,-4.560022,0.9329
 54,0.969334\H,0,-3.206283,3.012421,0.951392\H,0,-4.825754,-1.391232,0.
 295484\H,0,-3.952741,-3.433528,-0.825134\H,0,-1.603585,-3.445682,-1.69
 8976\H,0,-0.124652,-1.532788,-1.308471\Bq,0,0.2289013906,-1.1792346094
 ,-2.1744964038\Bq,0,0.1797287145,-1.1361113299,-2.1744964038\Bq,0,0.12
 5348,-1.0997752981,-2.1744964038\Bq,0,0.0666897162,-1.0708482337,-2.17
 44964038\Bq,0,0.0047575226,-1.0498250869,-2.1744964038\Bq,0,-0.0593889
 039,-1.0370655693,-2.1744964038\Bq,0,-0.124652,-1.032788,-2.1744964038
 \Bq,0,-0.1899150961,-1.0370655693,-2.1744964038\Bq,0,-0.2540615226,-1.
 0498250869,-2.1744964038\Bq,0,-0.3159937162,-1.0708482337,-2.174496403
 8\Bq,0,-0.374652,-1.0997752981,-2.1744964038\Bq,0,-0.4290327145,-1.136
 1113299,-2.1744964038\Bq,0,-0.4782053906,-1.1792346094,-2.1744964038\B
 q,0,-0.5213286701,-1.2284072855,-2.1744964038\Bq,0,-0.5576647019,-1.28
 2788,-2.1744964038\Bq,0,-0.5865917663,-1.3414462838,-2.1744964038\Bq,0
 ,-0.6076149131,-1.4033784774,-2.1744964038\Bq,0,-0.6203744307,-1.46752
 49039,-2.1744964038\Bq,0,-0.624652,-1.532788,-2.1744964038\Bq,0,-0.620
 3744307,-1.5980510961,-2.1744964038\Bq,0,-0.6076149131,-1.6621975226,-
 2.1744964038\Bq,0,-0.5865917663,-1.7241297162,-2.1744964038\Bq,0,-0.55
 76647019,-1.782788,-2.1744964038\Bq,0,-0.5213286701,-1.8371687145,-2.1
 744964038\Bq,0,-0.4782053906,-1.8863413906,-2.1744964038\Bq,0,-0.42903
 27145,-1.9294646701,-2.1744964038\Bq,0,-0.374652,-1.9658007019,-2.1744
 964038\Bq,0,-0.3159937162,-1.9947277663,-2.1744964038\Bq,0,-0.25406152
 26,-2.0157509131,-2.1744964038\Bq,0,-0.1899150961,-2.0285104307,-2.174
 4964038\Bq,0,-0.124652,-2.032788,-2.1744964038\Bq,0,-0.0593889039,-2.0
 285104307,-2.1744964038\Bq,0,0.0047575226,-2.0157509131,-2.1744964038\
 Bq,0,0.0666897162,-1.9947277663,-2.1744964038\Bq,0,0.125348,-1.9658007
 019,-2.1744964038\Bq,0,0.1797287145,-1.9294646701,-2.1744964038\Bq,0,0
 .2289013906,-1.8863413906,-2.1744964038\Bq,0,0.2720246701,-1.837168714
 5,-2.1744964038\Bq,0,0.3083607019,-1.782788,-2.1744964038\Bq,0,0.33728
 77663,-1.7241297162,-2.1744964038\Bq,0,0.3583109131,-1.6621975226,-2.1
 744964038\Bq,0,0.3710704307,-1.5980510961,-2.1744964038\Bq,0,0.2580314
 324,-1.532788,-2.2323505325\Bq,0,0.2547575226,-1.4828377887,-2.2323505
 325\Bq,0,0.2449918106,-1.4337422395,-2.2323505325\Bq,0,0.2289013906,-1
 .3863413906,-2.2323505325\Bq,0,0.206761574,-1.3414462838,-2.2323505325
 \Bq,0,0.1789511793,-1.2998250869,-2.2323505325\Bq,0,0.1459460501,-1.26
 21899499,-2.2323505325\Bq,0,0.1083109131,-1.2291848207,-2.2323505325\B
 q,0,0.0666897162,-1.201374426,-2.2323505325\Bq,0,0.0217946094,-1.17923
 46094,-2.2323505325\Bq,0,-0.0256062395,-1.1631441894,-2.2323505325\Bq,
 0,-0.0747017887,-1.1533784774,-2.2323505325\Bq,0,-0.124652,-1.15010456
 76,-2.2323505325\Bq,0,-0.1746022113,-1.1533784774,-2.2323505325\Bq,0,-
 0.2236977605,-1.1631441894,-2.2323505325\Bq,0,-0.2710986094,-1.1792346
 094,-2.2323505325\Bq,0,-0.3159937162,-1.201374426,-2.2323505325\Bq,0,-
 0.3576149131,-1.2291848207,-2.2323505325\Bq,0,-0.3952500501,-1.2621899
 499,-2.2323505325\Bq,0,-0.4282551793,-1.2998250869,-2.2323505325\Bq,0,
 -0.456065574,-1.3414462838,-2.2323505325\Bq,0,-0.4782053906,-1.3863413
 906,-2.2323505325\Bq,0,-0.4942958106,-1.4337422395,-2.2323505325\Bq,0,
 -0.5040615226,-1.4828377887,-2.2323505325\Bq,0,-0.5073354324,-1.532788
 ,-2.2323505325\Bq,0,-0.5040615226,-1.5827382113,-2.2323505325\Bq,0,-0.
 4942958106,-1.6318337605,-2.2323505325\Bq,0,-0.4782053906,-1.679234609
 4,-2.2323505325\Bq,0,-0.456065574,-1.7241297162,-2.2323505325\Bq,0,-0.
 4282551793,-1.7657509131,-2.2323505325\Bq,0,-0.3952500501,-1.803386050
 1,-2.2323505325\Bq,0,-0.3576149131,-1.8363911793,-2.2323505325\Bq,0,-0
 .3159937162,-1.864201574,-2.2323505325\Bq,0,-0.2710986094,-1.886341390
 6,-2.2323505325\Bq,0,-0.2236977605,-1.9024318106,-2.2323505325\Bq,0,-0
 .1746022113,-1.9121975226,-2.2323505325\Bq,0,-0.124652,-1.9154714324,-
 2.2323505325\Bq,0,-0.0747017887,-1.9121975226,-2.2323505325\Bq,0,-0.02
 56062395,-1.9024318106,-2.2323505325\Bq,0,0.0217946094,-1.8863413906,-
 2.2323505325\Bq,0,0.0666897162,-1.864201574,-2.2323505325\Bq,0,0.10831
 09131,-1.8363911793,-2.2323505325\Bq,0,0.1459460501,-1.8033860501,-2.2
 323505325\Bq,0,0.1789511793,-1.7657509131,-2.2323505325\Bq,0,0.2067615
 74,-1.7241297162,-2.2323505325\Bq,0,0.2289013906,-1.6792346094,-2.2323
 505325\Bq,0,0.2449918106,-1.6318337605,-2.2323505325\Bq,0,0.2547575226
 ,-1.5827382113,-2.2323505325\Bq,0,0.1341670451,-1.532788,-2.2743968263
 \Bq,0,0.1319528123,-1.4990053356,-2.2743968263\Bq,0,0.125348,-1.465800
 7019,-2.2743968263\Bq,0,0.1144656184,-1.4337422395,-2.2743968263\Bq,0,
 0.099491868,-1.4033784774,-2.2743968263\Bq,0,0.080682954,-1.3752289482
 ,-2.2743968263\Bq,0,0.0583607019,-1.3497752981,-2.2743968263\Bq,0,0.03
 29070518,-1.327453046,-2.2743968263\Bq,0,0.0047575226,-1.308644132,-2.
 2743968263\Bq,0,-0.0256062395,-1.2936703816,-2.2743968263\Bq,0,-0.0576
 647019,-1.282788,-2.2743968263\Bq,0,-0.0908693356,-1.2761831877,-2.274
 3968263\Bq,0,-0.124652,-1.2739689549,-2.2743968263\Bq,0,-0.1584346644,
 -1.2761831877,-2.2743968263\Bq,0,-0.1916392981,-1.282788,-2.2743968263
 \Bq,0,-0.2236977605,-1.2936703816,-2.2743968263\Bq,0,-0.2540615226,-1.
 308644132,-2.2743968263\Bq,0,-0.2822110518,-1.327453046,-2.2743968263\
 Bq,0,-0.3076647019,-1.3497752981,-2.2743968263\Bq,0,-0.329986954,-1.37
 52289482,-2.2743968263\Bq,0,-0.348795868,-1.4033784774,-2.2743968263\B
 q,0,-0.3637696184,-1.4337422395,-2.2743968263\Bq,0,-0.374652,-1.465800
 7019,-2.2743968263\Bq,0,-0.3812568123,-1.4990053356,-2.2743968263\Bq,0
 ,-0.3834710451,-1.532788,-2.2743968263\Bq,0,-0.3812568123,-1.566570664
 4,-2.2743968263\Bq,0,-0.374652,-1.5997752981,-2.2743968263\Bq,0,-0.363
 7696184,-1.6318337605,-2.2743968263\Bq,0,-0.348795868,-1.6621975226,-2
 .2743968263\Bq,0,-0.329986954,-1.6903470518,-2.2743968263\Bq,0,-0.3076
 647019,-1.7158007019,-2.2743968263\Bq,0,-0.2822110518,-1.738122954,-2.
 2743968263\Bq,0,-0.2540615226,-1.756931868,-2.2743968263\Bq,0,-0.22369
 77605,-1.7719056184,-2.2743968263\Bq,0,-0.1916392981,-1.782788,-2.2743
 968263\Bq,0,-0.1584346644,-1.7893928123,-2.2743968263\Bq,0,-0.124652,-
 1.7916070451,-2.2743968263\Bq,0,-0.0908693356,-1.7893928123,-2.2743968
 263\Bq,0,-0.0576647019,-1.782788,-2.2743968263\Bq,0,-0.0256062395,-1.7
 719056184,-2.2743968263\Bq,0,0.0047575226,-1.756931868,-2.2743968263\B
 q,0,0.0329070518,-1.738122954,-2.2743968263\Bq,0,0.0583607019,-1.71580
 07019,-2.2743968263\Bq,0,0.080682954,-1.6903470518,-2.2743968263\Bq,0,
 0.099491868,-1.6621975226,-2.2743968263\Bq,0,0.1144656184,-1.631833760
 5,-2.2743968263\Bq,0,0.125348,-1.5997752981,-2.2743968263\Bq,0,0.13195
 28123,-1.5665706644,-2.2743968263\Bq,0,0.0058741922,-1.532788,-2.29991
 58614\Bq,0,0.0047575226,-1.5157509131,-2.2999158614\Bq,0,0.0014266201,
 -1.4990053356,-2.2999158614\Bq,0,-0.0040615226,-1.4828377887,-2.299915
 8614\Bq,0,-0.0116130017,-1.4675249039,-2.2999158614\Bq,0,-0.0210986094
 ,-1.4533286887,-2.2999158614\Bq,0,-0.0323560444,-1.4404920444,-2.29991
 58614\Bq,0,-0.0451926887,-1.4292346094,-2.2999158614\Bq,0,-0.059388903
 9,-1.4197490017,-2.2999158614\Bq,0,-0.0747017887,-1.4121975226,-2.2999
 158614\Bq,0,-0.0908693356,-1.4067093799,-2.2999158614\Bq,0,-0.10761491
 31,-1.4033784774,-2.2999158614\Bq,0,-0.124652,-1.4022618078,-2.2999158
 614\Bq,0,-0.1416890869,-1.4033784774,-2.2999158614\Bq,0,-0.1584346644,
 -1.4067093799,-2.2999158614\Bq,0,-0.1746022113,-1.4121975226,-2.299915
 8614\Bq,0,-0.1899150961,-1.4197490017,-2.2999158614\Bq,0,-0.2041113113
 ,-1.4292346094,-2.2999158614\Bq,0,-0.2169479556,-1.4404920444,-2.29991
 58614\Bq,0,-0.2282053906,-1.4533286887,-2.2999158614\Bq,0,-0.237690998
 3,-1.4675249039,-2.2999158614\Bq,0,-0.2452424774,-1.4828377887,-2.2999
 158614\Bq,0,-0.2507306201,-1.4990053356,-2.2999158614\Bq,0,-0.25406152
 26,-1.5157509131,-2.2999158614\Bq,0,-0.2551781922,-1.532788,-2.2999158
 614\Bq,0,-0.2540615226,-1.5498250869,-2.2999158614\Bq,0,-0.2507306201,
 -1.5665706644,-2.2999158614\Bq,0,-0.2452424774,-1.5827382113,-2.299915
 8614\Bq,0,-0.2376909983,-1.5980510961,-2.2999158614\Bq,0,-0.2282053906
 ,-1.6122473113,-2.2999158614\Bq,0,-0.2169479556,-1.6250839556,-2.29991
 58614\Bq,0,-0.2041113113,-1.6363413906,-2.2999158614\Bq,0,-0.189915096
 1,-1.6458269983,-2.2999158614\Bq,0,-0.1746022113,-1.6533784774,-2.2999
 158614\Bq,0,-0.1584346644,-1.6588666201,-2.2999158614\Bq,0,-0.14168908
 69,-1.6621975226,-2.2999158614\Bq,0,-0.124652,-1.6633141922,-2.2999158
 614\Bq,0,-0.1076149131,-1.6621975226,-2.2999158614\Bq,0,-0.0908693356,
 -1.6588666201,-2.2999158614\Bq,0,-0.0747017887,-1.6533784774,-2.299915
 8614\Bq,0,-0.0593889039,-1.6458269983,-2.2999158614\Bq,0,-0.0451926887
 ,-1.6363413906,-2.2999158614\Bq,0,-0.0323560444,-1.6250839556,-2.29991
 58614\Bq,0,-0.0210986094,-1.6122473113,-2.2999158614\Bq,0,-0.011613001
 7,-1.5980510961,-2.2999158614\Bq,0,-0.0040615226,-1.5827382113,-2.2999
 158614\Bq,0,0.0014266201,-1.5665706644,-2.2999158614\Bq,0,0.0047575226
 ,-1.5498250869,-2.2999158614\Bq,0,-0.6879504774,-0.3120703887,0.507909
 8614\Bq,0,-0.6934386201,-0.3282379356,0.5079098614\Bq,0,-0.6967695226,
 -0.3449835131,0.5079098614\Bq,0,-0.6978861922,-0.3620206,0.5079098614\
 Bq,0,-0.6967695226,-0.3790576869,0.5079098614\Bq,0,-0.6934386201,-0.39
 58032644,0.5079098614\Bq,0,-0.6879504774,-0.4119708113,0.5079098614\Bq
 ,0,-0.6803989983,-0.4272836961,0.5079098614\Bq,0,-0.6709133906,-0.4414
 799113,0.5079098614\Bq,0,-0.6596559556,-0.4543165556,0.5079098614\Bq,0
 ,-0.6468193113,-0.4655739906,0.5079098614\Bq,0,-0.6326230961,-0.475059
 5983,0.5079098614\Bq,0,-0.6173102113,-0.4826110774,0.5079098614\Bq,0,-
 0.6011426644,-0.4880992201,0.5079098614\\Version=ES64L-G09RevD.01\HF=-
 847.0037387\RMSD=4.159e-09\Dipole=0.0000004,0.0287843,0.0000009\Quadru
 pole=4.8545288,4.8066247,-9.6611535,-0.0000047,-3.6219991,-0.000002\PG
 =C01 [X(C22H14)]\\@


 Ideas are like rabbits. You get a couple and learn
 how to handle them, and pretty soon you have a dozen.
                                    -- John Steinbeck
 Job cpu time:       0 days  1 hours 39 minutes 59.1 seconds.
 File lengths (MBytes):  RWF=    184 Int=      0 D2E=      0 Chk=     21 Scr=      1
 Normal termination of Gaussian 09 at Tue Sep 15 13:29:06 2020.
