 Entering Gaussian System, Link 0=g09
 Input=input_batch_22000.com
 Output=input_batch_22000.log
 Initial command:
 /share/programs/GAUSSIAN/64/g09/l1.exe "/scratch/aartigas.39141/Gau-45185.inp" -scrdir="/scratch/aartigas.39141/"
 Entering Link 1 = /share/programs/GAUSSIAN/64/g09/l1.exe PID=     45186.
  
 Copyright (c) 1988,1990,1992,1993,1995,1998,2003,2009,2013,
            Gaussian, Inc.  All Rights Reserved.
  
 This is part of the Gaussian(R) 09 program.  It is based on
 the Gaussian(R) 03 system (copyright 2003, Gaussian, Inc.),
 the Gaussian(R) 98 system (copyright 1998, Gaussian, Inc.),
 the Gaussian(R) 94 system (copyright 1995, Gaussian, Inc.),
 the Gaussian 92(TM) system (copyright 1992, Gaussian, Inc.),
 the Gaussian 90(TM) system (copyright 1990, Gaussian, Inc.),
 the Gaussian 88(TM) system (copyright 1988, Gaussian, Inc.),
 the Gaussian 86(TM) system (copyright 1986, Carnegie Mellon
 University), and the Gaussian 82(TM) system (copyright 1983,
 Carnegie Mellon University). Gaussian is a federally registered
 trademark of Gaussian, Inc.
  
 This software contains proprietary and confidential information,
 including trade secrets, belonging to Gaussian, Inc.
  
 This software is provided under written license and may be
 used, copied, transmitted, or stored only in accord with that
 written license.
  
 The following legend is applicable only to US Government
 contracts under FAR:
  
                    RESTRICTED RIGHTS LEGEND
  
 Use, reproduction and disclosure by the US Government is
 subject to restrictions as set forth in subparagraphs (a)
 and (c) of the Commercial Computer Software - Restricted
 Rights clause in FAR 52.227-19.
  
 Gaussian, Inc.
 340 Quinnipiac St., Bldg. 40, Wallingford CT 06492
  
  
 ---------------------------------------------------------------
 Warning -- This program may not be used in any manner that
 competes with the business of Gaussian, Inc. or will provide
 assistance to any competitor of Gaussian, Inc.  The licensee
 of this program is prohibited from giving any competitor of
 Gaussian, Inc. access to this program.  By using this program,
 the user acknowledges that Gaussian, Inc. is engaged in the
 business of creating and licensing software in the field of
 computational chemistry and represents and warrants to the
 licensee that it is not a competitor of Gaussian, Inc. and that
 it will not use this program in any manner prohibited above.
 ---------------------------------------------------------------
  

 Cite this work as:
 Gaussian 09, Revision D.01,
 M. J. Frisch, G. W. Trucks, H. B. Schlegel, G. E. Scuseria, 
 M. A. Robb, J. R. Cheeseman, G. Scalmani, V. Barone, B. Mennucci, 
 G. A. Petersson, H. Nakatsuji, M. Caricato, X. Li, H. P. Hratchian, 
 A. F. Izmaylov, J. Bloino, G. Zheng, J. L. Sonnenberg, M. Hada, 
 M. Ehara, K. Toyota, R. Fukuda, J. Hasegawa, M. Ishida, T. Nakajima, 
 Y. Honda, O. Kitao, H. Nakai, T. Vreven, J. A. Montgomery, Jr., 
 J. E. Peralta, F. Ogliaro, M. Bearpark, J. J. Heyd, E. Brothers, 
 K. N. Kudin, V. N. Staroverov, T. Keith, R. Kobayashi, J. Normand, 
 K. Raghavachari, A. Rendell, J. C. Burant, S. S. Iyengar, J. Tomasi, 
 M. Cossi, N. Rega, J. M. Millam, M. Klene, J. E. Knox, J. B. Cross, 
 V. Bakken, C. Adamo, J. Jaramillo, R. Gomperts, R. E. Stratmann, 
 O. Yazyev, A. J. Austin, R. Cammi, C. Pomelli, J. W. Ochterski, 
 R. L. Martin, K. Morokuma, V. G. Zakrzewski, G. A. Voth, 
 P. Salvador, J. J. Dannenberg, S. Dapprich, A. D. Daniels, 
 O. Farkas, J. B. Foresman, J. V. Ortiz, J. Cioslowski, 
 and D. J. Fox, Gaussian, Inc., Wallingford CT, 2013.
 
 ******************************************
 Gaussian 09:  ES64L-G09RevD.01 24-Apr-2013
                15-Sep-2020 
 ******************************************
 %OldChk=/home/aartigas/chk/5_helicene_spe.chk
 %nproc=8
 Will use up to    8 processors via shared memory.
 %mem=1000MB
 Copying data from "/home/aartigas/chk/5_helicene_spe.chk" to current chk file "/scratch/aartigas.39141/Gau-45186.chk".
 ----------------------------------------------------
 #P rb3lyp/6-311+g** NMR Guess=Read geom=connectivity
 ----------------------------------------------------
 1/38=1,57=2/1;
 2/12=2,17=6,18=5,40=1/2;
 3/5=4,6=6,7=111,11=2,16=1,25=1,30=1,74=-5,116=1/1,2,8,3;
 4/5=1/1;
 5/5=2,38=6/2;
 8/6=1,10=90,11=11/1;
 10/13=100,45=16/2;
 6/7=2,8=2,9=2,10=2,28=1/1;
 99/9=1/99;
 Leave Link    1 at Tue Sep 15 13:16:24 2020, MaxMem=   131072000 cpu:         0.3
 (Enter /share/programs/GAUSSIAN/64/g09/l101.exe)
 -----
 Title
 -----
 Symbolic Z-matrix:
 Charge =  0 Multiplicity = 1
 C                     0.65324   3.25786  -0.20251 
 C                    -0.65324   3.25786   0.20251 
 C                     1.3725    2.03296  -0.32081 
 C                    -1.3725    2.03296   0.32081 
 C                     0.72247   0.79567  -0.05039 
 C                    -0.72247   0.79567   0.05039 
 C                     2.76039   2.05393  -0.67427 
 C                     3.50887   0.91392  -0.67136 
 C                     2.95523  -0.30962  -0.17748 
 C                     1.57472  -0.36111   0.19709 
 H                     1.18343   4.19574  -0.3846 
 H                    -1.18343   4.19574   0.3846 
 H                     3.20628   3.01242  -0.95139 
 H                     4.56002   0.93296  -0.96933 
 C                     3.78302  -1.4431    0.02831 
 C                     1.13743  -1.50753   0.91211 
 C                     1.97369  -2.58435   1.13806 
 C                     3.30185  -2.57159   0.66118 
 H                     4.82575  -1.39123  -0.29548 
 H                     0.12465  -1.53279   1.30847 
 H                     1.60359  -3.44568   1.69898 
 H                     3.95274  -3.43353   0.82513 
 C                    -3.50887   0.91392   0.67136 
 C                    -2.76039   2.05393   0.67427 
 C                    -2.95523  -0.30962   0.17748 
 C                    -1.57472  -0.36111  -0.19709 
 C                    -3.78302  -1.4431   -0.02831 
 C                    -3.30185  -2.57159  -0.66118 
 C                    -1.97369  -2.58435  -1.13806 
 C                    -1.13743  -1.50753  -0.91211 
 H                    -4.56002   0.93295   0.96933 
 H                    -3.20628   3.01242   0.95139 
 H                    -4.82575  -1.39123   0.29548 
 H                    -3.95274  -3.43353  -0.82513 
 H                    -1.60359  -3.44568  -1.69898 
 H                    -0.12465  -1.53279  -1.30847 
 Bq                   -0.5844   -0.49143   0.50791 
 Bq                   -0.56736  -0.49255   0.50791 
 Bq                   -0.55032  -0.49143   0.50791 
 Bq                   -0.53358  -0.4881    0.50791 
 Bq                   -0.51741  -0.48261   0.50791 
 Bq                   -0.77269  -0.20446   0.48239 
 Bq                   -0.7915   -0.23261   0.48239 
 Bq                   -0.80648  -0.26297   0.48239 
 Bq                   -0.81736  -0.29503   0.48239 
 Bq                   -0.82396  -0.32824   0.48239 
 Bq                   -0.82618  -0.36202   0.48239 
 Bq                   -0.82396  -0.3958    0.48239 
 Bq                   -0.81736  -0.42901   0.48239 
 Bq                   -0.80648  -0.46107   0.48239 
 Bq                   -0.7915   -0.49143   0.48239 
 Bq                   -0.77269  -0.51958   0.48239 
 Bq                   -0.75037  -0.54503   0.48239 
 Bq                   -0.72492  -0.56736   0.48239 
 Bq                   -0.69677  -0.58616   0.48239 
 Bq                   -0.66641  -0.60114   0.48239 
 Bq                   -0.63435  -0.61202   0.48239 
 Bq                   -0.60114  -0.61863   0.48239 
 Bq                   -0.56736  -0.62084   0.48239 
 Bq                   -0.53358  -0.61863   0.48239 
 Bq                   -0.50037  -0.61202   0.48239 
 Bq                   -0.46831  -0.60114   0.48239 
 Bq                   -0.43795  -0.58616   0.48239 
 Bq                   -0.83796  -0.63262   0.44034 
 Bq                   -0.80032  -0.66562   0.44034 
 Bq                   -0.7587   -0.69343   0.44034 
 Bq                   -0.71381  -0.71557   0.44034 
 Bq                   -0.66641  -0.73166   0.44034 
 Bq                   -0.61731  -0.74143   0.44034 
 Bq                   -0.56736  -0.7447    0.44034 
 Bq                   -0.51741  -0.74143   0.44034 
 Bq                   -0.46831  -0.73166   0.44034 
 Bq                   -0.42091  -0.71557   0.44034 
 Bq                   -0.37602  -0.69343   0.44034 
 Bq                   -0.81736  -0.79503   0.38249 
 Bq                   -0.7587   -0.82396   0.38249 
 Bq                   -0.69677  -0.84498   0.38249 
 Bq                   -0.63262  -0.85774   0.38249 
 Bq                   -0.56736  -0.86202   0.38249 
 Bq                   -0.5021   -0.85774   0.38249 
 Bq                   -0.43795  -0.84498   0.38249 
 Bq                   -0.37602  -0.82396   0.38249 
 Bq                   -0.87174  -0.88922   0.30982 
 Bq                   -0.80032  -0.92444   0.30982 
 Bq                   -0.72492  -0.95004   0.30982 
 Bq                   -0.64682  -0.96557   0.30982 
 Bq                   -0.56736  -0.97078   0.30982 
 Bq                   -0.4879   -0.96557   0.30982 
 Bq                   -0.4098   -0.95004   0.30982 
 Bq                   -0.3344   -0.92444   0.30982 
 Bq                   -0.83796  -1.0153    0.22357 
 Bq                   -0.75037  -1.04503   0.22357 
 Bq                   -0.65966  -1.06308   0.22357 
 Bq                   -0.56736  -1.06913   0.22357 
 Bq                   -0.47506  -1.06308   0.22357 
 Bq                   -0.38435  -1.04503   0.22357 
 Bq                   -0.29676  -1.0153    0.22357 
 Bq                   -0.21381  -0.97439   0.22357 
 Bq                   -0.87096  -1.09498   0.12523 
 Bq                   -0.77269  -1.12834   0.12523 
 Bq                   -0.67091  -1.14859   0.12523 
 Bq                   -0.56736  -1.15537   0.12523 
 Bq                   -0.46381  -1.14859   0.12523 
 Bq                   -0.36203  -1.12834   0.12523 
 Bq                   -0.26376  -1.09498   0.12523 
 Bq                   -0.17068  -1.04908   0.12523 
 Bq                   -0.89877  -1.16212   0.01647 
 Bq                   -0.7915   -1.19854   0.01647 
 Bq                   -0.6804   -1.22064   0.01647 
 Bq                   -0.56736  -1.22805   0.01647 
 Bq                   -0.45432  -1.22064   0.01647 
 Bq                   -0.34322  -1.19854   0.01647 
 Bq                   -0.23595  -1.16212   0.01647 
 Bq                   -0.13435  -1.11202   0.01647 
 Bq                   -0.04016  -1.04908   0.01647 
 Bq                   -0.56736  -1.2859   -0.10085 
 Bq                   -0.44677  -1.278    -0.10085 
 Bq                   -0.32824  -1.25442  -0.10085 
 Bq                   -0.21381  -1.21557  -0.10085 
 Bq                   -0.10542  -1.16212  -0.10085 
 Bq                   -0.00494  -1.09498  -0.10085 
 Bq                    0.08592  -1.0153   -0.10085 
 Bq                   -0.31736  -1.29503  -0.22472 
 Bq                   -0.19772  -1.25442  -0.22472 
 Bq                   -0.0844   -1.19854  -0.22472 
 Bq                    0.02066  -1.12834  -0.22472 
 Bq                    0.11565  -1.04503  -0.22472 
 Bq                   -0.07164  -1.22064  -0.35301 
 Bq                    0.03619  -1.14859  -0.35301 
 Bq                    0.1337   -1.06308  -0.35301 
 Bq                    0.21921  -0.96557  -0.35301 
 Bq                    0.29126  -0.85774  -0.35301 
 Bq                    0.22599  -0.97078  -0.48354 
 Bq                    0.29867  -0.86202  -0.48354 
 Bq                    0.35652  -0.7447   -0.48354 
 Bq                    0.39857  -0.62084  -0.48354 
 Bq                    0.29126  -0.85774  -0.61406 
 Bq                    0.34862  -0.74143  -0.61406 
 Bq                    0.3903   -0.61863  -0.61406 
 Bq                    0.4156   -0.49143  -0.61406 
 Bq                    0.39857  -0.36202  -0.74235 
 Bq                    0.32504  -0.73166  -0.74235 
 Bq                    0.36565  -0.61202  -0.74235 
 Bq                    0.3903   -0.4881   -0.74235 
 Bq                    0.35652  -0.36202  -0.86622 
 Bq                    0.34862  -0.24143  -0.86622 
 Bq                   -1.0293    0.43808  -0.86622 
 Bq                   -1.12978   0.37094  -0.86622 
 Bq                    0.28619  -0.71557  -0.86622 
 Bq                    0.32504  -0.60114  -0.86622 
 Bq                    0.34862  -0.48261  -0.86622 
 Bq                    0.29867  -0.36202  -0.98354 
 Bq                    0.29126  -0.24898  -0.98354 
 Bq                    0.26916  -0.13788  -0.98354 
 Bq                    0.23274  -0.03061  -0.98354 
 Bq                    0.18264   0.07099  -0.98354 
 Bq                   -0.13435   0.38798  -0.98354 
 Bq                   -0.23595   0.43808  -0.98354 
 Bq                   -0.34322   0.4745   -0.98354 
 Bq                   -0.45432   0.4966   -0.98354 
 Bq                   -0.56736   0.504    -0.98354 
 Bq                   -0.6804    0.4966   -0.98354 
 Bq                   -0.7915    0.4745   -0.98354 
 Bq                   -0.89877   0.43808  -0.98354 
 Bq                   -1.00037   0.38798  -0.98354 
 Bq                   -1.09456   0.32504  -0.98354 
 Bq                   -1.17973   0.25035  -0.98354 
 Bq                    0.26916  -0.58616  -0.98354 
 Bq                    0.29126  -0.47506  -0.98354 
 Bq                    0.22599  -0.36202  -1.0923 
 Bq                    0.21921  -0.25847  -1.0923 
 Bq                    0.19896  -0.15669  -1.0923 
 Bq                    0.1656   -0.05842  -1.0923 
 Bq                    0.1197    0.03466  -1.0923 
 Bq                    0.06205   0.12094  -1.0923 
 Bq                   -0.00637   0.19896  -1.0923 
 Bq                   -0.0844    0.26739  -1.0923 
 Bq                   -0.17068   0.32504  -1.0923 
 Bq                   -0.26376   0.37094  -1.0923 
 Bq                   -0.36203   0.4043   -1.0923 
 Bq                   -0.46381   0.42455  -1.0923 
 Bq                   -0.56736   0.43133  -1.0923 
 Bq                   -0.67091   0.42455  -1.0923 
 Bq                   -0.77269   0.4043   -1.0923 
 Bq                   -0.87096   0.37094  -1.0923 
 Bq                   -0.96404   0.32504  -1.0923 
 Bq                   -1.05032   0.26739  -1.0923 
 Bq                   -1.12835   0.19896  -1.0923 
 Bq                   -1.19677   0.12094  -1.0923 
 Bq                   -1.25442   0.03466  -1.0923 
 Bq                    0.19896  -0.56736  -1.0923 
 Bq                    0.21921  -0.46557  -1.0923 
 Bq                    0.13975  -0.36202  -1.19064 
 Bq                    0.1337   -0.26972  -1.19064 
 Bq                    0.11565  -0.17901  -1.19064 
 Bq                    0.08592  -0.09142  -1.19064 
 Bq                    0.04501  -0.00847  -1.19064 
 Bq                   -0.00637   0.06844  -1.19064 
 Bq                   -0.06736   0.13798  -1.19064 
 Bq                   -0.1369    0.19896  -1.19064 
 Bq                   -0.21381   0.25035  -1.19064 
 Bq                   -0.29676   0.29126  -1.19064 
 Bq                   -0.38435   0.32099  -1.19064 
 Bq                   -0.47506   0.33904  -1.19064 
 Bq                   -0.56736   0.34509  -1.19064 
 Bq                   -0.65966   0.33904  -1.19064 
 Bq                   -0.75037   0.32099  -1.19064 
 Bq                   -0.83796   0.29126  -1.19064 
 Bq                   -0.92091   0.25035  -1.19064 
 Bq                   -0.99782   0.19896  -1.19064 
 Bq                   -1.06736   0.13798  -1.19064 
 Bq                   -1.12835   0.06844  -1.19064 
 Bq                   -1.17973  -0.00847  -1.19064 
 Bq                   -1.22064  -0.09142  -1.19064 
 Bq                   -1.25037  -0.17901  -1.19064 
 Bq                   -1.26842  -0.26972  -1.19064 
 Bq                   -1.27447  -0.36202  -1.19064 
 Bq                   -1.26842  -0.45432  -1.19064 
 Bq                   -1.25037  -0.54503  -1.19064 
 Bq                    0.11565  -0.54503  -1.19064 
 Bq                    0.1337   -0.45432  -1.19064 
 Bq                    0.0414   -0.36202  -1.27689 
 Bq                    0.03619  -0.28256  -1.27689 
 Bq                    0.02066  -0.20446  -1.27689 
 Bq                   -0.00494  -0.12906  -1.27689 
 Bq                   -0.04016  -0.05764  -1.27689 
 Bq                   -0.0844    0.00857  -1.27689 
 Bq                   -0.1369    0.06844  -1.27689 
 Bq                   -0.19677   0.12094  -1.27689 
 Bq                   -0.26298   0.16518  -1.27689 
 Bq                   -0.3344    0.2004   -1.27689 
 Bq                   -0.4098    0.226    -1.27689 
 Bq                   -0.4879    0.24153  -1.27689 
 Bq                   -0.56736   0.24674  -1.27689 
 Bq                   -0.64682   0.24153  -1.27689 
 Bq                   -0.72492   0.226    -1.27689 
 
 NAtoms=    236 NQM=      236 NQMF=       0 NMMI=      0 NMMIF=      0
                NMic=       0 NMicF=      0.
                    Isotopes and Nuclear Properties:
 (Nuclear quadrupole moments (NQMom) in fm**2, nuclear magnetic moments (NMagM)
  in nuclear magnetons)

  Atom         1           2           3           4           5           6           7           8           9          10
 IAtWgt=          12          12          12          12          12          12          12          12          12          12
 AtmWgt=  12.0000000  12.0000000  12.0000000  12.0000000  12.0000000  12.0000000  12.0000000  12.0000000  12.0000000  12.0000000
 NucSpn=           0           0           0           0           0           0           0           0           0           0
 AtZEff=   0.0000000   0.0000000   0.0000000   0.0000000   0.0000000   0.0000000   0.0000000   0.0000000   0.0000000   0.0000000
 NQMom=    0.0000000   0.0000000   0.0000000   0.0000000   0.0000000   0.0000000   0.0000000   0.0000000   0.0000000   0.0000000
 NMagM=    0.0000000   0.0000000   0.0000000   0.0000000   0.0000000   0.0000000   0.0000000   0.0000000   0.0000000   0.0000000
 AtZNuc=   6.0000000   6.0000000   6.0000000   6.0000000   6.0000000   6.0000000   6.0000000   6.0000000   6.0000000   6.0000000

  Atom        11          12          13          14          15          16          17          18          19          20
 IAtWgt=           1           1           1           1          12          12          12          12           1           1
 AtmWgt=   1.0078250   1.0078250   1.0078250   1.0078250  12.0000000  12.0000000  12.0000000  12.0000000   1.0078250   1.0078250
 NucSpn=           1           1           1           1           0           0           0           0           1           1
 AtZEff=   0.0000000   0.0000000   0.0000000   0.0000000   0.0000000   0.0000000   0.0000000   0.0000000   0.0000000   0.0000000
 NQMom=    0.0000000   0.0000000   0.0000000   0.0000000   0.0000000   0.0000000   0.0000000   0.0000000   0.0000000   0.0000000
 NMagM=    2.7928460   2.7928460   2.7928460   2.7928460   0.0000000   0.0000000   0.0000000   0.0000000   2.7928460   2.7928460
 AtZNuc=   1.0000000   1.0000000   1.0000000   1.0000000   6.0000000   6.0000000   6.0000000   6.0000000   1.0000000   1.0000000

  Atom        21          22          23          24          25          26          27          28          29          30
 IAtWgt=           1           1          12          12          12          12          12          12          12          12
 AtmWgt=   1.0078250   1.0078250  12.0000000  12.0000000  12.0000000  12.0000000  12.0000000  12.0000000  12.0000000  12.0000000
 NucSpn=           1           1           0           0           0           0           0           0           0           0
 AtZEff=   0.0000000   0.0000000   0.0000000   0.0000000   0.0000000   0.0000000   0.0000000   0.0000000   0.0000000   0.0000000
 NQMom=    0.0000000   0.0000000   0.0000000   0.0000000   0.0000000   0.0000000   0.0000000   0.0000000   0.0000000   0.0000000
 NMagM=    2.7928460   2.7928460   0.0000000   0.0000000   0.0000000   0.0000000   0.0000000   0.0000000   0.0000000   0.0000000
 AtZNuc=   1.0000000   1.0000000   6.0000000   6.0000000   6.0000000   6.0000000   6.0000000   6.0000000   6.0000000   6.0000000

  Atom        31          32          33          34          35          36          37          38          39          40
 IAtWgt=           1           1           1           1           1           1           0           0           0           0
 AtmWgt=   1.0078250   1.0078250   1.0078250   1.0078250   1.0078250   1.0078250   0.0000000   0.0000000   0.0000000   0.0000000
 NucSpn=           1           1           1           1           1           1           0           0           0           0
 AtZEff=   0.0000000   0.0000000   0.0000000   0.0000000   0.0000000   0.0000000   0.0000000   0.0000000   0.0000000   0.0000000
 NQMom=    0.0000000   0.0000000   0.0000000   0.0000000   0.0000000   0.0000000   0.0000000   0.0000000   0.0000000   0.0000000
 NMagM=    2.7928460   2.7928460   2.7928460   2.7928460   2.7928460   2.7928460   0.0000000   0.0000000   0.0000000   0.0000000
 AtZNuc=   1.0000000   1.0000000   1.0000000   1.0000000   1.0000000   1.0000000   0.0000000   0.0000000   0.0000000   0.0000000

  Atom        41          42          43          44          45          46          47          48          49          50
 IAtWgt=           0           0           0           0           0           0           0           0           0           0
 AtmWgt=   0.0000000   0.0000000   0.0000000   0.0000000   0.0000000   0.0000000   0.0000000   0.0000000   0.0000000   0.0000000
 NucSpn=           0           0           0           0           0           0           0           0           0           0
 AtZEff=   0.0000000   0.0000000   0.0000000   0.0000000   0.0000000   0.0000000   0.0000000   0.0000000   0.0000000   0.0000000
 NQMom=    0.0000000   0.0000000   0.0000000   0.0000000   0.0000000   0.0000000   0.0000000   0.0000000   0.0000000   0.0000000
 NMagM=    0.0000000   0.0000000   0.0000000   0.0000000   0.0000000   0.0000000   0.0000000   0.0000000   0.0000000   0.0000000
 AtZNuc=   0.0000000   0.0000000   0.0000000   0.0000000   0.0000000   0.0000000   0.0000000   0.0000000   0.0000000   0.0000000

  Atom        51          52          53          54          55          56          57          58          59          60
 IAtWgt=           0           0           0           0           0           0           0           0           0           0
 AtmWgt=   0.0000000   0.0000000   0.0000000   0.0000000   0.0000000   0.0000000   0.0000000   0.0000000   0.0000000   0.0000000
 NucSpn=           0           0           0           0           0           0           0           0           0           0
 AtZEff=   0.0000000   0.0000000   0.0000000   0.0000000   0.0000000   0.0000000   0.0000000   0.0000000   0.0000000   0.0000000
 NQMom=    0.0000000   0.0000000   0.0000000   0.0000000   0.0000000   0.0000000   0.0000000   0.0000000   0.0000000   0.0000000
 NMagM=    0.0000000   0.0000000   0.0000000   0.0000000   0.0000000   0.0000000   0.0000000   0.0000000   0.0000000   0.0000000
 AtZNuc=   0.0000000   0.0000000   0.0000000   0.0000000   0.0000000   0.0000000   0.0000000   0.0000000   0.0000000   0.0000000

  Atom        61          62          63          64          65          66          67          68          69          70
 IAtWgt=           0           0           0           0           0           0           0           0           0           0
 AtmWgt=   0.0000000   0.0000000   0.0000000   0.0000000   0.0000000   0.0000000   0.0000000   0.0000000   0.0000000   0.0000000
 NucSpn=           0           0           0           0           0           0           0           0           0           0
 AtZEff=   0.0000000   0.0000000   0.0000000   0.0000000   0.0000000   0.0000000   0.0000000   0.0000000   0.0000000   0.0000000
 NQMom=    0.0000000   0.0000000   0.0000000   0.0000000   0.0000000   0.0000000   0.0000000   0.0000000   0.0000000   0.0000000
 NMagM=    0.0000000   0.0000000   0.0000000   0.0000000   0.0000000   0.0000000   0.0000000   0.0000000   0.0000000   0.0000000
 AtZNuc=   0.0000000   0.0000000   0.0000000   0.0000000   0.0000000   0.0000000   0.0000000   0.0000000   0.0000000   0.0000000

  Atom        71          72          73          74          75          76          77          78          79          80
 IAtWgt=           0           0           0           0           0           0           0           0           0           0
 AtmWgt=   0.0000000   0.0000000   0.0000000   0.0000000   0.0000000   0.0000000   0.0000000   0.0000000   0.0000000   0.0000000
 NucSpn=           0           0           0           0           0           0           0           0           0           0
 AtZEff=   0.0000000   0.0000000   0.0000000   0.0000000   0.0000000   0.0000000   0.0000000   0.0000000   0.0000000   0.0000000
 NQMom=    0.0000000   0.0000000   0.0000000   0.0000000   0.0000000   0.0000000   0.0000000   0.0000000   0.0000000   0.0000000
 NMagM=    0.0000000   0.0000000   0.0000000   0.0000000   0.0000000   0.0000000   0.0000000   0.0000000   0.0000000   0.0000000
 AtZNuc=   0.0000000   0.0000000   0.0000000   0.0000000   0.0000000   0.0000000   0.0000000   0.0000000   0.0000000   0.0000000

  Atom        81          82          83          84          85          86          87          88          89          90
 IAtWgt=           0           0           0           0           0           0           0           0           0           0
 AtmWgt=   0.0000000   0.0000000   0.0000000   0.0000000   0.0000000   0.0000000   0.0000000   0.0000000   0.0000000   0.0000000
 NucSpn=           0           0           0           0           0           0           0           0           0           0
 AtZEff=   0.0000000   0.0000000   0.0000000   0.0000000   0.0000000   0.0000000   0.0000000   0.0000000   0.0000000   0.0000000
 NQMom=    0.0000000   0.0000000   0.0000000   0.0000000   0.0000000   0.0000000   0.0000000   0.0000000   0.0000000   0.0000000
 NMagM=    0.0000000   0.0000000   0.0000000   0.0000000   0.0000000   0.0000000   0.0000000   0.0000000   0.0000000   0.0000000
 AtZNuc=   0.0000000   0.0000000   0.0000000   0.0000000   0.0000000   0.0000000   0.0000000   0.0000000   0.0000000   0.0000000

  Atom        91          92          93          94          95          96          97          98          99         100
 IAtWgt=           0           0           0           0           0           0           0           0           0           0
 AtmWgt=   0.0000000   0.0000000   0.0000000   0.0000000   0.0000000   0.0000000   0.0000000   0.0000000   0.0000000   0.0000000
 NucSpn=           0           0           0           0           0           0           0           0           0           0
 AtZEff=   0.0000000   0.0000000   0.0000000   0.0000000   0.0000000   0.0000000   0.0000000   0.0000000   0.0000000   0.0000000
 NQMom=    0.0000000   0.0000000   0.0000000   0.0000000   0.0000000   0.0000000   0.0000000   0.0000000   0.0000000   0.0000000
 NMagM=    0.0000000   0.0000000   0.0000000   0.0000000   0.0000000   0.0000000   0.0000000   0.0000000   0.0000000   0.0000000
 AtZNuc=   0.0000000   0.0000000   0.0000000   0.0000000   0.0000000   0.0000000   0.0000000   0.0000000   0.0000000   0.0000000

  Atom       101         102         103         104         105         106         107         108         109         110
 IAtWgt=           0           0           0           0           0           0           0           0           0           0
 AtmWgt=   0.0000000   0.0000000   0.0000000   0.0000000   0.0000000   0.0000000   0.0000000   0.0000000   0.0000000   0.0000000
 NucSpn=           0           0           0           0           0           0           0           0           0           0
 AtZEff=   0.0000000   0.0000000   0.0000000   0.0000000   0.0000000   0.0000000   0.0000000   0.0000000   0.0000000   0.0000000
 NQMom=    0.0000000   0.0000000   0.0000000   0.0000000   0.0000000   0.0000000   0.0000000   0.0000000   0.0000000   0.0000000
 NMagM=    0.0000000   0.0000000   0.0000000   0.0000000   0.0000000   0.0000000   0.0000000   0.0000000   0.0000000   0.0000000
 AtZNuc=   0.0000000   0.0000000   0.0000000   0.0000000   0.0000000   0.0000000   0.0000000   0.0000000   0.0000000   0.0000000

  Atom       111         112         113         114         115         116         117         118         119         120
 IAtWgt=           0           0           0           0           0           0           0           0           0           0
 AtmWgt=   0.0000000   0.0000000   0.0000000   0.0000000   0.0000000   0.0000000   0.0000000   0.0000000   0.0000000   0.0000000
 NucSpn=           0           0           0           0           0           0           0           0           0           0
 AtZEff=   0.0000000   0.0000000   0.0000000   0.0000000   0.0000000   0.0000000   0.0000000   0.0000000   0.0000000   0.0000000
 NQMom=    0.0000000   0.0000000   0.0000000   0.0000000   0.0000000   0.0000000   0.0000000   0.0000000   0.0000000   0.0000000
 NMagM=    0.0000000   0.0000000   0.0000000   0.0000000   0.0000000   0.0000000   0.0000000   0.0000000   0.0000000   0.0000000
 AtZNuc=   0.0000000   0.0000000   0.0000000   0.0000000   0.0000000   0.0000000   0.0000000   0.0000000   0.0000000   0.0000000

  Atom       121         122         123         124         125         126         127         128         129         130
 IAtWgt=           0           0           0           0           0           0           0           0           0           0
 AtmWgt=   0.0000000   0.0000000   0.0000000   0.0000000   0.0000000   0.0000000   0.0000000   0.0000000   0.0000000   0.0000000
 NucSpn=           0           0           0           0           0           0           0           0           0           0
 AtZEff=   0.0000000   0.0000000   0.0000000   0.0000000   0.0000000   0.0000000   0.0000000   0.0000000   0.0000000   0.0000000
 NQMom=    0.0000000   0.0000000   0.0000000   0.0000000   0.0000000   0.0000000   0.0000000   0.0000000   0.0000000   0.0000000
 NMagM=    0.0000000   0.0000000   0.0000000   0.0000000   0.0000000   0.0000000   0.0000000   0.0000000   0.0000000   0.0000000
 AtZNuc=   0.0000000   0.0000000   0.0000000   0.0000000   0.0000000   0.0000000   0.0000000   0.0000000   0.0000000   0.0000000

  Atom       131         132         133         134         135         136         137         138         139         140
 IAtWgt=           0           0           0           0           0           0           0           0           0           0
 AtmWgt=   0.0000000   0.0000000   0.0000000   0.0000000   0.0000000   0.0000000   0.0000000   0.0000000   0.0000000   0.0000000
 NucSpn=           0           0           0           0           0           0           0           0           0           0
 AtZEff=   0.0000000   0.0000000   0.0000000   0.0000000   0.0000000   0.0000000   0.0000000   0.0000000   0.0000000   0.0000000
 NQMom=    0.0000000   0.0000000   0.0000000   0.0000000   0.0000000   0.0000000   0.0000000   0.0000000   0.0000000   0.0000000
 NMagM=    0.0000000   0.0000000   0.0000000   0.0000000   0.0000000   0.0000000   0.0000000   0.0000000   0.0000000   0.0000000
 AtZNuc=   0.0000000   0.0000000   0.0000000   0.0000000   0.0000000   0.0000000   0.0000000   0.0000000   0.0000000   0.0000000

  Atom       141         142         143         144         145         146         147         148         149         150
 IAtWgt=           0           0           0           0           0           0           0           0           0           0
 AtmWgt=   0.0000000   0.0000000   0.0000000   0.0000000   0.0000000   0.0000000   0.0000000   0.0000000   0.0000000   0.0000000
 NucSpn=           0           0           0           0           0           0           0           0           0           0
 AtZEff=   0.0000000   0.0000000   0.0000000   0.0000000   0.0000000   0.0000000   0.0000000   0.0000000   0.0000000   0.0000000
 NQMom=    0.0000000   0.0000000   0.0000000   0.0000000   0.0000000   0.0000000   0.0000000   0.0000000   0.0000000   0.0000000
 NMagM=    0.0000000   0.0000000   0.0000000   0.0000000   0.0000000   0.0000000   0.0000000   0.0000000   0.0000000   0.0000000
 AtZNuc=   0.0000000   0.0000000   0.0000000   0.0000000   0.0000000   0.0000000   0.0000000   0.0000000   0.0000000   0.0000000

  Atom       151         152         153         154         155         156         157         158         159         160
 IAtWgt=           0           0           0           0           0           0           0           0           0           0
 AtmWgt=   0.0000000   0.0000000   0.0000000   0.0000000   0.0000000   0.0000000   0.0000000   0.0000000   0.0000000   0.0000000
 NucSpn=           0           0           0           0           0           0           0           0           0           0
 AtZEff=   0.0000000   0.0000000   0.0000000   0.0000000   0.0000000   0.0000000   0.0000000   0.0000000   0.0000000   0.0000000
 NQMom=    0.0000000   0.0000000   0.0000000   0.0000000   0.0000000   0.0000000   0.0000000   0.0000000   0.0000000   0.0000000
 NMagM=    0.0000000   0.0000000   0.0000000   0.0000000   0.0000000   0.0000000   0.0000000   0.0000000   0.0000000   0.0000000
 AtZNuc=   0.0000000   0.0000000   0.0000000   0.0000000   0.0000000   0.0000000   0.0000000   0.0000000   0.0000000   0.0000000

  Atom       161         162         163         164         165         166         167         168         169         170
 IAtWgt=           0           0           0           0           0           0           0           0           0           0
 AtmWgt=   0.0000000   0.0000000   0.0000000   0.0000000   0.0000000   0.0000000   0.0000000   0.0000000   0.0000000   0.0000000
 NucSpn=           0           0           0           0           0           0           0           0           0           0
 AtZEff=   0.0000000   0.0000000   0.0000000   0.0000000   0.0000000   0.0000000   0.0000000   0.0000000   0.0000000   0.0000000
 NQMom=    0.0000000   0.0000000   0.0000000   0.0000000   0.0000000   0.0000000   0.0000000   0.0000000   0.0000000   0.0000000
 NMagM=    0.0000000   0.0000000   0.0000000   0.0000000   0.0000000   0.0000000   0.0000000   0.0000000   0.0000000   0.0000000
 AtZNuc=   0.0000000   0.0000000   0.0000000   0.0000000   0.0000000   0.0000000   0.0000000   0.0000000   0.0000000   0.0000000

  Atom       171         172         173         174         175         176         177         178         179         180
 IAtWgt=           0           0           0           0           0           0           0           0           0           0
 AtmWgt=   0.0000000   0.0000000   0.0000000   0.0000000   0.0000000   0.0000000   0.0000000   0.0000000   0.0000000   0.0000000
 NucSpn=           0           0           0           0           0           0           0           0           0           0
 AtZEff=   0.0000000   0.0000000   0.0000000   0.0000000   0.0000000   0.0000000   0.0000000   0.0000000   0.0000000   0.0000000
 NQMom=    0.0000000   0.0000000   0.0000000   0.0000000   0.0000000   0.0000000   0.0000000   0.0000000   0.0000000   0.0000000
 NMagM=    0.0000000   0.0000000   0.0000000   0.0000000   0.0000000   0.0000000   0.0000000   0.0000000   0.0000000   0.0000000
 AtZNuc=   0.0000000   0.0000000   0.0000000   0.0000000   0.0000000   0.0000000   0.0000000   0.0000000   0.0000000   0.0000000

  Atom       181         182         183         184         185         186         187         188         189         190
 IAtWgt=           0           0           0           0           0           0           0           0           0           0
 AtmWgt=   0.0000000   0.0000000   0.0000000   0.0000000   0.0000000   0.0000000   0.0000000   0.0000000   0.0000000   0.0000000
 NucSpn=           0           0           0           0           0           0           0           0           0           0
 AtZEff=   0.0000000   0.0000000   0.0000000   0.0000000   0.0000000   0.0000000   0.0000000   0.0000000   0.0000000   0.0000000
 NQMom=    0.0000000   0.0000000   0.0000000   0.0000000   0.0000000   0.0000000   0.0000000   0.0000000   0.0000000   0.0000000
 NMagM=    0.0000000   0.0000000   0.0000000   0.0000000   0.0000000   0.0000000   0.0000000   0.0000000   0.0000000   0.0000000
 AtZNuc=   0.0000000   0.0000000   0.0000000   0.0000000   0.0000000   0.0000000   0.0000000   0.0000000   0.0000000   0.0000000

  Atom       191         192         193         194         195         196         197         198         199         200
 IAtWgt=           0           0           0           0           0           0           0           0           0           0
 AtmWgt=   0.0000000   0.0000000   0.0000000   0.0000000   0.0000000   0.0000000   0.0000000   0.0000000   0.0000000   0.0000000
 NucSpn=           0           0           0           0           0           0           0           0           0           0
 AtZEff=   0.0000000   0.0000000   0.0000000   0.0000000   0.0000000   0.0000000   0.0000000   0.0000000   0.0000000   0.0000000
 NQMom=    0.0000000   0.0000000   0.0000000   0.0000000   0.0000000   0.0000000   0.0000000   0.0000000   0.0000000   0.0000000
 NMagM=    0.0000000   0.0000000   0.0000000   0.0000000   0.0000000   0.0000000   0.0000000   0.0000000   0.0000000   0.0000000
 AtZNuc=   0.0000000   0.0000000   0.0000000   0.0000000   0.0000000   0.0000000   0.0000000   0.0000000   0.0000000   0.0000000

  Atom       201         202         203         204         205         206         207         208         209         210
 IAtWgt=           0           0           0           0           0           0           0           0           0           0
 AtmWgt=   0.0000000   0.0000000   0.0000000   0.0000000   0.0000000   0.0000000   0.0000000   0.0000000   0.0000000   0.0000000
 NucSpn=           0           0           0           0           0           0           0           0           0           0
 AtZEff=   0.0000000   0.0000000   0.0000000   0.0000000   0.0000000   0.0000000   0.0000000   0.0000000   0.0000000   0.0000000
 NQMom=    0.0000000   0.0000000   0.0000000   0.0000000   0.0000000   0.0000000   0.0000000   0.0000000   0.0000000   0.0000000
 NMagM=    0.0000000   0.0000000   0.0000000   0.0000000   0.0000000   0.0000000   0.0000000   0.0000000   0.0000000   0.0000000
 AtZNuc=   0.0000000   0.0000000   0.0000000   0.0000000   0.0000000   0.0000000   0.0000000   0.0000000   0.0000000   0.0000000

  Atom       211         212         213         214         215         216         217         218         219         220
 IAtWgt=           0           0           0           0           0           0           0           0           0           0
 AtmWgt=   0.0000000   0.0000000   0.0000000   0.0000000   0.0000000   0.0000000   0.0000000   0.0000000   0.0000000   0.0000000
 NucSpn=           0           0           0           0           0           0           0           0           0           0
 AtZEff=   0.0000000   0.0000000   0.0000000   0.0000000   0.0000000   0.0000000   0.0000000   0.0000000   0.0000000   0.0000000
 NQMom=    0.0000000   0.0000000   0.0000000   0.0000000   0.0000000   0.0000000   0.0000000   0.0000000   0.0000000   0.0000000
 NMagM=    0.0000000   0.0000000   0.0000000   0.0000000   0.0000000   0.0000000   0.0000000   0.0000000   0.0000000   0.0000000
 AtZNuc=   0.0000000   0.0000000   0.0000000   0.0000000   0.0000000   0.0000000   0.0000000   0.0000000   0.0000000   0.0000000

  Atom       221         222         223         224         225         226         227         228         229         230
 IAtWgt=           0           0           0           0           0           0           0           0           0           0
 AtmWgt=   0.0000000   0.0000000   0.0000000   0.0000000   0.0000000   0.0000000   0.0000000   0.0000000   0.0000000   0.0000000
 NucSpn=           0           0           0           0           0           0           0           0           0           0
 AtZEff=   0.0000000   0.0000000   0.0000000   0.0000000   0.0000000   0.0000000   0.0000000   0.0000000   0.0000000   0.0000000
 NQMom=    0.0000000   0.0000000   0.0000000   0.0000000   0.0000000   0.0000000   0.0000000   0.0000000   0.0000000   0.0000000
 NMagM=    0.0000000   0.0000000   0.0000000   0.0000000   0.0000000   0.0000000   0.0000000   0.0000000   0.0000000   0.0000000
 AtZNuc=   0.0000000   0.0000000   0.0000000   0.0000000   0.0000000   0.0000000   0.0000000   0.0000000   0.0000000   0.0000000

  Atom       231         232         233         234         235         236
 IAtWgt=           0           0           0           0           0           0
 AtmWgt=   0.0000000   0.0000000   0.0000000   0.0000000   0.0000000   0.0000000
 NucSpn=           0           0           0           0           0           0
 AtZEff=   0.0000000   0.0000000   0.0000000   0.0000000   0.0000000   0.0000000
 NQMom=    0.0000000   0.0000000   0.0000000   0.0000000   0.0000000   0.0000000
 NMagM=    0.0000000   0.0000000   0.0000000   0.0000000   0.0000000   0.0000000
 AtZNuc=   0.0000000   0.0000000   0.0000000   0.0000000   0.0000000   0.0000000
 Leave Link  101 at Tue Sep 15 13:16:25 2020, MaxMem=   131072000 cpu:         2.9
 (Enter /share/programs/GAUSSIAN/64/g09/l202.exe)
 Symmetry turned off:
 Cannot cope with ghost atoms or with translation vectors.
 Stoichiometry    C22H14
 Framework group  C1[X(C22H14)]
 NUMDOF-- NAT=    36 NAtoms=   236
 Deg. of freedom     0
 Full point group                 C1      NOp   1
                          Input orientation:                          
 ---------------------------------------------------------------------
 Center     Atomic      Atomic             Coordinates (Angstroms)
 Number     Number       Type             X           Y           Z
 ---------------------------------------------------------------------
      1          6           0        0.653241    3.257859   -0.202510
      2          6           0       -0.653243    3.257860    0.202510
      3          6           0        1.372495    2.032956   -0.320807
      4          6           0       -1.372495    2.032956    0.320807
      5          6           0        0.722474    0.795666   -0.050388
      6          6           0       -0.722474    0.795667    0.050387
      7          6           0        2.760385    2.053927   -0.674268
      8          6           0        3.508866    0.913916   -0.671362
      9          6           0        2.955226   -0.309622   -0.177479
     10          6           0        1.574722   -0.361114    0.197094
     11          1           0        1.183427    4.195740   -0.384599
     12          1           0       -1.183429    4.195740    0.384599
     13          1           0        3.206283    3.012423   -0.951392
     14          1           0        4.560023    0.932956   -0.969333
     15          6           0        3.783020   -1.443098    0.028309
     16          6           0        1.137427   -1.507533    0.912109
     17          6           0        1.973691   -2.584349    1.138062
     18          6           0        3.301853   -2.571588    0.661177
     19          1           0        4.825754   -1.391230   -0.295484
     20          1           0        0.124652   -1.532788    1.308472
     21          1           0        1.603586   -3.445682    1.698977
     22          1           0        3.952742   -3.433526    0.825134
     23          6           0       -3.508866    0.913915    0.671362
     24          6           0       -2.760386    2.053926    0.674268
     25          6           0       -2.955226   -0.309623    0.177479
     26          6           0       -1.574722   -0.361114   -0.197094
     27          6           0       -3.783020   -1.443099   -0.028309
     28          6           0       -3.301852   -2.571589   -0.661177
     29          6           0       -1.973690   -2.584349   -1.138061
     30          6           0       -1.137426   -1.507534   -0.912109
     31          1           0       -4.560022    0.932954    0.969334
     32          1           0       -3.206283    3.012421    0.951392
     33          1           0       -4.825754   -1.391232    0.295484
     34          1           0       -3.952741   -3.433528   -0.825134
     35          1           0       -1.603585   -3.445682   -1.698976
     36          1           0       -0.124652   -1.532788   -1.308471
     37          0           0       -0.584397   -0.491430    0.507910
     38          0           0       -0.567360   -0.492547    0.507910
     39          0           0       -0.550323   -0.491430    0.507910
     40          0           0       -0.533577   -0.488099    0.507910
     41          0           0       -0.517410   -0.482611    0.507910
     42          0           0       -0.772695   -0.204462    0.482391
     43          0           0       -0.791504   -0.232611    0.482391
     44          0           0       -0.806478   -0.262975    0.482391
     45          0           0       -0.817360   -0.295033    0.482391
     46          0           0       -0.823965   -0.328238    0.482391
     47          0           0       -0.826179   -0.362021    0.482391
     48          0           0       -0.823965   -0.395803    0.482391
     49          0           0       -0.817360   -0.429008    0.482391
     50          0           0       -0.806478   -0.461066    0.482391
     51          0           0       -0.791504   -0.491430    0.482391
     52          0           0       -0.772695   -0.519580    0.482391
     53          0           0       -0.750373   -0.545033    0.482391
     54          0           0       -0.724919   -0.567356    0.482391
     55          0           0       -0.696770   -0.586164    0.482391
     56          0           0       -0.666406   -0.601138    0.482391
     57          0           0       -0.634347   -0.612021    0.482391
     58          0           0       -0.601143   -0.618625    0.482391
     59          0           0       -0.567360   -0.620840    0.482391
     60          0           0       -0.533577   -0.618625    0.482391
     61          0           0       -0.500373   -0.612021    0.482391
     62          0           0       -0.468314   -0.601138    0.482391
     63          0           0       -0.437950   -0.586164    0.482391
     64          0           0       -0.837958   -0.632619    0.440345
     65          0           0       -0.800323   -0.665624    0.440345
     66          0           0       -0.758702   -0.693434    0.440345
     67          0           0       -0.713807   -0.715574    0.440345
     68          0           0       -0.666406   -0.731664    0.440345
     69          0           0       -0.617310   -0.741430    0.440345
     70          0           0       -0.567360   -0.744704    0.440345
     71          0           0       -0.517410   -0.741430    0.440345
     72          0           0       -0.468314   -0.731664    0.440345
     73          0           0       -0.420913   -0.715574    0.440345
     74          0           0       -0.376018   -0.693434    0.440345
     75          0           0       -0.817360   -0.795033    0.382490
     76          0           0       -0.758702   -0.823960    0.382490
     77          0           0       -0.696770   -0.844984    0.382490
     78          0           0       -0.632623   -0.857743    0.382490
     79          0           0       -0.567360   -0.862021    0.382490
     80          0           0       -0.502097   -0.857743    0.382490
     81          0           0       -0.437950   -0.844984    0.382490
     82          0           0       -0.376018   -0.823960    0.382490
     83          0           0       -0.871741   -0.889223    0.309818
     84          0           0       -0.800323   -0.924443    0.309818
     85          0           0       -0.724919   -0.950039    0.309818
     86          0           0       -0.646819   -0.965574    0.309818
     87          0           0       -0.567360   -0.970782    0.309818
     88          0           0       -0.487901   -0.965574    0.309818
     89          0           0       -0.409801   -0.950039    0.309818
     90          0           0       -0.334397   -0.924443    0.309818
     91          0           0       -0.837958   -1.015302    0.223572
     92          0           0       -0.750373   -1.045033    0.223572
     93          0           0       -0.659656   -1.063078    0.223572
     94          0           0       -0.567360   -1.069127    0.223572
     95          0           0       -0.475064   -1.063078    0.223572
     96          0           0       -0.384347   -1.045033    0.223572
     97          0           0       -0.296762   -1.015302    0.223572
     98          0           0       -0.213807   -0.974393    0.223572
     99          0           0       -0.870963   -1.094984    0.125226
    100          0           0       -0.772695   -1.128341    0.125226
    101          0           0       -0.670913   -1.148587    0.125226
    102          0           0       -0.567360   -1.155374    0.125226
    103          0           0       -0.463807   -1.148587    0.125226
    104          0           0       -0.362025   -1.128341    0.125226
    105          0           0       -0.263757   -1.094984    0.125226
    106          0           0       -0.170683   -1.049085    0.125226
    107          0           0       -0.898774   -1.162124    0.016465
    108          0           0       -0.791504   -1.198537    0.016465
    109          0           0       -0.680399   -1.220637    0.016465
    110          0           0       -0.567360   -1.228046    0.016465
    111          0           0       -0.454321   -1.220637    0.016465
    112          0           0       -0.343216   -1.198537    0.016465
    113          0           0       -0.235946   -1.162124    0.016465
    114          0           0       -0.134347   -1.112021    0.016465
    115          0           0       -0.040157   -1.049085    0.016465
    116          0           0       -0.567360   -1.285900   -0.100852
    117          0           0       -0.446770   -1.277996   -0.100852
    118          0           0       -0.328242   -1.254420   -0.100852
    119          0           0       -0.213807   -1.215574   -0.100852
    120          0           0       -0.105420   -1.162124   -0.100852
    121          0           0       -0.004938   -1.094984   -0.100852
    122          0           0        0.085921   -1.015302   -0.100852
    123          0           0       -0.317360   -1.295033   -0.224716
    124          0           0       -0.197716   -1.254420   -0.224716
    125          0           0       -0.084397   -1.198537   -0.224716
    126          0           0        0.020658   -1.128341   -0.224716
    127          0           0        0.115653   -1.045033   -0.224716
    128          0           0       -0.071638   -1.220637   -0.353009
    129          0           0        0.036193   -1.148587   -0.353009
    130          0           0        0.133697   -1.063078   -0.353009
    131          0           0        0.219206   -0.965574   -0.353009
    132          0           0        0.291256   -0.857743   -0.353009
    133          0           0        0.225993   -0.970782   -0.483535
    134          0           0        0.298665   -0.862021   -0.483535
    135          0           0        0.356520   -0.744704   -0.483535
    136          0           0        0.398566   -0.620840   -0.483535
    137          0           0        0.291256   -0.857743   -0.614061
    138          0           0        0.348616   -0.741430   -0.614061
    139          0           0        0.390302   -0.618625   -0.614061
    140          0           0        0.415603   -0.491430   -0.614061
    141          0           0        0.398566   -0.362021   -0.742354
    142          0           0        0.325039   -0.731664   -0.742354
    143          0           0        0.365653   -0.612021   -0.742354
    144          0           0        0.390302   -0.488099   -0.742354
    145          0           0        0.356520   -0.362021   -0.866218
    146          0           0        0.348616   -0.241430   -0.866218
    147          0           0       -1.029300    0.438083   -0.866218
    148          0           0       -1.129782    0.370942   -0.866218
    149          0           0        0.286193   -0.715574   -0.866218
    150          0           0        0.325039   -0.601138   -0.866218
    151          0           0        0.348616   -0.482611   -0.866218
    152          0           0        0.298665   -0.362021   -0.983535
    153          0           0        0.291256   -0.248982   -0.983535
    154          0           0        0.269156   -0.137877   -0.983535
    155          0           0        0.232743   -0.030607   -0.983535
    156          0           0        0.182640    0.070992   -0.983535
    157          0           0       -0.134347    0.387979   -0.983535
    158          0           0       -0.235946    0.438083   -0.983535
    159          0           0       -0.343216    0.474496   -0.983535
    160          0           0       -0.454321    0.496596   -0.983535
    161          0           0       -0.567360    0.504005   -0.983535
    162          0           0       -0.680399    0.496596   -0.983535
    163          0           0       -0.791504    0.474496   -0.983535
    164          0           0       -0.898774    0.438083   -0.983535
    165          0           0       -1.000373    0.387979   -0.983535
    166          0           0       -1.094563    0.325044   -0.983535
    167          0           0       -1.179732    0.250352   -0.983535
    168          0           0        0.269156   -0.586164   -0.983535
    169          0           0        0.291256   -0.475060   -0.983535
    170          0           0        0.225993   -0.362021   -1.092296
    171          0           0        0.219206   -0.258467   -1.092296
    172          0           0        0.198960   -0.156686   -1.092296
    173          0           0        0.165603   -0.058417   -1.092296
    174          0           0        0.119704    0.034656   -1.092296
    175          0           0        0.062050    0.120942   -1.092296
    176          0           0       -0.006374    0.198965   -1.092296
    177          0           0       -0.084397    0.267389   -1.092296
    178          0           0       -0.170683    0.325044   -1.092296
    179          0           0       -0.263757    0.370942   -1.092296
    180          0           0       -0.362025    0.404300   -1.092296
    181          0           0       -0.463807    0.424545   -1.092296
    182          0           0       -0.567360    0.431333   -1.092296
    183          0           0       -0.670913    0.424545   -1.092296
    184          0           0       -0.772695    0.404300   -1.092296
    185          0           0       -0.870963    0.370942   -1.092296
    186          0           0       -0.964037    0.325044   -1.092296
    187          0           0       -1.050323    0.267389   -1.092296
    188          0           0       -1.128346    0.198965   -1.092296
    189          0           0       -1.196770    0.120942   -1.092296
    190          0           0       -1.254424    0.034656   -1.092296
    191          0           0        0.198960   -0.567356   -1.092296
    192          0           0        0.219206   -0.465574   -1.092296
    193          0           0        0.139747   -0.362021   -1.190642
    194          0           0        0.133697   -0.269725   -1.190642
    195          0           0        0.115653   -0.179008   -1.190642
    196          0           0        0.085921   -0.091423   -1.190642
    197          0           0        0.045012   -0.008467   -1.190642
    198          0           0       -0.006374    0.068439   -1.190642
    199          0           0       -0.067360    0.137979   -1.190642
    200          0           0       -0.136901    0.198965   -1.190642
    201          0           0       -0.213807    0.250352   -1.190642
    202          0           0       -0.296762    0.291261   -1.190642
    203          0           0       -0.384347    0.320992   -1.190642
    204          0           0       -0.475064    0.339037   -1.190642
    205          0           0       -0.567360    0.345086   -1.190642
    206          0           0       -0.659656    0.339037   -1.190642
    207          0           0       -0.750373    0.320992   -1.190642
    208          0           0       -0.837958    0.291261   -1.190642
    209          0           0       -0.920913    0.250352   -1.190642
    210          0           0       -0.997819    0.198965   -1.190642
    211          0           0       -1.067360    0.137979   -1.190642
    212          0           0       -1.128346    0.068439   -1.190642
    213          0           0       -1.179732   -0.008467   -1.190642
    214          0           0       -1.220641   -0.091423   -1.190642
    215          0           0       -1.250373   -0.179008   -1.190642
    216          0           0       -1.268417   -0.269725   -1.190642
    217          0           0       -1.274467   -0.362021   -1.190642
    218          0           0       -1.268417   -0.454317   -1.190642
    219          0           0       -1.250373   -0.545033   -1.190642
    220          0           0        0.115653   -0.545033   -1.190642
    221          0           0        0.133697   -0.454317   -1.190642
    222          0           0        0.041401   -0.362021   -1.276888
    223          0           0        0.036193   -0.282561   -1.276888
    224          0           0        0.020658   -0.204462   -1.276888
    225          0           0       -0.004938   -0.129058   -1.276888
    226          0           0       -0.040157   -0.057640   -1.276888
    227          0           0       -0.084397    0.008570   -1.276888
    228          0           0       -0.136901    0.068439   -1.276888
    229          0           0       -0.196770    0.120942   -1.276888
    230          0           0       -0.262979    0.165182   -1.276888
    231          0           0       -0.334397    0.200402   -1.276888
    232          0           0       -0.409801    0.225998   -1.276888
    233          0           0       -0.487901    0.241533   -1.276888
    234          0           0       -0.567360    0.246741   -1.276888
    235          0           0       -0.646819    0.241533   -1.276888
    236          0           0       -0.724919    0.225998   -1.276888
 ---------------------------------------------------------------------
 Rotational constants (GHZ):      0.4454681      0.2811480      0.1854303
 Leave Link  202 at Tue Sep 15 13:16:25 2020, MaxMem=   131072000 cpu:         0.0
 (Enter /share/programs/GAUSSIAN/64/g09/l301.exe)
 Standard basis: 6-311+G(d,p) (5D, 7F)
 Warning:  center  37 has no basis functions!
 Warning:  center  38 has no basis functions!
 Warning:  center  39 has no basis functions!
 Warning:  center  40 has no basis functions!
 Warning:  center  41 has no basis functions!
 Warning:  center  42 has no basis functions!
 Warning:  center  43 has no basis functions!
 Warning:  center  44 has no basis functions!
 Warning:  center  45 has no basis functions!
 Warning:  center  46 has no basis functions!
 Warning:  center  47 has no basis functions!
 Warning:  center  48 has no basis functions!
 Warning:  center  49 has no basis functions!
 Warning:  center  50 has no basis functions!
 Warning:  center  51 has no basis functions!
 Warning:  center  52 has no basis functions!
 Warning:  center  53 has no basis functions!
 Warning:  center  54 has no basis functions!
 Warning:  center  55 has no basis functions!
 Warning:  center  56 has no basis functions!
 Warning:  center  57 has no basis functions!
 Warning:  center  58 has no basis functions!
 Warning:  center  59 has no basis functions!
 Warning:  center  60 has no basis functions!
 Warning:  center  61 has no basis functions!
 Warning:  center  62 has no basis functions!
 Warning:  center  63 has no basis functions!
 Warning:  center  64 has no basis functions!
 Warning:  center  65 has no basis functions!
 Warning:  center  66 has no basis functions!
 Warning:  center  67 has no basis functions!
 Warning:  center  68 has no basis functions!
 Warning:  center  69 has no basis functions!
 Warning:  center  70 has no basis functions!
 Warning:  center  71 has no basis functions!
 Warning:  center  72 has no basis functions!
 Warning:  center  73 has no basis functions!
 Warning:  center  74 has no basis functions!
 Warning:  center  75 has no basis functions!
 Warning:  center  76 has no basis functions!
 Warning:  center  77 has no basis functions!
 Warning:  center  78 has no basis functions!
 Warning:  center  79 has no basis functions!
 Warning:  center  80 has no basis functions!
 Warning:  center  81 has no basis functions!
 Warning:  center  82 has no basis functions!
 Warning:  center  83 has no basis functions!
 Warning:  center  84 has no basis functions!
 Warning:  center  85 has no basis functions!
 Warning:  center  86 has no basis functions!
 Warning:  center  87 has no basis functions!
 Warning:  center  88 has no basis functions!
 Warning:  center  89 has no basis functions!
 Warning:  center  90 has no basis functions!
 Warning:  center  91 has no basis functions!
 Warning:  center  92 has no basis functions!
 Warning:  center  93 has no basis functions!
 Warning:  center  94 has no basis functions!
 Warning:  center  95 has no basis functions!
 Warning:  center  96 has no basis functions!
 Warning:  center  97 has no basis functions!
 Warning:  center  98 has no basis functions!
 Warning:  center  99 has no basis functions!
 Warning:  center 100 has no basis functions!
 Warning:  center 101 has no basis functions!
 Warning:  center 102 has no basis functions!
 Warning:  center 103 has no basis functions!
 Warning:  center 104 has no basis functions!
 Warning:  center 105 has no basis functions!
 Warning:  center 106 has no basis functions!
 Warning:  center 107 has no basis functions!
 Warning:  center 108 has no basis functions!
 Warning:  center 109 has no basis functions!
 Warning:  center 110 has no basis functions!
 Warning:  center 111 has no basis functions!
 Warning:  center 112 has no basis functions!
 Warning:  center 113 has no basis functions!
 Warning:  center 114 has no basis functions!
 Warning:  center 115 has no basis functions!
 Warning:  center 116 has no basis functions!
 Warning:  center 117 has no basis functions!
 Warning:  center 118 has no basis functions!
 Warning:  center 119 has no basis functions!
 Warning:  center 120 has no basis functions!
 Warning:  center 121 has no basis functions!
 Warning:  center 122 has no basis functions!
 Warning:  center 123 has no basis functions!
 Warning:  center 124 has no basis functions!
 Warning:  center 125 has no basis functions!
 Warning:  center 126 has no basis functions!
 Warning:  center 127 has no basis functions!
 Warning:  center 128 has no basis functions!
 Warning:  center 129 has no basis functions!
 Warning:  center 130 has no basis functions!
 Warning:  center 131 has no basis functions!
 Warning:  center 132 has no basis functions!
 Warning:  center 133 has no basis functions!
 Warning:  center 134 has no basis functions!
 Warning:  center 135 has no basis functions!
 Warning:  center 136 has no basis functions!
 Warning:  center 137 has no basis functions!
 Warning:  center 138 has no basis functions!
 Warning:  center 139 has no basis functions!
 Warning:  center 140 has no basis functions!
 Warning:  center 141 has no basis functions!
 Warning:  center 142 has no basis functions!
 Warning:  center 143 has no basis functions!
 Warning:  center 144 has no basis functions!
 Warning:  center 145 has no basis functions!
 Warning:  center 146 has no basis functions!
 Warning:  center 147 has no basis functions!
 Warning:  center 148 has no basis functions!
 Warning:  center 149 has no basis functions!
 Warning:  center 150 has no basis functions!
 Warning:  center 151 has no basis functions!
 Warning:  center 152 has no basis functions!
 Warning:  center 153 has no basis functions!
 Warning:  center 154 has no basis functions!
 Warning:  center 155 has no basis functions!
 Warning:  center 156 has no basis functions!
 Warning:  center 157 has no basis functions!
 Warning:  center 158 has no basis functions!
 Warning:  center 159 has no basis functions!
 Warning:  center 160 has no basis functions!
 Warning:  center 161 has no basis functions!
 Warning:  center 162 has no basis functions!
 Warning:  center 163 has no basis functions!
 Warning:  center 164 has no basis functions!
 Warning:  center 165 has no basis functions!
 Warning:  center 166 has no basis functions!
 Warning:  center 167 has no basis functions!
 Warning:  center 168 has no basis functions!
 Warning:  center 169 has no basis functions!
 Warning:  center 170 has no basis functions!
 Warning:  center 171 has no basis functions!
 Warning:  center 172 has no basis functions!
 Warning:  center 173 has no basis functions!
 Warning:  center 174 has no basis functions!
 Warning:  center 175 has no basis functions!
 Warning:  center 176 has no basis functions!
 Warning:  center 177 has no basis functions!
 Warning:  center 178 has no basis functions!
 Warning:  center 179 has no basis functions!
 Warning:  center 180 has no basis functions!
 Warning:  center 181 has no basis functions!
 Warning:  center 182 has no basis functions!
 Warning:  center 183 has no basis functions!
 Warning:  center 184 has no basis functions!
 Warning:  center 185 has no basis functions!
 Warning:  center 186 has no basis functions!
 Warning:  center 187 has no basis functions!
 Warning:  center 188 has no basis functions!
 Warning:  center 189 has no basis functions!
 Warning:  center 190 has no basis functions!
 Warning:  center 191 has no basis functions!
 Warning:  center 192 has no basis functions!
 Warning:  center 193 has no basis functions!
 Warning:  center 194 has no basis functions!
 Warning:  center 195 has no basis functions!
 Warning:  center 196 has no basis functions!
 Warning:  center 197 has no basis functions!
 Warning:  center 198 has no basis functions!
 Warning:  center 199 has no basis functions!
 Warning:  center 200 has no basis functions!
 Warning:  center 201 has no basis functions!
 Warning:  center 202 has no basis functions!
 Warning:  center 203 has no basis functions!
 Warning:  center 204 has no basis functions!
 Warning:  center 205 has no basis functions!
 Warning:  center 206 has no basis functions!
 Warning:  center 207 has no basis functions!
 Warning:  center 208 has no basis functions!
 Warning:  center 209 has no basis functions!
 Warning:  center 210 has no basis functions!
 Warning:  center 211 has no basis functions!
 Warning:  center 212 has no basis functions!
 Warning:  center 213 has no basis functions!
 Warning:  center 214 has no basis functions!
 Warning:  center 215 has no basis functions!
 Warning:  center 216 has no basis functions!
 Warning:  center 217 has no basis functions!
 Warning:  center 218 has no basis functions!
 Warning:  center 219 has no basis functions!
 Warning:  center 220 has no basis functions!
 Warning:  center 221 has no basis functions!
 Warning:  center 222 has no basis functions!
 Warning:  center 223 has no basis functions!
 Warning:  center 224 has no basis functions!
 Warning:  center 225 has no basis functions!
 Warning:  center 226 has no basis functions!
 Warning:  center 227 has no basis functions!
 Warning:  center 228 has no basis functions!
 Warning:  center 229 has no basis functions!
 Warning:  center 230 has no basis functions!
 Warning:  center 231 has no basis functions!
 Warning:  center 232 has no basis functions!
 Warning:  center 233 has no basis functions!
 Warning:  center 234 has no basis functions!
 Warning:  center 235 has no basis functions!
 Warning:  center 236 has no basis functions!
 Ernie: Thresh=  0.10000D-02 Tol=  0.10000D-05 Strict=F.
   568 basis functions,   904 primitive gaussians,   590 cartesian basis functions
    73 alpha electrons       73 beta electrons
       nuclear repulsion energy      1599.9156270972 Hartrees.
 IExCor=  402 DFT=T Ex+Corr=B3LYP ExCW=0 ScaHFX=  0.200000
 ScaDFX=  0.800000  0.720000  1.000000  0.810000 ScalE2=  1.000000  1.000000
 IRadAn=      0 IRanWt=     -1 IRanGd=            0 ICorTp=0 IEmpDi=  4
 NAtoms=  236 NActive=  236 NUniq=  236 SFac= 1.00D+00 NAtFMM=   60 NAOKFM=T Big=T
 Integral buffers will be    131072 words long.
 Raffenetti 2 integral format.
 Two-electron integral symmetry is turned off.
 Leave Link  301 at Tue Sep 15 13:16:25 2020, MaxMem=   131072000 cpu:         0.4
 (Enter /share/programs/GAUSSIAN/64/g09/l302.exe)
 NPDir=0 NMtPBC=     1 NCelOv=     1 NCel=       1 NClECP=     1 NCelD=      1
         NCelK=      1 NCelE2=     1 NClLst=     1 CellRange=     0.0.
 One-electron integrals computed using PRISM.
 NBasis=   568 RedAO= T EigKep=  1.01D-06  NBF=   568
 NBsUse=   557 1.00D-06 EigRej=  9.19D-07 NBFU=   557
 Precomputing XC quadrature grid using
 IXCGrd= 4 IRadAn=           0 IRanWt=          -1 IRanGd=           0 AccXCQ= 0.00D+00.
 Generated NRdTot=       0 NPtTot=           0 NUsed=           0 NTot=          32
 NSgBfM=   587   588   588   589   589 MxSgAt=   236 MxSgA2=    36.
 Leave Link  302 at Tue Sep 15 13:16:27 2020, MaxMem=   131072000 cpu:        14.6
 (Enter /share/programs/GAUSSIAN/64/g09/l308.exe)
 Leave Link  308 at Tue Sep 15 13:16:27 2020, MaxMem=   131072000 cpu:         0.9
 (Enter /share/programs/GAUSSIAN/64/g09/l303.exe)
 DipDrv:  MaxL=1.
 Leave Link  303 at Tue Sep 15 13:16:27 2020, MaxMem=   131072000 cpu:         0.6
 (Enter /share/programs/GAUSSIAN/64/g09/l401.exe)
 Initial guess from the checkpoint file:  "/scratch/aartigas.39141/Gau-45186.chk"
 Skipping rotation of guess because NAtoms(RWF)=  236 differs from NAtoms(Chk)=   36.
 Guess basis will be translated and rotated to current coordinates.
 JPrj=2 DoOrth=T DoCkMO=T.
 Leave Link  401 at Tue Sep 15 13:16:29 2020, MaxMem=   131072000 cpu:        10.1
 (Enter /share/programs/GAUSSIAN/64/g09/l502.exe)
 Closed shell SCF:
 Using DIIS extrapolation, IDIIS=  1040.
 Two-electron integral symmetry not used.
 IVT=     1071582 IEndB=     1071582 NGot=   131072000 MDV=   130365749
 LenX=   130365749 LenY=   130017059
 Requested convergence on RMS density matrix=1.00D-08 within 128 cycles.
 Requested convergence on MAX density matrix=1.00D-06.
 Requested convergence on             energy=1.00D-06.
 No special actions if energy rises.
 Fock matrices will be formed incrementally for  20 cycles.

 Cycle   1  Pass 1  IDiag  1:
 FoFJK:  IHMeth= 1 ICntrl=       0 DoSepK=F KAlg= 0 I1Cent=   0 FoldK=F
 IRaf= 940000000 NMat=   1 IRICut=       1 DoRegI=T DoRafI=F ISym2E= 0.
 FoFCou: FMM=T IPFlag=           0 FMFlag=      100000 FMFlg1=        2001
         NFxFlg=           0 DoJE=F BraDBF=F KetDBF=F FulRan=T
         wScrn=  0.000000 ICntrl=       0 IOpCl=  0 I1Cent=           0 NGrid=           0
         NMat0=    1 NMatS0=      1 NMatT0=    0 NMatD0=    1 NMtDS0=    0 NMtDT0=    0
 Symmetry not used in FoFCou.
 FMM levels:  10  Number of levels for PrismC:   9
 E= -847.003738666967    
 DIIS: error= 5.05D-08 at cycle   1 NSaved=   1.
 NSaved= 1 IEnMin= 1 EnMin= -847.003738666967     IErMin= 1 ErrMin= 5.05D-08
 ErrMax= 5.05D-08  0.00D+00 EMaxC= 1.00D-01 BMatC= 3.55D-12 BMatP= 3.55D-12
 IDIUse=1 WtCom= 1.00D+00 WtEn= 0.00D+00
 Coeff-Com:  0.100D+01
 Coeff:      0.100D+01
 Gap=     0.151 Goal=   None    Shift=    0.000
 RMSDP=2.88D-07 MaxDP=1.32D-05              OVMax= 3.94D-07

 Cycle   2  Pass 1  IDiag  1:
 RMSU=  2.84D-07    CP:  1.00D+00
 E= -847.003738666848     Delta-E=        0.000000000119 Rises=F Damp=F
 DIIS: error= 1.42D-08 at cycle   2 NSaved=   2.
 NSaved= 2 IEnMin= 1 EnMin= -847.003738666967     IErMin= 2 ErrMin= 1.42D-08
 ErrMax= 1.42D-08  0.00D+00 EMaxC= 1.00D-01 BMatC= 2.13D-13 BMatP= 3.55D-12
 IDIUse=1 WtCom= 1.00D+00 WtEn= 0.00D+00
 Coeff-Com:  0.627D-01 0.937D+00
 Coeff:      0.627D-01 0.937D+00
 Gap=     0.151 Goal=   None    Shift=    0.000
 RMSDP=1.58D-08 MaxDP=7.85D-07 DE= 1.19D-10 OVMax= 3.02D-07

 Cycle   3  Pass 1  IDiag  1:
 RMSU=  1.33D-08    CP:  1.00D+00  1.02D+00
 E= -847.003738666820     Delta-E=        0.000000000028 Rises=F Damp=F
 DIIS: error= 2.51D-08 at cycle   3 NSaved=   3.
 NSaved= 3 IEnMin= 1 EnMin= -847.003738666967     IErMin= 2 ErrMin= 1.42D-08
 ErrMax= 2.51D-08  0.00D+00 EMaxC= 1.00D-01 BMatC= 5.05D-13 BMatP= 2.13D-13
 IDIUse=1 WtCom= 1.00D+00 WtEn= 0.00D+00
 Coeff-Com: -0.107D-01 0.616D+00 0.395D+00
 Coeff:     -0.107D-01 0.616D+00 0.395D+00
 Gap=     0.151 Goal=   None    Shift=    0.000
 RMSDP=1.03D-08 MaxDP=4.10D-07 DE= 2.82D-11 OVMax= 2.17D-07

 Cycle   4  Pass 1  IDiag  1:
 RMSU=  5.89D-09    CP:  1.00D+00  1.02D+00  3.97D-01
 E= -847.003738666869     Delta-E=       -0.000000000049 Rises=F Damp=F
 DIIS: error= 8.06D-09 at cycle   4 NSaved=   4.
 NSaved= 4 IEnMin= 1 EnMin= -847.003738666967     IErMin= 4 ErrMin= 8.06D-09
 ErrMax= 8.06D-09  0.00D+00 EMaxC= 1.00D-01 BMatC= 2.06D-14 BMatP= 2.13D-13
 IDIUse=1 WtCom= 1.00D+00 WtEn= 0.00D+00
 Coeff-Com: -0.876D-02 0.309D+00 0.241D+00 0.459D+00
 Coeff:     -0.876D-02 0.309D+00 0.241D+00 0.459D+00
 Gap=     0.151 Goal=   None    Shift=    0.000
 RMSDP=4.16D-09 MaxDP=1.50D-07 DE=-4.91D-11 OVMax= 6.88D-08

 SCF Done:  E(RB3LYP) =  -847.003738667     A.U. after    4 cycles
            NFock=  4  Conv=0.42D-08     -V/T= 2.0049
 KE= 8.428349970566D+02 PE=-5.164192584015D+03 EE= 1.874438221195D+03
 Leave Link  502 at Tue Sep 15 13:18:11 2020, MaxMem=   131072000 cpu:       816.7
 (Enter /share/programs/GAUSSIAN/64/g09/l801.exe)
 DoSCS=F DFT=T ScalE2(SS,OS)=  1.000000  1.000000
 Range of M.O.s used for correlation:     1   557
 NBasis=   568 NAE=    73 NBE=    73 NFC=     0 NFV=     0
 NROrb=    557 NOA=    73 NOB=    73 NVA=   484 NVB=   484

 **** Warning!!: The largest alpha MO coefficient is  0.14271939D+03

 Leave Link  801 at Tue Sep 15 13:18:11 2020, MaxMem=   131072000 cpu:         0.2
 (Enter /share/programs/GAUSSIAN/64/g09/l1002.exe)
 Minotr:  Closed shell wavefunction.
          Direct CPHF calculation.
          Differentiating once with respect to magnetic field using GIAOs.
          Electric field/nuclear overlap derivatives assumed to be zero.
          Requested convergence is 1.0D-08 RMS, and 1.0D-07 maximum.
          Secondary convergence is 1.0D-12 RMS, and 1.0D-12 maximum.
          NewPWx=T KeepS1=F KeepF1=F KeepIn=T MapXYZ=F SortEE=F KeepMc=T.
          MDV=     131069551 using IRadAn=       2.
 Generate precomputed XC quadrature information.
          Solving linear equations simultaneously, MaxMat=      72.
 FoFCou: FMM=F IPFlag=           0 FMFlag=      100000 FMFlg1=        2001
         NFxFlg=           0 DoJE=F BraDBF=F KetDBF=T FulRan=T
         wScrn=  0.000000 ICntrl=    6100 IOpCl=  0 I1Cent=           7 NGrid=         236
         NMat0=    1 NMatS0=      1 NMatT0=    0 NMatD0=    1 NMtDS0=    0 NMtDT0=    0
 Symmetry not used in FoFCou.
 FoFJK:  IHMeth= 1 ICntrl=    6127 DoSepK=F KAlg= 0 I1Cent=   0 FoldK=F
 IRaf=         1 NMat=   1 IRICut=       1 DoRegI=T DoRafI=F ISym2E= 0.
          There are     3 degrees of freedom in the 1st order CPHF.  IDoFFX=0 NUNeed=     3.
      3 vectors produced by pass  0 Test12= 1.18D-12 3.33D-08 XBig12= 1.96D+03 8.77D+00.
 AX will form     3 AO Fock derivatives at one time.
      3 vectors produced by pass  1 Test12= 1.18D-12 3.33D-08 XBig12= 3.18D+00 7.58D-01.
      3 vectors produced by pass  2 Test12= 1.18D-12 3.33D-08 XBig12= 1.86D-02 5.85D-02.
      3 vectors produced by pass  3 Test12= 1.18D-12 3.33D-08 XBig12= 4.29D-05 1.35D-03.
      3 vectors produced by pass  4 Test12= 1.18D-12 3.33D-08 XBig12= 9.75D-08 7.22D-05.
      3 vectors produced by pass  5 Test12= 1.18D-12 3.33D-08 XBig12= 3.97D-10 5.92D-06.
      3 vectors produced by pass  6 Test12= 1.18D-12 3.33D-08 XBig12= 1.51D-12 4.40D-07.
 InvSVY:  IOpt=1 It=  1 EMax= 7.11D-15
 Solved reduced A of dimension    21 with     3 vectors.
 Calculating GIAO nuclear magnetic shielding tensors.
 SCF GIAO Magnetic shielding tensor (ppm):
      1  C    Isotropic =    49.6861   Anisotropy =   149.7970
   XX=    46.3088   YX=   -25.0950   ZX=    31.4786
   XY=   -31.1109   YY=   -39.0339   ZY=    13.2621
   XZ=    24.9178   YZ=     8.9888   ZZ=   141.7833
   Eigenvalues:   -49.3507    48.8581   149.5507
      2  C    Isotropic =    49.6861   Anisotropy =   149.7971
   XX=    46.3088   YX=    25.0953   ZX=    31.4786
   XY=    31.1111   YY=   -39.0339   ZY=   -13.2621
   XZ=    24.9177   YZ=    -8.9889   ZZ=   141.7834
   Eigenvalues:   -49.3508    48.8583   149.5509
      3  C    Isotropic =    44.4899   Anisotropy =   204.7372
   XX=   -22.2199   YX=    10.8075   ZX=    51.2710
   XY=     4.9259   YY=   -14.7126   ZY=    14.7921
   XZ=    32.3655   YZ=    21.2392   ZZ=   170.4022
   Eigenvalues:   -31.9593   -15.5523   180.9814
      4  C    Isotropic =    44.4899   Anisotropy =   204.7373
   XX=   -22.2198   YX=   -10.8075   ZX=    51.2710
   XY=    -4.9256   YY=   -14.7126   ZY=   -14.7922
   XZ=    32.3656   YZ=   -21.2393   ZZ=   170.4023
   Eigenvalues:   -31.9592   -15.5524   180.9815
      5  C    Isotropic =    48.5420   Anisotropy =   189.5490
   XX=   -14.6790   YX=     4.7342   ZX=     8.4333
   XY=    20.3759   YY=    -5.5375   ZY=    31.5121
   XZ=    65.1218   YZ=     0.8640   ZZ=   165.8426
   Eigenvalues:   -26.3226    -2.9593   174.9080
      6  C    Isotropic =    48.5421   Anisotropy =   189.5489
   XX=   -14.6789   YX=    -4.7340   ZX=     8.4335
   XY=   -20.3758   YY=    -5.5374   ZY=   -31.5121
   XZ=    65.1218   YZ=    -0.8638   ZZ=   165.8426
   Eigenvalues:   -26.3224    -2.9594   174.9080
      7  C    Isotropic =    50.1907   Anisotropy =   149.2089
   XX=    19.7303   YX=   -44.2755   ZX=    41.2886
   XY=   -38.0437   YY=    -2.7069   ZY=    36.9011
   XZ=    36.5866   YZ=    37.5458   ZZ=   133.5487
   Eigenvalues:   -49.6656    50.5744   149.6633
      8  C    Isotropic =    48.9362   Anisotropy =   152.4339
   XX=   -31.5093   YX=   -11.4921   ZX=    54.7730
   XY=   -19.0468   YY=    46.5898   ZY=    27.5522
   XZ=    42.2451   YZ=    29.8391   ZZ=   131.7282
   Eigenvalues:   -50.1461    46.3960   150.5589
      9  C    Isotropic =    44.4204   Anisotropy =   209.3981
   XX=   -10.1987   YX=    16.7536   ZX=    44.4888
   XY=     8.9342   YY=    -7.7270   ZY=    61.4651
   XZ=    43.3269   YZ=    64.9792   ZZ=   151.1869
   Eigenvalues:   -30.3689   -20.3891   184.0192
     10  C    Isotropic =    45.3894   Anisotropy =   198.3236
   XX=    -5.9706   YX=    23.3819   ZX=    35.6519
   XY=    38.1954   YY=     1.7271   ZY=    73.1370
   XZ=    54.0013   YZ=    45.7045   ZZ=   140.4116
   Eigenvalues:   -33.5315    -7.9055   177.6051
     11  H    Isotropic =    23.8179   Anisotropy =     7.5674
   XX=    27.2191   YX=    -1.9090   ZX=    -2.2602
   XY=    -1.7961   YY=    24.8722   ZY=    -0.1966
   XZ=    -3.3763   YZ=    -0.1950   ZZ=    19.3625
   Eigenvalues:    18.3647    24.2263    28.8628
     12  H    Isotropic =    23.8179   Anisotropy =     7.5674
   XX=    27.2191   YX=     1.9090   ZX=    -2.2602
   XY=     1.7961   YY=    24.8722   ZY=     0.1966
   XZ=    -3.3763   YZ=     0.1950   ZZ=    19.3625
   Eigenvalues:    18.3647    24.2263    28.8628
     13  H    Isotropic =    23.8548   Anisotropy =     7.5124
   XX=    26.7195   YX=    -2.1358   ZX=    -2.0755
[...]
   132  Bq   0.000000
   133  Bq   0.000000
   134  Bq   0.000000
   135  Bq   0.000000
   136  Bq   0.000000
   137  Bq   0.000000
   138  Bq   0.000000
   139  Bq   0.000000
   140  Bq   0.000000
   141  Bq   0.000000
   142  Bq   0.000000
   143  Bq   0.000000
   144  Bq   0.000000
   145  Bq   0.000000
   146  Bq   0.000000
   147  Bq   0.000000
   148  Bq   0.000000
   149  Bq   0.000000
   150  Bq   0.000000
   151  Bq   0.000000
   152  Bq   0.000000
   153  Bq   0.000000
   154  Bq   0.000000
   155  Bq   0.000000
   156  Bq   0.000000
   157  Bq   0.000000
   158  Bq   0.000000
   159  Bq   0.000000
   160  Bq   0.000000
   161  Bq   0.000000
   162  Bq   0.000000
   163  Bq   0.000000
   164  Bq   0.000000
   165  Bq   0.000000
   166  Bq   0.000000
   167  Bq   0.000000
   168  Bq   0.000000
   169  Bq   0.000000
   170  Bq   0.000000
   171  Bq   0.000000
   172  Bq   0.000000
   173  Bq   0.000000
   174  Bq   0.000000
   175  Bq   0.000000
   176  Bq   0.000000
   177  Bq   0.000000
   178  Bq   0.000000
   179  Bq   0.000000
   180  Bq   0.000000
   181  Bq   0.000000
   182  Bq   0.000000
   183  Bq   0.000000
   184  Bq   0.000000
   185  Bq   0.000000
   186  Bq   0.000000
   187  Bq   0.000000
   188  Bq   0.000000
   189  Bq   0.000000
   190  Bq   0.000000
   191  Bq   0.000000
   192  Bq   0.000000
   193  Bq   0.000000
   194  Bq   0.000000
   195  Bq   0.000000
   196  Bq   0.000000
   197  Bq   0.000000
   198  Bq   0.000000
   199  Bq   0.000000
   200  Bq   0.000000
   201  Bq   0.000000
   202  Bq   0.000000
   203  Bq   0.000000
   204  Bq   0.000000
   205  Bq   0.000000
   206  Bq   0.000000
   207  Bq   0.000000
   208  Bq   0.000000
   209  Bq   0.000000
   210  Bq   0.000000
   211  Bq   0.000000
   212  Bq   0.000000
   213  Bq   0.000000
   214  Bq   0.000000
   215  Bq   0.000000
   216  Bq   0.000000
   217  Bq   0.000000
   218  Bq   0.000000
   219  Bq   0.000000
   220  Bq   0.000000
   221  Bq   0.000000
   222  Bq   0.000000
   223  Bq   0.000000
   224  Bq   0.000000
   225  Bq   0.000000
   226  Bq   0.000000
   227  Bq   0.000000
   228  Bq   0.000000
   229  Bq   0.000000
   230  Bq   0.000000
   231  Bq   0.000000
   232  Bq   0.000000
   233  Bq   0.000000
   234  Bq   0.000000
   235  Bq   0.000000
   236  Bq   0.000000
 Sum of Mulliken charges =   0.00000
 Mulliken charges with hydrogens summed into heavy atoms:
               1
     1  C   -0.262865
     2  C   -0.262866
     3  C    0.737923
     4  C    0.737922
     5  C   -0.039994
     6  C   -0.040001
     7  C    0.075155
     8  C   -0.330147
     9  C    0.780501
    10  C   -0.200782
    15  C    0.249272
    16  C   -0.533462
    17  C   -0.189404
    18  C   -0.286191
    23  C   -0.330145
    24  C    0.075154
    25  C    0.780496
    26  C   -0.200782
    27  C    0.249273
    28  C   -0.286192
    29  C   -0.189403
    30  C   -0.679961
    37  Bq   0.000000
    38  Bq   0.000000
    39  Bq   0.000000
    40  Bq   0.000000
    41  Bq   0.000000
    42  Bq   0.000000
    43  Bq   0.000000
    44  Bq   0.000000
    45  Bq   0.000000
    46  Bq   0.000000
    47  Bq   0.000000
    48  Bq   0.000000
    49  Bq   0.000000
    50  Bq   0.000000
    51  Bq   0.000000
    52  Bq   0.000000
    53  Bq   0.000000
    54  Bq   0.000000
    55  Bq   0.000000
    56  Bq   0.000000
    57  Bq   0.000000
    58  Bq   0.000000
    59  Bq   0.000000
    60  Bq   0.000000
    61  Bq   0.000000
    62  Bq   0.000000
    63  Bq   0.000000
    64  Bq   0.000000
    65  Bq   0.000000
    66  Bq   0.000000
    67  Bq   0.000000
    68  Bq   0.000000
    69  Bq   0.000000
    70  Bq   0.000000
    71  Bq   0.000000
    72  Bq   0.000000
    73  Bq   0.000000
    74  Bq   0.000000
    75  Bq   0.000000
    76  Bq   0.000000
    77  Bq   0.000000
    78  Bq   0.000000
    79  Bq   0.000000
    80  Bq   0.000000
    81  Bq   0.000000
    82  Bq   0.000000
    83  Bq   0.000000
    84  Bq   0.000000
    85  Bq   0.000000
    86  Bq   0.000000
    87  Bq   0.000000
    88  Bq   0.000000
    89  Bq   0.000000
    90  Bq   0.000000
    91  Bq   0.000000
    92  Bq   0.000000
    93  Bq   0.000000
    94  Bq   0.000000
    95  Bq   0.000000
    96  Bq   0.000000
    97  Bq   0.000000
    98  Bq   0.000000
    99  Bq   0.000000
   100  Bq   0.000000
   101  Bq   0.000000
   102  Bq   0.000000
   103  Bq   0.000000
   104  Bq   0.000000
   105  Bq   0.000000
   106  Bq   0.000000
   107  Bq   0.000000
   108  Bq   0.000000
   109  Bq   0.000000
   110  Bq   0.000000
   111  Bq   0.000000
   112  Bq   0.000000
   113  Bq   0.000000
   114  Bq   0.000000
   115  Bq   0.000000
   116  Bq   0.000000
   117  Bq   0.000000
   118  Bq   0.000000
   119  Bq   0.000000
   120  Bq   0.000000
   121  Bq   0.000000
   122  Bq   0.000000
   123  Bq   0.000000
   124  Bq   0.000000
   125  Bq   0.000000
   126  Bq   0.000000
   127  Bq   0.000000
   128  Bq   0.146499
   129  Bq   0.000000
   130  Bq   0.000000
   131  Bq   0.000000
   132  Bq   0.000000
   133  Bq   0.000000
   134  Bq   0.000000
   135  Bq   0.000000
   136  Bq   0.000000
   137  Bq   0.000000
   138  Bq   0.000000
   139  Bq   0.000000
   140  Bq   0.000000
   141  Bq   0.000000
   142  Bq   0.000000
   143  Bq   0.000000
   144  Bq   0.000000
   145  Bq   0.000000
   146  Bq   0.000000
   147  Bq   0.000000
   148  Bq   0.000000
   149  Bq   0.000000
   150  Bq   0.000000
   151  Bq   0.000000
   152  Bq   0.000000
   153  Bq   0.000000
   154  Bq   0.000000
   155  Bq   0.000000
   156  Bq   0.000000
   157  Bq   0.000000
   158  Bq   0.000000
   159  Bq   0.000000
   160  Bq   0.000000
   161  Bq   0.000000
   162  Bq   0.000000
   163  Bq   0.000000
   164  Bq   0.000000
   165  Bq   0.000000
   166  Bq   0.000000
   167  Bq   0.000000
   168  Bq   0.000000
   169  Bq   0.000000
   170  Bq   0.000000
   171  Bq   0.000000
   172  Bq   0.000000
   173  Bq   0.000000
   174  Bq   0.000000
   175  Bq   0.000000
   176  Bq   0.000000
   177  Bq   0.000000
   178  Bq   0.000000
   179  Bq   0.000000
   180  Bq   0.000000
   181  Bq   0.000000
   182  Bq   0.000000
   183  Bq   0.000000
   184  Bq   0.000000
   185  Bq   0.000000
   186  Bq   0.000000
   187  Bq   0.000000
   188  Bq   0.000000
   189  Bq   0.000000
   190  Bq   0.000000
   191  Bq   0.000000
   192  Bq   0.000000
   193  Bq   0.000000
   194  Bq   0.000000
   195  Bq   0.000000
   196  Bq   0.000000
   197  Bq   0.000000
   198  Bq   0.000000
   199  Bq   0.000000
   200  Bq   0.000000
   201  Bq   0.000000
   202  Bq   0.000000
   203  Bq   0.000000
   204  Bq   0.000000
   205  Bq   0.000000
   206  Bq   0.000000
   207  Bq   0.000000
   208  Bq   0.000000
   209  Bq   0.000000
   210  Bq   0.000000
   211  Bq   0.000000
   212  Bq   0.000000
   213  Bq   0.000000
   214  Bq   0.000000
   215  Bq   0.000000
   216  Bq   0.000000
   217  Bq   0.000000
   218  Bq   0.000000
   219  Bq   0.000000
   220  Bq   0.000000
   221  Bq   0.000000
   222  Bq   0.000000
   223  Bq   0.000000
   224  Bq   0.000000
   225  Bq   0.000000
   226  Bq   0.000000
   227  Bq   0.000000
   228  Bq   0.000000
   229  Bq   0.000000
   230  Bq   0.000000
   231  Bq   0.000000
   232  Bq   0.000000
   233  Bq   0.000000
   234  Bq   0.000000
   235  Bq   0.000000
   236  Bq   0.000000
 Electronic spatial extent (au):  <R**2>=           5804.3227
 Charge=              0.0000 electrons
 Dipole moment (field-independent basis, Debye):
    X=              0.0000    Y=              0.0732    Z=              0.0000  Tot=              0.0732
 Quadrupole moment (field-independent basis, Debye-Ang):
   XX=           -113.9137   YY=           -113.9781   ZZ=           -133.4378
   XY=              0.0000   XZ=             -4.8717   YZ=              0.0000
 Traceless Quadrupole moment (field-independent basis, Debye-Ang):
   XX=              6.5295   YY=              6.4651   ZZ=            -12.9946
   XY=              0.0000   XZ=             -4.8717   YZ=              0.0000
 Octapole moment (field-independent basis, Debye-Ang**2):
  XXX=              0.0000  YYY=             11.7108  ZZZ=              0.0000  XYY=              0.0000
  XXY=             -6.4067  XXZ=              0.0000  XZZ=              0.0000  YZZ=             -7.8695
  YYZ=              0.0000  XYZ=            -16.2862
 Hexadecapole moment (field-independent basis, Debye-Ang**3):
 XXXX=          -4416.4021 YYYY=          -2784.9756 ZZZZ=           -481.5690 XXXY=              0.0001
 XXXZ=           -124.3517 YYYX=             -0.0003 YYYZ=              0.0001 ZZZX=             -4.4782
 ZZZY=              0.0001 XXYY=          -1189.3576 XXZZ=           -942.9016 YYZZ=           -589.4012
 XXYZ=              0.0000 YYXZ=              7.8297 ZZXY=             -0.0001
 N-N= 1.599915627097D+03 E-N=-5.164192587538D+03  KE= 8.428349970566D+02
 Leave Link  601 at Tue Sep 15 13:26:12 2020, MaxMem=   131072000 cpu:         0.7
 (Enter /share/programs/GAUSSIAN/64/g09/l9999.exe)
 1\1\GINC-PAHRY\SP\RB3LYP\6-311+G(d,p)\C22H14\AARTIGAS\15-Sep-2020\0\\#
 P rb3lyp/6-311+g** NMR Guess=Read geom=connectivity\\Title\\0,1\C,0,0.
 653241,3.257859,-0.20251\C,0,-0.653243,3.25786,0.20251\C,0,1.372495,2.
 032956,-0.320807\C,0,-1.372495,2.032956,0.320807\C,0,0.722474,0.795666
 ,-0.050388\C,0,-0.722474,0.795667,0.050387\C,0,2.760385,2.053927,-0.67
 4268\C,0,3.508866,0.913916,-0.671362\C,0,2.955226,-0.309622,-0.177479\
 C,0,1.574722,-0.361114,0.197094\H,0,1.183427,4.19574,-0.384599\H,0,-1.
 183429,4.19574,0.384599\H,0,3.206283,3.012423,-0.951392\H,0,4.560023,0
 .932956,-0.969333\C,0,3.78302,-1.443098,0.028309\C,0,1.137427,-1.50753
 3,0.912109\C,0,1.973691,-2.584349,1.138062\C,0,3.301853,-2.571588,0.66
 1177\H,0,4.825754,-1.39123,-0.295484\H,0,0.124652,-1.532788,1.308472\H
 ,0,1.603586,-3.445682,1.698977\H,0,3.952742,-3.433526,0.825134\C,0,-3.
 508866,0.913915,0.671362\C,0,-2.760386,2.053926,0.674268\C,0,-2.955226
 ,-0.309623,0.177479\C,0,-1.574722,-0.361114,-0.197094\C,0,-3.78302,-1.
 443099,-0.028309\C,0,-3.301852,-2.571589,-0.661177\C,0,-1.97369,-2.584
 349,-1.138061\C,0,-1.137426,-1.507534,-0.912109\H,0,-4.560022,0.932954
 ,0.969334\H,0,-3.206283,3.012421,0.951392\H,0,-4.825754,-1.391232,0.29
 5484\H,0,-3.952741,-3.433528,-0.825134\H,0,-1.603585,-3.445682,-1.6989
 76\H,0,-0.124652,-1.532788,-1.308471\Bq,0,-0.5843970869,-0.4914301226,
 0.5079098614\Bq,0,-0.56736,-0.4925467922,0.5079098614\Bq,0,-0.55032291
 31,-0.4914301226,0.5079098614\Bq,0,-0.5335773356,-0.4880992201,0.50790
 98614\Bq,0,-0.5174097887,-0.4826110774,0.5079098614\Bq,0,-0.772694954,
 -0.2044615482,0.4823908263\Bq,0,-0.791503868,-0.2326110774,0.482390826
 3\Bq,0,-0.8064776184,-0.2629748395,0.4823908263\Bq,0,-0.81736,-0.29503
 33019,0.4823908263\Bq,0,-0.8239648123,-0.3282379356,0.4823908263\Bq,0,
 -0.8261790451,-0.3620206,0.4823908263\Bq,0,-0.8239648123,-0.3958032644
 ,0.4823908263\Bq,0,-0.81736,-0.4290078981,0.4823908263\Bq,0,-0.8064776
 184,-0.4610663605,0.4823908263\Bq,0,-0.791503868,-0.4914301226,0.48239
 08263\Bq,0,-0.772694954,-0.5195796518,0.4823908263\Bq,0,-0.7503727019,
 -0.5450333019,0.4823908263\Bq,0,-0.7249190518,-0.567355554,0.482390826
 3\Bq,0,-0.6967695226,-0.586164468,0.4823908263\Bq,0,-0.6664057605,-0.6
 011382184,0.4823908263\Bq,0,-0.6343472981,-0.6120206,0.4823908263\Bq,0
 ,-0.6011426644,-0.6186254123,0.4823908263\Bq,0,-0.56736,-0.6208396451,
 0.4823908263\Bq,0,-0.5335773356,-0.6186254123,0.4823908263\Bq,0,-0.500
 3727019,-0.6120206,0.4823908263\Bq,0,-0.4683142395,-0.6011382184,0.482
 3908263\Bq,0,-0.4379504774,-0.586164468,0.4823908263\Bq,0,-0.837958050
 1,-0.6326186501,0.4403445325\Bq,0,-0.8003229131,-0.6656237793,0.440344
 5325\Bq,0,-0.7587017162,-0.693434174,0.4403445325\Bq,0,-0.7138066094,-
 0.7155739906,0.4403445325\Bq,0,-0.6664057605,-0.7316644106,0.440344532
 5\Bq,0,-0.6173102113,-0.7414301226,0.4403445325\Bq,0,-0.56736,-0.74470
 40324,0.4403445325\Bq,0,-0.5174097887,-0.7414301226,0.4403445325\Bq,0,
 -0.4683142395,-0.7316644106,0.4403445325\Bq,0,-0.4209133906,-0.7155739
 906,0.4403445325\Bq,0,-0.3760182838,-0.693434174,0.4403445325\Bq,0,-0.
 81736,-0.7950333019,0.3824904038\Bq,0,-0.7587017162,-0.8239603663,0.38
 24904038\Bq,0,-0.6967695226,-0.8449835131,0.3824904038\Bq,0,-0.6326230
 961,-0.8577430307,0.3824904038\Bq,0,-0.56736,-0.8620206,0.3824904038\B
 q,0,-0.5020969039,-0.8577430307,0.3824904038\Bq,0,-0.4379504774,-0.844
 9835131,0.3824904038\Bq,0,-0.3760182838,-0.8239603663,0.3824904038\Bq,
 0,-0.8717407145,-0.8892234624,0.3098183403\Bq,0,-0.8003229131,-0.92444
 28244,0.3098183403\Bq,0,-0.7249190518,-0.9500389863,0.3098183403\Bq,0,
 -0.6468193113,-0.9655739906,0.3098183403\Bq,0,-0.56736,-0.970782029,0.
 3098183403\Bq,0,-0.4879006887,-0.9655739906,0.3098183403\Bq,0,-0.40980
 09482,-0.9500389863,0.3098183403\Bq,0,-0.3343970869,-0.9244428244,0.30
 98183403\Bq,0,-0.8379580501,-1.0153020824,0.2235717812\Bq,0,-0.7503727
 019,-1.0450333019,0.2235717812\Bq,0,-0.6596559556,-1.0630779846,0.2235
 717812\Bq,0,-0.56736,-1.0691273812,0.2235717812\Bq,0,-0.4750640444,-1.
 0630779846,0.2235717812\Bq,0,-0.3843472981,-1.0450333019,0.2235717812\
 Bq,0,-0.2967619499,-1.0153020824,0.2235717812\Bq,0,-0.2138066094,-0.97
 43930357,0.2235717812\Bq,0,-0.8709631793,-1.0949835131,0.125226429\Bq,
 0,-0.772694954,-1.1283410808,0.125226429\Bq,0,-0.6709133906,-1.1485866
 925,0.125226429\Bq,0,-0.56736,-1.1553739403,0.125226429\Bq,0,-0.463806
 6094,-1.1485866925,0.125226429\Bq,0,-0.362025046,-1.1283410808,0.12522
 6429\Bq,0,-0.2637568207,-1.0949835131,0.125226429\Bq,0,-0.1706833299,-
 1.0490847469,0.125226429\Bq,0,-0.898773574,-1.1621237452,0.016465\Bq,0
 ,-0.791503868,-1.1985369037,0.016465\Bq,0,-0.6803989983,-1.2206370364,
 0.016465\Bq,0,-0.56736,-1.2280460038,0.016465\Bq,0,-0.4543210017,-1.22
 06370364,0.016465\Bq,0,-0.343216132,-1.1985369037,0.016465\Bq,0,-0.235
 946426,-1.1621237452,0.016465\Bq,0,-0.1343472981,-1.1120206,0.016465\B
 q,0,-0.0401571376,-1.0490847469,0.016465\Bq,0,-0.56736,-1.2859001325,-
 0.1008515676\Bq,0,-0.4467695226,-1.277996215,-0.1008515676\Bq,0,-0.328
 2423816,-1.2544197008,-0.1008515676\Bq,0,-0.2138066094,-1.2155739906,-
 0.1008515676\Bq,0,-0.1054202337,-1.1621237452,-0.1008515676\Bq,0,-0.00
 49377756,-1.0949835131,-0.1008515676\Bq,0,0.0859214824,-1.0153020824,-
 0.1008515676\Bq,0,-0.31736,-1.2950333019,-0.2247159549\Bq,0,-0.1977161
 894,-1.2544197008,-0.2247159549\Bq,0,-0.0843970869,-1.1985369037,-0.22
 47159549\Bq,0,0.0206583863,-1.1283410808,-0.2247159549\Bq,0,0.11565270
 19,-1.0450333019,-0.2247159549\Bq,0,-0.0716375693,-1.2206370364,-0.353
 0088078\Bq,0,0.0361933906,-1.1485866925,-0.3530088078\Bq,0,0.133697384
 6,-1.0630779846,-0.3530088078\Bq,0,0.2192060925,-0.9655739906,-0.35300
 88078\Bq,0,0.2912564364,-0.8577430307,-0.3530088078\Bq,0,0.2259933403,
 -0.970782029,-0.483535\Bq,0,0.2986654038,-0.8620206,-0.483535\Bq,0,0.3
 565195325,-0.7447040324,-0.483535\Bq,0,0.3985658263,-0.6208396451,-0.4
 83535\Bq,0,0.2912564364,-0.8577430307,-0.6140611922\Bq,0,0.348615615,-
 0.7414301226,-0.6140611922\Bq,0,0.3903021969,-0.6186254123,-0.61406119
 22\Bq,0,0.4156029131,-0.4914301226,-0.6140611922\Bq,0,0.3985658263,-0.
 3620206,-0.7423540451\Bq,0,0.3250391008,-0.7316644106,-0.7423540451\Bq
 ,0,0.3656527019,-0.6120206,-0.7423540451\Bq,0,0.3903021969,-0.48809922
 01,-0.7423540451\Bq,0,0.3565195325,-0.3620206,-0.8662184324\Bq,0,0.348
 615615,-0.2414301226,-0.8662184324\Bq,0,-1.0292997663,0.4380825452,-0.
 8662184324\Bq,0,-1.1297822244,0.3709423131,-0.8662184324\Bq,0,0.286193
 3906,-0.7155739906,-0.8662184324\Bq,0,0.3250391008,-0.6011382184,-0.86
 62184324\Bq,0,0.348615615,-0.4826110774,-0.8662184324\Bq,0,0.298665403
 8,-0.3620206,-0.983535\Bq,0,0.2912564364,-0.2489816017,-0.983535\Bq,0,
 0.2691563037,-0.137876732,-0.983535\Bq,0,0.2327431452,-0.030607026,-0.
 983535\Bq,0,0.18264,0.0709921019,-0.983535\Bq,0,-0.1343472981,0.387979
 4,-0.983535\Bq,0,-0.235946426,0.4380825452,-0.983535\Bq,0,-0.343216132
 ,0.4744957037,-0.983535\Bq,0,-0.4543210017,0.4965958364,-0.983535\Bq,0
 ,-0.56736,0.5040048038,-0.983535\Bq,0,-0.6803989983,0.4965958364,-0.98
 3535\Bq,0,-0.791503868,0.4744957037,-0.983535\Bq,0,-0.898773574,0.4380
 825452,-0.983535\Bq,0,-1.0003727019,0.3879794,-0.983535\Bq,0,-1.094562
 8624,0.3250435469,-0.983535\Bq,0,-1.1797324357,0.2503518357,-0.983535\
 Bq,0,0.2691563037,-0.586164468,-0.983535\Bq,0,0.2912564364,-0.47505959
 83,-0.983535\Bq,0,0.2259933403,-0.3620206,-1.092296429\Bq,0,0.21920609
 25,-0.2584672094,-1.092296429\Bq,0,0.1989604808,-0.156685646,-1.092296
 429\Bq,0,0.1656029131,-0.0584174207,-1.092296429\Bq,0,0.1197041469,0.0
 346560701,-1.092296429\Bq,0,0.0620495226,0.1209423131,-1.092296429\Bq,
 0,-0.0063744732,0.1989649268,-1.092296429\Bq,0,-0.0843970869,0.2673889
 226,-1.092296429\Bq,0,-0.1706833299,0.3250435469,-1.092296429\Bq,0,-0.
 2637568207,0.3709423131,-1.092296429\Bq,0,-0.362025046,0.4042998808,-1
 .092296429\Bq,0,-0.4638066094,0.4245454925,-1.092296429\Bq,0,-0.56736,
 0.4313327403,-1.092296429\Bq,0,-0.6709133906,0.4245454925,-1.092296429
 \Bq,0,-0.772694954,0.4042998808,-1.092296429\Bq,0,-0.8709631793,0.3709
 423131,-1.092296429\Bq,0,-0.9640366701,0.3250435469,-1.092296429\Bq,0,
 -1.0503229131,0.2673889226,-1.092296429\Bq,0,-1.1283455268,0.198964926
 8,-1.092296429\Bq,0,-1.1967695226,0.1209423131,-1.092296429\Bq,0,-1.25
 44241469,0.0346560701,-1.092296429\Bq,0,0.1989604808,-0.567355554,-1.0
 92296429\Bq,0,0.2192060925,-0.4655739906,-1.092296429\Bq,0,0.139746781
 2,-0.3620206,-1.1906417812\Bq,0,0.1336973846,-0.2697246444,-1.19064178
 12\Bq,0,0.1156527019,-0.1790078981,-1.1906417812\Bq,0,0.0859214824,-0.
 0914225499,-1.1906417812\Bq,0,0.0450124357,-0.0084672094,-1.1906417812
 \Bq,0,-0.0063744732,0.0684387346,-1.1906417812\Bq,0,-0.06736,0.1379794
 ,-1.1906417812\Bq,0,-0.1369006654,0.1989649268,-1.1906417812\Bq,0,-0.2
 138066094,0.2503518357,-1.1906417812\Bq,0,-0.2967619499,0.2912608824,-
 1.1906417812\Bq,0,-0.3843472981,0.3209921019,-1.1906417812\Bq,0,-0.475
 0640444,0.3390367846,-1.1906417812\Bq,0,-0.56736,0.3450861812,-1.19064
 17812\Bq,0,-0.6596559556,0.3390367846,-1.1906417812\Bq,0,-0.7503727019
 ,0.3209921019,-1.1906417812\Bq,0,-0.8379580501,0.2912608824,-1.1906417
 812\Bq,0,-0.9209133906,0.2503518357,-1.1906417812\Bq,0,-0.9978193346,0
 .1989649268,-1.1906417812\Bq,0,-1.06736,0.1379794,-1.1906417812\Bq,0,-
 1.1283455268,0.0684387346,-1.1906417812\Bq,0,-1.1797324357,-0.00846720
 94,-1.1906417812\Bq,0,-1.2206414824,-0.0914225499,-1.1906417812\Bq,0,-
 1.2503727019,-0.1790078981,-1.1906417812\Bq,0,-1.2684173846,-0.2697246
 444,-1.1906417812\Bq,0,-1.2744667812,-0.3620206,-1.1906417812\Bq,0,-1.
 2684173846,-0.4543165556,-1.1906417812\Bq,0,-1.2503727019,-0.545033301
 9,-1.1906417812\Bq,0,0.1156527019,-0.5450333019,-1.1906417812\Bq,0,0.1
 336973846,-0.4543165556,-1.1906417812\Bq,0,0.041401429,-0.3620206,-1.2
 768883403\Bq,0,0.0361933906,-0.2825612887,-1.2768883403\Bq,0,0.0206583
 863,-0.2044615482,-1.2768883403\Bq,0,-0.0049377756,-0.1290576869,-1.27
 68883403\Bq,0,-0.0401571376,-0.0576398855,-1.2768883403\Bq,0,-0.084397
 0869,0.0085698774,-1.2768883403\Bq,0,-0.1369006654,0.0684387346,-1.276
 8883403\Bq,0,-0.1967695226,0.1209423131,-1.2768883403\Bq,0,-0.26297928
 55,0.1651822624,-1.2768883403\Bq,0,-0.3343970869,0.2004016244,-1.27688
 83403\Bq,0,-0.4098009482,0.2259977863,-1.2768883403\Bq,0,-0.4879006887
 ,0.2415327906,-1.2768883403\Bq,0,-0.56736,0.246740829,-1.2768883403\Bq
 ,0,-0.6468193113,0.2415327906,-1.2768883403\Bq,0,-0.7249190518,0.22599
 77863,-1.2768883403\\Version=ES64L-G09RevD.01\HF=-847.0037387\RMSD=4.1
 63e-09\Dipole=0.0000004,0.0287843,0.0000009\Quadrupole=4.8545288,4.806
 6247,-9.6611535,-0.0000047,-3.6219991,-0.000002\PG=C01 [X(C22H14)]\\@


 TOWERING GENIUS DISDAINS A BEATEN PATH.  IT SEEKS 
 REGIONS HITHERTO UNEXPLORED.

                                -- ABRAHAM LINCOLN
 Job cpu time:       0 days  1 hours 16 minutes 21.7 seconds.
 File lengths (MBytes):  RWF=    184 Int=      0 D2E=      0 Chk=     21 Scr=      1
 Normal termination of Gaussian 09 at Tue Sep 15 13:26:13 2020.
