 Entering Gaussian System, Link 0=g09
 Input=input_batch_13800.com
 Output=input_batch_13800.log
 Initial command:
 /share/programs/GAUSSIAN/64/g09/l1.exe "/scratch/aartigas.39016/Gau-24366.inp" -scrdir="/scratch/aartigas.39016/"
 Entering Link 1 = /share/programs/GAUSSIAN/64/g09/l1.exe PID=     24367.
  
 Copyright (c) 1988,1990,1992,1993,1995,1998,2003,2009,2013,
            Gaussian, Inc.  All Rights Reserved.
  
 This is part of the Gaussian(R) 09 program.  It is based on
 the Gaussian(R) 03 system (copyright 2003, Gaussian, Inc.),
 the Gaussian(R) 98 system (copyright 1998, Gaussian, Inc.),
 the Gaussian(R) 94 system (copyright 1995, Gaussian, Inc.),
 the Gaussian 92(TM) system (copyright 1992, Gaussian, Inc.),
 the Gaussian 90(TM) system (copyright 1990, Gaussian, Inc.),
 the Gaussian 88(TM) system (copyright 1988, Gaussian, Inc.),
 the Gaussian 86(TM) system (copyright 1986, Carnegie Mellon
 University), and the Gaussian 82(TM) system (copyright 1983,
 Carnegie Mellon University). Gaussian is a federally registered
 trademark of Gaussian, Inc.
  
 This software contains proprietary and confidential information,
 including trade secrets, belonging to Gaussian, Inc.
  
 This software is provided under written license and may be
 used, copied, transmitted, or stored only in accord with that
 written license.
  
 The following legend is applicable only to US Government
 contracts under FAR:
  
                    RESTRICTED RIGHTS LEGEND
  
 Use, reproduction and disclosure by the US Government is
 subject to restrictions as set forth in subparagraphs (a)
 and (c) of the Commercial Computer Software - Restricted
 Rights clause in FAR 52.227-19.
  
 Gaussian, Inc.
 340 Quinnipiac St., Bldg. 40, Wallingford CT 06492
  
  
 ---------------------------------------------------------------
 Warning -- This program may not be used in any manner that
 competes with the business of Gaussian, Inc. or will provide
 assistance to any competitor of Gaussian, Inc.  The licensee
 of this program is prohibited from giving any competitor of
 Gaussian, Inc. access to this program.  By using this program,
 the user acknowledges that Gaussian, Inc. is engaged in the
 business of creating and licensing software in the field of
 computational chemistry and represents and warrants to the
 licensee that it is not a competitor of Gaussian, Inc. and that
 it will not use this program in any manner prohibited above.
 ---------------------------------------------------------------
  

 Cite this work as:
 Gaussian 09, Revision D.01,
 M. J. Frisch, G. W. Trucks, H. B. Schlegel, G. E. Scuseria, 
 M. A. Robb, J. R. Cheeseman, G. Scalmani, V. Barone, B. Mennucci, 
 G. A. Petersson, H. Nakatsuji, M. Caricato, X. Li, H. P. Hratchian, 
 A. F. Izmaylov, J. Bloino, G. Zheng, J. L. Sonnenberg, M. Hada, 
 M. Ehara, K. Toyota, R. Fukuda, J. Hasegawa, M. Ishida, T. Nakajima, 
 Y. Honda, O. Kitao, H. Nakai, T. Vreven, J. A. Montgomery, Jr., 
 J. E. Peralta, F. Ogliaro, M. Bearpark, J. J. Heyd, E. Brothers, 
 K. N. Kudin, V. N. Staroverov, T. Keith, R. Kobayashi, J. Normand, 
 K. Raghavachari, A. Rendell, J. C. Burant, S. S. Iyengar, J. Tomasi, 
 M. Cossi, N. Rega, J. M. Millam, M. Klene, J. E. Knox, J. B. Cross, 
 V. Bakken, C. Adamo, J. Jaramillo, R. Gomperts, R. E. Stratmann, 
 O. Yazyev, A. J. Austin, R. Cammi, C. Pomelli, J. W. Ochterski, 
 R. L. Martin, K. Morokuma, V. G. Zakrzewski, G. A. Voth, 
 P. Salvador, J. J. Dannenberg, S. Dapprich, A. D. Daniels, 
 O. Farkas, J. B. Foresman, J. V. Ortiz, J. Cioslowski, 
 and D. J. Fox, Gaussian, Inc., Wallingford CT, 2013.
 
 ******************************************
 Gaussian 09:  ES64L-G09RevD.01 24-Apr-2013
                15-Sep-2020 
 ******************************************
 %OldChk=/home/aartigas/chk/5_helicene_spe.chk
 %nproc=8
 Will use up to    8 processors via shared memory.
 %mem=1000MB
 Copying data from "/home/aartigas/chk/5_helicene_spe.chk" to current chk file "/scratch/aartigas.39016/Gau-24367.chk".
 ----------------------------------------------------
 #P rb3lyp/6-311+g** NMR Guess=Read geom=connectivity
 ----------------------------------------------------
 1/38=1,57=2/1;
 2/12=2,17=6,18=5,40=1/2;
 3/5=4,6=6,7=111,11=2,16=1,25=1,30=1,74=-5,116=1/1,2,8,3;
 4/5=1/1;
 5/5=2,38=6/2;
 8/6=1,10=90,11=11/1;
 10/13=100,45=16/2;
 6/7=2,8=2,9=2,10=2,28=1/1;
 99/9=1/99;
 Leave Link    1 at Tue Sep 15 12:07:44 2020, MaxMem=   131072000 cpu:         0.3
 (Enter /share/programs/GAUSSIAN/64/g09/l101.exe)
 -----
 Title
 -----
 Symbolic Z-matrix:
 Charge =  0 Multiplicity = 1
 C                     0.65324   3.25786  -0.20251 
 C                    -0.65324   3.25786   0.20251 
 C                     1.3725    2.03296  -0.32081 
 C                    -1.3725    2.03296   0.32081 
 C                     0.72247   0.79567  -0.05039 
 C                    -0.72247   0.79567   0.05039 
 C                     2.76039   2.05393  -0.67427 
 C                     3.50887   0.91392  -0.67136 
 C                     2.95523  -0.30962  -0.17748 
 C                     1.57472  -0.36111   0.19709 
 H                     1.18343   4.19574  -0.3846 
 H                    -1.18343   4.19574   0.3846 
 H                     3.20628   3.01242  -0.95139 
 H                     4.56002   0.93296  -0.96933 
 C                     3.78302  -1.4431    0.02831 
 C                     1.13743  -1.50753   0.91211 
 C                     1.97369  -2.58435   1.13806 
 C                     3.30185  -2.57159   0.66118 
 H                     4.82575  -1.39123  -0.29548 
 H                     0.12465  -1.53279   1.30847 
 H                     1.60359  -3.44568   1.69898 
 H                     3.95274  -3.43353   0.82513 
 C                    -3.50887   0.91392   0.67136 
 C                    -2.76039   2.05393   0.67427 
 C                    -2.95523  -0.30962   0.17748 
 C                    -1.57472  -0.36111  -0.19709 
 C                    -3.78302  -1.4431   -0.02831 
 C                    -3.30185  -2.57159  -0.66118 
 C                    -1.97369  -2.58435  -1.13806 
 C                    -1.13743  -1.50753  -0.91211 
 H                    -4.56002   0.93295   0.96933 
 H                    -3.20628   3.01242   0.95139 
 H                    -4.82575  -1.39123   0.29548 
 H                    -3.95274  -3.43353  -0.82513 
 H                    -1.60359  -3.44568  -1.69898 
 H                    -0.12465  -1.53279  -1.30847 
 Bq                   -3.54265   1.17052  -0.29456 
 Bq                   -3.57585   1.16392  -0.29456 
 Bq                   -3.60791   1.15303  -0.29456 
 Bq                   -3.63828   1.13806  -0.29456 
 Bq                   -3.66643   1.11925  -0.29456 
 Bq                   -3.69188   1.09693  -0.29456 
 Bq                   -3.7142    1.07147  -0.29456 
 Bq                   -3.73301   1.04332  -0.29456 
 Bq                   -3.74798   1.01296  -0.29456 
 Bq                   -3.75887   0.9809   -0.29456 
 Bq                   -3.76547   0.9477   -0.29456 
 Bq                   -3.76769   0.91392  -0.29456 
 Bq                   -3.76547   0.88013  -0.29456 
 Bq                   -3.75887   0.84693  -0.29456 
 Bq                   -3.74798   0.81487  -0.29456 
 Bq                   -3.73301   0.78451  -0.29456 
 Bq                   -3.7142    0.75636  -0.29456 
 Bq                   -3.69188   0.7309   -0.29456 
 Bq                   -3.66643   0.70858  -0.29456 
 Bq                   -3.63828   0.68977  -0.29456 
 Bq                   -3.60791   0.6748   -0.29456 
 Bq                   -3.57585   0.66392  -0.29456 
 Bq                   -3.54265   0.65731  -0.29456 
 Bq                   -3.50887   0.6551   -0.29456 
 Bq                   -3.47508   0.65731  -0.29456 
 Bq                   -3.44188   0.66392  -0.29456 
 Bq                   -3.40982   0.6748   -0.29456 
 Bq                   -3.37946   0.68977  -0.29456 
 Bq                   -3.35131   0.70858  -0.29456 
 Bq                   -3.32585   0.7309   -0.29456 
 Bq                   -3.30353   0.75636  -0.29456 
 Bq                   -3.28472   0.78451  -0.29456 
 Bq                   -3.26975   0.81487  -0.29456 
 Bq                   -3.25887   0.84693  -0.29456 
 Bq                   -3.25226   0.88013  -0.29456 
 Bq                   -3.37834   0.91392  -0.32008 
 Bq                   -3.37946   0.93095  -0.32008 
 Bq                   -3.38279   0.9477   -0.32008 
 Bq                   -3.38828   0.96387  -0.32008 
 Bq                   -3.39583   0.97918  -0.32008 
 Bq                   -3.40531   0.99337  -0.32008 
 Bq                   -3.41657   1.00621  -0.32008 
 Bq                   -3.42941   1.01747  -0.32008 
 Bq                   -3.4436    1.02695  -0.32008 
 Bq                   -3.45892   1.03451  -0.32008 
 Bq                   -3.47508   1.03999  -0.32008 
 Bq                   -3.49183   1.04332  -0.32008 
 Bq                   -3.50887   1.04444  -0.32008 
 Bq                   -3.5259    1.04332  -0.32008 
 Bq                   -3.54265   1.03999  -0.32008 
 Bq                   -3.55882   1.03451  -0.32008 
 Bq                   -3.57413   1.02695  -0.32008 
 Bq                   -3.58833   1.01747  -0.32008 
 Bq                   -3.60116   1.00621  -0.32008 
 Bq                   -3.61242   0.99337  -0.32008 
 Bq                   -3.6219    0.97918  -0.32008 
 Bq                   -3.62946   0.96387  -0.32008 
 Bq                   -3.63494   0.9477   -0.32008 
 Bq                   -3.63828   0.93095  -0.32008 
 Bq                   -3.63939   0.91392  -0.32008 
 Bq                   -3.63828   0.89688  -0.32008 
 Bq                   -3.63494   0.88013  -0.32008 
 Bq                   -3.62946   0.86396  -0.32008 
 Bq                   -3.6219    0.84865  -0.32008 
 Bq                   -3.61242   0.83446  -0.32008 
 Bq                   -3.60116   0.82162  -0.32008 
 Bq                   -3.58833   0.81036  -0.32008 
 Bq                   -3.57413   0.80088  -0.32008 
 Bq                   -3.55882   0.79332  -0.32008 
 Bq                   -3.54265   0.78784  -0.32008 
 Bq                   -3.5259    0.78451  -0.32008 
 Bq                   -3.50887   0.78339  -0.32008 
 Bq                   -3.49183   0.78451  -0.32008 
 Bq                   -3.47508   0.78784  -0.32008 
 Bq                   -3.45892   0.79332  -0.32008 
 Bq                   -3.4436    0.80088  -0.32008 
 Bq                   -3.42941   0.81036  -0.32008 
 Bq                   -3.41657   0.82162  -0.32008 
 Bq                   -3.40531   0.83446  -0.32008 
 Bq                   -3.39583   0.84865  -0.32008 
 Bq                   -3.38828   0.86396  -0.32008 
 Bq                   -3.38279   0.88013  -0.32008 
 Bq                   -3.37946   0.89688  -0.32008 
 Bq                   -2.76039   2.05393   1.67427 
 Bq                   -2.76039   2.05393   1.67427 
 Bq                   -2.76039   2.05393   1.67427 
 Bq                   -2.76039   2.05393   1.67427 
 Bq                   -2.76039   2.05393   1.67427 
 Bq                   -2.76039   2.05393   1.67427 
 Bq                   -2.76039   2.05393   1.67427 
 Bq                   -2.76039   2.05393   1.67427 
 Bq                   -2.76039   2.05393   1.67427 
 Bq                   -2.76039   2.05393   1.67427 
 Bq                   -2.76039   2.05393   1.67427 
 Bq                   -2.76039   2.05393   1.67427 
 Bq                   -2.76039   2.05393   1.67427 
 Bq                   -2.76039   2.05393   1.67427 
 Bq                   -2.76039   2.05393   1.67427 
 Bq                   -2.76039   2.05393   1.67427 
 Bq                   -2.76039   2.05393   1.67427 
 Bq                   -2.76039   2.05393   1.67427 
 Bq                   -2.76039   2.05393   1.67427 
 Bq                   -2.76039   2.05393   1.67427 
 Bq                   -2.76039   2.05393   1.67427 
 Bq                   -2.76039   2.05393   1.67427 
 Bq                   -2.76039   2.05393   1.67427 
 Bq                   -2.76039   2.05393   1.67427 
 Bq                   -2.76039   2.05393   1.67427 
 Bq                   -2.76039   2.05393   1.67427 
 Bq                   -2.76039   2.05393   1.67427 
 Bq                   -2.76039   2.05393   1.67427 
 Bq                   -2.76039   2.05393   1.67427 
 Bq                   -2.76039   2.05393   1.67427 
 Bq                   -2.76039   2.05393   1.67427 
 Bq                   -2.76039   2.05393   1.67427 
 Bq                   -2.76039   2.05393   1.67427 
 Bq                   -2.76039   2.05393   1.67427 
 Bq                   -2.76039   2.05393   1.67427 
 Bq                   -2.76039   2.05393   1.67427 
 Bq                   -2.76039   2.05393   1.67427 
 Bq                   -2.76039   2.05393   1.67427 
 Bq                   -2.76039   2.05393   1.67427 
 Bq                   -2.76039   2.05393   1.67427 
 Bq                   -2.76039   2.05393   1.67427 
 Bq                   -2.76039   2.05393   1.67427 
 Bq                   -2.76039   2.05393   1.67427 
 Bq                   -2.76039   2.05393   1.67427 
 Bq                   -2.76039   2.05393   1.67427 
 Bq                   -2.76039   2.05393   1.67427 
 Bq                   -2.76039   2.05393   1.67427 
 Bq                   -2.76039   2.05393   1.67427 
 Bq                   -2.62986   2.05393   1.66571 
 Bq                   -2.63098   2.07096   1.66571 
 Bq                   -2.63431   2.08771   1.66571 
 Bq                   -2.6398    2.10388   1.66571 
 Bq                   -2.64735   2.11919   1.66571 
 Bq                   -2.65683   2.13339   1.66571 
 Bq                   -2.66809   2.14622   1.66571 
 Bq                   -2.68093   2.15748   1.66571 
 Bq                   -2.69512   2.16696   1.66571 
 Bq                   -2.71044   2.17452   1.66571 
 Bq                   -2.7266    2.18      1.66571 
 Bq                   -2.74335   2.18334   1.66571 
 Bq                   -2.76039   2.18445   1.66571 
 Bq                   -2.77742   2.18334   1.66571 
 Bq                   -2.79417   2.18      1.66571 
 Bq                   -2.81034   2.17452   1.66571 
 Bq                   -2.82565   2.16696   1.66571 
 Bq                   -2.83985   2.15748   1.66571 
 Bq                   -2.85268   2.14622   1.66571 
 Bq                   -2.86394   2.13339   1.66571 
 Bq                   -2.87342   2.11919   1.66571 
 Bq                   -2.88098   2.10388   1.66571 
 Bq                   -2.88646   2.08771   1.66571 
 Bq                   -2.8898    2.07096   1.66571 
 Bq                   -2.89091   2.05393   1.66571 
 Bq                   -2.8898    2.03689   1.66571 
 Bq                   -2.88646   2.02014   1.66571 
 Bq                   -2.88098   2.00398   1.66571 
 Bq                   -2.87342   1.98866   1.66571 
 Bq                   -2.86394   1.97447   1.66571 
 Bq                   -2.85268   1.96163   1.66571 
 Bq                   -2.83985   1.95037   1.66571 
 Bq                   -2.82565   1.94089   1.66571 
 Bq                   -2.81034   1.93334   1.66571 
 Bq                   -2.79417   1.92785   1.66571 
 Bq                   -2.77742   1.92452   1.66571 
 Bq                   -2.76039   1.9234    1.66571 
 Bq                   -2.74335   1.92452   1.66571 
 Bq                   -2.7266    1.92785   1.66571 
 Bq                   -2.71044   1.93334   1.66571 
 Bq                   -2.69512   1.94089   1.66571 
 Bq                   -2.68093   1.95037   1.66571 
 Bq                   -2.66809   1.96163   1.66571 
 Bq                   -2.65683   1.97447   1.66571 
 Bq                   -2.64735   1.98866   1.66571 
 Bq                   -2.6398    2.00398   1.66571 
 Bq                   -2.63431   2.02014   1.66571 
 Bq                   -2.63098   2.03689   1.66571 
 Bq                   -2.50157   2.05393   1.64019 
 Bq                   -2.50378   2.08771   1.64019 
 Bq                   -2.51039   2.12091   1.64019 
 Bq                   -2.52127   2.15297   1.64019 
 Bq                   -2.53624   2.18334   1.64019 
 Bq                   -2.55505   2.21149   1.64019 
 Bq                   -2.57737   2.23694   1.64019 
 Bq                   -2.60283   2.25926   1.64019 
 Bq                   -2.63098   2.27807   1.64019 
 Bq                   -2.66134   2.29304   1.64019 
 Bq                   -2.6934    2.30393   1.64019 
 Bq                   -2.7266    2.31053   1.64019 
 Bq                   -2.76039   2.31275   1.64019 
 Bq                   -2.79417   2.31053   1.64019 
 Bq                   -2.82737   2.30393   1.64019 
 Bq                   -2.85943   2.29304   1.64019 
 Bq                   -2.8898    2.27807   1.64019 
 Bq                   -2.91795   2.25926   1.64019 
 Bq                   -2.9434    2.23694   1.64019 
 Bq                   -2.96572   2.21149   1.64019 
 Bq                   -2.98453   2.18334   1.64019 
 
 NAtoms=    236 NQM=      236 NQMF=       0 NMMI=      0 NMMIF=      0
                NMic=       0 NMicF=      0.
                    Isotopes and Nuclear Properties:
 (Nuclear quadrupole moments (NQMom) in fm**2, nuclear magnetic moments (NMagM)
  in nuclear magnetons)

  Atom         1           2           3           4           5           6           7           8           9          10
 IAtWgt=          12          12          12          12          12          12          12          12          12          12
 AtmWgt=  12.0000000  12.0000000  12.0000000  12.0000000  12.0000000  12.0000000  12.0000000  12.0000000  12.0000000  12.0000000
 NucSpn=           0           0           0           0           0           0           0           0           0           0
 AtZEff=   0.0000000   0.0000000   0.0000000   0.0000000   0.0000000   0.0000000   0.0000000   0.0000000   0.0000000   0.0000000
 NQMom=    0.0000000   0.0000000   0.0000000   0.0000000   0.0000000   0.0000000   0.0000000   0.0000000   0.0000000   0.0000000
 NMagM=    0.0000000   0.0000000   0.0000000   0.0000000   0.0000000   0.0000000   0.0000000   0.0000000   0.0000000   0.0000000
 AtZNuc=   6.0000000   6.0000000   6.0000000   6.0000000   6.0000000   6.0000000   6.0000000   6.0000000   6.0000000   6.0000000

  Atom        11          12          13          14          15          16          17          18          19          20
 IAtWgt=           1           1           1           1          12          12          12          12           1           1
 AtmWgt=   1.0078250   1.0078250   1.0078250   1.0078250  12.0000000  12.0000000  12.0000000  12.0000000   1.0078250   1.0078250
 NucSpn=           1           1           1           1           0           0           0           0           1           1
 AtZEff=   0.0000000   0.0000000   0.0000000   0.0000000   0.0000000   0.0000000   0.0000000   0.0000000   0.0000000   0.0000000
 NQMom=    0.0000000   0.0000000   0.0000000   0.0000000   0.0000000   0.0000000   0.0000000   0.0000000   0.0000000   0.0000000
 NMagM=    2.7928460   2.7928460   2.7928460   2.7928460   0.0000000   0.0000000   0.0000000   0.0000000   2.7928460   2.7928460
 AtZNuc=   1.0000000   1.0000000   1.0000000   1.0000000   6.0000000   6.0000000   6.0000000   6.0000000   1.0000000   1.0000000

  Atom        21          22          23          24          25          26          27          28          29          30
 IAtWgt=           1           1          12          12          12          12          12          12          12          12
 AtmWgt=   1.0078250   1.0078250  12.0000000  12.0000000  12.0000000  12.0000000  12.0000000  12.0000000  12.0000000  12.0000000
 NucSpn=           1           1           0           0           0           0           0           0           0           0
 AtZEff=   0.0000000   0.0000000   0.0000000   0.0000000   0.0000000   0.0000000   0.0000000   0.0000000   0.0000000   0.0000000
 NQMom=    0.0000000   0.0000000   0.0000000   0.0000000   0.0000000   0.0000000   0.0000000   0.0000000   0.0000000   0.0000000
 NMagM=    2.7928460   2.7928460   0.0000000   0.0000000   0.0000000   0.0000000   0.0000000   0.0000000   0.0000000   0.0000000
 AtZNuc=   1.0000000   1.0000000   6.0000000   6.0000000   6.0000000   6.0000000   6.0000000   6.0000000   6.0000000   6.0000000

  Atom        31          32          33          34          35          36          37          38          39          40
 IAtWgt=           1           1           1           1           1           1           0           0           0           0
 AtmWgt=   1.0078250   1.0078250   1.0078250   1.0078250   1.0078250   1.0078250   0.0000000   0.0000000   0.0000000   0.0000000
 NucSpn=           1           1           1           1           1           1           0           0           0           0
 AtZEff=   0.0000000   0.0000000   0.0000000   0.0000000   0.0000000   0.0000000   0.0000000   0.0000000   0.0000000   0.0000000
 NQMom=    0.0000000   0.0000000   0.0000000   0.0000000   0.0000000   0.0000000   0.0000000   0.0000000   0.0000000   0.0000000
 NMagM=    2.7928460   2.7928460   2.7928460   2.7928460   2.7928460   2.7928460   0.0000000   0.0000000   0.0000000   0.0000000
 AtZNuc=   1.0000000   1.0000000   1.0000000   1.0000000   1.0000000   1.0000000   0.0000000   0.0000000   0.0000000   0.0000000

  Atom        41          42          43          44          45          46          47          48          49          50
 IAtWgt=           0           0           0           0           0           0           0           0           0           0
 AtmWgt=   0.0000000   0.0000000   0.0000000   0.0000000   0.0000000   0.0000000   0.0000000   0.0000000   0.0000000   0.0000000
 NucSpn=           0           0           0           0           0           0           0           0           0           0
 AtZEff=   0.0000000   0.0000000   0.0000000   0.0000000   0.0000000   0.0000000   0.0000000   0.0000000   0.0000000   0.0000000
 NQMom=    0.0000000   0.0000000   0.0000000   0.0000000   0.0000000   0.0000000   0.0000000   0.0000000   0.0000000   0.0000000
 NMagM=    0.0000000   0.0000000   0.0000000   0.0000000   0.0000000   0.0000000   0.0000000   0.0000000   0.0000000   0.0000000
 AtZNuc=   0.0000000   0.0000000   0.0000000   0.0000000   0.0000000   0.0000000   0.0000000   0.0000000   0.0000000   0.0000000

  Atom        51          52          53          54          55          56          57          58          59          60
 IAtWgt=           0           0           0           0           0           0           0           0           0           0
 AtmWgt=   0.0000000   0.0000000   0.0000000   0.0000000   0.0000000   0.0000000   0.0000000   0.0000000   0.0000000   0.0000000
 NucSpn=           0           0           0           0           0           0           0           0           0           0
 AtZEff=   0.0000000   0.0000000   0.0000000   0.0000000   0.0000000   0.0000000   0.0000000   0.0000000   0.0000000   0.0000000
 NQMom=    0.0000000   0.0000000   0.0000000   0.0000000   0.0000000   0.0000000   0.0000000   0.0000000   0.0000000   0.0000000
 NMagM=    0.0000000   0.0000000   0.0000000   0.0000000   0.0000000   0.0000000   0.0000000   0.0000000   0.0000000   0.0000000
 AtZNuc=   0.0000000   0.0000000   0.0000000   0.0000000   0.0000000   0.0000000   0.0000000   0.0000000   0.0000000   0.0000000

  Atom        61          62          63          64          65          66          67          68          69          70
 IAtWgt=           0           0           0           0           0           0           0           0           0           0
 AtmWgt=   0.0000000   0.0000000   0.0000000   0.0000000   0.0000000   0.0000000   0.0000000   0.0000000   0.0000000   0.0000000
 NucSpn=           0           0           0           0           0           0           0           0           0           0
 AtZEff=   0.0000000   0.0000000   0.0000000   0.0000000   0.0000000   0.0000000   0.0000000   0.0000000   0.0000000   0.0000000
 NQMom=    0.0000000   0.0000000   0.0000000   0.0000000   0.0000000   0.0000000   0.0000000   0.0000000   0.0000000   0.0000000
 NMagM=    0.0000000   0.0000000   0.0000000   0.0000000   0.0000000   0.0000000   0.0000000   0.0000000   0.0000000   0.0000000
 AtZNuc=   0.0000000   0.0000000   0.0000000   0.0000000   0.0000000   0.0000000   0.0000000   0.0000000   0.0000000   0.0000000

  Atom        71          72          73          74          75          76          77          78          79          80
 IAtWgt=           0           0           0           0           0           0           0           0           0           0
 AtmWgt=   0.0000000   0.0000000   0.0000000   0.0000000   0.0000000   0.0000000   0.0000000   0.0000000   0.0000000   0.0000000
 NucSpn=           0           0           0           0           0           0           0           0           0           0
 AtZEff=   0.0000000   0.0000000   0.0000000   0.0000000   0.0000000   0.0000000   0.0000000   0.0000000   0.0000000   0.0000000
 NQMom=    0.0000000   0.0000000   0.0000000   0.0000000   0.0000000   0.0000000   0.0000000   0.0000000   0.0000000   0.0000000
 NMagM=    0.0000000   0.0000000   0.0000000   0.0000000   0.0000000   0.0000000   0.0000000   0.0000000   0.0000000   0.0000000
 AtZNuc=   0.0000000   0.0000000   0.0000000   0.0000000   0.0000000   0.0000000   0.0000000   0.0000000   0.0000000   0.0000000

  Atom        81          82          83          84          85          86          87          88          89          90
 IAtWgt=           0           0           0           0           0           0           0           0           0           0
 AtmWgt=   0.0000000   0.0000000   0.0000000   0.0000000   0.0000000   0.0000000   0.0000000   0.0000000   0.0000000   0.0000000
 NucSpn=           0           0           0           0           0           0           0           0           0           0
 AtZEff=   0.0000000   0.0000000   0.0000000   0.0000000   0.0000000   0.0000000   0.0000000   0.0000000   0.0000000   0.0000000
 NQMom=    0.0000000   0.0000000   0.0000000   0.0000000   0.0000000   0.0000000   0.0000000   0.0000000   0.0000000   0.0000000
 NMagM=    0.0000000   0.0000000   0.0000000   0.0000000   0.0000000   0.0000000   0.0000000   0.0000000   0.0000000   0.0000000
 AtZNuc=   0.0000000   0.0000000   0.0000000   0.0000000   0.0000000   0.0000000   0.0000000   0.0000000   0.0000000   0.0000000

  Atom        91          92          93          94          95          96          97          98          99         100
 IAtWgt=           0           0           0           0           0           0           0           0           0           0
 AtmWgt=   0.0000000   0.0000000   0.0000000   0.0000000   0.0000000   0.0000000   0.0000000   0.0000000   0.0000000   0.0000000
 NucSpn=           0           0           0           0           0           0           0           0           0           0
 AtZEff=   0.0000000   0.0000000   0.0000000   0.0000000   0.0000000   0.0000000   0.0000000   0.0000000   0.0000000   0.0000000
 NQMom=    0.0000000   0.0000000   0.0000000   0.0000000   0.0000000   0.0000000   0.0000000   0.0000000   0.0000000   0.0000000
 NMagM=    0.0000000   0.0000000   0.0000000   0.0000000   0.0000000   0.0000000   0.0000000   0.0000000   0.0000000   0.0000000
 AtZNuc=   0.0000000   0.0000000   0.0000000   0.0000000   0.0000000   0.0000000   0.0000000   0.0000000   0.0000000   0.0000000

  Atom       101         102         103         104         105         106         107         108         109         110
 IAtWgt=           0           0           0           0           0           0           0           0           0           0
 AtmWgt=   0.0000000   0.0000000   0.0000000   0.0000000   0.0000000   0.0000000   0.0000000   0.0000000   0.0000000   0.0000000
 NucSpn=           0           0           0           0           0           0           0           0           0           0
 AtZEff=   0.0000000   0.0000000   0.0000000   0.0000000   0.0000000   0.0000000   0.0000000   0.0000000   0.0000000   0.0000000
 NQMom=    0.0000000   0.0000000   0.0000000   0.0000000   0.0000000   0.0000000   0.0000000   0.0000000   0.0000000   0.0000000
 NMagM=    0.0000000   0.0000000   0.0000000   0.0000000   0.0000000   0.0000000   0.0000000   0.0000000   0.0000000   0.0000000
 AtZNuc=   0.0000000   0.0000000   0.0000000   0.0000000   0.0000000   0.0000000   0.0000000   0.0000000   0.0000000   0.0000000

  Atom       111         112         113         114         115         116         117         118         119         120
 IAtWgt=           0           0           0           0           0           0           0           0           0           0
 AtmWgt=   0.0000000   0.0000000   0.0000000   0.0000000   0.0000000   0.0000000   0.0000000   0.0000000   0.0000000   0.0000000
 NucSpn=           0           0           0           0           0           0           0           0           0           0
 AtZEff=   0.0000000   0.0000000   0.0000000   0.0000000   0.0000000   0.0000000   0.0000000   0.0000000   0.0000000   0.0000000
 NQMom=    0.0000000   0.0000000   0.0000000   0.0000000   0.0000000   0.0000000   0.0000000   0.0000000   0.0000000   0.0000000
 NMagM=    0.0000000   0.0000000   0.0000000   0.0000000   0.0000000   0.0000000   0.0000000   0.0000000   0.0000000   0.0000000
 AtZNuc=   0.0000000   0.0000000   0.0000000   0.0000000   0.0000000   0.0000000   0.0000000   0.0000000   0.0000000   0.0000000

  Atom       121         122         123         124         125         126         127         128         129         130
 IAtWgt=           0           0           0           0           0           0           0           0           0           0
 AtmWgt=   0.0000000   0.0000000   0.0000000   0.0000000   0.0000000   0.0000000   0.0000000   0.0000000   0.0000000   0.0000000
 NucSpn=           0           0           0           0           0           0           0           0           0           0
 AtZEff=   0.0000000   0.0000000   0.0000000   0.0000000   0.0000000   0.0000000   0.0000000   0.0000000   0.0000000   0.0000000
 NQMom=    0.0000000   0.0000000   0.0000000   0.0000000   0.0000000   0.0000000   0.0000000   0.0000000   0.0000000   0.0000000
 NMagM=    0.0000000   0.0000000   0.0000000   0.0000000   0.0000000   0.0000000   0.0000000   0.0000000   0.0000000   0.0000000
 AtZNuc=   0.0000000   0.0000000   0.0000000   0.0000000   0.0000000   0.0000000   0.0000000   0.0000000   0.0000000   0.0000000

  Atom       131         132         133         134         135         136         137         138         139         140
 IAtWgt=           0           0           0           0           0           0           0           0           0           0
 AtmWgt=   0.0000000   0.0000000   0.0000000   0.0000000   0.0000000   0.0000000   0.0000000   0.0000000   0.0000000   0.0000000
 NucSpn=           0           0           0           0           0           0           0           0           0           0
 AtZEff=   0.0000000   0.0000000   0.0000000   0.0000000   0.0000000   0.0000000   0.0000000   0.0000000   0.0000000   0.0000000
 NQMom=    0.0000000   0.0000000   0.0000000   0.0000000   0.0000000   0.0000000   0.0000000   0.0000000   0.0000000   0.0000000
 NMagM=    0.0000000   0.0000000   0.0000000   0.0000000   0.0000000   0.0000000   0.0000000   0.0000000   0.0000000   0.0000000
 AtZNuc=   0.0000000   0.0000000   0.0000000   0.0000000   0.0000000   0.0000000   0.0000000   0.0000000   0.0000000   0.0000000

  Atom       141         142         143         144         145         146         147         148         149         150
 IAtWgt=           0           0           0           0           0           0           0           0           0           0
 AtmWgt=   0.0000000   0.0000000   0.0000000   0.0000000   0.0000000   0.0000000   0.0000000   0.0000000   0.0000000   0.0000000
 NucSpn=           0           0           0           0           0           0           0           0           0           0
 AtZEff=   0.0000000   0.0000000   0.0000000   0.0000000   0.0000000   0.0000000   0.0000000   0.0000000   0.0000000   0.0000000
 NQMom=    0.0000000   0.0000000   0.0000000   0.0000000   0.0000000   0.0000000   0.0000000   0.0000000   0.0000000   0.0000000
 NMagM=    0.0000000   0.0000000   0.0000000   0.0000000   0.0000000   0.0000000   0.0000000   0.0000000   0.0000000   0.0000000
 AtZNuc=   0.0000000   0.0000000   0.0000000   0.0000000   0.0000000   0.0000000   0.0000000   0.0000000   0.0000000   0.0000000

  Atom       151         152         153         154         155         156         157         158         159         160
 IAtWgt=           0           0           0           0           0           0           0           0           0           0
 AtmWgt=   0.0000000   0.0000000   0.0000000   0.0000000   0.0000000   0.0000000   0.0000000   0.0000000   0.0000000   0.0000000
 NucSpn=           0           0           0           0           0           0           0           0           0           0
 AtZEff=   0.0000000   0.0000000   0.0000000   0.0000000   0.0000000   0.0000000   0.0000000   0.0000000   0.0000000   0.0000000
 NQMom=    0.0000000   0.0000000   0.0000000   0.0000000   0.0000000   0.0000000   0.0000000   0.0000000   0.0000000   0.0000000
 NMagM=    0.0000000   0.0000000   0.0000000   0.0000000   0.0000000   0.0000000   0.0000000   0.0000000   0.0000000   0.0000000
 AtZNuc=   0.0000000   0.0000000   0.0000000   0.0000000   0.0000000   0.0000000   0.0000000   0.0000000   0.0000000   0.0000000

  Atom       161         162         163         164         165         166         167         168         169         170
 IAtWgt=           0           0           0           0           0           0           0           0           0           0
 AtmWgt=   0.0000000   0.0000000   0.0000000   0.0000000   0.0000000   0.0000000   0.0000000   0.0000000   0.0000000   0.0000000
 NucSpn=           0           0           0           0           0           0           0           0           0           0
 AtZEff=   0.0000000   0.0000000   0.0000000   0.0000000   0.0000000   0.0000000   0.0000000   0.0000000   0.0000000   0.0000000
 NQMom=    0.0000000   0.0000000   0.0000000   0.0000000   0.0000000   0.0000000   0.0000000   0.0000000   0.0000000   0.0000000
 NMagM=    0.0000000   0.0000000   0.0000000   0.0000000   0.0000000   0.0000000   0.0000000   0.0000000   0.0000000   0.0000000
 AtZNuc=   0.0000000   0.0000000   0.0000000   0.0000000   0.0000000   0.0000000   0.0000000   0.0000000   0.0000000   0.0000000

  Atom       171         172         173         174         175         176         177         178         179         180
 IAtWgt=           0           0           0           0           0           0           0           0           0           0
 AtmWgt=   0.0000000   0.0000000   0.0000000   0.0000000   0.0000000   0.0000000   0.0000000   0.0000000   0.0000000   0.0000000
 NucSpn=           0           0           0           0           0           0           0           0           0           0
 AtZEff=   0.0000000   0.0000000   0.0000000   0.0000000   0.0000000   0.0000000   0.0000000   0.0000000   0.0000000   0.0000000
 NQMom=    0.0000000   0.0000000   0.0000000   0.0000000   0.0000000   0.0000000   0.0000000   0.0000000   0.0000000   0.0000000
 NMagM=    0.0000000   0.0000000   0.0000000   0.0000000   0.0000000   0.0000000   0.0000000   0.0000000   0.0000000   0.0000000
 AtZNuc=   0.0000000   0.0000000   0.0000000   0.0000000   0.0000000   0.0000000   0.0000000   0.0000000   0.0000000   0.0000000

  Atom       181         182         183         184         185         186         187         188         189         190
 IAtWgt=           0           0           0           0           0           0           0           0           0           0
 AtmWgt=   0.0000000   0.0000000   0.0000000   0.0000000   0.0000000   0.0000000   0.0000000   0.0000000   0.0000000   0.0000000
 NucSpn=           0           0           0           0           0           0           0           0           0           0
 AtZEff=   0.0000000   0.0000000   0.0000000   0.0000000   0.0000000   0.0000000   0.0000000   0.0000000   0.0000000   0.0000000
 NQMom=    0.0000000   0.0000000   0.0000000   0.0000000   0.0000000   0.0000000   0.0000000   0.0000000   0.0000000   0.0000000
 NMagM=    0.0000000   0.0000000   0.0000000   0.0000000   0.0000000   0.0000000   0.0000000   0.0000000   0.0000000   0.0000000
 AtZNuc=   0.0000000   0.0000000   0.0000000   0.0000000   0.0000000   0.0000000   0.0000000   0.0000000   0.0000000   0.0000000

  Atom       191         192         193         194         195         196         197         198         199         200
 IAtWgt=           0           0           0           0           0           0           0           0           0           0
 AtmWgt=   0.0000000   0.0000000   0.0000000   0.0000000   0.0000000   0.0000000   0.0000000   0.0000000   0.0000000   0.0000000
 NucSpn=           0           0           0           0           0           0           0           0           0           0
 AtZEff=   0.0000000   0.0000000   0.0000000   0.0000000   0.0000000   0.0000000   0.0000000   0.0000000   0.0000000   0.0000000
 NQMom=    0.0000000   0.0000000   0.0000000   0.0000000   0.0000000   0.0000000   0.0000000   0.0000000   0.0000000   0.0000000
 NMagM=    0.0000000   0.0000000   0.0000000   0.0000000   0.0000000   0.0000000   0.0000000   0.0000000   0.0000000   0.0000000
 AtZNuc=   0.0000000   0.0000000   0.0000000   0.0000000   0.0000000   0.0000000   0.0000000   0.0000000   0.0000000   0.0000000

  Atom       201         202         203         204         205         206         207         208         209         210
 IAtWgt=           0           0           0           0           0           0           0           0           0           0
 AtmWgt=   0.0000000   0.0000000   0.0000000   0.0000000   0.0000000   0.0000000   0.0000000   0.0000000   0.0000000   0.0000000
 NucSpn=           0           0           0           0           0           0           0           0           0           0
 AtZEff=   0.0000000   0.0000000   0.0000000   0.0000000   0.0000000   0.0000000   0.0000000   0.0000000   0.0000000   0.0000000
 NQMom=    0.0000000   0.0000000   0.0000000   0.0000000   0.0000000   0.0000000   0.0000000   0.0000000   0.0000000   0.0000000
 NMagM=    0.0000000   0.0000000   0.0000000   0.0000000   0.0000000   0.0000000   0.0000000   0.0000000   0.0000000   0.0000000
 AtZNuc=   0.0000000   0.0000000   0.0000000   0.0000000   0.0000000   0.0000000   0.0000000   0.0000000   0.0000000   0.0000000

  Atom       211         212         213         214         215         216         217         218         219         220
 IAtWgt=           0           0           0           0           0           0           0           0           0           0
 AtmWgt=   0.0000000   0.0000000   0.0000000   0.0000000   0.0000000   0.0000000   0.0000000   0.0000000   0.0000000   0.0000000
 NucSpn=           0           0           0           0           0           0           0           0           0           0
 AtZEff=   0.0000000   0.0000000   0.0000000   0.0000000   0.0000000   0.0000000   0.0000000   0.0000000   0.0000000   0.0000000
 NQMom=    0.0000000   0.0000000   0.0000000   0.0000000   0.0000000   0.0000000   0.0000000   0.0000000   0.0000000   0.0000000
 NMagM=    0.0000000   0.0000000   0.0000000   0.0000000   0.0000000   0.0000000   0.0000000   0.0000000   0.0000000   0.0000000
 AtZNuc=   0.0000000   0.0000000   0.0000000   0.0000000   0.0000000   0.0000000   0.0000000   0.0000000   0.0000000   0.0000000

  Atom       221         222         223         224         225         226         227         228         229         230
 IAtWgt=           0           0           0           0           0           0           0           0           0           0
 AtmWgt=   0.0000000   0.0000000   0.0000000   0.0000000   0.0000000   0.0000000   0.0000000   0.0000000   0.0000000   0.0000000
 NucSpn=           0           0           0           0           0           0           0           0           0           0
 AtZEff=   0.0000000   0.0000000   0.0000000   0.0000000   0.0000000   0.0000000   0.0000000   0.0000000   0.0000000   0.0000000
 NQMom=    0.0000000   0.0000000   0.0000000   0.0000000   0.0000000   0.0000000   0.0000000   0.0000000   0.0000000   0.0000000
 NMagM=    0.0000000   0.0000000   0.0000000   0.0000000   0.0000000   0.0000000   0.0000000   0.0000000   0.0000000   0.0000000
 AtZNuc=   0.0000000   0.0000000   0.0000000   0.0000000   0.0000000   0.0000000   0.0000000   0.0000000   0.0000000   0.0000000

  Atom       231         232         233         234         235         236
 IAtWgt=           0           0           0           0           0           0
 AtmWgt=   0.0000000   0.0000000   0.0000000   0.0000000   0.0000000   0.0000000
 NucSpn=           0           0           0           0           0           0
 AtZEff=   0.0000000   0.0000000   0.0000000   0.0000000   0.0000000   0.0000000
 NQMom=    0.0000000   0.0000000   0.0000000   0.0000000   0.0000000   0.0000000
 NMagM=    0.0000000   0.0000000   0.0000000   0.0000000   0.0000000   0.0000000
 AtZNuc=   0.0000000   0.0000000   0.0000000   0.0000000   0.0000000   0.0000000
 Leave Link  101 at Tue Sep 15 12:07:44 2020, MaxMem=   131072000 cpu:         2.9
 (Enter /share/programs/GAUSSIAN/64/g09/l202.exe)
 Symmetry turned off:
 Cannot cope with ghost atoms or with translation vectors.
 Stoichiometry    C22H14
 Framework group  C1[X(C22H14)]
 NUMDOF-- NAT=    36 NAtoms=   236
 Deg. of freedom     0
 Full point group                 C1      NOp   1
                          Input orientation:                          
 ---------------------------------------------------------------------
 Center     Atomic      Atomic             Coordinates (Angstroms)
 Number     Number       Type             X           Y           Z
 ---------------------------------------------------------------------
      1          6           0        0.653241    3.257859   -0.202510
      2          6           0       -0.653243    3.257860    0.202510
      3          6           0        1.372495    2.032956   -0.320807
      4          6           0       -1.372495    2.032956    0.320807
      5          6           0        0.722474    0.795666   -0.050388
      6          6           0       -0.722474    0.795667    0.050387
      7          6           0        2.760385    2.053927   -0.674268
      8          6           0        3.508866    0.913916   -0.671362
      9          6           0        2.955226   -0.309622   -0.177479
     10          6           0        1.574722   -0.361114    0.197094
     11          1           0        1.183427    4.195740   -0.384599
     12          1           0       -1.183429    4.195740    0.384599
     13          1           0        3.206283    3.012423   -0.951392
     14          1           0        4.560023    0.932956   -0.969333
     15          6           0        3.783020   -1.443098    0.028309
     16          6           0        1.137427   -1.507533    0.912109
     17          6           0        1.973691   -2.584349    1.138062
     18          6           0        3.301853   -2.571588    0.661177
     19          1           0        4.825754   -1.391230   -0.295484
     20          1           0        0.124652   -1.532788    1.308472
     21          1           0        1.603586   -3.445682    1.698977
     22          1           0        3.952742   -3.433526    0.825134
     23          6           0       -3.508866    0.913915    0.671362
     24          6           0       -2.760386    2.053926    0.674268
     25          6           0       -2.955226   -0.309623    0.177479
     26          6           0       -1.574722   -0.361114   -0.197094
     27          6           0       -3.783020   -1.443099   -0.028309
     28          6           0       -3.301852   -2.571589   -0.661177
     29          6           0       -1.973690   -2.584349   -1.138061
     30          6           0       -1.137426   -1.507534   -0.912109
     31          1           0       -4.560022    0.932954    0.969334
     32          1           0       -3.206283    3.012421    0.951392
     33          1           0       -4.825754   -1.391232    0.295484
     34          1           0       -3.952741   -3.433528   -0.825134
     35          1           0       -1.603585   -3.445682   -1.698976
     36          1           0       -0.124652   -1.532788   -1.308471
     37          0           0       -3.542649    1.170520   -0.294564
     38          0           0       -3.575853    1.163915   -0.294564
     39          0           0       -3.607912    1.153033   -0.294564
     40          0           0       -3.638276    1.138059   -0.294564
     41          0           0       -3.666425    1.119250   -0.294564
     42          0           0       -3.691879    1.096928   -0.294564
     43          0           0       -3.714201    1.071474   -0.294564
     44          0           0       -3.733010    1.043325   -0.294564
     45          0           0       -3.747984    1.012961   -0.294564
     46          0           0       -3.758866    0.980902   -0.294564
     47          0           0       -3.765471    0.947698   -0.294564
     48          0           0       -3.767685    0.913915   -0.294564
     49          0           0       -3.765471    0.880132   -0.294564
     50          0           0       -3.758866    0.846928   -0.294564
     51          0           0       -3.747984    0.814869   -0.294564
     52          0           0       -3.733010    0.784505   -0.294564
     53          0           0       -3.714201    0.756356   -0.294564
     54          0           0       -3.691879    0.730902   -0.294564
     55          0           0       -3.666425    0.708580   -0.294564
     56          0           0       -3.638276    0.689771   -0.294564
     57          0           0       -3.607912    0.674797   -0.294564
     58          0           0       -3.575853    0.663915   -0.294564
     59          0           0       -3.542649    0.657310   -0.294564
     60          0           0       -3.508866    0.655096   -0.294564
     61          0           0       -3.475083    0.657310   -0.294564
     62          0           0       -3.441879    0.663915   -0.294564
     63          0           0       -3.409820    0.674797   -0.294564
     64          0           0       -3.379456    0.689771   -0.294564
     65          0           0       -3.351307    0.708580   -0.294564
     66          0           0       -3.325853    0.730902   -0.294564
     67          0           0       -3.303531    0.756356   -0.294564
     68          0           0       -3.284722    0.784505   -0.294564
     69          0           0       -3.269748    0.814869   -0.294564
     70          0           0       -3.258866    0.846928   -0.294564
     71          0           0       -3.252261    0.880132   -0.294564
     72          0           0       -3.378340    0.913915   -0.320083
     73          0           0       -3.379456    0.930952   -0.320083
     74          0           0       -3.382787    0.947698   -0.320083
     75          0           0       -3.388276    0.963865   -0.320083
     76          0           0       -3.395827    0.979178   -0.320083
     77          0           0       -3.405313    0.993374   -0.320083
     78          0           0       -3.416570    1.006211   -0.320083
     79          0           0       -3.429407    1.017468   -0.320083
     80          0           0       -3.443603    1.026954   -0.320083
     81          0           0       -3.458916    1.034505   -0.320083
     82          0           0       -3.475083    1.039994   -0.320083
     83          0           0       -3.491829    1.043325   -0.320083
     84          0           0       -3.508866    1.044441   -0.320083
     85          0           0       -3.525903    1.043325   -0.320083
     86          0           0       -3.542649    1.039994   -0.320083
     87          0           0       -3.558816    1.034505   -0.320083
     88          0           0       -3.574129    1.026954   -0.320083
     89          0           0       -3.588325    1.017468   -0.320083
     90          0           0       -3.601162    1.006211   -0.320083
     91          0           0       -3.612419    0.993374   -0.320083
     92          0           0       -3.621905    0.979178   -0.320083
     93          0           0       -3.629456    0.963865   -0.320083
     94          0           0       -3.634945    0.947698   -0.320083
     95          0           0       -3.638276    0.930952   -0.320083
     96          0           0       -3.639392    0.913915   -0.320083
     97          0           0       -3.638276    0.896878   -0.320083
     98          0           0       -3.634945    0.880132   -0.320083
     99          0           0       -3.629456    0.863965   -0.320083
    100          0           0       -3.621905    0.848652   -0.320083
    101          0           0       -3.612419    0.834456   -0.320083
    102          0           0       -3.601162    0.821619   -0.320083
    103          0           0       -3.588325    0.810362   -0.320083
    104          0           0       -3.574129    0.800876   -0.320083
    105          0           0       -3.558816    0.793325   -0.320083
    106          0           0       -3.542649    0.787836   -0.320083
    107          0           0       -3.525903    0.784505   -0.320083
    108          0           0       -3.508866    0.783389   -0.320083
    109          0           0       -3.491829    0.784505   -0.320083
    110          0           0       -3.475083    0.787836   -0.320083
    111          0           0       -3.458916    0.793325   -0.320083
    112          0           0       -3.443603    0.800876   -0.320083
    113          0           0       -3.429407    0.810362   -0.320083
    114          0           0       -3.416570    0.821619   -0.320083
    115          0           0       -3.405313    0.834456   -0.320083
    116          0           0       -3.395827    0.848652   -0.320083
    117          0           0       -3.388276    0.863965   -0.320083
    118          0           0       -3.382787    0.880132   -0.320083
    119          0           0       -3.379456    0.896878   -0.320083
    120          0           0       -2.760386    2.053926    1.674268
    121          0           0       -2.760386    2.053926    1.674268
    122          0           0       -2.760386    2.053926    1.674268
    123          0           0       -2.760386    2.053926    1.674268
    124          0           0       -2.760386    2.053926    1.674268
    125          0           0       -2.760386    2.053926    1.674268
    126          0           0       -2.760386    2.053926    1.674268
    127          0           0       -2.760386    2.053926    1.674268
    128          0           0       -2.760386    2.053926    1.674268
    129          0           0       -2.760386    2.053926    1.674268
    130          0           0       -2.760386    2.053926    1.674268
    131          0           0       -2.760386    2.053926    1.674268
    132          0           0       -2.760386    2.053926    1.674268
    133          0           0       -2.760386    2.053926    1.674268
    134          0           0       -2.760386    2.053926    1.674268
    135          0           0       -2.760386    2.053926    1.674268
    136          0           0       -2.760386    2.053926    1.674268
    137          0           0       -2.760386    2.053926    1.674268
    138          0           0       -2.760386    2.053926    1.674268
    139          0           0       -2.760386    2.053926    1.674268
    140          0           0       -2.760386    2.053926    1.674268
    141          0           0       -2.760386    2.053926    1.674268
    142          0           0       -2.760386    2.053926    1.674268
    143          0           0       -2.760386    2.053926    1.674268
    144          0           0       -2.760386    2.053926    1.674268
    145          0           0       -2.760386    2.053926    1.674268
    146          0           0       -2.760386    2.053926    1.674268
    147          0           0       -2.760386    2.053926    1.674268
    148          0           0       -2.760386    2.053926    1.674268
    149          0           0       -2.760386    2.053926    1.674268
    150          0           0       -2.760386    2.053926    1.674268
    151          0           0       -2.760386    2.053926    1.674268
    152          0           0       -2.760386    2.053926    1.674268
    153          0           0       -2.760386    2.053926    1.674268
    154          0           0       -2.760386    2.053926    1.674268
    155          0           0       -2.760386    2.053926    1.674268
    156          0           0       -2.760386    2.053926    1.674268
    157          0           0       -2.760386    2.053926    1.674268
    158          0           0       -2.760386    2.053926    1.674268
    159          0           0       -2.760386    2.053926    1.674268
    160          0           0       -2.760386    2.053926    1.674268
    161          0           0       -2.760386    2.053926    1.674268
    162          0           0       -2.760386    2.053926    1.674268
    163          0           0       -2.760386    2.053926    1.674268
    164          0           0       -2.760386    2.053926    1.674268
    165          0           0       -2.760386    2.053926    1.674268
    166          0           0       -2.760386    2.053926    1.674268
    167          0           0       -2.760386    2.053926    1.674268
    168          0           0       -2.629860    2.053926    1.665713
    169          0           0       -2.630976    2.070963    1.665713
    170          0           0       -2.634307    2.087709    1.665713
    171          0           0       -2.639796    2.103876    1.665713
    172          0           0       -2.647347    2.119189    1.665713
    173          0           0       -2.656833    2.133385    1.665713
    174          0           0       -2.668090    2.146222    1.665713
    175          0           0       -2.680927    2.157479    1.665713
    176          0           0       -2.695123    2.166965    1.665713
    177          0           0       -2.710436    2.174516    1.665713
    178          0           0       -2.726603    2.180005    1.665713
    179          0           0       -2.743349    2.183336    1.665713
    180          0           0       -2.760386    2.184452    1.665713
    181          0           0       -2.777423    2.183336    1.665713
    182          0           0       -2.794169    2.180005    1.665713
    183          0           0       -2.810336    2.174516    1.665713
    184          0           0       -2.825649    2.166965    1.665713
    185          0           0       -2.839845    2.157479    1.665713
    186          0           0       -2.852682    2.146222    1.665713
    187          0           0       -2.863939    2.133385    1.665713
    188          0           0       -2.873425    2.119189    1.665713
    189          0           0       -2.880976    2.103876    1.665713
    190          0           0       -2.886465    2.087709    1.665713
    191          0           0       -2.889796    2.070963    1.665713
    192          0           0       -2.890912    2.053926    1.665713
    193          0           0       -2.889796    2.036889    1.665713
    194          0           0       -2.886465    2.020143    1.665713
    195          0           0       -2.880976    2.003976    1.665713
    196          0           0       -2.873425    1.988663    1.665713
    197          0           0       -2.863939    1.974467    1.665713
    198          0           0       -2.852682    1.961630    1.665713
    199          0           0       -2.839845    1.950373    1.665713
    200          0           0       -2.825649    1.940887    1.665713
    201          0           0       -2.810336    1.933336    1.665713
    202          0           0       -2.794169    1.927847    1.665713
    203          0           0       -2.777423    1.924516    1.665713
    204          0           0       -2.760386    1.923400    1.665713
    205          0           0       -2.743349    1.924516    1.665713
    206          0           0       -2.726603    1.927847    1.665713
    207          0           0       -2.710436    1.933336    1.665713
    208          0           0       -2.695123    1.940887    1.665713
    209          0           0       -2.680927    1.950373    1.665713
    210          0           0       -2.668090    1.961630    1.665713
    211          0           0       -2.656833    1.974467    1.665713
    212          0           0       -2.647347    1.988663    1.665713
    213          0           0       -2.639796    2.003976    1.665713
    214          0           0       -2.634307    2.020143    1.665713
    215          0           0       -2.630976    2.036889    1.665713
    216          0           0       -2.501567    2.053926    1.640194
    217          0           0       -2.503781    2.087709    1.640194
    218          0           0       -2.510386    2.120913    1.640194
    219          0           0       -2.521268    2.152972    1.640194
    220          0           0       -2.536242    2.183336    1.640194
    221          0           0       -2.555051    2.211485    1.640194
    222          0           0       -2.577373    2.236939    1.640194
    223          0           0       -2.602827    2.259261    1.640194
    224          0           0       -2.630976    2.278070    1.640194
    225          0           0       -2.661340    2.293044    1.640194
    226          0           0       -2.693399    2.303926    1.640194
    227          0           0       -2.726603    2.310531    1.640194
    228          0           0       -2.760386    2.312745    1.640194
    229          0           0       -2.794169    2.310531    1.640194
    230          0           0       -2.827373    2.303926    1.640194
    231          0           0       -2.859432    2.293044    1.640194
    232          0           0       -2.889796    2.278070    1.640194
    233          0           0       -2.917945    2.259261    1.640194
    234          0           0       -2.943399    2.236939    1.640194
    235          0           0       -2.965721    2.211485    1.640194
    236          0           0       -2.984530    2.183336    1.640194
 ---------------------------------------------------------------------
 Rotational constants (GHZ):      0.4454681      0.2811480      0.1854303
 Leave Link  202 at Tue Sep 15 12:07:44 2020, MaxMem=   131072000 cpu:         0.0
 (Enter /share/programs/GAUSSIAN/64/g09/l301.exe)
 Standard basis: 6-311+G(d,p) (5D, 7F)
 Warning:  center  37 has no basis functions!
 Warning:  center  38 has no basis functions!
 Warning:  center  39 has no basis functions!
 Warning:  center  40 has no basis functions!
 Warning:  center  41 has no basis functions!
 Warning:  center  42 has no basis functions!
 Warning:  center  43 has no basis functions!
 Warning:  center  44 has no basis functions!
 Warning:  center  45 has no basis functions!
 Warning:  center  46 has no basis functions!
 Warning:  center  47 has no basis functions!
 Warning:  center  48 has no basis functions!
 Warning:  center  49 has no basis functions!
 Warning:  center  50 has no basis functions!
 Warning:  center  51 has no basis functions!
 Warning:  center  52 has no basis functions!
 Warning:  center  53 has no basis functions!
 Warning:  center  54 has no basis functions!
 Warning:  center  55 has no basis functions!
 Warning:  center  56 has no basis functions!
 Warning:  center  57 has no basis functions!
 Warning:  center  58 has no basis functions!
 Warning:  center  59 has no basis functions!
 Warning:  center  60 has no basis functions!
 Warning:  center  61 has no basis functions!
 Warning:  center  62 has no basis functions!
 Warning:  center  63 has no basis functions!
 Warning:  center  64 has no basis functions!
 Warning:  center  65 has no basis functions!
 Warning:  center  66 has no basis functions!
 Warning:  center  67 has no basis functions!
 Warning:  center  68 has no basis functions!
 Warning:  center  69 has no basis functions!
 Warning:  center  70 has no basis functions!
 Warning:  center  71 has no basis functions!
 Warning:  center  72 has no basis functions!
 Warning:  center  73 has no basis functions!
 Warning:  center  74 has no basis functions!
 Warning:  center  75 has no basis functions!
 Warning:  center  76 has no basis functions!
 Warning:  center  77 has no basis functions!
 Warning:  center  78 has no basis functions!
 Warning:  center  79 has no basis functions!
 Warning:  center  80 has no basis functions!
 Warning:  center  81 has no basis functions!
 Warning:  center  82 has no basis functions!
 Warning:  center  83 has no basis functions!
 Warning:  center  84 has no basis functions!
 Warning:  center  85 has no basis functions!
 Warning:  center  86 has no basis functions!
 Warning:  center  87 has no basis functions!
 Warning:  center  88 has no basis functions!
 Warning:  center  89 has no basis functions!
 Warning:  center  90 has no basis functions!
 Warning:  center  91 has no basis functions!
 Warning:  center  92 has no basis functions!
 Warning:  center  93 has no basis functions!
 Warning:  center  94 has no basis functions!
 Warning:  center  95 has no basis functions!
 Warning:  center  96 has no basis functions!
 Warning:  center  97 has no basis functions!
 Warning:  center  98 has no basis functions!
 Warning:  center  99 has no basis functions!
 Warning:  center 100 has no basis functions!
 Warning:  center 101 has no basis functions!
 Warning:  center 102 has no basis functions!
 Warning:  center 103 has no basis functions!
 Warning:  center 104 has no basis functions!
 Warning:  center 105 has no basis functions!
 Warning:  center 106 has no basis functions!
 Warning:  center 107 has no basis functions!
 Warning:  center 108 has no basis functions!
 Warning:  center 109 has no basis functions!
 Warning:  center 110 has no basis functions!
 Warning:  center 111 has no basis functions!
 Warning:  center 112 has no basis functions!
 Warning:  center 113 has no basis functions!
 Warning:  center 114 has no basis functions!
 Warning:  center 115 has no basis functions!
 Warning:  center 116 has no basis functions!
 Warning:  center 117 has no basis functions!
 Warning:  center 118 has no basis functions!
 Warning:  center 119 has no basis functions!
 Warning:  center 120 has no basis functions!
 Warning:  center 121 has no basis functions!
 Warning:  center 122 has no basis functions!
 Warning:  center 123 has no basis functions!
 Warning:  center 124 has no basis functions!
 Warning:  center 125 has no basis functions!
 Warning:  center 126 has no basis functions!
 Warning:  center 127 has no basis functions!
 Warning:  center 128 has no basis functions!
 Warning:  center 129 has no basis functions!
 Warning:  center 130 has no basis functions!
 Warning:  center 131 has no basis functions!
 Warning:  center 132 has no basis functions!
 Warning:  center 133 has no basis functions!
 Warning:  center 134 has no basis functions!
 Warning:  center 135 has no basis functions!
 Warning:  center 136 has no basis functions!
 Warning:  center 137 has no basis functions!
 Warning:  center 138 has no basis functions!
 Warning:  center 139 has no basis functions!
 Warning:  center 140 has no basis functions!
 Warning:  center 141 has no basis functions!
 Warning:  center 142 has no basis functions!
 Warning:  center 143 has no basis functions!
 Warning:  center 144 has no basis functions!
 Warning:  center 145 has no basis functions!
 Warning:  center 146 has no basis functions!
 Warning:  center 147 has no basis functions!
 Warning:  center 148 has no basis functions!
 Warning:  center 149 has no basis functions!
 Warning:  center 150 has no basis functions!
 Warning:  center 151 has no basis functions!
 Warning:  center 152 has no basis functions!
 Warning:  center 153 has no basis functions!
 Warning:  center 154 has no basis functions!
 Warning:  center 155 has no basis functions!
 Warning:  center 156 has no basis functions!
 Warning:  center 157 has no basis functions!
 Warning:  center 158 has no basis functions!
 Warning:  center 159 has no basis functions!
 Warning:  center 160 has no basis functions!
 Warning:  center 161 has no basis functions!
 Warning:  center 162 has no basis functions!
 Warning:  center 163 has no basis functions!
 Warning:  center 164 has no basis functions!
 Warning:  center 165 has no basis functions!
 Warning:  center 166 has no basis functions!
 Warning:  center 167 has no basis functions!
 Warning:  center 168 has no basis functions!
 Warning:  center 169 has no basis functions!
 Warning:  center 170 has no basis functions!
 Warning:  center 171 has no basis functions!
 Warning:  center 172 has no basis functions!
 Warning:  center 173 has no basis functions!
 Warning:  center 174 has no basis functions!
 Warning:  center 175 has no basis functions!
 Warning:  center 176 has no basis functions!
 Warning:  center 177 has no basis functions!
 Warning:  center 178 has no basis functions!
 Warning:  center 179 has no basis functions!
 Warning:  center 180 has no basis functions!
 Warning:  center 181 has no basis functions!
 Warning:  center 182 has no basis functions!
 Warning:  center 183 has no basis functions!
 Warning:  center 184 has no basis functions!
 Warning:  center 185 has no basis functions!
 Warning:  center 186 has no basis functions!
 Warning:  center 187 has no basis functions!
 Warning:  center 188 has no basis functions!
 Warning:  center 189 has no basis functions!
 Warning:  center 190 has no basis functions!
 Warning:  center 191 has no basis functions!
 Warning:  center 192 has no basis functions!
 Warning:  center 193 has no basis functions!
 Warning:  center 194 has no basis functions!
 Warning:  center 195 has no basis functions!
 Warning:  center 196 has no basis functions!
 Warning:  center 197 has no basis functions!
 Warning:  center 198 has no basis functions!
 Warning:  center 199 has no basis functions!
 Warning:  center 200 has no basis functions!
 Warning:  center 201 has no basis functions!
 Warning:  center 202 has no basis functions!
 Warning:  center 203 has no basis functions!
 Warning:  center 204 has no basis functions!
 Warning:  center 205 has no basis functions!
 Warning:  center 206 has no basis functions!
 Warning:  center 207 has no basis functions!
 Warning:  center 208 has no basis functions!
 Warning:  center 209 has no basis functions!
 Warning:  center 210 has no basis functions!
 Warning:  center 211 has no basis functions!
 Warning:  center 212 has no basis functions!
 Warning:  center 213 has no basis functions!
 Warning:  center 214 has no basis functions!
 Warning:  center 215 has no basis functions!
 Warning:  center 216 has no basis functions!
 Warning:  center 217 has no basis functions!
 Warning:  center 218 has no basis functions!
 Warning:  center 219 has no basis functions!
 Warning:  center 220 has no basis functions!
 Warning:  center 221 has no basis functions!
 Warning:  center 222 has no basis functions!
 Warning:  center 223 has no basis functions!
 Warning:  center 224 has no basis functions!
 Warning:  center 225 has no basis functions!
 Warning:  center 226 has no basis functions!
 Warning:  center 227 has no basis functions!
 Warning:  center 228 has no basis functions!
 Warning:  center 229 has no basis functions!
 Warning:  center 230 has no basis functions!
 Warning:  center 231 has no basis functions!
 Warning:  center 232 has no basis functions!
 Warning:  center 233 has no basis functions!
 Warning:  center 234 has no basis functions!
 Warning:  center 235 has no basis functions!
 Warning:  center 236 has no basis functions!
 Ernie: Thresh=  0.10000D-02 Tol=  0.10000D-05 Strict=F.
   568 basis functions,   904 primitive gaussians,   590 cartesian basis functions
    73 alpha electrons       73 beta electrons
       nuclear repulsion energy      1599.9156270972 Hartrees.
 IExCor=  402 DFT=T Ex+Corr=B3LYP ExCW=0 ScaHFX=  0.200000
 ScaDFX=  0.800000  0.720000  1.000000  0.810000 ScalE2=  1.000000  1.000000
 IRadAn=      0 IRanWt=     -1 IRanGd=            0 ICorTp=0 IEmpDi=  4
 NAtoms=  236 NActive=  236 NUniq=  236 SFac= 1.00D+00 NAtFMM=   60 NAOKFM=T Big=T
 Integral buffers will be    131072 words long.
 Raffenetti 2 integral format.
 Two-electron integral symmetry is turned off.
 Leave Link  301 at Tue Sep 15 12:07:44 2020, MaxMem=   131072000 cpu:         0.4
 (Enter /share/programs/GAUSSIAN/64/g09/l302.exe)
 NPDir=0 NMtPBC=     1 NCelOv=     1 NCel=       1 NClECP=     1 NCelD=      1
         NCelK=      1 NCelE2=     1 NClLst=     1 CellRange=     0.0.
 One-electron integrals computed using PRISM.
 NBasis=   568 RedAO= T EigKep=  1.01D-06  NBF=   568
 NBsUse=   557 1.00D-06 EigRej=  9.19D-07 NBFU=   557
 Precomputing XC quadrature grid using
 IXCGrd= 4 IRadAn=           0 IRanWt=          -1 IRanGd=           0 AccXCQ= 0.00D+00.
 Generated NRdTot=       0 NPtTot=           0 NUsed=           0 NTot=          32
 NSgBfM=   587   588   588   589   589 MxSgAt=   236 MxSgA2=    36.
 Leave Link  302 at Tue Sep 15 12:07:46 2020, MaxMem=   131072000 cpu:        14.5
 (Enter /share/programs/GAUSSIAN/64/g09/l308.exe)
 Leave Link  308 at Tue Sep 15 12:07:46 2020, MaxMem=   131072000 cpu:         1.0
 (Enter /share/programs/GAUSSIAN/64/g09/l303.exe)
 DipDrv:  MaxL=1.
 Leave Link  303 at Tue Sep 15 12:07:46 2020, MaxMem=   131072000 cpu:         0.6
 (Enter /share/programs/GAUSSIAN/64/g09/l401.exe)
 Initial guess from the checkpoint file:  "/scratch/aartigas.39016/Gau-24367.chk"
 Skipping rotation of guess because NAtoms(RWF)=  236 differs from NAtoms(Chk)=   36.
 Guess basis will be translated and rotated to current coordinates.
 JPrj=2 DoOrth=T DoCkMO=T.
 Leave Link  401 at Tue Sep 15 12:07:48 2020, MaxMem=   131072000 cpu:        10.2
 (Enter /share/programs/GAUSSIAN/64/g09/l502.exe)
 Closed shell SCF:
 Using DIIS extrapolation, IDIIS=  1040.
 Two-electron integral symmetry not used.
 IVT=     1071582 IEndB=     1071582 NGot=   131072000 MDV=   130365749
 LenX=   130365749 LenY=   130017059
 Requested convergence on RMS density matrix=1.00D-08 within 128 cycles.
 Requested convergence on MAX density matrix=1.00D-06.
 Requested convergence on             energy=1.00D-06.
 No special actions if energy rises.
 Fock matrices will be formed incrementally for  20 cycles.

 Cycle   1  Pass 1  IDiag  1:
 FoFJK:  IHMeth= 1 ICntrl=       0 DoSepK=F KAlg= 0 I1Cent=   0 FoldK=F
 IRaf= 940000000 NMat=   1 IRICut=       1 DoRegI=T DoRafI=F ISym2E= 0.
 FoFCou: FMM=T IPFlag=           0 FMFlag=      100000 FMFlg1=        2001
         NFxFlg=           0 DoJE=F BraDBF=F KetDBF=F FulRan=T
         wScrn=  0.000000 ICntrl=       0 IOpCl=  0 I1Cent=           0 NGrid=           0
         NMat0=    1 NMatS0=      1 NMatT0=    0 NMatD0=    1 NMtDS0=    0 NMtDT0=    0
 Symmetry not used in FoFCou.
 FMM levels:  10  Number of levels for PrismC:   9
 E= -847.003738666969    
 DIIS: error= 5.05D-08 at cycle   1 NSaved=   1.
 NSaved= 1 IEnMin= 1 EnMin= -847.003738666969     IErMin= 1 ErrMin= 5.05D-08
 ErrMax= 5.05D-08  0.00D+00 EMaxC= 1.00D-01 BMatC= 3.55D-12 BMatP= 3.55D-12
 IDIUse=1 WtCom= 1.00D+00 WtEn= 0.00D+00
 Coeff-Com:  0.100D+01
 Coeff:      0.100D+01
 Gap=     0.151 Goal=   None    Shift=    0.000
 RMSDP=2.88D-07 MaxDP=1.32D-05              OVMax= 3.94D-07

 Cycle   2  Pass 1  IDiag  1:
 RMSU=  2.84D-07    CP:  1.00D+00
 E= -847.003738666838     Delta-E=        0.000000000131 Rises=F Damp=F
 DIIS: error= 1.42D-08 at cycle   2 NSaved=   2.
 NSaved= 2 IEnMin= 1 EnMin= -847.003738666969     IErMin= 2 ErrMin= 1.42D-08
 ErrMax= 1.42D-08  0.00D+00 EMaxC= 1.00D-01 BMatC= 2.13D-13 BMatP= 3.55D-12
 IDIUse=1 WtCom= 1.00D+00 WtEn= 0.00D+00
 Coeff-Com:  0.627D-01 0.937D+00
 Coeff:      0.627D-01 0.937D+00
 Gap=     0.151 Goal=   None    Shift=    0.000
 RMSDP=1.58D-08 MaxDP=7.81D-07 DE= 1.31D-10 OVMax= 3.02D-07

 Cycle   3  Pass 1  IDiag  1:
 RMSU=  1.33D-08    CP:  1.00D+00  1.02D+00
 E= -847.003738666853     Delta-E=       -0.000000000015 Rises=F Damp=F
 DIIS: error= 2.51D-08 at cycle   3 NSaved=   3.
 NSaved= 3 IEnMin= 1 EnMin= -847.003738666969     IErMin= 2 ErrMin= 1.42D-08
 ErrMax= 2.51D-08  0.00D+00 EMaxC= 1.00D-01 BMatC= 5.05D-13 BMatP= 2.13D-13
 IDIUse=1 WtCom= 1.00D+00 WtEn= 0.00D+00
 Coeff-Com: -0.107D-01 0.616D+00 0.395D+00
 Coeff:     -0.107D-01 0.616D+00 0.395D+00
 Gap=     0.151 Goal=   None    Shift=    0.000
 RMSDP=1.03D-08 MaxDP=4.08D-07 DE=-1.50D-11 OVMax= 2.17D-07

 Cycle   4  Pass 1  IDiag  1:
 RMSU=  5.88D-09    CP:  1.00D+00  1.02D+00  3.95D-01
 E= -847.003738666883     Delta-E=       -0.000000000030 Rises=F Damp=F
 DIIS: error= 8.06D-09 at cycle   4 NSaved=   4.
 NSaved= 4 IEnMin= 1 EnMin= -847.003738666969     IErMin= 4 ErrMin= 8.06D-09
 ErrMax= 8.06D-09  0.00D+00 EMaxC= 1.00D-01 BMatC= 2.06D-14 BMatP= 2.13D-13
 IDIUse=1 WtCom= 1.00D+00 WtEn= 0.00D+00
 Coeff-Com: -0.876D-02 0.309D+00 0.241D+00 0.459D+00
 Coeff:     -0.876D-02 0.309D+00 0.241D+00 0.459D+00
 Gap=     0.151 Goal=   None    Shift=    0.000
 RMSDP=4.05D-09 MaxDP=1.49D-07 DE=-2.96D-11 OVMax= 6.88D-08

 SCF Done:  E(RB3LYP) =  -847.003738667     A.U. after    4 cycles
            NFock=  4  Conv=0.41D-08     -V/T= 2.0049
 KE= 8.428349970566D+02 PE=-5.164192584015D+03 EE= 1.874438221195D+03
 Leave Link  502 at Tue Sep 15 12:09:31 2020, MaxMem=   131072000 cpu:       820.0
 (Enter /share/programs/GAUSSIAN/64/g09/l801.exe)
 DoSCS=F DFT=T ScalE2(SS,OS)=  1.000000  1.000000
 Range of M.O.s used for correlation:     1   557
 NBasis=   568 NAE=    73 NBE=    73 NFC=     0 NFV=     0
 NROrb=    557 NOA=    73 NOB=    73 NVA=   484 NVB=   484

 **** Warning!!: The largest alpha MO coefficient is  0.14271945D+03

 Leave Link  801 at Tue Sep 15 12:09:31 2020, MaxMem=   131072000 cpu:         0.2
 (Enter /share/programs/GAUSSIAN/64/g09/l1002.exe)
 Minotr:  Closed shell wavefunction.
          Direct CPHF calculation.
          Differentiating once with respect to magnetic field using GIAOs.
          Electric field/nuclear overlap derivatives assumed to be zero.
          Requested convergence is 1.0D-08 RMS, and 1.0D-07 maximum.
          Secondary convergence is 1.0D-12 RMS, and 1.0D-12 maximum.
          NewPWx=T KeepS1=F KeepF1=F KeepIn=T MapXYZ=F SortEE=F KeepMc=T.
          MDV=     131069551 using IRadAn=       2.
 Generate precomputed XC quadrature information.
          Solving linear equations simultaneously, MaxMat=      72.
 FoFCou: FMM=F IPFlag=           0 FMFlag=      100000 FMFlg1=        2001
         NFxFlg=           0 DoJE=F BraDBF=F KetDBF=T FulRan=T
         wScrn=  0.000000 ICntrl=    6100 IOpCl=  0 I1Cent=           7 NGrid=         236
         NMat0=    1 NMatS0=      1 NMatT0=    0 NMatD0=    1 NMtDS0=    0 NMtDT0=    0
 Symmetry not used in FoFCou.
 FoFJK:  IHMeth= 1 ICntrl=    6127 DoSepK=F KAlg= 0 I1Cent=   0 FoldK=F
 IRaf=         1 NMat=   1 IRICut=       1 DoRegI=T DoRafI=F ISym2E= 0.
          There are     3 degrees of freedom in the 1st order CPHF.  IDoFFX=0 NUNeed=     3.
      3 vectors produced by pass  0 Test12= 1.18D-12 3.33D-08 XBig12= 1.96D+03 8.77D+00.
 AX will form     3 AO Fock derivatives at one time.
      3 vectors produced by pass  1 Test12= 1.18D-12 3.33D-08 XBig12= 3.18D+00 7.58D-01.
      3 vectors produced by pass  2 Test12= 1.18D-12 3.33D-08 XBig12= 1.86D-02 5.85D-02.
      3 vectors produced by pass  3 Test12= 1.18D-12 3.33D-08 XBig12= 4.29D-05 1.35D-03.
      3 vectors produced by pass  4 Test12= 1.18D-12 3.33D-08 XBig12= 9.75D-08 7.22D-05.
      3 vectors produced by pass  5 Test12= 1.18D-12 3.33D-08 XBig12= 3.97D-10 5.92D-06.
      3 vectors produced by pass  6 Test12= 1.18D-12 3.33D-08 XBig12= 1.51D-12 4.40D-07.
 InvSVY:  IOpt=1 It=  1 EMax= 3.55D-15
 Solved reduced A of dimension    21 with     3 vectors.
 Calculating GIAO nuclear magnetic shielding tensors.
 SCF GIAO Magnetic shielding tensor (ppm):
      1  C    Isotropic =    49.6861   Anisotropy =   149.7970
   XX=    46.3088   YX=   -25.0950   ZX=    31.4786
   XY=   -31.1109   YY=   -39.0339   ZY=    13.2621
   XZ=    24.9178   YZ=     8.9888   ZZ=   141.7833
   Eigenvalues:   -49.3507    48.8581   149.5507
      2  C    Isotropic =    49.6861   Anisotropy =   149.7971
   XX=    46.3088   YX=    25.0953   ZX=    31.4786
   XY=    31.1111   YY=   -39.0339   ZY=   -13.2621
   XZ=    24.9177   YZ=    -8.9889   ZZ=   141.7834
   Eigenvalues:   -49.3508    48.8583   149.5509
      3  C    Isotropic =    44.4899   Anisotropy =   204.7372
   XX=   -22.2199   YX=    10.8075   ZX=    51.2710
   XY=     4.9259   YY=   -14.7126   ZY=    14.7921
   XZ=    32.3655   YZ=    21.2392   ZZ=   170.4022
   Eigenvalues:   -31.9593   -15.5523   180.9814
      4  C    Isotropic =    44.4899   Anisotropy =   204.7373
   XX=   -22.2198   YX=   -10.8075   ZX=    51.2710
   XY=    -4.9256   YY=   -14.7126   ZY=   -14.7922
   XZ=    32.3656   YZ=   -21.2393   ZZ=   170.4023
   Eigenvalues:   -31.9592   -15.5524   180.9815
      5  C    Isotropic =    48.5420   Anisotropy =   189.5490
   XX=   -14.6790   YX=     4.7342   ZX=     8.4333
   XY=    20.3759   YY=    -5.5375   ZY=    31.5121
   XZ=    65.1218   YZ=     0.8640   ZZ=   165.8426
   Eigenvalues:   -26.3226    -2.9593   174.9080
      6  C    Isotropic =    48.5421   Anisotropy =   189.5489
   XX=   -14.6789   YX=    -4.7340   ZX=     8.4335
   XY=   -20.3758   YY=    -5.5374   ZY=   -31.5121
   XZ=    65.1218   YZ=    -0.8638   ZZ=   165.8426
   Eigenvalues:   -26.3224    -2.9594   174.9080
      7  C    Isotropic =    50.1907   Anisotropy =   149.2089
   XX=    19.7303   YX=   -44.2755   ZX=    41.2886
   XY=   -38.0437   YY=    -2.7069   ZY=    36.9011
   XZ=    36.5866   YZ=    37.5458   ZZ=   133.5487
   Eigenvalues:   -49.6656    50.5744   149.6633
      8  C    Isotropic =    48.9362   Anisotropy =   152.4339
   XX=   -31.5093   YX=   -11.4921   ZX=    54.7730
   XY=   -19.0468   YY=    46.5898   ZY=    27.5522
   XZ=    42.2451   YZ=    29.8391   ZZ=   131.7282
   Eigenvalues:   -50.1461    46.3960   150.5589
      9  C    Isotropic =    44.4204   Anisotropy =   209.3981
   XX=   -10.1987   YX=    16.7536   ZX=    44.4888
   XY=     8.9342   YY=    -7.7270   ZY=    61.4651
   XZ=    43.3269   YZ=    64.9792   ZZ=   151.1869
   Eigenvalues:   -30.3689   -20.3891   184.0192
     10  C    Isotropic =    45.3894   Anisotropy =   198.3236
   XX=    -5.9706   YX=    23.3819   ZX=    35.6519
   XY=    38.1954   YY=     1.7271   ZY=    73.1370
   XZ=    54.0013   YZ=    45.7045   ZZ=   140.4116
   Eigenvalues:   -33.5315    -7.9055   177.6051
     11  H    Isotropic =    23.8179   Anisotropy =     7.5674
   XX=    27.2191   YX=    -1.9090   ZX=    -2.2602
   XY=    -1.7961   YY=    24.8722   ZY=    -0.1966
   XZ=    -3.3763   YZ=    -0.1950   ZZ=    19.3625
   Eigenvalues:    18.3647    24.2263    28.8628
     12  H    Isotropic =    23.8179   Anisotropy =     7.5674
   XX=    27.2191   YX=     1.9090   ZX=    -2.2602
   XY=     1.7961   YY=    24.8722   ZY=     0.1966
   XZ=    -3.3763   YZ=     0.1950   ZZ=    19.3625
   Eigenvalues:    18.3647    24.2263    28.8628
     13  H    Isotropic =    23.8548   Anisotropy =     7.5124
[...]
   111  Bq   0.000000
   112  Bq   0.000000
   113  Bq   0.000000
   114  Bq   0.000000
   115  Bq   0.000000
   116  Bq   0.000000
   117  Bq   0.000000
   118  Bq   0.000000
   119  Bq   0.000000
   120  Bq   0.000000
   121  Bq   0.000000
   122  Bq   0.000000
   123  Bq   0.000000
   124  Bq   0.000000
   125  Bq   0.000000
   126  Bq   0.000000
   127  Bq   0.000000
   128  Bq   0.000000
   129  Bq   0.000000
   130  Bq   0.000000
   131  Bq   0.000000
   132  Bq   0.000000
   133  Bq   0.000000
   134  Bq   0.000000
   135  Bq   0.000000
   136  Bq   0.000000
   137  Bq   0.000000
   138  Bq   0.000000
   139  Bq   0.000000
   140  Bq   0.000000
   141  Bq   0.000000
   142  Bq   0.000000
   143  Bq   0.000000
   144  Bq   0.000000
   145  Bq   0.000000
   146  Bq   0.000000
   147  Bq   0.000000
   148  Bq   0.000000
   149  Bq   0.000000
   150  Bq   0.000000
   151  Bq   0.000000
   152  Bq   0.000000
   153  Bq   0.000000
   154  Bq   0.000000
   155  Bq   0.000000
   156  Bq   0.000000
   157  Bq   0.000000
   158  Bq   0.000000
   159  Bq   0.000000
   160  Bq   0.000000
   161  Bq   0.000000
   162  Bq   0.000000
   163  Bq   0.000000
   164  Bq   0.000000
   165  Bq   0.000000
   166  Bq   0.000000
   167  Bq   0.000000
   168  Bq   0.000000
   169  Bq   0.000000
   170  Bq   0.000000
   171  Bq   0.000000
   172  Bq   0.000000
   173  Bq   0.000000
   174  Bq   0.000000
   175  Bq   0.000000
   176  Bq   0.000000
   177  Bq   0.000000
   178  Bq   0.000000
   179  Bq   0.000000
   180  Bq   0.000000
   181  Bq   0.000000
   182  Bq   0.000000
   183  Bq   0.000000
   184  Bq   0.000000
   185  Bq   0.000000
   186  Bq   0.000000
   187  Bq   0.000000
   188  Bq   0.000000
   189  Bq   0.000000
   190  Bq   0.000000
   191  Bq   0.000000
   192  Bq   0.000000
   193  Bq   0.000000
   194  Bq   0.000000
   195  Bq   0.000000
   196  Bq   0.000000
   197  Bq   0.000000
   198  Bq   0.000000
   199  Bq   0.000000
   200  Bq   0.000000
   201  Bq   0.000000
   202  Bq   0.000000
   203  Bq   0.000000
   204  Bq   0.000000
   205  Bq   0.000000
   206  Bq   0.000000
   207  Bq   0.000000
   208  Bq   0.000000
   209  Bq   0.000000
   210  Bq   0.000000
   211  Bq   0.000000
   212  Bq   0.000000
   213  Bq   0.000000
   214  Bq   0.000000
   215  Bq   0.000000
   216  Bq   0.000000
   217  Bq   0.000000
   218  Bq   0.000000
   219  Bq   0.000000
   220  Bq   0.000000
   221  Bq   0.000000
   222  Bq   0.000000
   223  Bq   0.000000
   224  Bq   0.000000
   225  Bq   0.000000
   226  Bq   0.000000
   227  Bq   0.000000
   228  Bq   0.000000
   229  Bq   0.000000
   230  Bq   0.000000
   231  Bq   0.000000
   232  Bq   0.000000
   233  Bq   0.000000
   234  Bq   0.000000
   235  Bq   0.000000
   236  Bq   0.000000
 Sum of Mulliken charges =   0.00000
 Mulliken charges with hydrogens summed into heavy atoms:
               1
     1  C   -0.262865
     2  C   -0.262866
     3  C    0.737923
     4  C    0.737922
     5  C   -0.039994
     6  C   -0.040001
     7  C    0.075155
     8  C   -0.330147
     9  C    0.780501
    10  C   -0.200782
    15  C    0.249272
    16  C   -0.533462
    17  C   -0.189405
    18  C   -0.286191
    23  C   -0.330145
    24  C   -0.044810
    25  C    0.780496
    26  C   -0.200782
    27  C    0.249273
    28  C   -0.286192
    29  C   -0.189403
    30  C   -0.533462
    37  Bq   0.000000
    38  Bq   0.000000
    39  Bq   0.000000
    40  Bq   0.000000
    41  Bq   0.000000
    42  Bq   0.000000
    43  Bq   0.000000
    44  Bq   0.000000
    45  Bq   0.000000
    46  Bq   0.000000
    47  Bq   0.000000
    48  Bq   0.000000
    49  Bq   0.000000
    50  Bq   0.000000
    51  Bq   0.000000
    52  Bq   0.000000
    53  Bq   0.000000
    54  Bq   0.000000
    55  Bq   0.000000
    56  Bq   0.000000
    57  Bq   0.000000
    58  Bq   0.000000
    59  Bq   0.000000
    60  Bq   0.000000
    61  Bq   0.000000
    62  Bq   0.000000
    63  Bq   0.000000
    64  Bq   0.000000
    65  Bq   0.000000
    66  Bq   0.000000
    67  Bq   0.000000
    68  Bq   0.000000
    69  Bq   0.000000
    70  Bq   0.000000
    71  Bq   0.000000
    72  Bq   0.000000
    73  Bq   0.000000
    74  Bq   0.000000
    75  Bq   0.000000
    76  Bq   0.000000
    77  Bq   0.000000
    78  Bq   0.000000
    79  Bq   0.000000
    80  Bq   0.000000
    81  Bq   0.000000
    82  Bq   0.000000
    83  Bq   0.000000
    84  Bq   0.000000
    85  Bq   0.000000
    86  Bq   0.000000
    87  Bq   0.000000
    88  Bq   0.000000
    89  Bq   0.000000
    90  Bq   0.000000
    91  Bq   0.000000
    92  Bq   0.000000
    93  Bq   0.000000
    94  Bq   0.000000
    95  Bq   0.000000
    96  Bq   0.000000
    97  Bq   0.000000
    98  Bq   0.000000
    99  Bq   0.000000
   100  Bq   0.000000
   101  Bq   0.000000
   102  Bq   0.000000
   103  Bq   0.000000
   104  Bq   0.000000
   105  Bq   0.000000
   106  Bq   0.000000
   107  Bq   0.000000
   108  Bq   0.000000
   109  Bq   0.000000
   110  Bq   0.000000
   111  Bq   0.000000
   112  Bq   0.000000
   113  Bq   0.000000
   114  Bq   0.000000
   115  Bq   0.000000
   116  Bq   0.000000
   117  Bq   0.000000
   118  Bq   0.000000
   119  Bq   0.000000
   120  Bq   0.000000
   121  Bq   0.000000
   122  Bq   0.000000
   123  Bq   0.000000
   124  Bq   0.000000
   125  Bq   0.000000
   126  Bq   0.000000
   127  Bq   0.000000
   128  Bq   0.000000
   129  Bq   0.000000
   130  Bq   0.000000
   131  Bq   0.000000
   132  Bq   0.000000
   133  Bq   0.000000
   134  Bq   0.000000
   135  Bq   0.000000
   136  Bq   0.000000
   137  Bq   0.000000
   138  Bq   0.000000
   139  Bq   0.000000
   140  Bq   0.000000
   141  Bq   0.000000
   142  Bq   0.000000
   143  Bq   0.000000
   144  Bq   0.000000
   145  Bq   0.000000
   146  Bq   0.000000
   147  Bq   0.000000
   148  Bq   0.000000
   149  Bq   0.000000
   150  Bq   0.000000
   151  Bq   0.000000
   152  Bq   0.000000
   153  Bq   0.000000
   154  Bq   0.000000
   155  Bq   0.000000
   156  Bq   0.000000
   157  Bq   0.000000
   158  Bq   0.000000
   159  Bq   0.000000
   160  Bq   0.000000
   161  Bq   0.000000
   162  Bq   0.000000
   163  Bq   0.000000
   164  Bq   0.000000
   165  Bq   0.000000
   166  Bq   0.000000
   167  Bq   0.000000
   168  Bq   0.000000
   169  Bq   0.000000
   170  Bq   0.000000
   171  Bq   0.000000
   172  Bq   0.000000
   173  Bq   0.000000
   174  Bq   0.000000
   175  Bq   0.000000
   176  Bq   0.000000
   177  Bq   0.000000
   178  Bq   0.000000
   179  Bq   0.000000
   180  Bq   0.000000
   181  Bq   0.000000
   182  Bq   0.000000
   183  Bq   0.000000
   184  Bq   0.000000
   185  Bq   0.000000
   186  Bq   0.000000
   187  Bq   0.000000
   188  Bq   0.000000
   189  Bq   0.000000
   190  Bq   0.000000
   191  Bq   0.000000
   192  Bq   0.000000
   193  Bq   0.000000
   194  Bq   0.000000
   195  Bq   0.000000
   196  Bq   0.000000
   197  Bq   0.000000
   198  Bq   0.000000
   199  Bq   0.000000
   200  Bq   0.000000
   201  Bq   0.000000
   202  Bq   0.000000
   203  Bq   0.000000
   204  Bq   0.000000
   205  Bq   0.000000
   206  Bq   0.000000
   207  Bq   0.000000
   208  Bq   0.000000
   209  Bq   0.000000
   210  Bq   0.000000
   211  Bq   0.000000
   212  Bq   0.000000
   213  Bq   0.000000
   214  Bq   0.000000
   215  Bq   0.000000
   216  Bq   0.000000
   217  Bq   0.000000
   218  Bq   0.000000
   219  Bq   0.000000
   220  Bq   0.000000
   221  Bq   0.000000
   222  Bq   0.000000
   223  Bq   0.000000
   224  Bq   0.000000
   225  Bq   0.000000
   226  Bq   0.000000
   227  Bq   0.000000
   228  Bq   0.000000
   229  Bq   0.000000
   230  Bq   0.000000
   231  Bq   0.119964
   232  Bq   0.000000
   233  Bq   0.000000
   234  Bq   0.000000
   235  Bq   0.000000
   236  Bq   0.000000
 Electronic spatial extent (au):  <R**2>=           5804.3227
 Charge=              0.0000 electrons
 Dipole moment (field-independent basis, Debye):
    X=              0.0000    Y=              0.0732    Z=              0.0000  Tot=              0.0732
 Quadrupole moment (field-independent basis, Debye-Ang):
   XX=           -113.9137   YY=           -113.9781   ZZ=           -133.4378
   XY=              0.0000   XZ=             -4.8717   YZ=              0.0000
 Traceless Quadrupole moment (field-independent basis, Debye-Ang):
   XX=              6.5295   YY=              6.4651   ZZ=            -12.9946
   XY=              0.0000   XZ=             -4.8717   YZ=              0.0000
 Octapole moment (field-independent basis, Debye-Ang**2):
  XXX=              0.0000  YYY=             11.7108  ZZZ=              0.0000  XYY=              0.0000
  XXY=             -6.4067  XXZ=              0.0000  XZZ=              0.0000  YZZ=             -7.8695
  YYZ=              0.0000  XYZ=            -16.2862
 Hexadecapole moment (field-independent basis, Debye-Ang**3):
 XXXX=          -4416.4021 YYYY=          -2784.9756 ZZZZ=           -481.5690 XXXY=              0.0001
 XXXZ=           -124.3517 YYYX=             -0.0003 YYYZ=              0.0001 ZZZX=             -4.4782
 ZZZY=              0.0001 XXYY=          -1189.3576 XXZZ=           -942.9016 YYZZ=           -589.4012
 XXYZ=              0.0000 YYXZ=              7.8297 ZZXY=             -0.0001
 N-N= 1.599915627097D+03 E-N=-5.164192587538D+03  KE= 8.428349970566D+02
 Leave Link  601 at Tue Sep 15 12:17:34 2020, MaxMem=   131072000 cpu:         0.6
 (Enter /share/programs/GAUSSIAN/64/g09/l9999.exe)
 1\1\GINC-PAHRY\SP\RB3LYP\6-311+G(d,p)\C22H14\AARTIGAS\15-Sep-2020\0\\#
 P rb3lyp/6-311+g** NMR Guess=Read geom=connectivity\\Title\\0,1\C,0,0.
 653241,3.257859,-0.20251\C,0,-0.653243,3.25786,0.20251\C,0,1.372495,2.
 032956,-0.320807\C,0,-1.372495,2.032956,0.320807\C,0,0.722474,0.795666
 ,-0.050388\C,0,-0.722474,0.795667,0.050387\C,0,2.760385,2.053927,-0.67
 4268\C,0,3.508866,0.913916,-0.671362\C,0,2.955226,-0.309622,-0.177479\
 C,0,1.574722,-0.361114,0.197094\H,0,1.183427,4.19574,-0.384599\H,0,-1.
 183429,4.19574,0.384599\H,0,3.206283,3.012423,-0.951392\H,0,4.560023,0
 .932956,-0.969333\C,0,3.78302,-1.443098,0.028309\C,0,1.137427,-1.50753
 3,0.912109\C,0,1.973691,-2.584349,1.138062\C,0,3.301853,-2.571588,0.66
 1177\H,0,4.825754,-1.39123,-0.295484\H,0,0.124652,-1.532788,1.308472\H
 ,0,1.603586,-3.445682,1.698977\H,0,3.952742,-3.433526,0.825134\C,0,-3.
 508866,0.913915,0.671362\C,0,-2.760386,2.053926,0.674268\C,0,-2.955226
 ,-0.309623,0.177479\C,0,-1.574722,-0.361114,-0.197094\C,0,-3.78302,-1.
 443099,-0.028309\C,0,-3.301852,-2.571589,-0.661177\C,0,-1.97369,-2.584
 349,-1.138061\C,0,-1.137426,-1.507534,-0.912109\H,0,-4.560022,0.932954
 ,0.969334\H,0,-3.206283,3.012421,0.951392\H,0,-4.825754,-1.391232,0.29
 5484\H,0,-3.952741,-3.433528,-0.825134\H,0,-1.603585,-3.445682,-1.6989
 76\H,0,-0.124652,-1.532788,-1.308471\Bq,0,-3.5426486644,1.1705198123,-
 0.2945638263\Bq,0,-3.5758532981,1.163915,-0.2945638263\Bq,0,-3.6079117
 605,1.1530326184,-0.2945638263\Bq,0,-3.6382755226,1.138058868,-0.29456
 38263\Bq,0,-3.6664250518,1.119249954,-0.2945638263\Bq,0,-3.6918787019,
 1.0969277019,-0.2945638263\Bq,0,-3.714200954,1.0714740518,-0.294563826
 3\Bq,0,-3.733009868,1.0433245226,-0.2945638263\Bq,0,-3.7479836184,1.01
 29607605,-0.2945638263\Bq,0,-3.758866,0.9809022981,-0.2945638263\Bq,0,
 -3.7654708123,0.9476976644,-0.2945638263\Bq,0,-3.7676850451,0.913915,-
 0.2945638263\Bq,0,-3.7654708123,0.8801323356,-0.2945638263\Bq,0,-3.758
 866,0.8469277019,-0.2945638263\Bq,0,-3.7479836184,0.8148692395,-0.2945
 638263\Bq,0,-3.733009868,0.7845054774,-0.2945638263\Bq,0,-3.714200954,
 0.7563559482,-0.2945638263\Bq,0,-3.6918787019,0.7309022981,-0.29456382
 63\Bq,0,-3.6664250518,0.708580046,-0.2945638263\Bq,0,-3.6382755226,0.6
 89771132,-0.2945638263\Bq,0,-3.6079117605,0.6747973816,-0.2945638263\B
 q,0,-3.5758532981,0.663915,-0.2945638263\Bq,0,-3.5426486644,0.65731018
 77,-0.2945638263\Bq,0,-3.508866,0.6550959549,-0.2945638263\Bq,0,-3.475
 0833356,0.6573101877,-0.2945638263\Bq,0,-3.4418787019,0.663915,-0.2945
 638263\Bq,0,-3.4098202395,0.6747973816,-0.2945638263\Bq,0,-3.379456477
 4,0.689771132,-0.2945638263\Bq,0,-3.3513069482,0.708580046,-0.29456382
 63\Bq,0,-3.3258532981,0.7309022981,-0.2945638263\Bq,0,-3.303531046,0.7
 563559482,-0.2945638263\Bq,0,-3.284722132,0.7845054774,-0.2945638263\B
 q,0,-3.2697483816,0.8148692395,-0.2945638263\Bq,0,-3.258866,0.84692770
 19,-0.2945638263\Bq,0,-3.2522611877,0.8801323356,-0.2945638263\Bq,0,-3
 .3783398078,0.913915,-0.3200828614\Bq,0,-3.3794564774,0.9309520869,-0.
 3200828614\Bq,0,-3.3827873799,0.9476976644,-0.3200828614\Bq,0,-3.38827
 55226,0.9638652113,-0.3200828614\Bq,0,-3.3958270017,0.9791780961,-0.32
 00828614\Bq,0,-3.4053126094,0.9933743113,-0.3200828614\Bq,0,-3.4165700
 444,1.0062109556,-0.3200828614\Bq,0,-3.4294066887,1.0174683906,-0.3200
 828614\Bq,0,-3.4436029039,1.0269539983,-0.3200828614\Bq,0,-3.458915788
 7,1.0345054774,-0.3200828614\Bq,0,-3.4750833356,1.0399936201,-0.320082
 8614\Bq,0,-3.4918289131,1.0433245226,-0.3200828614\Bq,0,-3.508866,1.04
 44411922,-0.3200828614\Bq,0,-3.5259030869,1.0433245226,-0.3200828614\B
 q,0,-3.5426486644,1.0399936201,-0.3200828614\Bq,0,-3.5588162113,1.0345
 054774,-0.3200828614\Bq,0,-3.5741290961,1.0269539983,-0.3200828614\Bq,
 0,-3.5883253113,1.0174683906,-0.3200828614\Bq,0,-3.6011619556,1.006210
 9556,-0.3200828614\Bq,0,-3.6124193906,0.9933743113,-0.3200828614\Bq,0,
 -3.6219049983,0.9791780961,-0.3200828614\Bq,0,-3.6294564774,0.96386521
 13,-0.3200828614\Bq,0,-3.6349446201,0.9476976644,-0.3200828614\Bq,0,-3
 .6382755226,0.9309520869,-0.3200828614\Bq,0,-3.6393921922,0.913915,-0.
 3200828614\Bq,0,-3.6382755226,0.8968779131,-0.3200828614\Bq,0,-3.63494
 46201,0.8801323356,-0.3200828614\Bq,0,-3.6294564774,0.8639647887,-0.32
 00828614\Bq,0,-3.6219049983,0.8486519039,-0.3200828614\Bq,0,-3.6124193
 906,0.8344556887,-0.3200828614\Bq,0,-3.6011619556,0.8216190444,-0.3200
 828614\Bq,0,-3.5883253113,0.8103616094,-0.3200828614\Bq,0,-3.574129096
 1,0.8008760017,-0.3200828614\Bq,0,-3.5588162113,0.7933245226,-0.320082
 8614\Bq,0,-3.5426486644,0.7878363799,-0.3200828614\Bq,0,-3.5259030869,
 0.7845054774,-0.3200828614\Bq,0,-3.508866,0.7833888078,-0.3200828614\B
 q,0,-3.4918289131,0.7845054774,-0.3200828614\Bq,0,-3.4750833356,0.7878
 363799,-0.3200828614\Bq,0,-3.4589157887,0.7933245226,-0.3200828614\Bq,
 0,-3.4436029039,0.8008760017,-0.3200828614\Bq,0,-3.4294066887,0.810361
 6094,-0.3200828614\Bq,0,-3.4165700444,0.8216190444,-0.3200828614\Bq,0,
 -3.4053126094,0.8344556887,-0.3200828614\Bq,0,-3.3958270017,0.84865190
 39,-0.3200828614\Bq,0,-3.3882755226,0.8639647887,-0.3200828614\Bq,0,-3
 .3827873799,0.8801323356,-0.3200828614\Bq,0,-3.3794564774,0.8968779131
 ,-0.3200828614\Bq,0,-2.760386,2.053926,1.674268\Bq,0,-2.760386,2.05392
 6,1.674268\Bq,0,-2.760386,2.053926,1.674268\Bq,0,-2.760386,2.053926,1.
 674268\Bq,0,-2.760386,2.053926,1.674268\Bq,0,-2.760386,2.053926,1.6742
 68\Bq,0,-2.760386,2.053926,1.674268\Bq,0,-2.760386,2.053926,1.674268\B
 q,0,-2.760386,2.053926,1.674268\Bq,0,-2.760386,2.053926,1.674268\Bq,0,
 -2.760386,2.053926,1.674268\Bq,0,-2.760386,2.053926,1.674268\Bq,0,-2.7
 60386,2.053926,1.674268\Bq,0,-2.760386,2.053926,1.674268\Bq,0,-2.76038
 6,2.053926,1.674268\Bq,0,-2.760386,2.053926,1.674268\Bq,0,-2.760386,2.
 053926,1.674268\Bq,0,-2.760386,2.053926,1.674268\Bq,0,-2.760386,2.0539
 26,1.674268\Bq,0,-2.760386,2.053926,1.674268\Bq,0,-2.760386,2.053926,1
 .674268\Bq,0,-2.760386,2.053926,1.674268\Bq,0,-2.760386,2.053926,1.674
 268\Bq,0,-2.760386,2.053926,1.674268\Bq,0,-2.760386,2.053926,1.674268\
 Bq,0,-2.760386,2.053926,1.674268\Bq,0,-2.760386,2.053926,1.674268\Bq,0
 ,-2.760386,2.053926,1.674268\Bq,0,-2.760386,2.053926,1.674268\Bq,0,-2.
 760386,2.053926,1.674268\Bq,0,-2.760386,2.053926,1.674268\Bq,0,-2.7603
 86,2.053926,1.674268\Bq,0,-2.760386,2.053926,1.674268\Bq,0,-2.760386,2
 .053926,1.674268\Bq,0,-2.760386,2.053926,1.674268\Bq,0,-2.760386,2.053
 926,1.674268\Bq,0,-2.760386,2.053926,1.674268\Bq,0,-2.760386,2.053926,
 1.674268\Bq,0,-2.760386,2.053926,1.674268\Bq,0,-2.760386,2.053926,1.67
 4268\Bq,0,-2.760386,2.053926,1.674268\Bq,0,-2.760386,2.053926,1.674268
 \Bq,0,-2.760386,2.053926,1.674268\Bq,0,-2.760386,2.053926,1.674268\Bq,
 0,-2.760386,2.053926,1.674268\Bq,0,-2.760386,2.053926,1.674268\Bq,0,-2
 .760386,2.053926,1.674268\Bq,0,-2.760386,2.053926,1.674268\Bq,0,-2.629
 8598078,2.053926,1.6657128614\Bq,0,-2.6309764774,2.0709630869,1.665712
 8614\Bq,0,-2.6343073799,2.0877086644,1.6657128614\Bq,0,-2.6397955226,2
 .1038762113,1.6657128614\Bq,0,-2.6473470017,2.1191890961,1.6657128614\
 Bq,0,-2.6568326094,2.1333853113,1.6657128614\Bq,0,-2.6680900444,2.1462
 219556,1.6657128614\Bq,0,-2.6809266887,2.1574793906,1.6657128614\Bq,0,
 -2.6951229039,2.1669649983,1.6657128614\Bq,0,-2.7104357887,2.174516477
 4,1.6657128614\Bq,0,-2.7266033356,2.1800046201,1.6657128614\Bq,0,-2.74
 33489131,2.1833355226,1.6657128614\Bq,0,-2.760386,2.1844521922,1.66571
 28614\Bq,0,-2.7774230869,2.1833355226,1.6657128614\Bq,0,-2.7941686644,
 2.1800046201,1.6657128614\Bq,0,-2.8103362113,2.1745164774,1.6657128614
 \Bq,0,-2.8256490961,2.1669649983,1.6657128614\Bq,0,-2.8398453113,2.157
 4793906,1.6657128614\Bq,0,-2.8526819556,2.1462219556,1.6657128614\Bq,0
 ,-2.8639393906,2.1333853113,1.6657128614\Bq,0,-2.8734249983,2.11918909
 61,1.6657128614\Bq,0,-2.8809764774,2.1038762113,1.6657128614\Bq,0,-2.8
 864646201,2.0877086644,1.6657128614\Bq,0,-2.8897955226,2.0709630869,1.
 6657128614\Bq,0,-2.8909121922,2.053926,1.6657128614\Bq,0,-2.8897955226
 ,2.0368889131,1.6657128614\Bq,0,-2.8864646201,2.0201433356,1.665712861
 4\Bq,0,-2.8809764774,2.0039757887,1.6657128614\Bq,0,-2.8734249983,1.98
 86629039,1.6657128614\Bq,0,-2.8639393906,1.9744666887,1.6657128614\Bq,
 0,-2.8526819556,1.9616300444,1.6657128614\Bq,0,-2.8398453113,1.9503726
 094,1.6657128614\Bq,0,-2.8256490961,1.9408870017,1.6657128614\Bq,0,-2.
 8103362113,1.9333355226,1.6657128614\Bq,0,-2.7941686644,1.9278473799,1
 .6657128614\Bq,0,-2.7774230869,1.9245164774,1.6657128614\Bq,0,-2.76038
 6,1.9233998078,1.6657128614\Bq,0,-2.7433489131,1.9245164774,1.66571286
 14\Bq,0,-2.7266033356,1.9278473799,1.6657128614\Bq,0,-2.7104357887,1.9
 333355226,1.6657128614\Bq,0,-2.6951229039,1.9408870017,1.6657128614\Bq
 ,0,-2.6809266887,1.9503726094,1.6657128614\Bq,0,-2.6680900444,1.961630
 0444,1.6657128614\Bq,0,-2.6568326094,1.9744666887,1.6657128614\Bq,0,-2
 .6473470017,1.9886629039,1.6657128614\Bq,0,-2.6397955226,2.0039757887,
 1.6657128614\Bq,0,-2.6343073799,2.0201433356,1.6657128614\Bq,0,-2.6309
 764774,2.0368889131,1.6657128614\Bq,0,-2.5015669549,2.053926,1.6401938
 263\Bq,0,-2.5037811877,2.0877086644,1.6401938263\Bq,0,-2.510386,2.1209
 132981,1.6401938263\Bq,0,-2.5212683816,2.1529717605,1.6401938263\Bq,0,
 -2.536242132,2.1833355226,1.6401938263\Bq,0,-2.555051046,2.2114850518,
 1.6401938263\Bq,0,-2.5773732981,2.2369387019,1.6401938263\Bq,0,-2.6028
 269482,2.259260954,1.6401938263\Bq,0,-2.6309764774,2.278069868,1.64019
 38263\Bq,0,-2.6613402395,2.2930436184,1.6401938263\Bq,0,-2.6933987019,
 2.303926,1.6401938263\Bq,0,-2.7266033356,2.3105308123,1.6401938263\Bq,
 0,-2.760386,2.3127450451,1.6401938263\Bq,0,-2.7941686644,2.3105308123,
 1.6401938263\Bq,0,-2.8273732981,2.303926,1.6401938263\Bq,0,-2.85943176
 05,2.2930436184,1.6401938263\Bq,0,-2.8897955226,2.278069868,1.64019382
 63\Bq,0,-2.9179450518,2.259260954,1.6401938263\Bq,0,-2.9433987019,2.23
 69387019,1.6401938263\Bq,0,-2.965720954,2.2114850518,1.6401938263\Bq,0
 ,-2.984529868,2.1833355226,1.6401938263\\Version=ES64L-G09RevD.01\HF=-
 847.0037387\RMSD=4.051e-09\Dipole=0.0000004,0.0287843,0.0000009\Quadru
 pole=4.8545288,4.8066247,-9.6611535,-0.0000047,-3.6219991,-0.000002\PG
 =C01 [X(C22H14)]\\@


 THE REAL VOYAGE OF DISCOVERY CONSISTS NOT IN SEEKING NEW LANDSCAPES 
 BUT IN HAVING NEW EYES.
                                                    -- MARCEL PROUST
 Job cpu time:       0 days  1 hours 16 minutes 40.9 seconds.
 File lengths (MBytes):  RWF=    184 Int=      0 D2E=      0 Chk=     21 Scr=      1
 Normal termination of Gaussian 09 at Tue Sep 15 12:17:34 2020.
