 Entering Gaussian System, Link 0=g09
 Input=input_batch_26600.com
 Output=input_batch_26600.log
 Initial command:
 /share/programs/GAUSSIAN/64/g09/l1.exe "/scratch/aartigas.39176/Gau-3315481.inp" -scrdir="/scratch/aartigas.39176/"
 Entering Link 1 = /share/programs/GAUSSIAN/64/g09/l1.exe PID=   3315482.
  
 Copyright (c) 1988,1990,1992,1993,1995,1998,2003,2009,2013,
            Gaussian, Inc.  All Rights Reserved.
  
 This is part of the Gaussian(R) 09 program.  It is based on
 the Gaussian(R) 03 system (copyright 2003, Gaussian, Inc.),
 the Gaussian(R) 98 system (copyright 1998, Gaussian, Inc.),
 the Gaussian(R) 94 system (copyright 1995, Gaussian, Inc.),
 the Gaussian 92(TM) system (copyright 1992, Gaussian, Inc.),
 the Gaussian 90(TM) system (copyright 1990, Gaussian, Inc.),
 the Gaussian 88(TM) system (copyright 1988, Gaussian, Inc.),
 the Gaussian 86(TM) system (copyright 1986, Carnegie Mellon
 University), and the Gaussian 82(TM) system (copyright 1983,
 Carnegie Mellon University). Gaussian is a federally registered
 trademark of Gaussian, Inc.
  
 This software contains proprietary and confidential information,
 including trade secrets, belonging to Gaussian, Inc.
  
 This software is provided under written license and may be
 used, copied, transmitted, or stored only in accord with that
 written license.
  
 The following legend is applicable only to US Government
 contracts under FAR:
  
                    RESTRICTED RIGHTS LEGEND
  
 Use, reproduction and disclosure by the US Government is
 subject to restrictions as set forth in subparagraphs (a)
 and (c) of the Commercial Computer Software - Restricted
 Rights clause in FAR 52.227-19.
  
 Gaussian, Inc.
 340 Quinnipiac St., Bldg. 40, Wallingford CT 06492
  
  
 ---------------------------------------------------------------
 Warning -- This program may not be used in any manner that
 competes with the business of Gaussian, Inc. or will provide
 assistance to any competitor of Gaussian, Inc.  The licensee
 of this program is prohibited from giving any competitor of
 Gaussian, Inc. access to this program.  By using this program,
 the user acknowledges that Gaussian, Inc. is engaged in the
 business of creating and licensing software in the field of
 computational chemistry and represents and warrants to the
 licensee that it is not a competitor of Gaussian, Inc. and that
 it will not use this program in any manner prohibited above.
 ---------------------------------------------------------------
  

 Cite this work as:
 Gaussian 09, Revision D.01,
 M. J. Frisch, G. W. Trucks, H. B. Schlegel, G. E. Scuseria, 
 M. A. Robb, J. R. Cheeseman, G. Scalmani, V. Barone, B. Mennucci, 
 G. A. Petersson, H. Nakatsuji, M. Caricato, X. Li, H. P. Hratchian, 
 A. F. Izmaylov, J. Bloino, G. Zheng, J. L. Sonnenberg, M. Hada, 
 M. Ehara, K. Toyota, R. Fukuda, J. Hasegawa, M. Ishida, T. Nakajima, 
 Y. Honda, O. Kitao, H. Nakai, T. Vreven, J. A. Montgomery, Jr., 
 J. E. Peralta, F. Ogliaro, M. Bearpark, J. J. Heyd, E. Brothers, 
 K. N. Kudin, V. N. Staroverov, T. Keith, R. Kobayashi, J. Normand, 
 K. Raghavachari, A. Rendell, J. C. Burant, S. S. Iyengar, J. Tomasi, 
 M. Cossi, N. Rega, J. M. Millam, M. Klene, J. E. Knox, J. B. Cross, 
 V. Bakken, C. Adamo, J. Jaramillo, R. Gomperts, R. E. Stratmann, 
 O. Yazyev, A. J. Austin, R. Cammi, C. Pomelli, J. W. Ochterski, 
 R. L. Martin, K. Morokuma, V. G. Zakrzewski, G. A. Voth, 
 P. Salvador, J. J. Dannenberg, S. Dapprich, A. D. Daniels, 
 O. Farkas, J. B. Foresman, J. V. Ortiz, J. Cioslowski, 
 and D. J. Fox, Gaussian, Inc., Wallingford CT, 2013.
 
 ******************************************
 Gaussian 09:  ES64L-G09RevD.01 24-Apr-2013
                15-Sep-2020 
 ******************************************
 %OldChk=/home/aartigas/chk/5_helicene_spe.chk
 %nproc=8
 Will use up to    8 processors via shared memory.
 %mem=1000MB
 Copying data from "/home/aartigas/chk/5_helicene_spe.chk" to current chk file "/scratch/aartigas.39176/Gau-3315482.chk".
 ----------------------------------------------------
 #P rb3lyp/6-311+g** NMR Guess=Read geom=connectivity
 ----------------------------------------------------
 1/38=1,57=2/1;
 2/12=2,17=6,18=5,40=1/2;
 3/5=4,6=6,7=111,11=2,16=1,25=1,30=1,74=-5,116=1/1,2,8,3;
 4/5=1/1;
 5/5=2,38=6/2;
 8/6=1,10=90,11=11/1;
 10/13=100,45=16/2;
 6/7=2,8=2,9=2,10=2,28=1/1;
 99/9=1/99;
 Leave Link    1 at Tue Sep 15 13:49:08 2020, MaxMem=   131072000 cpu:         0.6
 (Enter /share/programs/GAUSSIAN/64/g09/l101.exe)
 -----
 Title
 -----
 Symbolic Z-matrix:
 Charge =  0 Multiplicity = 1
 C                     0.65324   3.25786  -0.20251 
 C                    -0.65324   3.25786   0.20251 
 C                     1.3725    2.03296  -0.32081 
 C                    -1.3725    2.03296   0.32081 
 C                     0.72247   0.79567  -0.05039 
 C                    -0.72247   0.79567   0.05039 
 C                     2.76039   2.05393  -0.67427 
 C                     3.50887   0.91392  -0.67136 
 C                     2.95523  -0.30962  -0.17748 
 C                     1.57472  -0.36111   0.19709 
 H                     1.18343   4.19574  -0.3846 
 H                    -1.18343   4.19574   0.3846 
 H                     3.20628   3.01242  -0.95139 
 H                     4.56002   0.93296  -0.96933 
 C                     3.78302  -1.4431    0.02831 
 C                     1.13743  -1.50753   0.91211 
 C                     1.97369  -2.58435   1.13806 
 C                     3.30185  -2.57159   0.66118 
 H                     4.82575  -1.39123  -0.29548 
 H                     0.12465  -1.53279   1.30847 
 H                     1.60359  -3.44568   1.69898 
 H                     3.95274  -3.43353   0.82513 
 C                    -3.50887   0.91392   0.67136 
 C                    -2.76039   2.05393   0.67427 
 C                    -2.95523  -0.30962   0.17748 
 C                    -1.57472  -0.36111  -0.19709 
 C                    -3.78302  -1.4431   -0.02831 
 C                    -3.30185  -2.57159  -0.66118 
 C                    -1.97369  -2.58435  -1.13806 
 C                    -1.13743  -1.50753  -0.91211 
 H                    -4.56002   0.93295   0.96933 
 H                    -3.20628   3.01242   0.95139 
 H                    -4.82575  -1.39123   0.29548 
 H                    -3.95274  -3.43353  -0.82513 
 H                    -1.60359  -3.44568  -1.69898 
 H                    -0.12465  -1.53279  -1.30847 
 Bq                    0.03378   3.60072  -0.99144 
 Bq                    0.04995   3.60621  -0.99144 
 Bq                    0.06526   3.61376  -0.99144 
 Bq                    0.07946   3.62325  -0.99144 
 Bq                    0.09229   3.6345   -0.99144 
 Bq                    0.10355   3.64734  -0.99144 
 Bq                    0.11304   3.66154  -0.99144 
 Bq                    0.12059   3.67685  -0.99144 
 Bq                    0.12608   3.69302  -0.99144 
 Bq                    0.12941   3.70976  -0.99144 
 Bq                   -1.83517   2.91058   1.50672 
 Bq                   -1.83517   2.91058   1.50672 
 Bq                   -1.83517   2.91058   1.50672 
 Bq                   -1.83517   2.91058   1.50672 
 Bq                   -1.83517   2.91058   1.50672 
 Bq                   -1.83517   2.91058   1.50672 
 Bq                   -1.83517   2.91058   1.50672 
 Bq                   -1.83517   2.91058   1.50672 
 Bq                   -1.83517   2.91058   1.50672 
 Bq                   -1.83517   2.91058   1.50672 
 Bq                   -1.83517   2.91058   1.50672 
 Bq                   -1.83517   2.91058   1.50672 
 Bq                   -1.83517   2.91058   1.50672 
 Bq                   -1.83517   2.91058   1.50672 
 Bq                   -1.83517   2.91058   1.50672 
 Bq                   -1.83517   2.91058   1.50672 
 Bq                   -1.83517   2.91058   1.50672 
 Bq                   -1.83517   2.91058   1.50672 
 Bq                   -1.83517   2.91058   1.50672 
 Bq                   -1.83517   2.91058   1.50672 
 Bq                   -1.83517   2.91058   1.50672 
 Bq                   -1.83517   2.91058   1.50672 
 Bq                   -1.83517   2.91058   1.50672 
 Bq                   -1.83517   2.91058   1.50672 
 Bq                   -1.83517   2.91058   1.50672 
 Bq                   -1.83517   2.91058   1.50672 
 Bq                   -1.83517   2.91058   1.50672 
 Bq                   -1.83517   2.91058   1.50672 
 Bq                   -1.83517   2.91058   1.50672 
 Bq                   -1.83517   2.91058   1.50672 
 Bq                   -1.83517   2.91058   1.50672 
 Bq                   -1.83517   2.91058   1.50672 
 Bq                   -1.83517   2.91058   1.50672 
 Bq                   -1.83517   2.91058   1.50672 
 Bq                   -1.83517   2.91058   1.50672 
 Bq                   -1.83517   2.91058   1.50672 
 Bq                   -1.83517   2.91058   1.50672 
 Bq                   -1.83517   2.91058   1.50672 
 Bq                   -1.83517   2.91058   1.50672 
 Bq                   -1.83517   2.91058   1.50672 
 Bq                   -1.83517   2.91058   1.50672 
 Bq                   -1.83517   2.91058   1.50672 
 Bq                   -1.83517   2.91058   1.50672 
 Bq                   -1.83517   2.91058   1.50672 
 Bq                   -1.83517   2.91058   1.50672 
 Bq                   -1.83517   2.91058   1.50672 
 Bq                   -1.83517   2.91058   1.50672 
 Bq                   -1.83517   2.91058   1.50672 
 Bq                   -1.70464   2.91058   1.49816 
 Bq                   -1.70576   2.92762   1.49816 
 Bq                   -1.70909   2.94436   1.49816 
 Bq                   -1.71458   2.96053   1.49816 
 Bq                   -1.72213   2.97584   1.49816 
 Bq                   -1.73161   2.99004   1.49816 
 Bq                   -1.74287   3.00288   1.49816 
 Bq                   -1.75571   3.01413   1.49816 
 Bq                   -1.7699    3.02362   1.49816 
 Bq                   -1.78522   3.03117   1.49816 
 Bq                   -1.80138   3.03666   1.49816 
 Bq                   -1.81813   3.03999   1.49816 
 Bq                   -1.83517   3.04111   1.49816 
 Bq                   -1.8522    3.03999   1.49816 
 Bq                   -1.86895   3.03666   1.49816 
 Bq                   -1.88512   3.03117   1.49816 
 Bq                   -1.90043   3.02362   1.49816 
 Bq                   -1.91463   3.01413   1.49816 
 Bq                   -1.92746   3.00288   1.49816 
 Bq                   -1.93872   2.99004   1.49816 
 Bq                   -1.94821   2.97584   1.49816 
 Bq                   -1.95576   2.96053   1.49816 
 Bq                   -1.96125   2.94436   1.49816 
 Bq                   -1.96458   2.92762   1.49816 
 Bq                   -1.96569   2.91058   1.49816 
 Bq                   -1.96458   2.89354   1.49816 
 Bq                   -1.96125   2.8768    1.49816 
 Bq                   -1.95576   2.86063   1.49816 
 Bq                   -1.94821   2.84532   1.49816 
 Bq                   -1.93872   2.83112   1.49816 
 Bq                   -1.92746   2.81828   1.49816 
 Bq                   -1.91463   2.80703   1.49816 
 Bq                   -1.90043   2.79754   1.49816 
 Bq                   -1.88512   2.78999   1.49816 
 Bq                   -1.86895   2.7845    1.49816 
 Bq                   -1.8522    2.78117   1.49816 
 Bq                   -1.83517   2.78005   1.49816 
 Bq                   -1.81813   2.78117   1.49816 
 Bq                   -1.80138   2.7845    1.49816 
 Bq                   -1.78522   2.78999   1.49816 
 Bq                   -1.7699    2.79754   1.49816 
 Bq                   -1.75571   2.80703   1.49816 
 Bq                   -1.74287   2.81828   1.49816 
 Bq                   -1.73161   2.83112   1.49816 
 Bq                   -1.72213   2.84532   1.49816 
 Bq                   -1.71458   2.86063   1.49816 
 Bq                   -1.70909   2.8768    1.49816 
 Bq                   -1.70576   2.89354   1.49816 
 Bq                   -1.57635   2.91058   1.47264 
 Bq                   -1.57856   2.94436   1.47264 
 Bq                   -1.58517   2.97757   1.47264 
 Bq                   -1.59605   3.00963   1.47264 
 Bq                   -1.61102   3.03999   1.47264 
 Bq                   -1.62983   3.06814   1.47264 
 Bq                   -1.65215   3.09359   1.47264 
 Bq                   -1.67761   3.11592   1.47264 
 Bq                   -1.70576   3.13472   1.47264 
 Bq                   -1.73612   3.1497    1.47264 
 Bq                   -1.76818   3.16058   1.47264 
 Bq                   -1.80138   3.16719   1.47264 
 Bq                   -1.83517   3.1694    1.47264 
 Bq                   -1.86895   3.16719   1.47264 
 Bq                   -1.90215   3.16058   1.47264 
 Bq                   -1.93421   3.1497    1.47264 
 Bq                   -1.96458   3.13472   1.47264 
 Bq                   -1.99273   3.11592   1.47264 
 Bq                   -2.01818   3.09359   1.47264 
 Bq                   -2.0405    3.06814   1.47264 
 Bq                   -2.05931   3.03999   1.47264 
 Bq                   -2.07428   3.00963   1.47264 
 Bq                   -2.08517   2.97757   1.47264 
 Bq                   -2.09177   2.94436   1.47264 
 Bq                   -2.09399   2.91058   1.47264 
 Bq                   -2.09177   2.8768    1.47264 
 Bq                   -2.08517   2.84359   1.47264 
 Bq                   -2.07428   2.81153   1.47264 
 Bq                   -2.05931   2.78117   1.47264 
 Bq                   -2.0405    2.75302   1.47264 
 Bq                   -2.01818   2.72757   1.47264 
 Bq                   -1.99273   2.70525   1.47264 
 Bq                   -1.96458   2.68644   1.47264 
 Bq                   -1.93421   2.67146   1.47264 
 Bq                   -1.90215   2.66058   1.47264 
 Bq                   -1.86895   2.65398   1.47264 
 Bq                   -1.83517   2.65176   1.47264 
 Bq                   -1.80138   2.65398   1.47264 
 Bq                   -1.76818   2.66058   1.47264 
 Bq                   -1.73612   2.67146   1.47264 
 Bq                   -1.70576   2.68644   1.47264 
 Bq                   -1.67761   2.70525   1.47264 
 Bq                   -1.65215   2.72757   1.47264 
 Bq                   -1.62983   2.75302   1.47264 
 Bq                   -1.61102   2.78117   1.47264 
 Bq                   -1.59605   2.81153   1.47264 
 Bq                   -1.58517   2.84359   1.47264 
 Bq                   -1.57856   2.8768    1.47264 
 Bq                   -1.45248   2.91058   1.43059 
 Bq                   -1.45576   2.96053   1.43059 
 Bq                   -1.46552   3.00963   1.43059 
 Bq                   -1.48161   3.05703   1.43059 
 Bq                   -1.50375   3.10192   1.43059 
 Bq                   -1.53156   3.14354   1.43059 
 Bq                   -1.56457   3.18118   1.43059 
 Bq                   -1.6022    3.21418   1.43059 
 Bq                   -1.64383   3.24199   1.43059 
 Bq                   -1.68872   3.26413   1.43059 
 Bq                   -1.73612   3.28022   1.43059 
 Bq                   -1.78522   3.28999   1.43059 
 Bq                   -1.83517   3.29326   1.43059 
 Bq                   -1.88512   3.28999   1.43059 
 Bq                   -1.93421   3.28022   1.43059 
 Bq                   -1.98161   3.26413   1.43059 
 Bq                   -2.02651   3.24199   1.43059 
 Bq                   -2.06813   3.21418   1.43059 
 Bq                   -2.10577   3.18118   1.43059 
 Bq                   -2.13877   3.14354   1.43059 
 Bq                   -2.16658   3.10192   1.43059 
 Bq                   -2.18872   3.05703   1.43059 
 Bq                   -2.20481   3.00963   1.43059 
 Bq                   -2.21458   2.96053   1.43059 
 Bq                   -2.21785   2.91058   1.43059 
 Bq                   -2.21458   2.86063   1.43059 
 Bq                   -2.20481   2.81153   1.43059 
 Bq                   -2.18872   2.76413   1.43059 
 Bq                   -2.16658   2.71924   1.43059 
 Bq                   -2.13877   2.67762   1.43059 
 Bq                   -2.10577   2.63998   1.43059 
 Bq                   -2.06813   2.60698   1.43059 
 Bq                   -2.02651   2.57917   1.43059 
 Bq                   -1.98161   2.55703   1.43059 
 Bq                   -1.93421   2.54094   1.43059 
 Bq                   -1.88512   2.53117   1.43059 
 Bq                   -1.83517   2.5279    1.43059 
 Bq                   -1.78522   2.53117   1.43059 
 Bq                   -1.73612   2.54094   1.43059 
 Bq                   -1.68872   2.55703   1.43059 
 Bq                   -1.64383   2.57917   1.43059 
 Bq                   -1.6022    2.60698   1.43059 
 Bq                   -1.56457   2.63998   1.43059 
 Bq                   -1.53156   2.67762   1.43059 
 Bq                   -1.50375   2.71924   1.43059 
 Bq                   -1.48161   2.76413   1.43059 
 
 NAtoms=    236 NQM=      236 NQMF=       0 NMMI=      0 NMMIF=      0
                NMic=       0 NMicF=      0.
                    Isotopes and Nuclear Properties:
 (Nuclear quadrupole moments (NQMom) in fm**2, nuclear magnetic moments (NMagM)
  in nuclear magnetons)

  Atom         1           2           3           4           5           6           7           8           9          10
 IAtWgt=          12          12          12          12          12          12          12          12          12          12
 AtmWgt=  12.0000000  12.0000000  12.0000000  12.0000000  12.0000000  12.0000000  12.0000000  12.0000000  12.0000000  12.0000000
 NucSpn=           0           0           0           0           0           0           0           0           0           0
 AtZEff=   0.0000000   0.0000000   0.0000000   0.0000000   0.0000000   0.0000000   0.0000000   0.0000000   0.0000000   0.0000000
 NQMom=    0.0000000   0.0000000   0.0000000   0.0000000   0.0000000   0.0000000   0.0000000   0.0000000   0.0000000   0.0000000
 NMagM=    0.0000000   0.0000000   0.0000000   0.0000000   0.0000000   0.0000000   0.0000000   0.0000000   0.0000000   0.0000000
 AtZNuc=   6.0000000   6.0000000   6.0000000   6.0000000   6.0000000   6.0000000   6.0000000   6.0000000   6.0000000   6.0000000

  Atom        11          12          13          14          15          16          17          18          19          20
 IAtWgt=           1           1           1           1          12          12          12          12           1           1
 AtmWgt=   1.0078250   1.0078250   1.0078250   1.0078250  12.0000000  12.0000000  12.0000000  12.0000000   1.0078250   1.0078250
 NucSpn=           1           1           1           1           0           0           0           0           1           1
 AtZEff=   0.0000000   0.0000000   0.0000000   0.0000000   0.0000000   0.0000000   0.0000000   0.0000000   0.0000000   0.0000000
 NQMom=    0.0000000   0.0000000   0.0000000   0.0000000   0.0000000   0.0000000   0.0000000   0.0000000   0.0000000   0.0000000
 NMagM=    2.7928460   2.7928460   2.7928460   2.7928460   0.0000000   0.0000000   0.0000000   0.0000000   2.7928460   2.7928460
 AtZNuc=   1.0000000   1.0000000   1.0000000   1.0000000   6.0000000   6.0000000   6.0000000   6.0000000   1.0000000   1.0000000

  Atom        21          22          23          24          25          26          27          28          29          30
 IAtWgt=           1           1          12          12          12          12          12          12          12          12
 AtmWgt=   1.0078250   1.0078250  12.0000000  12.0000000  12.0000000  12.0000000  12.0000000  12.0000000  12.0000000  12.0000000
 NucSpn=           1           1           0           0           0           0           0           0           0           0
 AtZEff=   0.0000000   0.0000000   0.0000000   0.0000000   0.0000000   0.0000000   0.0000000   0.0000000   0.0000000   0.0000000
 NQMom=    0.0000000   0.0000000   0.0000000   0.0000000   0.0000000   0.0000000   0.0000000   0.0000000   0.0000000   0.0000000
 NMagM=    2.7928460   2.7928460   0.0000000   0.0000000   0.0000000   0.0000000   0.0000000   0.0000000   0.0000000   0.0000000
 AtZNuc=   1.0000000   1.0000000   6.0000000   6.0000000   6.0000000   6.0000000   6.0000000   6.0000000   6.0000000   6.0000000

  Atom        31          32          33          34          35          36          37          38          39          40
 IAtWgt=           1           1           1           1           1           1           0           0           0           0
 AtmWgt=   1.0078250   1.0078250   1.0078250   1.0078250   1.0078250   1.0078250   0.0000000   0.0000000   0.0000000   0.0000000
 NucSpn=           1           1           1           1           1           1           0           0           0           0
 AtZEff=   0.0000000   0.0000000   0.0000000   0.0000000   0.0000000   0.0000000   0.0000000   0.0000000   0.0000000   0.0000000
 NQMom=    0.0000000   0.0000000   0.0000000   0.0000000   0.0000000   0.0000000   0.0000000   0.0000000   0.0000000   0.0000000
 NMagM=    2.7928460   2.7928460   2.7928460   2.7928460   2.7928460   2.7928460   0.0000000   0.0000000   0.0000000   0.0000000
 AtZNuc=   1.0000000   1.0000000   1.0000000   1.0000000   1.0000000   1.0000000   0.0000000   0.0000000   0.0000000   0.0000000

  Atom        41          42          43          44          45          46          47          48          49          50
 IAtWgt=           0           0           0           0           0           0           0           0           0           0
 AtmWgt=   0.0000000   0.0000000   0.0000000   0.0000000   0.0000000   0.0000000   0.0000000   0.0000000   0.0000000   0.0000000
 NucSpn=           0           0           0           0           0           0           0           0           0           0
 AtZEff=   0.0000000   0.0000000   0.0000000   0.0000000   0.0000000   0.0000000   0.0000000   0.0000000   0.0000000   0.0000000
 NQMom=    0.0000000   0.0000000   0.0000000   0.0000000   0.0000000   0.0000000   0.0000000   0.0000000   0.0000000   0.0000000
 NMagM=    0.0000000   0.0000000   0.0000000   0.0000000   0.0000000   0.0000000   0.0000000   0.0000000   0.0000000   0.0000000
 AtZNuc=   0.0000000   0.0000000   0.0000000   0.0000000   0.0000000   0.0000000   0.0000000   0.0000000   0.0000000   0.0000000

  Atom        51          52          53          54          55          56          57          58          59          60
 IAtWgt=           0           0           0           0           0           0           0           0           0           0
 AtmWgt=   0.0000000   0.0000000   0.0000000   0.0000000   0.0000000   0.0000000   0.0000000   0.0000000   0.0000000   0.0000000
 NucSpn=           0           0           0           0           0           0           0           0           0           0
 AtZEff=   0.0000000   0.0000000   0.0000000   0.0000000   0.0000000   0.0000000   0.0000000   0.0000000   0.0000000   0.0000000
 NQMom=    0.0000000   0.0000000   0.0000000   0.0000000   0.0000000   0.0000000   0.0000000   0.0000000   0.0000000   0.0000000
 NMagM=    0.0000000   0.0000000   0.0000000   0.0000000   0.0000000   0.0000000   0.0000000   0.0000000   0.0000000   0.0000000
 AtZNuc=   0.0000000   0.0000000   0.0000000   0.0000000   0.0000000   0.0000000   0.0000000   0.0000000   0.0000000   0.0000000

  Atom        61          62          63          64          65          66          67          68          69          70
 IAtWgt=           0           0           0           0           0           0           0           0           0           0
 AtmWgt=   0.0000000   0.0000000   0.0000000   0.0000000   0.0000000   0.0000000   0.0000000   0.0000000   0.0000000   0.0000000
 NucSpn=           0           0           0           0           0           0           0           0           0           0
 AtZEff=   0.0000000   0.0000000   0.0000000   0.0000000   0.0000000   0.0000000   0.0000000   0.0000000   0.0000000   0.0000000
 NQMom=    0.0000000   0.0000000   0.0000000   0.0000000   0.0000000   0.0000000   0.0000000   0.0000000   0.0000000   0.0000000
 NMagM=    0.0000000   0.0000000   0.0000000   0.0000000   0.0000000   0.0000000   0.0000000   0.0000000   0.0000000   0.0000000
 AtZNuc=   0.0000000   0.0000000   0.0000000   0.0000000   0.0000000   0.0000000   0.0000000   0.0000000   0.0000000   0.0000000

  Atom        71          72          73          74          75          76          77          78          79          80
 IAtWgt=           0           0           0           0           0           0           0           0           0           0
 AtmWgt=   0.0000000   0.0000000   0.0000000   0.0000000   0.0000000   0.0000000   0.0000000   0.0000000   0.0000000   0.0000000
 NucSpn=           0           0           0           0           0           0           0           0           0           0
 AtZEff=   0.0000000   0.0000000   0.0000000   0.0000000   0.0000000   0.0000000   0.0000000   0.0000000   0.0000000   0.0000000
 NQMom=    0.0000000   0.0000000   0.0000000   0.0000000   0.0000000   0.0000000   0.0000000   0.0000000   0.0000000   0.0000000
 NMagM=    0.0000000   0.0000000   0.0000000   0.0000000   0.0000000   0.0000000   0.0000000   0.0000000   0.0000000   0.0000000
 AtZNuc=   0.0000000   0.0000000   0.0000000   0.0000000   0.0000000   0.0000000   0.0000000   0.0000000   0.0000000   0.0000000

  Atom        81          82          83          84          85          86          87          88          89          90
 IAtWgt=           0           0           0           0           0           0           0           0           0           0
 AtmWgt=   0.0000000   0.0000000   0.0000000   0.0000000   0.0000000   0.0000000   0.0000000   0.0000000   0.0000000   0.0000000
 NucSpn=           0           0           0           0           0           0           0           0           0           0
 AtZEff=   0.0000000   0.0000000   0.0000000   0.0000000   0.0000000   0.0000000   0.0000000   0.0000000   0.0000000   0.0000000
 NQMom=    0.0000000   0.0000000   0.0000000   0.0000000   0.0000000   0.0000000   0.0000000   0.0000000   0.0000000   0.0000000
 NMagM=    0.0000000   0.0000000   0.0000000   0.0000000   0.0000000   0.0000000   0.0000000   0.0000000   0.0000000   0.0000000
 AtZNuc=   0.0000000   0.0000000   0.0000000   0.0000000   0.0000000   0.0000000   0.0000000   0.0000000   0.0000000   0.0000000

  Atom        91          92          93          94          95          96          97          98          99         100
 IAtWgt=           0           0           0           0           0           0           0           0           0           0
 AtmWgt=   0.0000000   0.0000000   0.0000000   0.0000000   0.0000000   0.0000000   0.0000000   0.0000000   0.0000000   0.0000000
 NucSpn=           0           0           0           0           0           0           0           0           0           0
 AtZEff=   0.0000000   0.0000000   0.0000000   0.0000000   0.0000000   0.0000000   0.0000000   0.0000000   0.0000000   0.0000000
 NQMom=    0.0000000   0.0000000   0.0000000   0.0000000   0.0000000   0.0000000   0.0000000   0.0000000   0.0000000   0.0000000
 NMagM=    0.0000000   0.0000000   0.0000000   0.0000000   0.0000000   0.0000000   0.0000000   0.0000000   0.0000000   0.0000000
 AtZNuc=   0.0000000   0.0000000   0.0000000   0.0000000   0.0000000   0.0000000   0.0000000   0.0000000   0.0000000   0.0000000

  Atom       101         102         103         104         105         106         107         108         109         110
 IAtWgt=           0           0           0           0           0           0           0           0           0           0
 AtmWgt=   0.0000000   0.0000000   0.0000000   0.0000000   0.0000000   0.0000000   0.0000000   0.0000000   0.0000000   0.0000000
 NucSpn=           0           0           0           0           0           0           0           0           0           0
 AtZEff=   0.0000000   0.0000000   0.0000000   0.0000000   0.0000000   0.0000000   0.0000000   0.0000000   0.0000000   0.0000000
 NQMom=    0.0000000   0.0000000   0.0000000   0.0000000   0.0000000   0.0000000   0.0000000   0.0000000   0.0000000   0.0000000
 NMagM=    0.0000000   0.0000000   0.0000000   0.0000000   0.0000000   0.0000000   0.0000000   0.0000000   0.0000000   0.0000000
 AtZNuc=   0.0000000   0.0000000   0.0000000   0.0000000   0.0000000   0.0000000   0.0000000   0.0000000   0.0000000   0.0000000

  Atom       111         112         113         114         115         116         117         118         119         120
 IAtWgt=           0           0           0           0           0           0           0           0           0           0
 AtmWgt=   0.0000000   0.0000000   0.0000000   0.0000000   0.0000000   0.0000000   0.0000000   0.0000000   0.0000000   0.0000000
 NucSpn=           0           0           0           0           0           0           0           0           0           0
 AtZEff=   0.0000000   0.0000000   0.0000000   0.0000000   0.0000000   0.0000000   0.0000000   0.0000000   0.0000000   0.0000000
 NQMom=    0.0000000   0.0000000   0.0000000   0.0000000   0.0000000   0.0000000   0.0000000   0.0000000   0.0000000   0.0000000
 NMagM=    0.0000000   0.0000000   0.0000000   0.0000000   0.0000000   0.0000000   0.0000000   0.0000000   0.0000000   0.0000000
 AtZNuc=   0.0000000   0.0000000   0.0000000   0.0000000   0.0000000   0.0000000   0.0000000   0.0000000   0.0000000   0.0000000

  Atom       121         122         123         124         125         126         127         128         129         130
 IAtWgt=           0           0           0           0           0           0           0           0           0           0
 AtmWgt=   0.0000000   0.0000000   0.0000000   0.0000000   0.0000000   0.0000000   0.0000000   0.0000000   0.0000000   0.0000000
 NucSpn=           0           0           0           0           0           0           0           0           0           0
 AtZEff=   0.0000000   0.0000000   0.0000000   0.0000000   0.0000000   0.0000000   0.0000000   0.0000000   0.0000000   0.0000000
 NQMom=    0.0000000   0.0000000   0.0000000   0.0000000   0.0000000   0.0000000   0.0000000   0.0000000   0.0000000   0.0000000
 NMagM=    0.0000000   0.0000000   0.0000000   0.0000000   0.0000000   0.0000000   0.0000000   0.0000000   0.0000000   0.0000000
 AtZNuc=   0.0000000   0.0000000   0.0000000   0.0000000   0.0000000   0.0000000   0.0000000   0.0000000   0.0000000   0.0000000

  Atom       131         132         133         134         135         136         137         138         139         140
 IAtWgt=           0           0           0           0           0           0           0           0           0           0
 AtmWgt=   0.0000000   0.0000000   0.0000000   0.0000000   0.0000000   0.0000000   0.0000000   0.0000000   0.0000000   0.0000000
 NucSpn=           0           0           0           0           0           0           0           0           0           0
 AtZEff=   0.0000000   0.0000000   0.0000000   0.0000000   0.0000000   0.0000000   0.0000000   0.0000000   0.0000000   0.0000000
 NQMom=    0.0000000   0.0000000   0.0000000   0.0000000   0.0000000   0.0000000   0.0000000   0.0000000   0.0000000   0.0000000
 NMagM=    0.0000000   0.0000000   0.0000000   0.0000000   0.0000000   0.0000000   0.0000000   0.0000000   0.0000000   0.0000000
 AtZNuc=   0.0000000   0.0000000   0.0000000   0.0000000   0.0000000   0.0000000   0.0000000   0.0000000   0.0000000   0.0000000

  Atom       141         142         143         144         145         146         147         148         149         150
 IAtWgt=           0           0           0           0           0           0           0           0           0           0
 AtmWgt=   0.0000000   0.0000000   0.0000000   0.0000000   0.0000000   0.0000000   0.0000000   0.0000000   0.0000000   0.0000000
 NucSpn=           0           0           0           0           0           0           0           0           0           0
 AtZEff=   0.0000000   0.0000000   0.0000000   0.0000000   0.0000000   0.0000000   0.0000000   0.0000000   0.0000000   0.0000000
 NQMom=    0.0000000   0.0000000   0.0000000   0.0000000   0.0000000   0.0000000   0.0000000   0.0000000   0.0000000   0.0000000
 NMagM=    0.0000000   0.0000000   0.0000000   0.0000000   0.0000000   0.0000000   0.0000000   0.0000000   0.0000000   0.0000000
 AtZNuc=   0.0000000   0.0000000   0.0000000   0.0000000   0.0000000   0.0000000   0.0000000   0.0000000   0.0000000   0.0000000

  Atom       151         152         153         154         155         156         157         158         159         160
 IAtWgt=           0           0           0           0           0           0           0           0           0           0
 AtmWgt=   0.0000000   0.0000000   0.0000000   0.0000000   0.0000000   0.0000000   0.0000000   0.0000000   0.0000000   0.0000000
 NucSpn=           0           0           0           0           0           0           0           0           0           0
 AtZEff=   0.0000000   0.0000000   0.0000000   0.0000000   0.0000000   0.0000000   0.0000000   0.0000000   0.0000000   0.0000000
 NQMom=    0.0000000   0.0000000   0.0000000   0.0000000   0.0000000   0.0000000   0.0000000   0.0000000   0.0000000   0.0000000
 NMagM=    0.0000000   0.0000000   0.0000000   0.0000000   0.0000000   0.0000000   0.0000000   0.0000000   0.0000000   0.0000000
 AtZNuc=   0.0000000   0.0000000   0.0000000   0.0000000   0.0000000   0.0000000   0.0000000   0.0000000   0.0000000   0.0000000

  Atom       161         162         163         164         165         166         167         168         169         170
 IAtWgt=           0           0           0           0           0           0           0           0           0           0
 AtmWgt=   0.0000000   0.0000000   0.0000000   0.0000000   0.0000000   0.0000000   0.0000000   0.0000000   0.0000000   0.0000000
 NucSpn=           0           0           0           0           0           0           0           0           0           0
 AtZEff=   0.0000000   0.0000000   0.0000000   0.0000000   0.0000000   0.0000000   0.0000000   0.0000000   0.0000000   0.0000000
 NQMom=    0.0000000   0.0000000   0.0000000   0.0000000   0.0000000   0.0000000   0.0000000   0.0000000   0.0000000   0.0000000
 NMagM=    0.0000000   0.0000000   0.0000000   0.0000000   0.0000000   0.0000000   0.0000000   0.0000000   0.0000000   0.0000000
 AtZNuc=   0.0000000   0.0000000   0.0000000   0.0000000   0.0000000   0.0000000   0.0000000   0.0000000   0.0000000   0.0000000

  Atom       171         172         173         174         175         176         177         178         179         180
 IAtWgt=           0           0           0           0           0           0           0           0           0           0
 AtmWgt=   0.0000000   0.0000000   0.0000000   0.0000000   0.0000000   0.0000000   0.0000000   0.0000000   0.0000000   0.0000000
 NucSpn=           0           0           0           0           0           0           0           0           0           0
 AtZEff=   0.0000000   0.0000000   0.0000000   0.0000000   0.0000000   0.0000000   0.0000000   0.0000000   0.0000000   0.0000000
 NQMom=    0.0000000   0.0000000   0.0000000   0.0000000   0.0000000   0.0000000   0.0000000   0.0000000   0.0000000   0.0000000
 NMagM=    0.0000000   0.0000000   0.0000000   0.0000000   0.0000000   0.0000000   0.0000000   0.0000000   0.0000000   0.0000000
 AtZNuc=   0.0000000   0.0000000   0.0000000   0.0000000   0.0000000   0.0000000   0.0000000   0.0000000   0.0000000   0.0000000

  Atom       181         182         183         184         185         186         187         188         189         190
 IAtWgt=           0           0           0           0           0           0           0           0           0           0
 AtmWgt=   0.0000000   0.0000000   0.0000000   0.0000000   0.0000000   0.0000000   0.0000000   0.0000000   0.0000000   0.0000000
 NucSpn=           0           0           0           0           0           0           0           0           0           0
 AtZEff=   0.0000000   0.0000000   0.0000000   0.0000000   0.0000000   0.0000000   0.0000000   0.0000000   0.0000000   0.0000000
 NQMom=    0.0000000   0.0000000   0.0000000   0.0000000   0.0000000   0.0000000   0.0000000   0.0000000   0.0000000   0.0000000
 NMagM=    0.0000000   0.0000000   0.0000000   0.0000000   0.0000000   0.0000000   0.0000000   0.0000000   0.0000000   0.0000000
 AtZNuc=   0.0000000   0.0000000   0.0000000   0.0000000   0.0000000   0.0000000   0.0000000   0.0000000   0.0000000   0.0000000

  Atom       191         192         193         194         195         196         197         198         199         200
 IAtWgt=           0           0           0           0           0           0           0           0           0           0
 AtmWgt=   0.0000000   0.0000000   0.0000000   0.0000000   0.0000000   0.0000000   0.0000000   0.0000000   0.0000000   0.0000000
 NucSpn=           0           0           0           0           0           0           0           0           0           0
 AtZEff=   0.0000000   0.0000000   0.0000000   0.0000000   0.0000000   0.0000000   0.0000000   0.0000000   0.0000000   0.0000000
 NQMom=    0.0000000   0.0000000   0.0000000   0.0000000   0.0000000   0.0000000   0.0000000   0.0000000   0.0000000   0.0000000
 NMagM=    0.0000000   0.0000000   0.0000000   0.0000000   0.0000000   0.0000000   0.0000000   0.0000000   0.0000000   0.0000000
 AtZNuc=   0.0000000   0.0000000   0.0000000   0.0000000   0.0000000   0.0000000   0.0000000   0.0000000   0.0000000   0.0000000

  Atom       201         202         203         204         205         206         207         208         209         210
 IAtWgt=           0           0           0           0           0           0           0           0           0           0
 AtmWgt=   0.0000000   0.0000000   0.0000000   0.0000000   0.0000000   0.0000000   0.0000000   0.0000000   0.0000000   0.0000000
 NucSpn=           0           0           0           0           0           0           0           0           0           0
 AtZEff=   0.0000000   0.0000000   0.0000000   0.0000000   0.0000000   0.0000000   0.0000000   0.0000000   0.0000000   0.0000000
 NQMom=    0.0000000   0.0000000   0.0000000   0.0000000   0.0000000   0.0000000   0.0000000   0.0000000   0.0000000   0.0000000
 NMagM=    0.0000000   0.0000000   0.0000000   0.0000000   0.0000000   0.0000000   0.0000000   0.0000000   0.0000000   0.0000000
 AtZNuc=   0.0000000   0.0000000   0.0000000   0.0000000   0.0000000   0.0000000   0.0000000   0.0000000   0.0000000   0.0000000

  Atom       211         212         213         214         215         216         217         218         219         220
 IAtWgt=           0           0           0           0           0           0           0           0           0           0
 AtmWgt=   0.0000000   0.0000000   0.0000000   0.0000000   0.0000000   0.0000000   0.0000000   0.0000000   0.0000000   0.0000000
 NucSpn=           0           0           0           0           0           0           0           0           0           0
 AtZEff=   0.0000000   0.0000000   0.0000000   0.0000000   0.0000000   0.0000000   0.0000000   0.0000000   0.0000000   0.0000000
 NQMom=    0.0000000   0.0000000   0.0000000   0.0000000   0.0000000   0.0000000   0.0000000   0.0000000   0.0000000   0.0000000
 NMagM=    0.0000000   0.0000000   0.0000000   0.0000000   0.0000000   0.0000000   0.0000000   0.0000000   0.0000000   0.0000000
 AtZNuc=   0.0000000   0.0000000   0.0000000   0.0000000   0.0000000   0.0000000   0.0000000   0.0000000   0.0000000   0.0000000

  Atom       221         222         223         224         225         226         227         228         229         230
 IAtWgt=           0           0           0           0           0           0           0           0           0           0
 AtmWgt=   0.0000000   0.0000000   0.0000000   0.0000000   0.0000000   0.0000000   0.0000000   0.0000000   0.0000000   0.0000000
 NucSpn=           0           0           0           0           0           0           0           0           0           0
 AtZEff=   0.0000000   0.0000000   0.0000000   0.0000000   0.0000000   0.0000000   0.0000000   0.0000000   0.0000000   0.0000000
 NQMom=    0.0000000   0.0000000   0.0000000   0.0000000   0.0000000   0.0000000   0.0000000   0.0000000   0.0000000   0.0000000
 NMagM=    0.0000000   0.0000000   0.0000000   0.0000000   0.0000000   0.0000000   0.0000000   0.0000000   0.0000000   0.0000000
 AtZNuc=   0.0000000   0.0000000   0.0000000   0.0000000   0.0000000   0.0000000   0.0000000   0.0000000   0.0000000   0.0000000

  Atom       231         232         233         234         235         236
 IAtWgt=           0           0           0           0           0           0
 AtmWgt=   0.0000000   0.0000000   0.0000000   0.0000000   0.0000000   0.0000000
 NucSpn=           0           0           0           0           0           0
 AtZEff=   0.0000000   0.0000000   0.0000000   0.0000000   0.0000000   0.0000000
 NQMom=    0.0000000   0.0000000   0.0000000   0.0000000   0.0000000   0.0000000
 NMagM=    0.0000000   0.0000000   0.0000000   0.0000000   0.0000000   0.0000000
 AtZNuc=   0.0000000   0.0000000   0.0000000   0.0000000   0.0000000   0.0000000
 Leave Link  101 at Tue Sep 15 13:49:09 2020, MaxMem=   131072000 cpu:         4.4
 (Enter /share/programs/GAUSSIAN/64/g09/l202.exe)
 Symmetry turned off:
 Cannot cope with ghost atoms or with translation vectors.
 Stoichiometry    C22H14
 Framework group  C1[X(C22H14)]
 NUMDOF-- NAT=    36 NAtoms=   236
 Deg. of freedom     0
 Full point group                 C1      NOp   1
                          Input orientation:                          
 ---------------------------------------------------------------------
 Center     Atomic      Atomic             Coordinates (Angstroms)
 Number     Number       Type             X           Y           Z
 ---------------------------------------------------------------------
      1          6           0        0.653241    3.257859   -0.202510
      2          6           0       -0.653243    3.257860    0.202510
      3          6           0        1.372495    2.032956   -0.320807
      4          6           0       -1.372495    2.032956    0.320807
      5          6           0        0.722474    0.795666   -0.050388
      6          6           0       -0.722474    0.795667    0.050387
      7          6           0        2.760385    2.053927   -0.674268
      8          6           0        3.508866    0.913916   -0.671362
      9          6           0        2.955226   -0.309622   -0.177479
     10          6           0        1.574722   -0.361114    0.197094
     11          1           0        1.183427    4.195740   -0.384599
     12          1           0       -1.183429    4.195740    0.384599
     13          1           0        3.206283    3.012423   -0.951392
     14          1           0        4.560023    0.932956   -0.969333
     15          6           0        3.783020   -1.443098    0.028309
     16          6           0        1.137427   -1.507533    0.912109
     17          6           0        1.973691   -2.584349    1.138062
     18          6           0        3.301853   -2.571588    0.661177
     19          1           0        4.825754   -1.391230   -0.295484
     20          1           0        0.124652   -1.532788    1.308472
     21          1           0        1.603586   -3.445682    1.698977
     22          1           0        3.952742   -3.433526    0.825134
     23          6           0       -3.508866    0.913915    0.671362
     24          6           0       -2.760386    2.053926    0.674268
     25          6           0       -2.955226   -0.309623    0.177479
     26          6           0       -1.574722   -0.361114   -0.197094
     27          6           0       -3.783020   -1.443099   -0.028309
     28          6           0       -3.301852   -2.571589   -0.661177
     29          6           0       -1.973690   -2.584349   -1.138061
     30          6           0       -1.137426   -1.507534   -0.912109
     31          1           0       -4.560022    0.932954    0.969334
     32          1           0       -3.206283    3.012421    0.951392
     33          1           0       -4.825754   -1.391232    0.295484
     34          1           0       -3.952741   -3.433528   -0.825134
     35          1           0       -1.603585   -3.445682   -1.698976
     36          1           0       -0.124652   -1.532788   -1.308471
     37          0           0        0.033782    3.600721   -0.991445
     38          0           0        0.049949    3.606209   -0.991445
     39          0           0        0.065262    3.613761   -0.991445
     40          0           0        0.079458    3.623246   -0.991445
     41          0           0        0.092295    3.634504   -0.991445
     42          0           0        0.103552    3.647340   -0.991445
     43          0           0        0.113038    3.661537   -0.991445
     44          0           0        0.120589    3.676850   -0.991445
     45          0           0        0.126078    3.693017   -0.991445
     46          0           0        0.129409    3.709763   -0.991445
     47          0           0       -1.835167    2.910581    1.506715
     48          0           0       -1.835167    2.910581    1.506715
     49          0           0       -1.835167    2.910581    1.506715
     50          0           0       -1.835167    2.910581    1.506715
     51          0           0       -1.835167    2.910581    1.506715
     52          0           0       -1.835167    2.910581    1.506715
     53          0           0       -1.835167    2.910581    1.506715
     54          0           0       -1.835167    2.910581    1.506715
     55          0           0       -1.835167    2.910581    1.506715
     56          0           0       -1.835167    2.910581    1.506715
     57          0           0       -1.835167    2.910581    1.506715
     58          0           0       -1.835167    2.910581    1.506715
     59          0           0       -1.835167    2.910581    1.506715
     60          0           0       -1.835167    2.910581    1.506715
     61          0           0       -1.835167    2.910581    1.506715
     62          0           0       -1.835167    2.910581    1.506715
     63          0           0       -1.835167    2.910581    1.506715
     64          0           0       -1.835167    2.910581    1.506715
     65          0           0       -1.835167    2.910581    1.506715
     66          0           0       -1.835167    2.910581    1.506715
     67          0           0       -1.835167    2.910581    1.506715
     68          0           0       -1.835167    2.910581    1.506715
     69          0           0       -1.835167    2.910581    1.506715
     70          0           0       -1.835167    2.910581    1.506715
     71          0           0       -1.835167    2.910581    1.506715
     72          0           0       -1.835167    2.910581    1.506715
     73          0           0       -1.835167    2.910581    1.506715
     74          0           0       -1.835167    2.910581    1.506715
     75          0           0       -1.835167    2.910581    1.506715
     76          0           0       -1.835167    2.910581    1.506715
     77          0           0       -1.835167    2.910581    1.506715
     78          0           0       -1.835167    2.910581    1.506715
     79          0           0       -1.835167    2.910581    1.506715
     80          0           0       -1.835167    2.910581    1.506715
     81          0           0       -1.835167    2.910581    1.506715
     82          0           0       -1.835167    2.910581    1.506715
     83          0           0       -1.835167    2.910581    1.506715
     84          0           0       -1.835167    2.910581    1.506715
     85          0           0       -1.835167    2.910581    1.506715
     86          0           0       -1.835167    2.910581    1.506715
     87          0           0       -1.835167    2.910581    1.506715
     88          0           0       -1.835167    2.910581    1.506715
     89          0           0       -1.835167    2.910581    1.506715
     90          0           0       -1.835167    2.910581    1.506715
     91          0           0       -1.835167    2.910581    1.506715
     92          0           0       -1.835167    2.910581    1.506715
     93          0           0       -1.835167    2.910581    1.506715
     94          0           0       -1.835167    2.910581    1.506715
     95          0           0       -1.704641    2.910581    1.498160
     96          0           0       -1.705758    2.927618    1.498160
     97          0           0       -1.709089    2.944363    1.498160
     98          0           0       -1.714577    2.960531    1.498160
     99          0           0       -1.722128    2.975844    1.498160
    100          0           0       -1.731614    2.990040    1.498160
    101          0           0       -1.742871    3.002877    1.498160
    102          0           0       -1.755708    3.014134    1.498160
    103          0           0       -1.769904    3.023620    1.498160
    104          0           0       -1.785217    3.031171    1.498160
    105          0           0       -1.801385    3.036659    1.498160
    106          0           0       -1.818130    3.039990    1.498160
    107          0           0       -1.835167    3.041107    1.498160
    108          0           0       -1.852204    3.039990    1.498160
    109          0           0       -1.868950    3.036659    1.498160
    110          0           0       -1.885117    3.031171    1.498160
    111          0           0       -1.900430    3.023620    1.498160
    112          0           0       -1.914627    3.014134    1.498160
    113          0           0       -1.927463    3.002877    1.498160
    114          0           0       -1.938721    2.990040    1.498160
    115          0           0       -1.948206    2.975844    1.498160
    116          0           0       -1.955758    2.960531    1.498160
    117          0           0       -1.961246    2.944363    1.498160
    118          0           0       -1.964577    2.927618    1.498160
    119          0           0       -1.965693    2.910581    1.498160
    120          0           0       -1.964577    2.893544    1.498160
    121          0           0       -1.961246    2.876798    1.498160
    122          0           0       -1.955758    2.860630    1.498160
    123          0           0       -1.948206    2.845318    1.498160
    124          0           0       -1.938721    2.831121    1.498160
    125          0           0       -1.927463    2.818285    1.498160
    126          0           0       -1.914627    2.807027    1.498160
    127          0           0       -1.900430    2.797542    1.498160
    128          0           0       -1.885117    2.789990    1.498160
    129          0           0       -1.868950    2.784502    1.498160
    130          0           0       -1.852204    2.781171    1.498160
    131          0           0       -1.835167    2.780054    1.498160
    132          0           0       -1.818130    2.781171    1.498160
    133          0           0       -1.801385    2.784502    1.498160
    134          0           0       -1.785217    2.789990    1.498160
    135          0           0       -1.769904    2.797542    1.498160
    136          0           0       -1.755708    2.807027    1.498160
    137          0           0       -1.742871    2.818285    1.498160
    138          0           0       -1.731614    2.831121    1.498160
    139          0           0       -1.722128    2.845318    1.498160
    140          0           0       -1.714577    2.860630    1.498160
    141          0           0       -1.709089    2.876798    1.498160
    142          0           0       -1.705758    2.893544    1.498160
    143          0           0       -1.576348    2.910581    1.472641
    144          0           0       -1.578562    2.944363    1.472641
    145          0           0       -1.585167    2.977568    1.472641
    146          0           0       -1.596050    3.009626    1.472641
    147          0           0       -1.611023    3.039990    1.472641
    148          0           0       -1.629832    3.068140    1.472641
    149          0           0       -1.652154    3.093593    1.472641
    150          0           0       -1.677608    3.115916    1.472641
    151          0           0       -1.705758    3.134724    1.472641
    152          0           0       -1.736121    3.149698    1.472641
    153          0           0       -1.768180    3.160581    1.472641
    154          0           0       -1.801385    3.167185    1.472641
    155          0           0       -1.835167    3.169400    1.472641
    156          0           0       -1.868950    3.167185    1.472641
    157          0           0       -1.902154    3.160581    1.472641
    158          0           0       -1.934213    3.149698    1.472641
    159          0           0       -1.964577    3.134724    1.472641
    160          0           0       -1.992726    3.115916    1.472641
    161          0           0       -2.018180    3.093593    1.472641
    162          0           0       -2.040502    3.068140    1.472641
    163          0           0       -2.059311    3.039990    1.472641
    164          0           0       -2.074285    3.009626    1.472641
    165          0           0       -2.085167    2.977568    1.472641
    166          0           0       -2.091772    2.944363    1.472641
    167          0           0       -2.093986    2.910581    1.472641
    168          0           0       -2.091772    2.876798    1.472641
    169          0           0       -2.085167    2.843593    1.472641
    170          0           0       -2.074285    2.811535    1.472641
    171          0           0       -2.059311    2.781171    1.472641
    172          0           0       -2.040502    2.753022    1.472641
    173          0           0       -2.018180    2.727568    1.472641
    174          0           0       -1.992726    2.705246    1.472641
    175          0           0       -1.964577    2.686437    1.472641
    176          0           0       -1.934213    2.671463    1.472641
    177          0           0       -1.902154    2.660581    1.472641
    178          0           0       -1.868950    2.653976    1.472641
    179          0           0       -1.835167    2.651762    1.472641
    180          0           0       -1.801385    2.653976    1.472641
    181          0           0       -1.768180    2.660581    1.472641
    182          0           0       -1.736121    2.671463    1.472641
    183          0           0       -1.705758    2.686437    1.472641
    184          0           0       -1.677608    2.705246    1.472641
    185          0           0       -1.652154    2.727568    1.472641
    186          0           0       -1.629832    2.753022    1.472641
    187          0           0       -1.611023    2.781171    1.472641
    188          0           0       -1.596050    2.811535    1.472641
    189          0           0       -1.585167    2.843593    1.472641
    190          0           0       -1.578562    2.876798    1.472641
    191          0           0       -1.452484    2.910581    1.430595
    192          0           0       -1.455758    2.960531    1.430595
    193          0           0       -1.465523    3.009626    1.430595
    194          0           0       -1.481614    3.057027    1.430595
    195          0           0       -1.503754    3.101922    1.430595
    196          0           0       -1.531564    3.143544    1.430595
    197          0           0       -1.564569    3.181179    1.430595
    198          0           0       -1.602204    3.214184    1.430595
    199          0           0       -1.643825    3.241994    1.430595
    200          0           0       -1.688721    3.264134    1.430595
    201          0           0       -1.736121    3.280224    1.430595
    202          0           0       -1.785217    3.289990    1.430595
    203          0           0       -1.835167    3.293264    1.430595
    204          0           0       -1.885117    3.289990    1.430595
    205          0           0       -1.934213    3.280224    1.430595
    206          0           0       -1.981614    3.264134    1.430595
    207          0           0       -2.026509    3.241994    1.430595
    208          0           0       -2.068130    3.214184    1.430595
    209          0           0       -2.105765    3.181179    1.430595
    210          0           0       -2.138770    3.143544    1.430595
    211          0           0       -2.166581    3.101922    1.430595
    212          0           0       -2.188721    3.057027    1.430595
    213          0           0       -2.204811    3.009626    1.430595
    214          0           0       -2.214577    2.960531    1.430595
    215          0           0       -2.217851    2.910581    1.430595
    216          0           0       -2.214577    2.860630    1.430595
    217          0           0       -2.204811    2.811535    1.430595
    218          0           0       -2.188721    2.764134    1.430595
    219          0           0       -2.166581    2.719239    1.430595
    220          0           0       -2.138770    2.677618    1.430595
    221          0           0       -2.105765    2.639983    1.430595
    222          0           0       -2.068130    2.606977    1.430595
    223          0           0       -2.026509    2.579167    1.430595
    224          0           0       -1.981614    2.557027    1.430595
    225          0           0       -1.934213    2.540937    1.430595
    226          0           0       -1.885117    2.531171    1.430595
    227          0           0       -1.835167    2.527897    1.430595
    228          0           0       -1.785217    2.531171    1.430595
    229          0           0       -1.736121    2.540937    1.430595
    230          0           0       -1.688721    2.557027    1.430595
    231          0           0       -1.643825    2.579167    1.430595
    232          0           0       -1.602204    2.606977    1.430595
    233          0           0       -1.564569    2.639983    1.430595
    234          0           0       -1.531564    2.677618    1.430595
    235          0           0       -1.503754    2.719239    1.430595
    236          0           0       -1.481614    2.764134    1.430595
 ---------------------------------------------------------------------
 Rotational constants (GHZ):      0.4454681      0.2811480      0.1854303
 Leave Link  202 at Tue Sep 15 13:49:09 2020, MaxMem=   131072000 cpu:         0.1
 (Enter /share/programs/GAUSSIAN/64/g09/l301.exe)
 Standard basis: 6-311+G(d,p) (5D, 7F)
 Warning:  center  37 has no basis functions!
 Warning:  center  38 has no basis functions!
 Warning:  center  39 has no basis functions!
 Warning:  center  40 has no basis functions!
 Warning:  center  41 has no basis functions!
 Warning:  center  42 has no basis functions!
 Warning:  center  43 has no basis functions!
 Warning:  center  44 has no basis functions!
 Warning:  center  45 has no basis functions!
 Warning:  center  46 has no basis functions!
 Warning:  center  47 has no basis functions!
 Warning:  center  48 has no basis functions!
 Warning:  center  49 has no basis functions!
 Warning:  center  50 has no basis functions!
 Warning:  center  51 has no basis functions!
 Warning:  center  52 has no basis functions!
 Warning:  center  53 has no basis functions!
 Warning:  center  54 has no basis functions!
 Warning:  center  55 has no basis functions!
 Warning:  center  56 has no basis functions!
 Warning:  center  57 has no basis functions!
 Warning:  center  58 has no basis functions!
 Warning:  center  59 has no basis functions!
 Warning:  center  60 has no basis functions!
 Warning:  center  61 has no basis functions!
 Warning:  center  62 has no basis functions!
 Warning:  center  63 has no basis functions!
 Warning:  center  64 has no basis functions!
 Warning:  center  65 has no basis functions!
 Warning:  center  66 has no basis functions!
 Warning:  center  67 has no basis functions!
 Warning:  center  68 has no basis functions!
 Warning:  center  69 has no basis functions!
 Warning:  center  70 has no basis functions!
 Warning:  center  71 has no basis functions!
 Warning:  center  72 has no basis functions!
 Warning:  center  73 has no basis functions!
 Warning:  center  74 has no basis functions!
 Warning:  center  75 has no basis functions!
 Warning:  center  76 has no basis functions!
 Warning:  center  77 has no basis functions!
 Warning:  center  78 has no basis functions!
 Warning:  center  79 has no basis functions!
 Warning:  center  80 has no basis functions!
 Warning:  center  81 has no basis functions!
 Warning:  center  82 has no basis functions!
 Warning:  center  83 has no basis functions!
 Warning:  center  84 has no basis functions!
 Warning:  center  85 has no basis functions!
 Warning:  center  86 has no basis functions!
 Warning:  center  87 has no basis functions!
 Warning:  center  88 has no basis functions!
 Warning:  center  89 has no basis functions!
 Warning:  center  90 has no basis functions!
 Warning:  center  91 has no basis functions!
 Warning:  center  92 has no basis functions!
 Warning:  center  93 has no basis functions!
 Warning:  center  94 has no basis functions!
 Warning:  center  95 has no basis functions!
 Warning:  center  96 has no basis functions!
 Warning:  center  97 has no basis functions!
 Warning:  center  98 has no basis functions!
 Warning:  center  99 has no basis functions!
 Warning:  center 100 has no basis functions!
 Warning:  center 101 has no basis functions!
 Warning:  center 102 has no basis functions!
 Warning:  center 103 has no basis functions!
 Warning:  center 104 has no basis functions!
 Warning:  center 105 has no basis functions!
 Warning:  center 106 has no basis functions!
 Warning:  center 107 has no basis functions!
 Warning:  center 108 has no basis functions!
 Warning:  center 109 has no basis functions!
 Warning:  center 110 has no basis functions!
 Warning:  center 111 has no basis functions!
 Warning:  center 112 has no basis functions!
 Warning:  center 113 has no basis functions!
 Warning:  center 114 has no basis functions!
 Warning:  center 115 has no basis functions!
 Warning:  center 116 has no basis functions!
 Warning:  center 117 has no basis functions!
 Warning:  center 118 has no basis functions!
 Warning:  center 119 has no basis functions!
 Warning:  center 120 has no basis functions!
 Warning:  center 121 has no basis functions!
 Warning:  center 122 has no basis functions!
 Warning:  center 123 has no basis functions!
 Warning:  center 124 has no basis functions!
 Warning:  center 125 has no basis functions!
 Warning:  center 126 has no basis functions!
 Warning:  center 127 has no basis functions!
 Warning:  center 128 has no basis functions!
 Warning:  center 129 has no basis functions!
 Warning:  center 130 has no basis functions!
 Warning:  center 131 has no basis functions!
 Warning:  center 132 has no basis functions!
 Warning:  center 133 has no basis functions!
 Warning:  center 134 has no basis functions!
 Warning:  center 135 has no basis functions!
 Warning:  center 136 has no basis functions!
 Warning:  center 137 has no basis functions!
 Warning:  center 138 has no basis functions!
 Warning:  center 139 has no basis functions!
 Warning:  center 140 has no basis functions!
 Warning:  center 141 has no basis functions!
 Warning:  center 142 has no basis functions!
 Warning:  center 143 has no basis functions!
 Warning:  center 144 has no basis functions!
 Warning:  center 145 has no basis functions!
 Warning:  center 146 has no basis functions!
 Warning:  center 147 has no basis functions!
 Warning:  center 148 has no basis functions!
 Warning:  center 149 has no basis functions!
 Warning:  center 150 has no basis functions!
 Warning:  center 151 has no basis functions!
 Warning:  center 152 has no basis functions!
 Warning:  center 153 has no basis functions!
 Warning:  center 154 has no basis functions!
 Warning:  center 155 has no basis functions!
 Warning:  center 156 has no basis functions!
 Warning:  center 157 has no basis functions!
 Warning:  center 158 has no basis functions!
 Warning:  center 159 has no basis functions!
 Warning:  center 160 has no basis functions!
 Warning:  center 161 has no basis functions!
 Warning:  center 162 has no basis functions!
 Warning:  center 163 has no basis functions!
 Warning:  center 164 has no basis functions!
 Warning:  center 165 has no basis functions!
 Warning:  center 166 has no basis functions!
 Warning:  center 167 has no basis functions!
 Warning:  center 168 has no basis functions!
 Warning:  center 169 has no basis functions!
 Warning:  center 170 has no basis functions!
 Warning:  center 171 has no basis functions!
 Warning:  center 172 has no basis functions!
 Warning:  center 173 has no basis functions!
 Warning:  center 174 has no basis functions!
 Warning:  center 175 has no basis functions!
 Warning:  center 176 has no basis functions!
 Warning:  center 177 has no basis functions!
 Warning:  center 178 has no basis functions!
 Warning:  center 179 has no basis functions!
 Warning:  center 180 has no basis functions!
 Warning:  center 181 has no basis functions!
 Warning:  center 182 has no basis functions!
 Warning:  center 183 has no basis functions!
 Warning:  center 184 has no basis functions!
 Warning:  center 185 has no basis functions!
 Warning:  center 186 has no basis functions!
 Warning:  center 187 has no basis functions!
 Warning:  center 188 has no basis functions!
 Warning:  center 189 has no basis functions!
 Warning:  center 190 has no basis functions!
 Warning:  center 191 has no basis functions!
 Warning:  center 192 has no basis functions!
 Warning:  center 193 has no basis functions!
 Warning:  center 194 has no basis functions!
 Warning:  center 195 has no basis functions!
 Warning:  center 196 has no basis functions!
 Warning:  center 197 has no basis functions!
 Warning:  center 198 has no basis functions!
 Warning:  center 199 has no basis functions!
 Warning:  center 200 has no basis functions!
 Warning:  center 201 has no basis functions!
 Warning:  center 202 has no basis functions!
 Warning:  center 203 has no basis functions!
 Warning:  center 204 has no basis functions!
 Warning:  center 205 has no basis functions!
 Warning:  center 206 has no basis functions!
 Warning:  center 207 has no basis functions!
 Warning:  center 208 has no basis functions!
 Warning:  center 209 has no basis functions!
 Warning:  center 210 has no basis functions!
 Warning:  center 211 has no basis functions!
 Warning:  center 212 has no basis functions!
 Warning:  center 213 has no basis functions!
 Warning:  center 214 has no basis functions!
 Warning:  center 215 has no basis functions!
 Warning:  center 216 has no basis functions!
 Warning:  center 217 has no basis functions!
 Warning:  center 218 has no basis functions!
 Warning:  center 219 has no basis functions!
 Warning:  center 220 has no basis functions!
 Warning:  center 221 has no basis functions!
 Warning:  center 222 has no basis functions!
 Warning:  center 223 has no basis functions!
 Warning:  center 224 has no basis functions!
 Warning:  center 225 has no basis functions!
 Warning:  center 226 has no basis functions!
 Warning:  center 227 has no basis functions!
 Warning:  center 228 has no basis functions!
 Warning:  center 229 has no basis functions!
 Warning:  center 230 has no basis functions!
 Warning:  center 231 has no basis functions!
 Warning:  center 232 has no basis functions!
 Warning:  center 233 has no basis functions!
 Warning:  center 234 has no basis functions!
 Warning:  center 235 has no basis functions!
 Warning:  center 236 has no basis functions!
 Ernie: Thresh=  0.10000D-02 Tol=  0.10000D-05 Strict=F.
   568 basis functions,   904 primitive gaussians,   590 cartesian basis functions
    73 alpha electrons       73 beta electrons
       nuclear repulsion energy      1599.9156270972 Hartrees.
 IExCor=  402 DFT=T Ex+Corr=B3LYP ExCW=0 ScaHFX=  0.200000
 ScaDFX=  0.800000  0.720000  1.000000  0.810000 ScalE2=  1.000000  1.000000
 IRadAn=      0 IRanWt=     -1 IRanGd=            0 ICorTp=0 IEmpDi=  4
 NAtoms=  236 NActive=  236 NUniq=  236 SFac= 1.00D+00 NAtFMM=   60 NAOKFM=T Big=T
 Integral buffers will be    131072 words long.
 Raffenetti 2 integral format.
 Two-electron integral symmetry is turned off.
 Leave Link  301 at Tue Sep 15 13:49:09 2020, MaxMem=   131072000 cpu:         0.6
 (Enter /share/programs/GAUSSIAN/64/g09/l302.exe)
 NPDir=0 NMtPBC=     1 NCelOv=     1 NCel=       1 NClECP=     1 NCelD=      1
         NCelK=      1 NCelE2=     1 NClLst=     1 CellRange=     0.0.
 One-electron integrals computed using PRISM.
 NBasis=   568 RedAO= T EigKep=  1.01D-06  NBF=   568
 NBsUse=   557 1.00D-06 EigRej=  9.19D-07 NBFU=   557
 Precomputing XC quadrature grid using
 IXCGrd= 4 IRadAn=           0 IRanWt=          -1 IRanGd=           0 AccXCQ= 0.00D+00.
 Generated NRdTot=       0 NPtTot=           0 NUsed=           0 NTot=          32
 NSgBfM=   587   588   588   589   589 MxSgAt=   236 MxSgA2=    36.
 Leave Link  302 at Tue Sep 15 13:49:12 2020, MaxMem=   131072000 cpu:        22.2
 (Enter /share/programs/GAUSSIAN/64/g09/l308.exe)
 Leave Link  308 at Tue Sep 15 13:49:12 2020, MaxMem=   131072000 cpu:         0.9
 (Enter /share/programs/GAUSSIAN/64/g09/l303.exe)
 DipDrv:  MaxL=1.
 Leave Link  303 at Tue Sep 15 13:49:12 2020, MaxMem=   131072000 cpu:         0.8
 (Enter /share/programs/GAUSSIAN/64/g09/l401.exe)
 Initial guess from the checkpoint file:  "/scratch/aartigas.39176/Gau-3315482.chk"
 Skipping rotation of guess because NAtoms(RWF)=  236 differs from NAtoms(Chk)=   36.
 Guess basis will be translated and rotated to current coordinates.
 JPrj=2 DoOrth=T DoCkMO=T.
 Leave Link  401 at Tue Sep 15 13:49:17 2020, MaxMem=   131072000 cpu:        21.4
 (Enter /share/programs/GAUSSIAN/64/g09/l502.exe)
 Closed shell SCF:
 Using DIIS extrapolation, IDIIS=  1040.
 Two-electron integral symmetry not used.
 IVT=     1071582 IEndB=     1071582 NGot=   131072000 MDV=   130365749
 LenX=   130365749 LenY=   130017059
 Requested convergence on RMS density matrix=1.00D-08 within 128 cycles.
 Requested convergence on MAX density matrix=1.00D-06.
 Requested convergence on             energy=1.00D-06.
 No special actions if energy rises.
 Fock matrices will be formed incrementally for  20 cycles.

 Cycle   1  Pass 1  IDiag  1:
 FoFJK:  IHMeth= 1 ICntrl=       0 DoSepK=F KAlg= 0 I1Cent=   0 FoldK=F
 IRaf= 940000000 NMat=   1 IRICut=       1 DoRegI=T DoRafI=F ISym2E= 0.
 FoFCou: FMM=T IPFlag=           0 FMFlag=      100000 FMFlg1=        2001
         NFxFlg=           0 DoJE=F BraDBF=F KetDBF=F FulRan=T
         wScrn=  0.000000 ICntrl=       0 IOpCl=  0 I1Cent=           0 NGrid=           0
         NMat0=    1 NMatS0=      1 NMatT0=    0 NMatD0=    1 NMtDS0=    0 NMtDT0=    0
 Symmetry not used in FoFCou.
 FMM levels:  10  Number of levels for PrismC:   9
 E= -847.003738666967    
 DIIS: error= 5.05D-08 at cycle   1 NSaved=   1.
 NSaved= 1 IEnMin= 1 EnMin= -847.003738666967     IErMin= 1 ErrMin= 5.05D-08
 ErrMax= 5.05D-08  0.00D+00 EMaxC= 1.00D-01 BMatC= 3.55D-12 BMatP= 3.55D-12
 IDIUse=1 WtCom= 1.00D+00 WtEn= 0.00D+00
 Coeff-Com:  0.100D+01
 Coeff:      0.100D+01
 Gap=     0.151 Goal=   None    Shift=    0.000
 RMSDP=2.88D-07 MaxDP=1.33D-05              OVMax= 3.94D-07

 Cycle   2  Pass 1  IDiag  1:
 RMSU=  2.85D-07    CP:  1.00D+00
 E= -847.003738666907     Delta-E=        0.000000000060 Rises=F Damp=F
 DIIS: error= 1.42D-08 at cycle   2 NSaved=   2.
 NSaved= 2 IEnMin= 1 EnMin= -847.003738666967     IErMin= 2 ErrMin= 1.42D-08
 ErrMax= 1.42D-08  0.00D+00 EMaxC= 1.00D-01 BMatC= 2.13D-13 BMatP= 3.55D-12
 IDIUse=1 WtCom= 1.00D+00 WtEn= 0.00D+00
 Coeff-Com:  0.627D-01 0.937D+00
 Coeff:      0.627D-01 0.937D+00
 Gap=     0.151 Goal=   None    Shift=    0.000
 RMSDP=1.58D-08 MaxDP=7.88D-07 DE= 6.00D-11 OVMax= 3.02D-07

 Cycle   3  Pass 1  IDiag  1:
 RMSU=  1.33D-08    CP:  1.00D+00  1.02D+00
 E= -847.003738666904     Delta-E=        0.000000000003 Rises=F Damp=F
 DIIS: error= 2.51D-08 at cycle   3 NSaved=   3.
 NSaved= 3 IEnMin= 1 EnMin= -847.003738666967     IErMin= 2 ErrMin= 1.42D-08
 ErrMax= 2.51D-08  0.00D+00 EMaxC= 1.00D-01 BMatC= 5.05D-13 BMatP= 2.13D-13
 IDIUse=1 WtCom= 1.00D+00 WtEn= 0.00D+00
 Coeff-Com: -0.107D-01 0.616D+00 0.395D+00
 Coeff:     -0.107D-01 0.616D+00 0.395D+00
 Gap=     0.151 Goal=   None    Shift=    0.000
 RMSDP=1.03D-08 MaxDP=4.09D-07 DE= 3.18D-12 OVMax= 2.17D-07

 Cycle   4  Pass 1  IDiag  1:
 RMSU=  5.91D-09    CP:  1.00D+00  1.02D+00  3.97D-01
 E= -847.003738666802     Delta-E=        0.000000000102 Rises=F Damp=F
 DIIS: error= 8.06D-09 at cycle   4 NSaved=   4.
 NSaved= 4 IEnMin= 1 EnMin= -847.003738666967     IErMin= 4 ErrMin= 8.06D-09
 ErrMax= 8.06D-09  0.00D+00 EMaxC= 1.00D-01 BMatC= 2.06D-14 BMatP= 2.13D-13
 IDIUse=1 WtCom= 1.00D+00 WtEn= 0.00D+00
 Coeff-Com: -0.876D-02 0.309D+00 0.241D+00 0.459D+00
 Coeff:     -0.876D-02 0.309D+00 0.241D+00 0.459D+00
 Gap=     0.151 Goal=   None    Shift=    0.000
 RMSDP=4.10D-09 MaxDP=1.53D-07 DE= 1.02D-10 OVMax= 6.88D-08

 SCF Done:  E(RB3LYP) =  -847.003738667     A.U. after    4 cycles
            NFock=  4  Conv=0.41D-08     -V/T= 2.0049
 KE= 8.428349970566D+02 PE=-5.164192584015D+03 EE= 1.874438221195D+03
 Leave Link  502 at Tue Sep 15 13:51:17 2020, MaxMem=   131072000 cpu:       954.0
 (Enter /share/programs/GAUSSIAN/64/g09/l801.exe)
 DoSCS=F DFT=T ScalE2(SS,OS)=  1.000000  1.000000
 Range of M.O.s used for correlation:     1   557
 NBasis=   568 NAE=    73 NBE=    73 NFC=     0 NFV=     0
 NROrb=    557 NOA=    73 NOB=    73 NVA=   484 NVB=   484

 **** Warning!!: The largest alpha MO coefficient is  0.14271944D+03

 Leave Link  801 at Tue Sep 15 13:51:17 2020, MaxMem=   131072000 cpu:         0.2
 (Enter /share/programs/GAUSSIAN/64/g09/l1002.exe)
 Minotr:  Closed shell wavefunction.
          Direct CPHF calculation.
          Differentiating once with respect to magnetic field using GIAOs.
          Electric field/nuclear overlap derivatives assumed to be zero.
          Requested convergence is 1.0D-08 RMS, and 1.0D-07 maximum.
          Secondary convergence is 1.0D-12 RMS, and 1.0D-12 maximum.
          NewPWx=T KeepS1=F KeepF1=F KeepIn=T MapXYZ=F SortEE=F KeepMc=T.
          MDV=     131069551 using IRadAn=       2.
 Generate precomputed XC quadrature information.
          Solving linear equations simultaneously, MaxMat=      72.
 FoFCou: FMM=F IPFlag=           0 FMFlag=      100000 FMFlg1=        2001
         NFxFlg=           0 DoJE=F BraDBF=F KetDBF=T FulRan=T
         wScrn=  0.000000 ICntrl=    6100 IOpCl=  0 I1Cent=           7 NGrid=         236
         NMat0=    1 NMatS0=      1 NMatT0=    0 NMatD0=    1 NMtDS0=    0 NMtDT0=    0
 Symmetry not used in FoFCou.
 FoFJK:  IHMeth= 1 ICntrl=    6127 DoSepK=F KAlg= 0 I1Cent=   0 FoldK=F
 IRaf=         1 NMat=   1 IRICut=       1 DoRegI=T DoRafI=F ISym2E= 0.
          There are     3 degrees of freedom in the 1st order CPHF.  IDoFFX=0 NUNeed=     3.
      3 vectors produced by pass  0 Test12= 1.18D-12 3.33D-08 XBig12= 1.96D+03 8.77D+00.
 AX will form     3 AO Fock derivatives at one time.
      3 vectors produced by pass  1 Test12= 1.18D-12 3.33D-08 XBig12= 3.18D+00 7.58D-01.
      3 vectors produced by pass  2 Test12= 1.18D-12 3.33D-08 XBig12= 1.86D-02 5.85D-02.
      3 vectors produced by pass  3 Test12= 1.18D-12 3.33D-08 XBig12= 4.29D-05 1.35D-03.
      3 vectors produced by pass  4 Test12= 1.18D-12 3.33D-08 XBig12= 9.75D-08 7.22D-05.
      3 vectors produced by pass  5 Test12= 1.18D-12 3.33D-08 XBig12= 3.97D-10 5.92D-06.
      3 vectors produced by pass  6 Test12= 1.18D-12 3.33D-08 XBig12= 1.51D-12 4.40D-07.
 InvSVY:  IOpt=1 It=  1 EMax= 7.11D-15
 Solved reduced A of dimension    21 with     3 vectors.
 Calculating GIAO nuclear magnetic shielding tensors.
 SCF GIAO Magnetic shielding tensor (ppm):
      1  C    Isotropic =    49.6861   Anisotropy =   149.7970
   XX=    46.3088   YX=   -25.0950   ZX=    31.4786
   XY=   -31.1109   YY=   -39.0339   ZY=    13.2621
   XZ=    24.9178   YZ=     8.9888   ZZ=   141.7833
   Eigenvalues:   -49.3507    48.8581   149.5507
      2  C    Isotropic =    49.6861   Anisotropy =   149.7971
   XX=    46.3088   YX=    25.0953   ZX=    31.4786
   XY=    31.1111   YY=   -39.0339   ZY=   -13.2621
   XZ=    24.9177   YZ=    -8.9889   ZZ=   141.7834
   Eigenvalues:   -49.3508    48.8583   149.5509
      3  C    Isotropic =    44.4899   Anisotropy =   204.7372
   XX=   -22.2199   YX=    10.8075   ZX=    51.2710
   XY=     4.9259   YY=   -14.7126   ZY=    14.7921
   XZ=    32.3655   YZ=    21.2392   ZZ=   170.4022
   Eigenvalues:   -31.9593   -15.5523   180.9814
      4  C    Isotropic =    44.4899   Anisotropy =   204.7373
   XX=   -22.2198   YX=   -10.8075   ZX=    51.2710
   XY=    -4.9256   YY=   -14.7126   ZY=   -14.7922
   XZ=    32.3656   YZ=   -21.2393   ZZ=   170.4023
   Eigenvalues:   -31.9592   -15.5524   180.9815
      5  C    Isotropic =    48.5420   Anisotropy =   189.5490
   XX=   -14.6790   YX=     4.7342   ZX=     8.4333
   XY=    20.3759   YY=    -5.5375   ZY=    31.5121
   XZ=    65.1218   YZ=     0.8640   ZZ=   165.8426
   Eigenvalues:   -26.3226    -2.9593   174.9080
      6  C    Isotropic =    48.5421   Anisotropy =   189.5489
   XX=   -14.6789   YX=    -4.7340   ZX=     8.4335
   XY=   -20.3758   YY=    -5.5374   ZY=   -31.5121
   XZ=    65.1218   YZ=    -0.8638   ZZ=   165.8426
   Eigenvalues:   -26.3224    -2.9594   174.9080
      7  C    Isotropic =    50.1907   Anisotropy =   149.2089
   XX=    19.7303   YX=   -44.2755   ZX=    41.2886
   XY=   -38.0437   YY=    -2.7069   ZY=    36.9011
   XZ=    36.5866   YZ=    37.5458   ZZ=   133.5487
   Eigenvalues:   -49.6656    50.5744   149.6633
      8  C    Isotropic =    48.9362   Anisotropy =   152.4339
   XX=   -31.5093   YX=   -11.4921   ZX=    54.7730
   XY=   -19.0468   YY=    46.5898   ZY=    27.5522
   XZ=    42.2451   YZ=    29.8391   ZZ=   131.7282
   Eigenvalues:   -50.1461    46.3960   150.5589
      9  C    Isotropic =    44.4204   Anisotropy =   209.3981
   XX=   -10.1987   YX=    16.7536   ZX=    44.4888
   XY=     8.9342   YY=    -7.7270   ZY=    61.4651
   XZ=    43.3269   YZ=    64.9792   ZZ=   151.1869
   Eigenvalues:   -30.3689   -20.3891   184.0192
     10  C    Isotropic =    45.3894   Anisotropy =   198.3236
   XX=    -5.9706   YX=    23.3819   ZX=    35.6519
   XY=    38.1954   YY=     1.7271   ZY=    73.1370
   XZ=    54.0013   YZ=    45.7045   ZZ=   140.4116
   Eigenvalues:   -33.5315    -7.9055   177.6051
     11  H    Isotropic =    23.8179   Anisotropy =     7.5674
   XX=    27.2191   YX=    -1.9090   ZX=    -2.2602
   XY=    -1.7961   YY=    24.8722   ZY=    -0.1966
   XZ=    -3.3763   YZ=    -0.1950   ZZ=    19.3625
   Eigenvalues:    18.3647    24.2263    28.8628
     12  H    Isotropic =    23.8179   Anisotropy =     7.5674
   XX=    27.2191   YX=     1.9090   ZX=    -2.2602
   XY=     1.7961   YY=    24.8722   ZY=     0.1966
   XZ=    -3.3763   YZ=     0.1950   ZZ=    19.3625
   Eigenvalues:    18.3647    24.2263    28.8628
     13  H    Isotropic =    23.8548   Anisotropy =     7.5124
[...]
   131  Bq   0.000000
   132  Bq   0.000000
   133  Bq   0.000000
   134  Bq   0.000000
   135  Bq   0.000000
   136  Bq   0.000000
   137  Bq   0.000000
   138  Bq   0.000000
   139  Bq   0.000000
   140  Bq   0.000000
   141  Bq   0.000000
   142  Bq   0.000000
   143  Bq   0.000000
   144  Bq   0.000000
   145  Bq   0.000000
   146  Bq   0.000000
   147  Bq   0.000000
   148  Bq   0.000000
   149  Bq   0.000000
   150  Bq   0.000000
   151  Bq   0.000000
   152  Bq   0.000000
   153  Bq   0.000000
   154  Bq   0.000000
   155  Bq   0.000000
   156  Bq   0.000000
   157  Bq   0.000000
   158  Bq   0.000000
   159  Bq   0.000000
   160  Bq   0.000000
   161  Bq   0.000000
   162  Bq   0.000000
   163  Bq   0.000000
   164  Bq   0.000000
   165  Bq   0.000000
   166  Bq   0.000000
   167  Bq   0.000000
   168  Bq   0.000000
   169  Bq   0.000000
   170  Bq   0.000000
   171  Bq   0.000000
   172  Bq   0.000000
   173  Bq   0.000000
   174  Bq   0.000000
   175  Bq   0.000000
   176  Bq   0.000000
   177  Bq   0.000000
   178  Bq   0.000000
   179  Bq   0.000000
   180  Bq   0.000000
   181  Bq   0.000000
   182  Bq   0.000000
   183  Bq   0.000000
   184  Bq   0.000000
   185  Bq   0.000000
   186  Bq   0.000000
   187  Bq   0.000000
   188  Bq   0.000000
   189  Bq   0.000000
   190  Bq   0.000000
   191  Bq   0.000000
   192  Bq   0.000000
   193  Bq   0.000000
   194  Bq   0.000000
   195  Bq   0.000000
   196  Bq   0.000000
   197  Bq   0.000000
   198  Bq   0.000000
   199  Bq   0.000000
   200  Bq   0.000000
   201  Bq   0.000000
   202  Bq   0.000000
   203  Bq   0.000000
   204  Bq   0.000000
   205  Bq   0.000000
   206  Bq   0.000000
   207  Bq   0.000000
   208  Bq   0.000000
   209  Bq   0.000000
   210  Bq   0.000000
   211  Bq   0.000000
   212  Bq   0.000000
   213  Bq   0.000000
   214  Bq   0.000000
   215  Bq   0.000000
   216  Bq   0.000000
   217  Bq   0.000000
   218  Bq   0.000000
   219  Bq   0.000000
   220  Bq   0.000000
   221  Bq   0.000000
   222  Bq   0.000000
   223  Bq   0.000000
   224  Bq   0.000000
   225  Bq   0.000000
   226  Bq   0.000000
   227  Bq   0.000000
   228  Bq   0.000000
   229  Bq   0.000000
   230  Bq   0.000000
   231  Bq   0.000000
   232  Bq   0.000000
   233  Bq   0.000000
   234  Bq   0.000000
   235  Bq   0.000000
   236  Bq   0.000000
 Sum of Mulliken charges =   0.00000
 Mulliken charges with hydrogens summed into heavy atoms:
               1
     1  C   -0.262865
     2  C   -0.262866
     3  C    0.737923
     4  C    0.737922
     5  C   -0.039994
     6  C   -0.040001
     7  C    0.075155
     8  C   -0.330147
     9  C    0.780501
    10  C   -0.200782
    15  C    0.249272
    16  C   -0.533462
    17  C   -0.189404
    18  C   -0.286191
    23  C   -0.330145
    24  C    0.075154
    25  C    0.780496
    26  C   -0.200782
    27  C    0.249273
    28  C   -0.286192
    29  C   -0.189403
    30  C   -0.533462
    37  Bq   0.000000
    38  Bq   0.000000
    39  Bq   0.000000
    40  Bq   0.000000
    41  Bq   0.000000
    42  Bq   0.000000
    43  Bq   0.000000
    44  Bq   0.000000
    45  Bq   0.000000
    46  Bq   0.000000
    47  Bq   0.000000
    48  Bq   0.000000
    49  Bq   0.000000
    50  Bq   0.000000
    51  Bq   0.000000
    52  Bq   0.000000
    53  Bq   0.000000
    54  Bq   0.000000
    55  Bq   0.000000
    56  Bq   0.000000
    57  Bq   0.000000
    58  Bq   0.000000
    59  Bq   0.000000
    60  Bq   0.000000
    61  Bq   0.000000
    62  Bq   0.000000
    63  Bq   0.000000
    64  Bq   0.000000
    65  Bq   0.000000
    66  Bq   0.000000
    67  Bq   0.000000
    68  Bq   0.000000
    69  Bq   0.000000
    70  Bq   0.000000
    71  Bq   0.000000
    72  Bq   0.000000
    73  Bq   0.000000
    74  Bq   0.000000
    75  Bq   0.000000
    76  Bq   0.000000
    77  Bq   0.000000
    78  Bq   0.000000
    79  Bq   0.000000
    80  Bq   0.000000
    81  Bq   0.000000
    82  Bq   0.000000
    83  Bq   0.000000
    84  Bq   0.000000
    85  Bq   0.000000
    86  Bq   0.000000
    87  Bq   0.000000
    88  Bq   0.000000
    89  Bq   0.000000
    90  Bq   0.000000
    91  Bq   0.000000
    92  Bq   0.000000
    93  Bq   0.000000
    94  Bq   0.000000
    95  Bq   0.000000
    96  Bq   0.000000
    97  Bq   0.000000
    98  Bq   0.000000
    99  Bq   0.000000
   100  Bq   0.000000
   101  Bq   0.000000
   102  Bq   0.000000
   103  Bq   0.000000
   104  Bq   0.000000
   105  Bq   0.000000
   106  Bq   0.000000
   107  Bq   0.000000
   108  Bq   0.000000
   109  Bq   0.000000
   110  Bq   0.000000
   111  Bq   0.000000
   112  Bq   0.000000
   113  Bq   0.000000
   114  Bq   0.000000
   115  Bq   0.000000
   116  Bq   0.000000
   117  Bq   0.000000
   118  Bq   0.000000
   119  Bq   0.000000
   120  Bq   0.000000
   121  Bq   0.000000
   122  Bq   0.000000
   123  Bq   0.000000
   124  Bq   0.000000
   125  Bq   0.000000
   126  Bq   0.000000
   127  Bq   0.000000
   128  Bq   0.000000
   129  Bq   0.000000
   130  Bq   0.000000
   131  Bq   0.000000
   132  Bq   0.000000
   133  Bq   0.000000
   134  Bq   0.000000
   135  Bq   0.000000
   136  Bq   0.000000
   137  Bq   0.000000
   138  Bq   0.000000
   139  Bq   0.000000
   140  Bq   0.000000
   141  Bq   0.000000
   142  Bq   0.000000
   143  Bq   0.000000
   144  Bq   0.000000
   145  Bq   0.000000
   146  Bq   0.000000
   147  Bq   0.000000
   148  Bq   0.000000
   149  Bq   0.000000
   150  Bq   0.000000
   151  Bq   0.000000
   152  Bq   0.000000
   153  Bq   0.000000
   154  Bq   0.000000
   155  Bq   0.000000
   156  Bq   0.000000
   157  Bq   0.000000
   158  Bq   0.000000
   159  Bq   0.000000
   160  Bq   0.000000
   161  Bq   0.000000
   162  Bq   0.000000
   163  Bq   0.000000
   164  Bq   0.000000
   165  Bq   0.000000
   166  Bq   0.000000
   167  Bq   0.000000
   168  Bq   0.000000
   169  Bq   0.000000
   170  Bq   0.000000
   171  Bq   0.000000
   172  Bq   0.000000
   173  Bq   0.000000
   174  Bq   0.000000
   175  Bq   0.000000
   176  Bq   0.000000
   177  Bq   0.000000
   178  Bq   0.000000
   179  Bq   0.000000
   180  Bq   0.000000
   181  Bq   0.000000
   182  Bq   0.000000
   183  Bq   0.000000
   184  Bq   0.000000
   185  Bq   0.000000
   186  Bq   0.000000
   187  Bq   0.000000
   188  Bq   0.000000
   189  Bq   0.000000
   190  Bq   0.000000
   191  Bq   0.000000
   192  Bq   0.000000
   193  Bq   0.000000
   194  Bq   0.000000
   195  Bq   0.000000
   196  Bq   0.000000
   197  Bq   0.000000
   198  Bq   0.000000
   199  Bq   0.000000
   200  Bq   0.000000
   201  Bq   0.000000
   202  Bq   0.000000
   203  Bq   0.000000
   204  Bq   0.000000
   205  Bq   0.000000
   206  Bq   0.000000
   207  Bq   0.000000
   208  Bq   0.000000
   209  Bq   0.000000
   210  Bq   0.000000
   211  Bq   0.000000
   212  Bq   0.000000
   213  Bq   0.000000
   214  Bq   0.000000
   215  Bq   0.000000
   216  Bq   0.000000
   217  Bq   0.000000
   218  Bq   0.000000
   219  Bq   0.000000
   220  Bq   0.000000
   221  Bq   0.000000
   222  Bq   0.000000
   223  Bq   0.000000
   224  Bq   0.000000
   225  Bq   0.000000
   226  Bq   0.000000
   227  Bq   0.000000
   228  Bq   0.000000
   229  Bq   0.000000
   230  Bq   0.000000
   231  Bq   0.000000
   232  Bq   0.000000
   233  Bq   0.000000
   234  Bq   0.000000
   235  Bq   0.000000
   236  Bq   0.000000
 Electronic spatial extent (au):  <R**2>=           5804.3227
 Charge=              0.0000 electrons
 Dipole moment (field-independent basis, Debye):
    X=              0.0000    Y=              0.0732    Z=              0.0000  Tot=              0.0732
 Quadrupole moment (field-independent basis, Debye-Ang):
   XX=           -113.9137   YY=           -113.9781   ZZ=           -133.4378
   XY=              0.0000   XZ=             -4.8717   YZ=              0.0000
 Traceless Quadrupole moment (field-independent basis, Debye-Ang):
   XX=              6.5295   YY=              6.4651   ZZ=            -12.9946
   XY=              0.0000   XZ=             -4.8717   YZ=              0.0000
 Octapole moment (field-independent basis, Debye-Ang**2):
  XXX=              0.0000  YYY=             11.7108  ZZZ=              0.0000  XYY=              0.0000
  XXY=             -6.4067  XXZ=              0.0000  XZZ=              0.0000  YZZ=             -7.8695
  YYZ=              0.0000  XYZ=            -16.2862
 Hexadecapole moment (field-independent basis, Debye-Ang**3):
 XXXX=          -4416.4021 YYYY=          -2784.9756 ZZZZ=           -481.5690 XXXY=              0.0001
 XXXZ=           -124.3517 YYYX=             -0.0003 YYYZ=              0.0001 ZZZX=             -4.4782
 ZZZY=              0.0001 XXYY=          -1189.3576 XXZZ=           -942.9016 YYZZ=           -589.4012
 XXYZ=              0.0000 YYXZ=              7.8297 ZZXY=             -0.0001
 N-N= 1.599915627097D+03 E-N=-5.164192587538D+03  KE= 8.428349970566D+02
 Leave Link  601 at Tue Sep 15 13:59:03 2020, MaxMem=   131072000 cpu:         1.0
 (Enter /share/programs/GAUSSIAN/64/g09/l9999.exe)
 1\1\GINC-PLANA\SP\RB3LYP\6-311+G(d,p)\C22H14\AARTIGAS\15-Sep-2020\0\\#
 P rb3lyp/6-311+g** NMR Guess=Read geom=connectivity\\Title\\0,1\C,0,0.
 653241,3.257859,-0.20251\C,0,-0.653243,3.25786,0.20251\C,0,1.372495,2.
 032956,-0.320807\C,0,-1.372495,2.032956,0.320807\C,0,0.722474,0.795666
 ,-0.050388\C,0,-0.722474,0.795667,0.050387\C,0,2.760385,2.053927,-0.67
 4268\C,0,3.508866,0.913916,-0.671362\C,0,2.955226,-0.309622,-0.177479\
 C,0,1.574722,-0.361114,0.197094\H,0,1.183427,4.19574,-0.384599\H,0,-1.
 183429,4.19574,0.384599\H,0,3.206283,3.012423,-0.951392\H,0,4.560023,0
 .932956,-0.969333\C,0,3.78302,-1.443098,0.028309\C,0,1.137427,-1.50753
 3,0.912109\C,0,1.973691,-2.584349,1.138062\C,0,3.301853,-2.571588,0.66
 1177\H,0,4.825754,-1.39123,-0.295484\H,0,0.124652,-1.532788,1.308472\H
 ,0,1.603586,-3.445682,1.698977\H,0,3.952742,-3.433526,0.825134\C,0,-3.
 508866,0.913915,0.671362\C,0,-2.760386,2.053926,0.674268\C,0,-2.955226
 ,-0.309623,0.177479\C,0,-1.574722,-0.361114,-0.197094\C,0,-3.78302,-1.
 443099,-0.028309\C,0,-3.301852,-2.571589,-0.661177\C,0,-1.97369,-2.584
 349,-1.138061\C,0,-1.137426,-1.507534,-0.912109\H,0,-4.560022,0.932954
 ,0.969334\H,0,-3.206283,3.012421,0.951392\H,0,-4.825754,-1.391232,0.29
 5484\H,0,-3.952741,-3.433528,-0.825134\H,0,-1.603585,-3.445682,-1.6989
 76\H,0,-0.124652,-1.532788,-1.308471\Bq,0,0.0337816644,3.6007211299,-0
 .9914448614\Bq,0,0.0499492113,3.6062092726,-0.9914448614\Bq,0,0.065262
 0961,3.6137607517,-0.9914448614\Bq,0,0.0794583113,3.6232463594,-0.9914
 448614\Bq,0,0.0922949556,3.6345037944,-0.9914448614\Bq,0,0.1035523906,
 3.6473404387,-0.9914448614\Bq,0,0.1130379983,3.6615366539,-0.991444861
 4\Bq,0,0.1205894774,3.6768495387,-0.9914448614\Bq,0,0.1260776201,3.693
 0170856,-0.9914448614\Bq,0,0.1294085226,3.7097626631,-0.9914448614\Bq,
 0,-1.8351672,2.9105806,1.5067152\Bq,0,-1.8351672,2.9105806,1.5067152\B
 q,0,-1.8351672,2.9105806,1.5067152\Bq,0,-1.8351672,2.9105806,1.5067152
 \Bq,0,-1.8351672,2.9105806,1.5067152\Bq,0,-1.8351672,2.9105806,1.50671
 52\Bq,0,-1.8351672,2.9105806,1.5067152\Bq,0,-1.8351672,2.9105806,1.506
 7152\Bq,0,-1.8351672,2.9105806,1.5067152\Bq,0,-1.8351672,2.9105806,1.5
 067152\Bq,0,-1.8351672,2.9105806,1.5067152\Bq,0,-1.8351672,2.9105806,1
 .5067152\Bq,0,-1.8351672,2.9105806,1.5067152\Bq,0,-1.8351672,2.9105806
 ,1.5067152\Bq,0,-1.8351672,2.9105806,1.5067152\Bq,0,-1.8351672,2.91058
 06,1.5067152\Bq,0,-1.8351672,2.9105806,1.5067152\Bq,0,-1.8351672,2.910
 5806,1.5067152\Bq,0,-1.8351672,2.9105806,1.5067152\Bq,0,-1.8351672,2.9
 105806,1.5067152\Bq,0,-1.8351672,2.9105806,1.5067152\Bq,0,-1.8351672,2
 .9105806,1.5067152\Bq,0,-1.8351672,2.9105806,1.5067152\Bq,0,-1.8351672
 ,2.9105806,1.5067152\Bq,0,-1.8351672,2.9105806,1.5067152\Bq,0,-1.83516
 72,2.9105806,1.5067152\Bq,0,-1.8351672,2.9105806,1.5067152\Bq,0,-1.835
 1672,2.9105806,1.5067152\Bq,0,-1.8351672,2.9105806,1.5067152\Bq,0,-1.8
 351672,2.9105806,1.5067152\Bq,0,-1.8351672,2.9105806,1.5067152\Bq,0,-1
 .8351672,2.9105806,1.5067152\Bq,0,-1.8351672,2.9105806,1.5067152\Bq,0,
 -1.8351672,2.9105806,1.5067152\Bq,0,-1.8351672,2.9105806,1.5067152\Bq,
 0,-1.8351672,2.9105806,1.5067152\Bq,0,-1.8351672,2.9105806,1.5067152\B
 q,0,-1.8351672,2.9105806,1.5067152\Bq,0,-1.8351672,2.9105806,1.5067152
 \Bq,0,-1.8351672,2.9105806,1.5067152\Bq,0,-1.8351672,2.9105806,1.50671
 52\Bq,0,-1.8351672,2.9105806,1.5067152\Bq,0,-1.8351672,2.9105806,1.506
 7152\Bq,0,-1.8351672,2.9105806,1.5067152\Bq,0,-1.8351672,2.9105806,1.5
 067152\Bq,0,-1.8351672,2.9105806,1.5067152\Bq,0,-1.8351672,2.9105806,1
 .5067152\Bq,0,-1.8351672,2.9105806,1.5067152\Bq,0,-1.7046410078,2.9105
 806,1.4981600614\Bq,0,-1.7057576774,2.9276176869,1.4981600614\Bq,0,-1.
 7090885799,2.9443632644,1.4981600614\Bq,0,-1.7145767226,2.9605308113,1
 .4981600614\Bq,0,-1.7221282017,2.9758436961,1.4981600614\Bq,0,-1.73161
 38094,2.9900399113,1.4981600614\Bq,0,-1.7428712444,3.0028765556,1.4981
 600614\Bq,0,-1.7557078887,3.0141339906,1.4981600614\Bq,0,-1.7699041039
 ,3.0236195983,1.4981600614\Bq,0,-1.7852169887,3.0311710774,1.498160061
 4\Bq,0,-1.8013845356,3.0366592201,1.4981600614\Bq,0,-1.8181301131,3.03
 99901226,1.4981600614\Bq,0,-1.8351672,3.0411067922,1.4981600614\Bq,0,-
 1.8522042869,3.0399901226,1.4981600614\Bq,0,-1.8689498644,3.0366592201
 ,1.4981600614\Bq,0,-1.8851174113,3.0311710774,1.4981600614\Bq,0,-1.900
 4302961,3.0236195983,1.4981600614\Bq,0,-1.9146265113,3.0141339906,1.49
 81600614\Bq,0,-1.9274631556,3.0028765556,1.4981600614\Bq,0,-1.93872059
 06,2.9900399113,1.4981600614\Bq,0,-1.9482061983,2.9758436961,1.4981600
 614\Bq,0,-1.9557576774,2.9605308113,1.4981600614\Bq,0,-1.9612458201,2.
 9443632644,1.4981600614\Bq,0,-1.9645767226,2.9276176869,1.4981600614\B
 q,0,-1.9656933922,2.9105806,1.4981600614\Bq,0,-1.9645767226,2.89354351
 31,1.4981600614\Bq,0,-1.9612458201,2.8767979356,1.4981600614\Bq,0,-1.9
 557576774,2.8606303887,1.4981600614\Bq,0,-1.9482061983,2.8453175039,1.
 4981600614\Bq,0,-1.9387205906,2.8311212887,1.4981600614\Bq,0,-1.927463
 1556,2.8182846444,1.4981600614\Bq,0,-1.9146265113,2.8070272094,1.49816
 00614\Bq,0,-1.9004302961,2.7975416017,1.4981600614\Bq,0,-1.8851174113,
 2.7899901226,1.4981600614\Bq,0,-1.8689498644,2.7845019799,1.4981600614
 \Bq,0,-1.8522042869,2.7811710774,1.4981600614\Bq,0,-1.8351672,2.780054
 4078,1.4981600614\Bq,0,-1.8181301131,2.7811710774,1.4981600614\Bq,0,-1
 .8013845356,2.7845019799,1.4981600614\Bq,0,-1.7852169887,2.7899901226,
 1.4981600614\Bq,0,-1.7699041039,2.7975416017,1.4981600614\Bq,0,-1.7557
 078887,2.8070272094,1.4981600614\Bq,0,-1.7428712444,2.8182846444,1.498
 1600614\Bq,0,-1.7316138094,2.8311212887,1.4981600614\Bq,0,-1.722128201
 7,2.8453175039,1.4981600614\Bq,0,-1.7145767226,2.8606303887,1.49816006
 14\Bq,0,-1.7090885799,2.8767979356,1.4981600614\Bq,0,-1.7057576774,2.8
 935435131,1.4981600614\Bq,0,-1.5763481549,2.9105806,1.4726410263\Bq,0,
 -1.5785623877,2.9443632644,1.4726410263\Bq,0,-1.5851672,2.9775678981,1
 .4726410263\Bq,0,-1.5960495816,3.0096263605,1.4726410263\Bq,0,-1.61102
 3332,3.0399901226,1.4726410263\Bq,0,-1.629832246,3.0681396518,1.472641
 0263\Bq,0,-1.6521544981,3.0935933019,1.4726410263\Bq,0,-1.6776081482,3
 .115915554,1.4726410263\Bq,0,-1.7057576774,3.134724468,1.4726410263\Bq
 ,0,-1.7361214395,3.1496982184,1.4726410263\Bq,0,-1.7681799019,3.160580
 6,1.4726410263\Bq,0,-1.8013845356,3.1671854123,1.4726410263\Bq,0,-1.83
 51672,3.1693996451,1.4726410263\Bq,0,-1.8689498644,3.1671854123,1.4726
 410263\Bq,0,-1.9021544981,3.1605806,1.4726410263\Bq,0,-1.9342129605,3.
 1496982184,1.4726410263\Bq,0,-1.9645767226,3.134724468,1.4726410263\Bq
 ,0,-1.9927262518,3.115915554,1.4726410263\Bq,0,-2.0181799019,3.0935933
 019,1.4726410263\Bq,0,-2.040502154,3.0681396518,1.4726410263\Bq,0,-2.0
 59311068,3.0399901226,1.4726410263\Bq,0,-2.0742848184,3.0096263605,1.4
 726410263\Bq,0,-2.0851672,2.9775678981,1.4726410263\Bq,0,-2.0917720123
 ,2.9443632644,1.4726410263\Bq,0,-2.0939862451,2.9105806,1.4726410263\B
 q,0,-2.0917720123,2.8767979356,1.4726410263\Bq,0,-2.0851672,2.84359330
 19,1.4726410263\Bq,0,-2.0742848184,2.8115348395,1.4726410263\Bq,0,-2.0
 59311068,2.7811710774,1.4726410263\Bq,0,-2.040502154,2.7530215482,1.47
 26410263\Bq,0,-2.0181799019,2.7275678981,1.4726410263\Bq,0,-1.99272625
 18,2.705245646,1.4726410263\Bq,0,-1.9645767226,2.686436732,1.472641026
 3\Bq,0,-1.9342129605,2.6714629816,1.4726410263\Bq,0,-1.9021544981,2.66
 05806,1.4726410263\Bq,0,-1.8689498644,2.6539757877,1.4726410263\Bq,0,-
 1.8351672,2.6517615549,1.4726410263\Bq,0,-1.8013845356,2.6539757877,1.
 4726410263\Bq,0,-1.7681799019,2.6605806,1.4726410263\Bq,0,-1.736121439
 5,2.6714629816,1.4726410263\Bq,0,-1.7057576774,2.686436732,1.472641026
 3\Bq,0,-1.6776081482,2.705245646,1.4726410263\Bq,0,-1.6521544981,2.727
 5678981,1.4726410263\Bq,0,-1.629832246,2.7530215482,1.4726410263\Bq,0,
 -1.611023332,2.7811710774,1.4726410263\Bq,0,-1.5960495816,2.8115348395
 ,1.4726410263\Bq,0,-1.5851672,2.8435933019,1.4726410263\Bq,0,-1.578562
 3877,2.8767979356,1.4726410263\Bq,0,-1.4524837676,2.9105806,1.43059473
 25\Bq,0,-1.4557576774,2.9605308113,1.4305947325\Bq,0,-1.4655233894,3.0
 096263605,1.4305947325\Bq,0,-1.4816138094,3.0570272094,1.4305947325\Bq
 ,0,-1.503753626,3.1019223162,1.4305947325\Bq,0,-1.5315640207,3.1435435
 131,1.4305947325\Bq,0,-1.5645691499,3.1811786501,1.4305947325\Bq,0,-1.
 6022042869,3.2141837793,1.4305947325\Bq,0,-1.6438254838,3.241994174,1.
 4305947325\Bq,0,-1.6887205906,3.2641339906,1.4305947325\Bq,0,-1.736121
 4395,3.2802244106,1.4305947325\Bq,0,-1.7852169887,3.2899901226,1.43059
 47325\Bq,0,-1.8351672,3.2932640324,1.4305947325\Bq,0,-1.8851174113,3.2
 899901226,1.4305947325\Bq,0,-1.9342129605,3.2802244106,1.4305947325\Bq
 ,0,-1.9816138094,3.2641339906,1.4305947325\Bq,0,-2.0265089162,3.241994
 174,1.4305947325\Bq,0,-2.0681301131,3.2141837793,1.4305947325\Bq,0,-2.
 1057652501,3.1811786501,1.4305947325\Bq,0,-2.1387703793,3.1435435131,1
 .4305947325\Bq,0,-2.166580774,3.1019223162,1.4305947325\Bq,0,-2.188720
 5906,3.0570272094,1.4305947325\Bq,0,-2.2048110106,3.0096263605,1.43059
 47325\Bq,0,-2.2145767226,2.9605308113,1.4305947325\Bq,0,-2.2178506324,
 2.9105806,1.4305947325\Bq,0,-2.2145767226,2.8606303887,1.4305947325\Bq
 ,0,-2.2048110106,2.8115348395,1.4305947325\Bq,0,-2.1887205906,2.764133
 9906,1.4305947325\Bq,0,-2.166580774,2.7192388838,1.4305947325\Bq,0,-2.
 1387703793,2.6776176869,1.4305947325\Bq,0,-2.1057652501,2.6399825499,1
 .4305947325\Bq,0,-2.0681301131,2.6069774207,1.4305947325\Bq,0,-2.02650
 89162,2.579167026,1.4305947325\Bq,0,-1.9816138094,2.5570272094,1.43059
 47325\Bq,0,-1.9342129605,2.5409367894,1.4305947325\Bq,0,-1.8851174113,
 2.5311710774,1.4305947325\Bq,0,-1.8351672,2.5278971676,1.4305947325\Bq
 ,0,-1.7852169887,2.5311710774,1.4305947325\Bq,0,-1.7361214395,2.540936
 7894,1.4305947325\Bq,0,-1.6887205906,2.5570272094,1.4305947325\Bq,0,-1
 .6438254838,2.579167026,1.4305947325\Bq,0,-1.6022042869,2.6069774207,1
 .4305947325\Bq,0,-1.5645691499,2.6399825499,1.4305947325\Bq,0,-1.53156
 40207,2.6776176869,1.4305947325\Bq,0,-1.503753626,2.7192388838,1.43059
 47325\Bq,0,-1.4816138094,2.7641339906,1.4305947325\\Version=ES64L-G09R
 evD.01\HF=-847.0037387\RMSD=4.099e-09\Dipole=0.0000004,0.0287843,0.000
 0009\Quadrupole=4.8545288,4.8066247,-9.6611535,-0.0000047,-3.6219991,-
 0.000002\PG=C01 [X(C22H14)]\\@


            ARSENIC

 FOR SMELTER FUMES HAVE I BEEN NAMED,
    I AM AN EVIL POISONOUS SMOKE...
 BUT WHEN FROM POISON I AM FREED,
    THROUGH ART AND SLEIGHT OF HAND,
 THEN CAN I CURE BOTH MAN AND BEAST,
    FROM DIRE DISEASE OFTTIMES DIRECT THEM;
 BUT PREPARE ME CORRECTLY, AND TAKE GREAT CARE
    THAT YOU FAITHFULLY KEEP WATCHFUL GUARD OVER ME;
 FOR ELSE I AM POISON, AND POISON REMAIN,
    THAT PIERCES THE HEART OF MANY A ONE.

 ATTRIBUTED TO THE PROBABLY MYTHICAL 15TH
 CENTURY MONK, BASILIUS VALENTINUS
 Job cpu time:       0 days  1 hours 16 minutes 10.6 seconds.
 File lengths (MBytes):  RWF=    184 Int=      0 D2E=      0 Chk=     21 Scr=      1
 Normal termination of Gaussian 09 at Tue Sep 15 13:59:03 2020.
