 Entering Gaussian System, Link 0=g09
 Input=input_batch_22600.com
 Output=input_batch_22600.log
 Initial command:
 /share/programs/GAUSSIAN/64/g09/l1.exe "/scratch/aartigas.39147/Gau-5725.inp" -scrdir="/scratch/aartigas.39147/"
 Entering Link 1 = /share/programs/GAUSSIAN/64/g09/l1.exe PID=      5726.
  
 Copyright (c) 1988,1990,1992,1993,1995,1998,2003,2009,2013,
            Gaussian, Inc.  All Rights Reserved.
  
 This is part of the Gaussian(R) 09 program.  It is based on
 the Gaussian(R) 03 system (copyright 2003, Gaussian, Inc.),
 the Gaussian(R) 98 system (copyright 1998, Gaussian, Inc.),
 the Gaussian(R) 94 system (copyright 1995, Gaussian, Inc.),
 the Gaussian 92(TM) system (copyright 1992, Gaussian, Inc.),
 the Gaussian 90(TM) system (copyright 1990, Gaussian, Inc.),
 the Gaussian 88(TM) system (copyright 1988, Gaussian, Inc.),
 the Gaussian 86(TM) system (copyright 1986, Carnegie Mellon
 University), and the Gaussian 82(TM) system (copyright 1983,
 Carnegie Mellon University). Gaussian is a federally registered
 trademark of Gaussian, Inc.
  
 This software contains proprietary and confidential information,
 including trade secrets, belonging to Gaussian, Inc.
  
 This software is provided under written license and may be
 used, copied, transmitted, or stored only in accord with that
 written license.
  
 The following legend is applicable only to US Government
 contracts under FAR:
  
                    RESTRICTED RIGHTS LEGEND
  
 Use, reproduction and disclosure by the US Government is
 subject to restrictions as set forth in subparagraphs (a)
 and (c) of the Commercial Computer Software - Restricted
 Rights clause in FAR 52.227-19.
  
 Gaussian, Inc.
 340 Quinnipiac St., Bldg. 40, Wallingford CT 06492
  
  
 ---------------------------------------------------------------
 Warning -- This program may not be used in any manner that
 competes with the business of Gaussian, Inc. or will provide
 assistance to any competitor of Gaussian, Inc.  The licensee
 of this program is prohibited from giving any competitor of
 Gaussian, Inc. access to this program.  By using this program,
 the user acknowledges that Gaussian, Inc. is engaged in the
 business of creating and licensing software in the field of
 computational chemistry and represents and warrants to the
 licensee that it is not a competitor of Gaussian, Inc. and that
 it will not use this program in any manner prohibited above.
 ---------------------------------------------------------------
  

 Cite this work as:
 Gaussian 09, Revision D.01,
 M. J. Frisch, G. W. Trucks, H. B. Schlegel, G. E. Scuseria, 
 M. A. Robb, J. R. Cheeseman, G. Scalmani, V. Barone, B. Mennucci, 
 G. A. Petersson, H. Nakatsuji, M. Caricato, X. Li, H. P. Hratchian, 
 A. F. Izmaylov, J. Bloino, G. Zheng, J. L. Sonnenberg, M. Hada, 
 M. Ehara, K. Toyota, R. Fukuda, J. Hasegawa, M. Ishida, T. Nakajima, 
 Y. Honda, O. Kitao, H. Nakai, T. Vreven, J. A. Montgomery, Jr., 
 J. E. Peralta, F. Ogliaro, M. Bearpark, J. J. Heyd, E. Brothers, 
 K. N. Kudin, V. N. Staroverov, T. Keith, R. Kobayashi, J. Normand, 
 K. Raghavachari, A. Rendell, J. C. Burant, S. S. Iyengar, J. Tomasi, 
 M. Cossi, N. Rega, J. M. Millam, M. Klene, J. E. Knox, J. B. Cross, 
 V. Bakken, C. Adamo, J. Jaramillo, R. Gomperts, R. E. Stratmann, 
 O. Yazyev, A. J. Austin, R. Cammi, C. Pomelli, J. W. Ochterski, 
 R. L. Martin, K. Morokuma, V. G. Zakrzewski, G. A. Voth, 
 P. Salvador, J. J. Dannenberg, S. Dapprich, A. D. Daniels, 
 O. Farkas, J. B. Foresman, J. V. Ortiz, J. Cioslowski, 
 and D. J. Fox, Gaussian, Inc., Wallingford CT, 2013.
 
 ******************************************
 Gaussian 09:  ES64L-G09RevD.01 24-Apr-2013
                15-Sep-2020 
 ******************************************
 %OldChk=/home/aartigas/chk/5_helicene_spe.chk
 %nproc=8
 Will use up to    8 processors via shared memory.
 %mem=1000MB
 Copying data from "/home/aartigas/chk/5_helicene_spe.chk" to current chk file "/scratch/aartigas.39147/Gau-5726.chk".
 ----------------------------------------------------
 #P rb3lyp/6-311+g** NMR Guess=Read geom=connectivity
 ----------------------------------------------------
 1/38=1,57=2/1;
 2/12=2,17=6,18=5,40=1/2;
 3/5=4,6=6,7=111,11=2,16=1,25=1,30=1,74=-5,116=1/1,2,8,3;
 4/5=1/1;
 5/5=2,38=6/2;
 8/6=1,10=90,11=11/1;
 10/13=100,45=16/2;
 6/7=2,8=2,9=2,10=2,28=1/1;
 99/9=1/99;
 Leave Link    1 at Tue Sep 15 13:21:18 2020, MaxMem=   131072000 cpu:         0.4
 (Enter /share/programs/GAUSSIAN/64/g09/l101.exe)
 -----
 Title
 -----
 Symbolic Z-matrix:
 Charge =  0 Multiplicity = 1
 C                     0.65324   3.25786  -0.20251 
 C                    -0.65324   3.25786   0.20251 
 C                     1.3725    2.03296  -0.32081 
 C                    -1.3725    2.03296   0.32081 
 C                     0.72247   0.79567  -0.05039 
 C                    -0.72247   0.79567   0.05039 
 C                     2.76039   2.05393  -0.67427 
 C                     3.50887   0.91392  -0.67136 
 C                     2.95523  -0.30962  -0.17748 
 C                     1.57472  -0.36111   0.19709 
 H                     1.18343   4.19574  -0.3846 
 H                    -1.18343   4.19574   0.3846 
 H                     3.20628   3.01242  -0.95139 
 H                     4.56002   0.93296  -0.96933 
 C                     3.78302  -1.4431    0.02831 
 C                     1.13743  -1.50753   0.91211 
 C                     1.97369  -2.58435   1.13806 
 C                     3.30185  -2.57159   0.66118 
 H                     4.82575  -1.39123  -0.29548 
 H                     0.12465  -1.53279   1.30847 
 H                     1.60359  -3.44568   1.69898 
 H                     3.95274  -3.43353   0.82513 
 C                    -3.50887   0.91392   0.67136 
 C                    -2.76039   2.05393   0.67427 
 C                    -2.95523  -0.30962   0.17748 
 C                    -1.57472  -0.36111  -0.19709 
 C                    -3.78302  -1.4431   -0.02831 
 C                    -3.30185  -2.57159  -0.66118 
 C                    -1.97369  -2.58435  -1.13806 
 C                    -1.13743  -1.50753  -0.91211 
 H                    -4.56002   0.93295   0.96933 
 H                    -3.20628   3.01242   0.95139 
 H                    -4.82575  -1.39123   0.29548 
 H                    -3.95274  -3.43353  -0.82513 
 H                    -1.60359  -3.44568  -1.69898 
 H                    -0.12465  -1.53279  -1.30847 
 Bq                    0.56736  -0.36202   1.48353 
 Bq                    0.56736  -0.36202   1.48353 
 Bq                    0.56736  -0.36202   1.48353 
 Bq                    0.56736  -0.36202   1.48353 
 Bq                    0.56736  -0.36202   1.48353 
 Bq                    0.56736  -0.36202   1.48353 
 Bq                    0.56736  -0.36202   1.48353 
 Bq                    0.56736  -0.36202   1.48353 
 Bq                    0.56736  -0.36202   1.48353 
 Bq                    0.56736  -0.36202   1.48353 
 Bq                    0.56736  -0.36202   1.48353 
 Bq                    0.56736  -0.36202   1.48353 
 Bq                    0.56736  -0.36202   1.48353 
 Bq                    0.56736  -0.36202   1.48353 
 Bq                    0.56736  -0.36202   1.48353 
 Bq                    0.56736  -0.36202   1.48353 
 Bq                    0.56736  -0.36202   1.48353 
 Bq                    0.56736  -0.36202   1.48353 
 Bq                    0.56736  -0.36202   1.48353 
 Bq                    0.56736  -0.36202   1.48353 
 Bq                    0.56736  -0.36202   1.48353 
 Bq                    0.56736  -0.36202   1.48353 
 Bq                    0.56736  -0.36202   1.48353 
 Bq                    0.56736  -0.36202   1.48353 
 Bq                    0.56736  -0.36202   1.48353 
 Bq                    0.56736  -0.36202   1.48353 
 Bq                    0.56736  -0.36202   1.48353 
 Bq                    0.56736  -0.36202   1.48353 
 Bq                    0.56736  -0.36202   1.48353 
 Bq                    0.56736  -0.36202   1.48353 
 Bq                    0.56736  -0.36202   1.48353 
 Bq                    0.56736  -0.36202   1.48353 
 Bq                    0.56736  -0.36202   1.48353 
 Bq                    0.56736  -0.36202   1.48353 
 Bq                    0.69789  -0.36202   1.47498 
 Bq                    0.69677  -0.34498   1.47498 
 Bq                    0.69344  -0.32824   1.47498 
 Bq                    0.68795  -0.31207   1.47498 
 Bq                    0.6804   -0.29676   1.47498 
 Bq                    0.67091  -0.28256   1.47498 
 Bq                    0.65966  -0.26972   1.47498 
 Bq                    0.64682  -0.25847   1.47498 
 Bq                    0.63262  -0.24898   1.47498 
 Bq                    0.61731  -0.24143   1.47498 
 Bq                    0.60114  -0.23594   1.47498 
 Bq                    0.5844   -0.23261   1.47498 
 Bq                    0.56736  -0.23149   1.47498 
 Bq                    0.55032  -0.23261   1.47498 
 Bq                    0.53358  -0.23594   1.47498 
 Bq                    0.51741  -0.24143   1.47498 
 Bq                    0.5021   -0.24898   1.47498 
 Bq                    0.4879   -0.25847   1.47498 
 Bq                    0.47506  -0.26972   1.47498 
 Bq                    0.46381  -0.28256   1.47498 
 Bq                    0.45432  -0.29676   1.47498 
 Bq                    0.44677  -0.31207   1.47498 
 Bq                    0.44128  -0.32824   1.47498 
 Bq                    0.43795  -0.34498   1.47498 
 Bq                    0.43683  -0.36202   1.47498 
 Bq                    0.43795  -0.37906   1.47498 
 Bq                    0.44128  -0.3958    1.47498 
 Bq                    0.44677  -0.41197   1.47498 
 Bq                    0.45432  -0.42728   1.47498 
 Bq                    0.46381  -0.44148   1.47498 
 Bq                    0.47506  -0.45432   1.47498 
 Bq                    0.4879   -0.46557   1.47498 
 Bq                    0.5021   -0.47506   1.47498 
 Bq                    0.51741  -0.48261   1.47498 
 Bq                    0.53358  -0.4881    1.47498 
 Bq                    0.55032  -0.49143   1.47498 
 Bq                    0.56736  -0.49255   1.47498 
 Bq                    0.5844   -0.49143   1.47498 
 Bq                    0.60114  -0.4881    1.47498 
 Bq                    0.61731  -0.48261   1.47498 
 Bq                    0.63262  -0.47506   1.47498 
 Bq                    0.64682  -0.46557   1.47498 
 Bq                    0.65966  -0.45432   1.47498 
 Bq                    0.67091  -0.44148   1.47498 
 Bq                    0.6804   -0.42728   1.47498 
 Bq                    0.68795  -0.41197   1.47498 
 Bq                    0.69344  -0.3958    1.47498 
 Bq                    0.69677  -0.37906   1.47498 
 Bq                    0.82618  -0.36202   1.44946 
 Bq                    0.82397  -0.32824   1.44946 
 Bq                    0.81736  -0.29503   1.44946 
 Bq                    0.80648  -0.26297   1.44946 
 Bq                    0.7915   -0.23261   1.44946 
 Bq                    0.7727   -0.20446   1.44946 
 Bq                    0.75037  -0.17901   1.44946 
 Bq                    0.72492  -0.15669   1.44946 
 Bq                    0.69677  -0.13788   1.44946 
 Bq                    0.66641  -0.1229    1.44946 
 Bq                    0.63435  -0.11202   1.44946 
 Bq                    0.60114  -0.10542   1.44946 
 Bq                    0.56736  -0.1032    1.44946 
 Bq                    0.53358  -0.10542   1.44946 
 Bq                    0.50037  -0.11202   1.44946 
 Bq                    0.46831  -0.1229    1.44946 
 Bq                    0.43795  -0.13788   1.44946 
 Bq                    0.4098   -0.15669   1.44946 
 Bq                    0.38435  -0.17901   1.44946 
 Bq                    0.36203  -0.20446   1.44946 
 Bq                    0.34322  -0.23261   1.44946 
 Bq                    0.32824  -0.26297   1.44946 
 Bq                    0.31736  -0.29503   1.44946 
 Bq                    0.31076  -0.32824   1.44946 
 Bq                    0.30854  -0.36202   1.44946 
 Bq                    0.31076  -0.3958    1.44946 
 Bq                    0.31736  -0.42901   1.44946 
 Bq                    0.32824  -0.46107   1.44946 
 Bq                    0.34322  -0.49143   1.44946 
 Bq                    0.36203  -0.51958   1.44946 
 Bq                    0.38435  -0.54503   1.44946 
 Bq                    0.4098   -0.56736   1.44946 
 Bq                    0.43795  -0.58616   1.44946 
 Bq                    0.46831  -0.60114   1.44946 
 Bq                    0.50037  -0.61202   1.44946 
 Bq                    0.53358  -0.61863   1.44946 
 Bq                    0.56736  -0.62084   1.44946 
 Bq                    0.60114  -0.61863   1.44946 
 Bq                    0.63435  -0.61202   1.44946 
 Bq                    0.66641  -0.60114   1.44946 
 Bq                    0.69677  -0.58616   1.44946 
 Bq                    0.72492  -0.56736   1.44946 
 Bq                    0.75037  -0.54503   1.44946 
 Bq                    0.7727   -0.51958   1.44946 
 Bq                    0.7915   -0.49143   1.44946 
 Bq                    0.80648  -0.46107   1.44946 
 Bq                    0.81736  -0.42901   1.44946 
 Bq                    0.82397  -0.3958    1.44946 
 Bq                    0.95004  -0.36202   1.40741 
 Bq                    0.94677  -0.31207   1.40741 
 Bq                    0.937    -0.26297   1.40741 
 Bq                    0.92091  -0.21557   1.40741 
 Bq                    0.89877  -0.17068   1.40741 
 Bq                    0.87096  -0.12906   1.40741 
 Bq                    0.83796  -0.09142   1.40741 
 Bq                    0.80032  -0.05842   1.40741 
 Bq                    0.7587   -0.03061   1.40741 
 Bq                    0.71381  -0.00847   1.40741 
 Bq                    0.66641   0.00762   1.40741 
 Bq                    0.61731   0.01739   1.40741 
 Bq                    0.56736   0.02066   1.40741 
 Bq                    0.51741   0.01739   1.40741 
 Bq                    0.46831   0.00762   1.40741 
 Bq                    0.42091  -0.00847   1.40741 
 Bq                    0.37602  -0.03061   1.40741 
 Bq                    0.3344   -0.05842   1.40741 
 Bq                    0.29676  -0.09142   1.40741 
 Bq                    0.26376  -0.12906   1.40741 
 Bq                    0.23595  -0.17068   1.40741 
 Bq                    0.21381  -0.21557   1.40741 
 Bq                    0.19772  -0.26297   1.40741 
 Bq                    0.18795  -0.31207   1.40741 
 Bq                    0.18468  -0.36202   1.40741 
 Bq                    0.18795  -0.41197   1.40741 
 Bq                    0.19772  -0.46107   1.40741 
 Bq                    0.21381  -0.50847   1.40741 
 Bq                    0.71381  -0.71557   1.40741 
 Bq                    0.7587   -0.69343   1.40741 
 Bq                    0.80032  -0.66562   1.40741 
 Bq                    0.83796  -0.63262   1.40741 
 Bq                    0.87096  -0.59498   1.40741 
 Bq                    0.89877  -0.55336   1.40741 
 Bq                    0.92091  -0.50847   1.40741 
 Bq                    0.937    -0.46107   1.40741 
 Bq                    0.94677  -0.41197   1.40741 
 Bq                    1.06736  -0.36202   1.34956 
 Bq                    1.06308  -0.29676   1.34956 
 Bq                    1.05032  -0.23261   1.34956 
 Bq                    1.0293   -0.17068   1.34956 
 Bq                    1.00037  -0.11202   1.34956 
 Bq                    0.96404  -0.05764   1.34956 
 Bq                    0.92091  -0.00847   1.34956 
 Bq                    0.87174   0.03466   1.34956 
 Bq                    0.81736   0.07099   1.34956 
 Bq                    0.7587    0.09992   1.34956 
 Bq                    0.69677   0.12094   1.34956 
 Bq                    0.63262   0.1337    1.34956 
 Bq                    0.56736   0.13798   1.34956 
 Bq                    0.5021    0.1337    1.34956 
 Bq                    0.43795   0.12094   1.34956 
 Bq                    0.37602   0.09992   1.34956 
 Bq                    0.31736   0.07099   1.34956 
 Bq                    0.26298   0.03466   1.34956 
 Bq                    0.21381  -0.00847   1.34956 
 Bq                    0.17068  -0.05764   1.34956 
 Bq                    0.13435  -0.11202   1.34956 
 Bq                    0.10542  -0.17068   1.34956 
 Bq                    0.0844   -0.23261   1.34956 
 Bq                    0.07164  -0.29676   1.34956 
 Bq                    0.06736  -0.36202   1.34956 
 Bq                    0.07164  -0.42728   1.34956 
 Bq                    0.0844   -0.49143   1.34956 
 Bq                    1.00037  -0.61202   1.34956 
 Bq                    1.0293   -0.55336   1.34956 
 Bq                    1.05032  -0.49143   1.34956 
 Bq                    1.06308  -0.42728   1.34956 
 Bq                    1.17612  -0.36202   1.27689 
 Bq                    1.17091  -0.28256   1.27689 
 
 NAtoms=    236 NQM=      236 NQMF=       0 NMMI=      0 NMMIF=      0
                NMic=       0 NMicF=      0.
                    Isotopes and Nuclear Properties:
 (Nuclear quadrupole moments (NQMom) in fm**2, nuclear magnetic moments (NMagM)
  in nuclear magnetons)

  Atom         1           2           3           4           5           6           7           8           9          10
 IAtWgt=          12          12          12          12          12          12          12          12          12          12
 AtmWgt=  12.0000000  12.0000000  12.0000000  12.0000000  12.0000000  12.0000000  12.0000000  12.0000000  12.0000000  12.0000000
 NucSpn=           0           0           0           0           0           0           0           0           0           0
 AtZEff=   0.0000000   0.0000000   0.0000000   0.0000000   0.0000000   0.0000000   0.0000000   0.0000000   0.0000000   0.0000000
 NQMom=    0.0000000   0.0000000   0.0000000   0.0000000   0.0000000   0.0000000   0.0000000   0.0000000   0.0000000   0.0000000
 NMagM=    0.0000000   0.0000000   0.0000000   0.0000000   0.0000000   0.0000000   0.0000000   0.0000000   0.0000000   0.0000000
 AtZNuc=   6.0000000   6.0000000   6.0000000   6.0000000   6.0000000   6.0000000   6.0000000   6.0000000   6.0000000   6.0000000

  Atom        11          12          13          14          15          16          17          18          19          20
 IAtWgt=           1           1           1           1          12          12          12          12           1           1
 AtmWgt=   1.0078250   1.0078250   1.0078250   1.0078250  12.0000000  12.0000000  12.0000000  12.0000000   1.0078250   1.0078250
 NucSpn=           1           1           1           1           0           0           0           0           1           1
 AtZEff=   0.0000000   0.0000000   0.0000000   0.0000000   0.0000000   0.0000000   0.0000000   0.0000000   0.0000000   0.0000000
 NQMom=    0.0000000   0.0000000   0.0000000   0.0000000   0.0000000   0.0000000   0.0000000   0.0000000   0.0000000   0.0000000
 NMagM=    2.7928460   2.7928460   2.7928460   2.7928460   0.0000000   0.0000000   0.0000000   0.0000000   2.7928460   2.7928460
 AtZNuc=   1.0000000   1.0000000   1.0000000   1.0000000   6.0000000   6.0000000   6.0000000   6.0000000   1.0000000   1.0000000

  Atom        21          22          23          24          25          26          27          28          29          30
 IAtWgt=           1           1          12          12          12          12          12          12          12          12
 AtmWgt=   1.0078250   1.0078250  12.0000000  12.0000000  12.0000000  12.0000000  12.0000000  12.0000000  12.0000000  12.0000000
 NucSpn=           1           1           0           0           0           0           0           0           0           0
 AtZEff=   0.0000000   0.0000000   0.0000000   0.0000000   0.0000000   0.0000000   0.0000000   0.0000000   0.0000000   0.0000000
 NQMom=    0.0000000   0.0000000   0.0000000   0.0000000   0.0000000   0.0000000   0.0000000   0.0000000   0.0000000   0.0000000
 NMagM=    2.7928460   2.7928460   0.0000000   0.0000000   0.0000000   0.0000000   0.0000000   0.0000000   0.0000000   0.0000000
 AtZNuc=   1.0000000   1.0000000   6.0000000   6.0000000   6.0000000   6.0000000   6.0000000   6.0000000   6.0000000   6.0000000

  Atom        31          32          33          34          35          36          37          38          39          40
 IAtWgt=           1           1           1           1           1           1           0           0           0           0
 AtmWgt=   1.0078250   1.0078250   1.0078250   1.0078250   1.0078250   1.0078250   0.0000000   0.0000000   0.0000000   0.0000000
 NucSpn=           1           1           1           1           1           1           0           0           0           0
 AtZEff=   0.0000000   0.0000000   0.0000000   0.0000000   0.0000000   0.0000000   0.0000000   0.0000000   0.0000000   0.0000000
 NQMom=    0.0000000   0.0000000   0.0000000   0.0000000   0.0000000   0.0000000   0.0000000   0.0000000   0.0000000   0.0000000
 NMagM=    2.7928460   2.7928460   2.7928460   2.7928460   2.7928460   2.7928460   0.0000000   0.0000000   0.0000000   0.0000000
 AtZNuc=   1.0000000   1.0000000   1.0000000   1.0000000   1.0000000   1.0000000   0.0000000   0.0000000   0.0000000   0.0000000

  Atom        41          42          43          44          45          46          47          48          49          50
 IAtWgt=           0           0           0           0           0           0           0           0           0           0
 AtmWgt=   0.0000000   0.0000000   0.0000000   0.0000000   0.0000000   0.0000000   0.0000000   0.0000000   0.0000000   0.0000000
 NucSpn=           0           0           0           0           0           0           0           0           0           0
 AtZEff=   0.0000000   0.0000000   0.0000000   0.0000000   0.0000000   0.0000000   0.0000000   0.0000000   0.0000000   0.0000000
 NQMom=    0.0000000   0.0000000   0.0000000   0.0000000   0.0000000   0.0000000   0.0000000   0.0000000   0.0000000   0.0000000
 NMagM=    0.0000000   0.0000000   0.0000000   0.0000000   0.0000000   0.0000000   0.0000000   0.0000000   0.0000000   0.0000000
 AtZNuc=   0.0000000   0.0000000   0.0000000   0.0000000   0.0000000   0.0000000   0.0000000   0.0000000   0.0000000   0.0000000

  Atom        51          52          53          54          55          56          57          58          59          60
 IAtWgt=           0           0           0           0           0           0           0           0           0           0
 AtmWgt=   0.0000000   0.0000000   0.0000000   0.0000000   0.0000000   0.0000000   0.0000000   0.0000000   0.0000000   0.0000000
 NucSpn=           0           0           0           0           0           0           0           0           0           0
 AtZEff=   0.0000000   0.0000000   0.0000000   0.0000000   0.0000000   0.0000000   0.0000000   0.0000000   0.0000000   0.0000000
 NQMom=    0.0000000   0.0000000   0.0000000   0.0000000   0.0000000   0.0000000   0.0000000   0.0000000   0.0000000   0.0000000
 NMagM=    0.0000000   0.0000000   0.0000000   0.0000000   0.0000000   0.0000000   0.0000000   0.0000000   0.0000000   0.0000000
 AtZNuc=   0.0000000   0.0000000   0.0000000   0.0000000   0.0000000   0.0000000   0.0000000   0.0000000   0.0000000   0.0000000

  Atom        61          62          63          64          65          66          67          68          69          70
 IAtWgt=           0           0           0           0           0           0           0           0           0           0
 AtmWgt=   0.0000000   0.0000000   0.0000000   0.0000000   0.0000000   0.0000000   0.0000000   0.0000000   0.0000000   0.0000000
 NucSpn=           0           0           0           0           0           0           0           0           0           0
 AtZEff=   0.0000000   0.0000000   0.0000000   0.0000000   0.0000000   0.0000000   0.0000000   0.0000000   0.0000000   0.0000000
 NQMom=    0.0000000   0.0000000   0.0000000   0.0000000   0.0000000   0.0000000   0.0000000   0.0000000   0.0000000   0.0000000
 NMagM=    0.0000000   0.0000000   0.0000000   0.0000000   0.0000000   0.0000000   0.0000000   0.0000000   0.0000000   0.0000000
 AtZNuc=   0.0000000   0.0000000   0.0000000   0.0000000   0.0000000   0.0000000   0.0000000   0.0000000   0.0000000   0.0000000

  Atom        71          72          73          74          75          76          77          78          79          80
 IAtWgt=           0           0           0           0           0           0           0           0           0           0
 AtmWgt=   0.0000000   0.0000000   0.0000000   0.0000000   0.0000000   0.0000000   0.0000000   0.0000000   0.0000000   0.0000000
 NucSpn=           0           0           0           0           0           0           0           0           0           0
 AtZEff=   0.0000000   0.0000000   0.0000000   0.0000000   0.0000000   0.0000000   0.0000000   0.0000000   0.0000000   0.0000000
 NQMom=    0.0000000   0.0000000   0.0000000   0.0000000   0.0000000   0.0000000   0.0000000   0.0000000   0.0000000   0.0000000
 NMagM=    0.0000000   0.0000000   0.0000000   0.0000000   0.0000000   0.0000000   0.0000000   0.0000000   0.0000000   0.0000000
 AtZNuc=   0.0000000   0.0000000   0.0000000   0.0000000   0.0000000   0.0000000   0.0000000   0.0000000   0.0000000   0.0000000

  Atom        81          82          83          84          85          86          87          88          89          90
 IAtWgt=           0           0           0           0           0           0           0           0           0           0
 AtmWgt=   0.0000000   0.0000000   0.0000000   0.0000000   0.0000000   0.0000000   0.0000000   0.0000000   0.0000000   0.0000000
 NucSpn=           0           0           0           0           0           0           0           0           0           0
 AtZEff=   0.0000000   0.0000000   0.0000000   0.0000000   0.0000000   0.0000000   0.0000000   0.0000000   0.0000000   0.0000000
 NQMom=    0.0000000   0.0000000   0.0000000   0.0000000   0.0000000   0.0000000   0.0000000   0.0000000   0.0000000   0.0000000
 NMagM=    0.0000000   0.0000000   0.0000000   0.0000000   0.0000000   0.0000000   0.0000000   0.0000000   0.0000000   0.0000000
 AtZNuc=   0.0000000   0.0000000   0.0000000   0.0000000   0.0000000   0.0000000   0.0000000   0.0000000   0.0000000   0.0000000

  Atom        91          92          93          94          95          96          97          98          99         100
 IAtWgt=           0           0           0           0           0           0           0           0           0           0
 AtmWgt=   0.0000000   0.0000000   0.0000000   0.0000000   0.0000000   0.0000000   0.0000000   0.0000000   0.0000000   0.0000000
 NucSpn=           0           0           0           0           0           0           0           0           0           0
 AtZEff=   0.0000000   0.0000000   0.0000000   0.0000000   0.0000000   0.0000000   0.0000000   0.0000000   0.0000000   0.0000000
 NQMom=    0.0000000   0.0000000   0.0000000   0.0000000   0.0000000   0.0000000   0.0000000   0.0000000   0.0000000   0.0000000
 NMagM=    0.0000000   0.0000000   0.0000000   0.0000000   0.0000000   0.0000000   0.0000000   0.0000000   0.0000000   0.0000000
 AtZNuc=   0.0000000   0.0000000   0.0000000   0.0000000   0.0000000   0.0000000   0.0000000   0.0000000   0.0000000   0.0000000

  Atom       101         102         103         104         105         106         107         108         109         110
 IAtWgt=           0           0           0           0           0           0           0           0           0           0
 AtmWgt=   0.0000000   0.0000000   0.0000000   0.0000000   0.0000000   0.0000000   0.0000000   0.0000000   0.0000000   0.0000000
 NucSpn=           0           0           0           0           0           0           0           0           0           0
 AtZEff=   0.0000000   0.0000000   0.0000000   0.0000000   0.0000000   0.0000000   0.0000000   0.0000000   0.0000000   0.0000000
 NQMom=    0.0000000   0.0000000   0.0000000   0.0000000   0.0000000   0.0000000   0.0000000   0.0000000   0.0000000   0.0000000
 NMagM=    0.0000000   0.0000000   0.0000000   0.0000000   0.0000000   0.0000000   0.0000000   0.0000000   0.0000000   0.0000000
 AtZNuc=   0.0000000   0.0000000   0.0000000   0.0000000   0.0000000   0.0000000   0.0000000   0.0000000   0.0000000   0.0000000

  Atom       111         112         113         114         115         116         117         118         119         120
 IAtWgt=           0           0           0           0           0           0           0           0           0           0
 AtmWgt=   0.0000000   0.0000000   0.0000000   0.0000000   0.0000000   0.0000000   0.0000000   0.0000000   0.0000000   0.0000000
 NucSpn=           0           0           0           0           0           0           0           0           0           0
 AtZEff=   0.0000000   0.0000000   0.0000000   0.0000000   0.0000000   0.0000000   0.0000000   0.0000000   0.0000000   0.0000000
 NQMom=    0.0000000   0.0000000   0.0000000   0.0000000   0.0000000   0.0000000   0.0000000   0.0000000   0.0000000   0.0000000
 NMagM=    0.0000000   0.0000000   0.0000000   0.0000000   0.0000000   0.0000000   0.0000000   0.0000000   0.0000000   0.0000000
 AtZNuc=   0.0000000   0.0000000   0.0000000   0.0000000   0.0000000   0.0000000   0.0000000   0.0000000   0.0000000   0.0000000

  Atom       121         122         123         124         125         126         127         128         129         130
 IAtWgt=           0           0           0           0           0           0           0           0           0           0
 AtmWgt=   0.0000000   0.0000000   0.0000000   0.0000000   0.0000000   0.0000000   0.0000000   0.0000000   0.0000000   0.0000000
 NucSpn=           0           0           0           0           0           0           0           0           0           0
 AtZEff=   0.0000000   0.0000000   0.0000000   0.0000000   0.0000000   0.0000000   0.0000000   0.0000000   0.0000000   0.0000000
 NQMom=    0.0000000   0.0000000   0.0000000   0.0000000   0.0000000   0.0000000   0.0000000   0.0000000   0.0000000   0.0000000
 NMagM=    0.0000000   0.0000000   0.0000000   0.0000000   0.0000000   0.0000000   0.0000000   0.0000000   0.0000000   0.0000000
 AtZNuc=   0.0000000   0.0000000   0.0000000   0.0000000   0.0000000   0.0000000   0.0000000   0.0000000   0.0000000   0.0000000

  Atom       131         132         133         134         135         136         137         138         139         140
 IAtWgt=           0           0           0           0           0           0           0           0           0           0
 AtmWgt=   0.0000000   0.0000000   0.0000000   0.0000000   0.0000000   0.0000000   0.0000000   0.0000000   0.0000000   0.0000000
 NucSpn=           0           0           0           0           0           0           0           0           0           0
 AtZEff=   0.0000000   0.0000000   0.0000000   0.0000000   0.0000000   0.0000000   0.0000000   0.0000000   0.0000000   0.0000000
 NQMom=    0.0000000   0.0000000   0.0000000   0.0000000   0.0000000   0.0000000   0.0000000   0.0000000   0.0000000   0.0000000
 NMagM=    0.0000000   0.0000000   0.0000000   0.0000000   0.0000000   0.0000000   0.0000000   0.0000000   0.0000000   0.0000000
 AtZNuc=   0.0000000   0.0000000   0.0000000   0.0000000   0.0000000   0.0000000   0.0000000   0.0000000   0.0000000   0.0000000

  Atom       141         142         143         144         145         146         147         148         149         150
 IAtWgt=           0           0           0           0           0           0           0           0           0           0
 AtmWgt=   0.0000000   0.0000000   0.0000000   0.0000000   0.0000000   0.0000000   0.0000000   0.0000000   0.0000000   0.0000000
 NucSpn=           0           0           0           0           0           0           0           0           0           0
 AtZEff=   0.0000000   0.0000000   0.0000000   0.0000000   0.0000000   0.0000000   0.0000000   0.0000000   0.0000000   0.0000000
 NQMom=    0.0000000   0.0000000   0.0000000   0.0000000   0.0000000   0.0000000   0.0000000   0.0000000   0.0000000   0.0000000
 NMagM=    0.0000000   0.0000000   0.0000000   0.0000000   0.0000000   0.0000000   0.0000000   0.0000000   0.0000000   0.0000000
 AtZNuc=   0.0000000   0.0000000   0.0000000   0.0000000   0.0000000   0.0000000   0.0000000   0.0000000   0.0000000   0.0000000

  Atom       151         152         153         154         155         156         157         158         159         160
 IAtWgt=           0           0           0           0           0           0           0           0           0           0
 AtmWgt=   0.0000000   0.0000000   0.0000000   0.0000000   0.0000000   0.0000000   0.0000000   0.0000000   0.0000000   0.0000000
 NucSpn=           0           0           0           0           0           0           0           0           0           0
 AtZEff=   0.0000000   0.0000000   0.0000000   0.0000000   0.0000000   0.0000000   0.0000000   0.0000000   0.0000000   0.0000000
 NQMom=    0.0000000   0.0000000   0.0000000   0.0000000   0.0000000   0.0000000   0.0000000   0.0000000   0.0000000   0.0000000
 NMagM=    0.0000000   0.0000000   0.0000000   0.0000000   0.0000000   0.0000000   0.0000000   0.0000000   0.0000000   0.0000000
 AtZNuc=   0.0000000   0.0000000   0.0000000   0.0000000   0.0000000   0.0000000   0.0000000   0.0000000   0.0000000   0.0000000

  Atom       161         162         163         164         165         166         167         168         169         170
 IAtWgt=           0           0           0           0           0           0           0           0           0           0
 AtmWgt=   0.0000000   0.0000000   0.0000000   0.0000000   0.0000000   0.0000000   0.0000000   0.0000000   0.0000000   0.0000000
 NucSpn=           0           0           0           0           0           0           0           0           0           0
 AtZEff=   0.0000000   0.0000000   0.0000000   0.0000000   0.0000000   0.0000000   0.0000000   0.0000000   0.0000000   0.0000000
 NQMom=    0.0000000   0.0000000   0.0000000   0.0000000   0.0000000   0.0000000   0.0000000   0.0000000   0.0000000   0.0000000
 NMagM=    0.0000000   0.0000000   0.0000000   0.0000000   0.0000000   0.0000000   0.0000000   0.0000000   0.0000000   0.0000000
 AtZNuc=   0.0000000   0.0000000   0.0000000   0.0000000   0.0000000   0.0000000   0.0000000   0.0000000   0.0000000   0.0000000

  Atom       171         172         173         174         175         176         177         178         179         180
 IAtWgt=           0           0           0           0           0           0           0           0           0           0
 AtmWgt=   0.0000000   0.0000000   0.0000000   0.0000000   0.0000000   0.0000000   0.0000000   0.0000000   0.0000000   0.0000000
 NucSpn=           0           0           0           0           0           0           0           0           0           0
 AtZEff=   0.0000000   0.0000000   0.0000000   0.0000000   0.0000000   0.0000000   0.0000000   0.0000000   0.0000000   0.0000000
 NQMom=    0.0000000   0.0000000   0.0000000   0.0000000   0.0000000   0.0000000   0.0000000   0.0000000   0.0000000   0.0000000
 NMagM=    0.0000000   0.0000000   0.0000000   0.0000000   0.0000000   0.0000000   0.0000000   0.0000000   0.0000000   0.0000000
 AtZNuc=   0.0000000   0.0000000   0.0000000   0.0000000   0.0000000   0.0000000   0.0000000   0.0000000   0.0000000   0.0000000

  Atom       181         182         183         184         185         186         187         188         189         190
 IAtWgt=           0           0           0           0           0           0           0           0           0           0
 AtmWgt=   0.0000000   0.0000000   0.0000000   0.0000000   0.0000000   0.0000000   0.0000000   0.0000000   0.0000000   0.0000000
 NucSpn=           0           0           0           0           0           0           0           0           0           0
 AtZEff=   0.0000000   0.0000000   0.0000000   0.0000000   0.0000000   0.0000000   0.0000000   0.0000000   0.0000000   0.0000000
 NQMom=    0.0000000   0.0000000   0.0000000   0.0000000   0.0000000   0.0000000   0.0000000   0.0000000   0.0000000   0.0000000
 NMagM=    0.0000000   0.0000000   0.0000000   0.0000000   0.0000000   0.0000000   0.0000000   0.0000000   0.0000000   0.0000000
 AtZNuc=   0.0000000   0.0000000   0.0000000   0.0000000   0.0000000   0.0000000   0.0000000   0.0000000   0.0000000   0.0000000

  Atom       191         192         193         194         195         196         197         198         199         200
 IAtWgt=           0           0           0           0           0           0           0           0           0           0
 AtmWgt=   0.0000000   0.0000000   0.0000000   0.0000000   0.0000000   0.0000000   0.0000000   0.0000000   0.0000000   0.0000000
 NucSpn=           0           0           0           0           0           0           0           0           0           0
 AtZEff=   0.0000000   0.0000000   0.0000000   0.0000000   0.0000000   0.0000000   0.0000000   0.0000000   0.0000000   0.0000000
 NQMom=    0.0000000   0.0000000   0.0000000   0.0000000   0.0000000   0.0000000   0.0000000   0.0000000   0.0000000   0.0000000
 NMagM=    0.0000000   0.0000000   0.0000000   0.0000000   0.0000000   0.0000000   0.0000000   0.0000000   0.0000000   0.0000000
 AtZNuc=   0.0000000   0.0000000   0.0000000   0.0000000   0.0000000   0.0000000   0.0000000   0.0000000   0.0000000   0.0000000

  Atom       201         202         203         204         205         206         207         208         209         210
 IAtWgt=           0           0           0           0           0           0           0           0           0           0
 AtmWgt=   0.0000000   0.0000000   0.0000000   0.0000000   0.0000000   0.0000000   0.0000000   0.0000000   0.0000000   0.0000000
 NucSpn=           0           0           0           0           0           0           0           0           0           0
 AtZEff=   0.0000000   0.0000000   0.0000000   0.0000000   0.0000000   0.0000000   0.0000000   0.0000000   0.0000000   0.0000000
 NQMom=    0.0000000   0.0000000   0.0000000   0.0000000   0.0000000   0.0000000   0.0000000   0.0000000   0.0000000   0.0000000
 NMagM=    0.0000000   0.0000000   0.0000000   0.0000000   0.0000000   0.0000000   0.0000000   0.0000000   0.0000000   0.0000000
 AtZNuc=   0.0000000   0.0000000   0.0000000   0.0000000   0.0000000   0.0000000   0.0000000   0.0000000   0.0000000   0.0000000

  Atom       211         212         213         214         215         216         217         218         219         220
 IAtWgt=           0           0           0           0           0           0           0           0           0           0
 AtmWgt=   0.0000000   0.0000000   0.0000000   0.0000000   0.0000000   0.0000000   0.0000000   0.0000000   0.0000000   0.0000000
 NucSpn=           0           0           0           0           0           0           0           0           0           0
 AtZEff=   0.0000000   0.0000000   0.0000000   0.0000000   0.0000000   0.0000000   0.0000000   0.0000000   0.0000000   0.0000000
 NQMom=    0.0000000   0.0000000   0.0000000   0.0000000   0.0000000   0.0000000   0.0000000   0.0000000   0.0000000   0.0000000
 NMagM=    0.0000000   0.0000000   0.0000000   0.0000000   0.0000000   0.0000000   0.0000000   0.0000000   0.0000000   0.0000000
 AtZNuc=   0.0000000   0.0000000   0.0000000   0.0000000   0.0000000   0.0000000   0.0000000   0.0000000   0.0000000   0.0000000

  Atom       221         222         223         224         225         226         227         228         229         230
 IAtWgt=           0           0           0           0           0           0           0           0           0           0
 AtmWgt=   0.0000000   0.0000000   0.0000000   0.0000000   0.0000000   0.0000000   0.0000000   0.0000000   0.0000000   0.0000000
 NucSpn=           0           0           0           0           0           0           0           0           0           0
 AtZEff=   0.0000000   0.0000000   0.0000000   0.0000000   0.0000000   0.0000000   0.0000000   0.0000000   0.0000000   0.0000000
 NQMom=    0.0000000   0.0000000   0.0000000   0.0000000   0.0000000   0.0000000   0.0000000   0.0000000   0.0000000   0.0000000
 NMagM=    0.0000000   0.0000000   0.0000000   0.0000000   0.0000000   0.0000000   0.0000000   0.0000000   0.0000000   0.0000000
 AtZNuc=   0.0000000   0.0000000   0.0000000   0.0000000   0.0000000   0.0000000   0.0000000   0.0000000   0.0000000   0.0000000

  Atom       231         232         233         234         235         236
 IAtWgt=           0           0           0           0           0           0
 AtmWgt=   0.0000000   0.0000000   0.0000000   0.0000000   0.0000000   0.0000000
 NucSpn=           0           0           0           0           0           0
 AtZEff=   0.0000000   0.0000000   0.0000000   0.0000000   0.0000000   0.0000000
 NQMom=    0.0000000   0.0000000   0.0000000   0.0000000   0.0000000   0.0000000
 NMagM=    0.0000000   0.0000000   0.0000000   0.0000000   0.0000000   0.0000000
 AtZNuc=   0.0000000   0.0000000   0.0000000   0.0000000   0.0000000   0.0000000
 Leave Link  101 at Tue Sep 15 13:21:18 2020, MaxMem=   131072000 cpu:         3.2
 (Enter /share/programs/GAUSSIAN/64/g09/l202.exe)
 Symmetry turned off:
 Cannot cope with ghost atoms or with translation vectors.
 Stoichiometry    C22H14
 Framework group  C1[X(C22H14)]
 NUMDOF-- NAT=    36 NAtoms=   236
 Deg. of freedom     0
 Full point group                 C1      NOp   1
                          Input orientation:                          
 ---------------------------------------------------------------------
 Center     Atomic      Atomic             Coordinates (Angstroms)
 Number     Number       Type             X           Y           Z
 ---------------------------------------------------------------------
      1          6           0        0.653241    3.257859   -0.202510
      2          6           0       -0.653243    3.257860    0.202510
      3          6           0        1.372495    2.032956   -0.320807
      4          6           0       -1.372495    2.032956    0.320807
      5          6           0        0.722474    0.795666   -0.050388
      6          6           0       -0.722474    0.795667    0.050387
      7          6           0        2.760385    2.053927   -0.674268
      8          6           0        3.508866    0.913916   -0.671362
      9          6           0        2.955226   -0.309622   -0.177479
     10          6           0        1.574722   -0.361114    0.197094
     11          1           0        1.183427    4.195740   -0.384599
     12          1           0       -1.183429    4.195740    0.384599
     13          1           0        3.206283    3.012423   -0.951392
     14          1           0        4.560023    0.932956   -0.969333
     15          6           0        3.783020   -1.443098    0.028309
     16          6           0        1.137427   -1.507533    0.912109
     17          6           0        1.973691   -2.584349    1.138062
     18          6           0        3.301853   -2.571588    0.661177
     19          1           0        4.825754   -1.391230   -0.295484
     20          1           0        0.124652   -1.532788    1.308472
     21          1           0        1.603586   -3.445682    1.698977
     22          1           0        3.952742   -3.433526    0.825134
     23          6           0       -3.508866    0.913915    0.671362
     24          6           0       -2.760386    2.053926    0.674268
     25          6           0       -2.955226   -0.309623    0.177479
     26          6           0       -1.574722   -0.361114   -0.197094
     27          6           0       -3.783020   -1.443099   -0.028309
     28          6           0       -3.301852   -2.571589   -0.661177
     29          6           0       -1.973690   -2.584349   -1.138061
     30          6           0       -1.137426   -1.507534   -0.912109
     31          1           0       -4.560022    0.932954    0.969334
     32          1           0       -3.206283    3.012421    0.951392
     33          1           0       -4.825754   -1.391232    0.295484
     34          1           0       -3.952741   -3.433528   -0.825134
     35          1           0       -1.603585   -3.445682   -1.698976
     36          1           0       -0.124652   -1.532788   -1.308471
     37          0           0        0.567360   -0.362020    1.483535
     38          0           0        0.567360   -0.362020    1.483535
     39          0           0        0.567360   -0.362020    1.483535
     40          0           0        0.567360   -0.362020    1.483535
     41          0           0        0.567360   -0.362020    1.483535
     42          0           0        0.567360   -0.362020    1.483535
     43          0           0        0.567360   -0.362020    1.483535
     44          0           0        0.567360   -0.362020    1.483535
     45          0           0        0.567360   -0.362020    1.483535
     46          0           0        0.567360   -0.362020    1.483535
     47          0           0        0.567360   -0.362020    1.483535
     48          0           0        0.567360   -0.362020    1.483535
     49          0           0        0.567360   -0.362020    1.483535
     50          0           0        0.567360   -0.362020    1.483535
     51          0           0        0.567360   -0.362020    1.483535
     52          0           0        0.567360   -0.362020    1.483535
     53          0           0        0.567360   -0.362020    1.483535
     54          0           0        0.567360   -0.362020    1.483535
     55          0           0        0.567360   -0.362020    1.483535
     56          0           0        0.567360   -0.362020    1.483535
     57          0           0        0.567360   -0.362020    1.483535
     58          0           0        0.567360   -0.362020    1.483535
     59          0           0        0.567360   -0.362020    1.483535
     60          0           0        0.567360   -0.362020    1.483535
     61          0           0        0.567360   -0.362020    1.483535
     62          0           0        0.567360   -0.362020    1.483535
     63          0           0        0.567360   -0.362020    1.483535
     64          0           0        0.567360   -0.362020    1.483535
     65          0           0        0.567360   -0.362020    1.483535
     66          0           0        0.567360   -0.362020    1.483535
     67          0           0        0.567360   -0.362020    1.483535
     68          0           0        0.567360   -0.362020    1.483535
     69          0           0        0.567360   -0.362020    1.483535
     70          0           0        0.567360   -0.362020    1.483535
     71          0           0        0.697886   -0.362020    1.474980
     72          0           0        0.696770   -0.344983    1.474980
     73          0           0        0.693439   -0.328238    1.474980
     74          0           0        0.687951   -0.312070    1.474980
     75          0           0        0.680399   -0.296757    1.474980
     76          0           0        0.670914   -0.282561    1.474980
     77          0           0        0.659656   -0.269724    1.474980
     78          0           0        0.646820   -0.258467    1.474980
     79          0           0        0.632623   -0.248981    1.474980
     80          0           0        0.617310   -0.241430    1.474980
     81          0           0        0.601143   -0.235942    1.474980
     82          0           0        0.584397   -0.232611    1.474980
     83          0           0        0.567360   -0.231494    1.474980
     84          0           0        0.550323   -0.232611    1.474980
     85          0           0        0.533578   -0.235942    1.474980
     86          0           0        0.517410   -0.241430    1.474980
     87          0           0        0.502097   -0.248981    1.474980
     88          0           0        0.487901   -0.258467    1.474980
     89          0           0        0.475064   -0.269724    1.474980
     90          0           0        0.463807   -0.282561    1.474980
     91          0           0        0.454321   -0.296757    1.474980
     92          0           0        0.446770   -0.312070    1.474980
     93          0           0        0.441282   -0.328238    1.474980
     94          0           0        0.437951   -0.344983    1.474980
     95          0           0        0.436834   -0.362020    1.474980
     96          0           0        0.437951   -0.379057    1.474980
     97          0           0        0.441282   -0.395803    1.474980
     98          0           0        0.446770   -0.411971    1.474980
     99          0           0        0.454321   -0.427283    1.474980
    100          0           0        0.463807   -0.441480    1.474980
    101          0           0        0.475064   -0.454316    1.474980
    102          0           0        0.487901   -0.465574    1.474980
    103          0           0        0.502097   -0.475059    1.474980
    104          0           0        0.517410   -0.482611    1.474980
    105          0           0        0.533578   -0.488099    1.474980
    106          0           0        0.550323   -0.491430    1.474980
    107          0           0        0.567360   -0.492547    1.474980
    108          0           0        0.584397   -0.491430    1.474980
    109          0           0        0.601143   -0.488099    1.474980
    110          0           0        0.617310   -0.482611    1.474980
    111          0           0        0.632623   -0.475059    1.474980
    112          0           0        0.646820   -0.465574    1.474980
    113          0           0        0.659656   -0.454316    1.474980
    114          0           0        0.670914   -0.441480    1.474980
    115          0           0        0.680399   -0.427283    1.474980
    116          0           0        0.687951   -0.411971    1.474980
    117          0           0        0.693439   -0.395803    1.474980
    118          0           0        0.696770   -0.379057    1.474980
    119          0           0        0.826179   -0.362020    1.449461
    120          0           0        0.823965   -0.328238    1.449461
    121          0           0        0.817360   -0.295033    1.449461
    122          0           0        0.806478   -0.262975    1.449461
    123          0           0        0.791504   -0.232611    1.449461
    124          0           0        0.772695   -0.204461    1.449461
    125          0           0        0.750373   -0.179008    1.449461
    126          0           0        0.724919   -0.156685    1.449461
    127          0           0        0.696770   -0.137877    1.449461
    128          0           0        0.666406   -0.122903    1.449461
    129          0           0        0.634347   -0.112020    1.449461
    130          0           0        0.601143   -0.105416    1.449461
    131          0           0        0.567360   -0.103201    1.449461
    132          0           0        0.533578   -0.105416    1.449461
    133          0           0        0.500373   -0.112020    1.449461
    134          0           0        0.468314   -0.122903    1.449461
    135          0           0        0.437951   -0.137877    1.449461
    136          0           0        0.409801   -0.156685    1.449461
    137          0           0        0.384347   -0.179008    1.449461
    138          0           0        0.362025   -0.204461    1.449461
    139          0           0        0.343216   -0.232611    1.449461
    140          0           0        0.328243   -0.262975    1.449461
    141          0           0        0.317360   -0.295033    1.449461
    142          0           0        0.310755   -0.328238    1.449461
    143          0           0        0.308541   -0.362020    1.449461
    144          0           0        0.310755   -0.395803    1.449461
    145          0           0        0.317360   -0.429008    1.449461
    146          0           0        0.328243   -0.461066    1.449461
    147          0           0        0.343216   -0.491430    1.449461
    148          0           0        0.362025   -0.519579    1.449461
    149          0           0        0.384347   -0.545033    1.449461
    150          0           0        0.409801   -0.567355    1.449461
    151          0           0        0.437951   -0.586164    1.449461
    152          0           0        0.468314   -0.601138    1.449461
    153          0           0        0.500373   -0.612020    1.449461
    154          0           0        0.533578   -0.618625    1.449461
    155          0           0        0.567360   -0.620839    1.449461
    156          0           0        0.601143   -0.618625    1.449461
    157          0           0        0.634347   -0.612020    1.449461
    158          0           0        0.666406   -0.601138    1.449461
    159          0           0        0.696770   -0.586164    1.449461
    160          0           0        0.724919   -0.567355    1.449461
    161          0           0        0.750373   -0.545033    1.449461
    162          0           0        0.772695   -0.519579    1.449461
    163          0           0        0.791504   -0.491430    1.449461
    164          0           0        0.806478   -0.461066    1.449461
    165          0           0        0.817360   -0.429008    1.449461
    166          0           0        0.823965   -0.395803    1.449461
    167          0           0        0.950044   -0.362020    1.407414
    168          0           0        0.946770   -0.312070    1.407414
    169          0           0        0.937004   -0.262975    1.407414
    170          0           0        0.920914   -0.215574    1.407414
    171          0           0        0.898774   -0.170679    1.407414
    172          0           0        0.870963   -0.129057    1.407414
    173          0           0        0.837958   -0.091422    1.407414
    174          0           0        0.800323   -0.058417    1.407414
    175          0           0        0.758702   -0.030607    1.407414
    176          0           0        0.713807   -0.008467    1.407414
    177          0           0        0.666406    0.007623    1.407414
    178          0           0        0.617310    0.017389    1.407414
    179          0           0        0.567360    0.020663    1.407414
    180          0           0        0.517410    0.017389    1.407414
    181          0           0        0.468314    0.007623    1.407414
    182          0           0        0.420914   -0.008467    1.407414
    183          0           0        0.376018   -0.030607    1.407414
    184          0           0        0.334397   -0.058417    1.407414
    185          0           0        0.296762   -0.091422    1.407414
    186          0           0        0.263757   -0.129057    1.407414
    187          0           0        0.235947   -0.170679    1.407414
    188          0           0        0.213807   -0.215574    1.407414
    189          0           0        0.197716   -0.262975    1.407414
    190          0           0        0.187951   -0.312070    1.407414
    191          0           0        0.184677   -0.362020    1.407414
    192          0           0        0.187951   -0.411971    1.407414
    193          0           0        0.197716   -0.461066    1.407414
    194          0           0        0.213807   -0.508467    1.407414
    195          0           0        0.713807   -0.715574    1.407414
    196          0           0        0.758702   -0.693434    1.407414
    197          0           0        0.800323   -0.665624    1.407414
    198          0           0        0.837958   -0.632618    1.407414
    199          0           0        0.870963   -0.594983    1.407414
    200          0           0        0.898774   -0.553362    1.407414
    201          0           0        0.920914   -0.508467    1.407414
    202          0           0        0.937004   -0.461066    1.407414
    203          0           0        0.946770   -0.411971    1.407414
    204          0           0        1.067360   -0.362020    1.349560
    205          0           0        1.063083   -0.296757    1.349560
    206          0           0        1.050323   -0.232611    1.349560
    207          0           0        1.029300   -0.170679    1.349560
    208          0           0        1.000373   -0.112020    1.349560
    209          0           0        0.964037   -0.057640    1.349560
    210          0           0        0.920914   -0.008467    1.349560
    211          0           0        0.871741    0.034656    1.349560
    212          0           0        0.817360    0.070992    1.349560
    213          0           0        0.758702    0.099919    1.349560
    214          0           0        0.696770    0.120943    1.349560
    215          0           0        0.632623    0.133702    1.349560
    216          0           0        0.567360    0.137980    1.349560
    217          0           0        0.502097    0.133702    1.349560
    218          0           0        0.437951    0.120943    1.349560
    219          0           0        0.376018    0.099919    1.349560
    220          0           0        0.317360    0.070992    1.349560
    221          0           0        0.262979    0.034656    1.349560
    222          0           0        0.213807   -0.008467    1.349560
    223          0           0        0.170684   -0.057640    1.349560
    224          0           0        0.134347   -0.112020    1.349560
    225          0           0        0.105420   -0.170679    1.349560
    226          0           0        0.084397   -0.232611    1.349560
    227          0           0        0.071638   -0.296757    1.349560
    228          0           0        0.067360   -0.362020    1.349560
    229          0           0        0.071638   -0.427283    1.349560
    230          0           0        0.084397   -0.491430    1.349560
    231          0           0        1.000373   -0.612020    1.349560
    232          0           0        1.029300   -0.553362    1.349560
    233          0           0        1.050323   -0.491430    1.349560
    234          0           0        1.063083   -0.427283    1.349560
    235          0           0        1.176122   -0.362020    1.276888
    236          0           0        1.170914   -0.282561    1.276888
 ---------------------------------------------------------------------
 Rotational constants (GHZ):      0.4454681      0.2811480      0.1854303
 Leave Link  202 at Tue Sep 15 13:21:18 2020, MaxMem=   131072000 cpu:         0.0
 (Enter /share/programs/GAUSSIAN/64/g09/l301.exe)
 Standard basis: 6-311+G(d,p) (5D, 7F)
 Warning:  center  37 has no basis functions!
 Warning:  center  38 has no basis functions!
 Warning:  center  39 has no basis functions!
 Warning:  center  40 has no basis functions!
 Warning:  center  41 has no basis functions!
 Warning:  center  42 has no basis functions!
 Warning:  center  43 has no basis functions!
 Warning:  center  44 has no basis functions!
 Warning:  center  45 has no basis functions!
 Warning:  center  46 has no basis functions!
 Warning:  center  47 has no basis functions!
 Warning:  center  48 has no basis functions!
 Warning:  center  49 has no basis functions!
 Warning:  center  50 has no basis functions!
 Warning:  center  51 has no basis functions!
 Warning:  center  52 has no basis functions!
 Warning:  center  53 has no basis functions!
 Warning:  center  54 has no basis functions!
 Warning:  center  55 has no basis functions!
 Warning:  center  56 has no basis functions!
 Warning:  center  57 has no basis functions!
 Warning:  center  58 has no basis functions!
 Warning:  center  59 has no basis functions!
 Warning:  center  60 has no basis functions!
 Warning:  center  61 has no basis functions!
 Warning:  center  62 has no basis functions!
 Warning:  center  63 has no basis functions!
 Warning:  center  64 has no basis functions!
 Warning:  center  65 has no basis functions!
 Warning:  center  66 has no basis functions!
 Warning:  center  67 has no basis functions!
 Warning:  center  68 has no basis functions!
 Warning:  center  69 has no basis functions!
 Warning:  center  70 has no basis functions!
 Warning:  center  71 has no basis functions!
 Warning:  center  72 has no basis functions!
 Warning:  center  73 has no basis functions!
 Warning:  center  74 has no basis functions!
 Warning:  center  75 has no basis functions!
 Warning:  center  76 has no basis functions!
 Warning:  center  77 has no basis functions!
 Warning:  center  78 has no basis functions!
 Warning:  center  79 has no basis functions!
 Warning:  center  80 has no basis functions!
 Warning:  center  81 has no basis functions!
 Warning:  center  82 has no basis functions!
 Warning:  center  83 has no basis functions!
 Warning:  center  84 has no basis functions!
 Warning:  center  85 has no basis functions!
 Warning:  center  86 has no basis functions!
 Warning:  center  87 has no basis functions!
 Warning:  center  88 has no basis functions!
 Warning:  center  89 has no basis functions!
 Warning:  center  90 has no basis functions!
 Warning:  center  91 has no basis functions!
 Warning:  center  92 has no basis functions!
 Warning:  center  93 has no basis functions!
 Warning:  center  94 has no basis functions!
 Warning:  center  95 has no basis functions!
 Warning:  center  96 has no basis functions!
 Warning:  center  97 has no basis functions!
 Warning:  center  98 has no basis functions!
 Warning:  center  99 has no basis functions!
 Warning:  center 100 has no basis functions!
 Warning:  center 101 has no basis functions!
 Warning:  center 102 has no basis functions!
 Warning:  center 103 has no basis functions!
 Warning:  center 104 has no basis functions!
 Warning:  center 105 has no basis functions!
 Warning:  center 106 has no basis functions!
 Warning:  center 107 has no basis functions!
 Warning:  center 108 has no basis functions!
 Warning:  center 109 has no basis functions!
 Warning:  center 110 has no basis functions!
 Warning:  center 111 has no basis functions!
 Warning:  center 112 has no basis functions!
 Warning:  center 113 has no basis functions!
 Warning:  center 114 has no basis functions!
 Warning:  center 115 has no basis functions!
 Warning:  center 116 has no basis functions!
 Warning:  center 117 has no basis functions!
 Warning:  center 118 has no basis functions!
 Warning:  center 119 has no basis functions!
 Warning:  center 120 has no basis functions!
 Warning:  center 121 has no basis functions!
 Warning:  center 122 has no basis functions!
 Warning:  center 123 has no basis functions!
 Warning:  center 124 has no basis functions!
 Warning:  center 125 has no basis functions!
 Warning:  center 126 has no basis functions!
 Warning:  center 127 has no basis functions!
 Warning:  center 128 has no basis functions!
 Warning:  center 129 has no basis functions!
 Warning:  center 130 has no basis functions!
 Warning:  center 131 has no basis functions!
 Warning:  center 132 has no basis functions!
 Warning:  center 133 has no basis functions!
 Warning:  center 134 has no basis functions!
 Warning:  center 135 has no basis functions!
 Warning:  center 136 has no basis functions!
 Warning:  center 137 has no basis functions!
 Warning:  center 138 has no basis functions!
 Warning:  center 139 has no basis functions!
 Warning:  center 140 has no basis functions!
 Warning:  center 141 has no basis functions!
 Warning:  center 142 has no basis functions!
 Warning:  center 143 has no basis functions!
 Warning:  center 144 has no basis functions!
 Warning:  center 145 has no basis functions!
 Warning:  center 146 has no basis functions!
 Warning:  center 147 has no basis functions!
 Warning:  center 148 has no basis functions!
 Warning:  center 149 has no basis functions!
 Warning:  center 150 has no basis functions!
 Warning:  center 151 has no basis functions!
 Warning:  center 152 has no basis functions!
 Warning:  center 153 has no basis functions!
 Warning:  center 154 has no basis functions!
 Warning:  center 155 has no basis functions!
 Warning:  center 156 has no basis functions!
 Warning:  center 157 has no basis functions!
 Warning:  center 158 has no basis functions!
 Warning:  center 159 has no basis functions!
 Warning:  center 160 has no basis functions!
 Warning:  center 161 has no basis functions!
 Warning:  center 162 has no basis functions!
 Warning:  center 163 has no basis functions!
 Warning:  center 164 has no basis functions!
 Warning:  center 165 has no basis functions!
 Warning:  center 166 has no basis functions!
 Warning:  center 167 has no basis functions!
 Warning:  center 168 has no basis functions!
 Warning:  center 169 has no basis functions!
 Warning:  center 170 has no basis functions!
 Warning:  center 171 has no basis functions!
 Warning:  center 172 has no basis functions!
 Warning:  center 173 has no basis functions!
 Warning:  center 174 has no basis functions!
 Warning:  center 175 has no basis functions!
 Warning:  center 176 has no basis functions!
 Warning:  center 177 has no basis functions!
 Warning:  center 178 has no basis functions!
 Warning:  center 179 has no basis functions!
 Warning:  center 180 has no basis functions!
 Warning:  center 181 has no basis functions!
 Warning:  center 182 has no basis functions!
 Warning:  center 183 has no basis functions!
 Warning:  center 184 has no basis functions!
 Warning:  center 185 has no basis functions!
 Warning:  center 186 has no basis functions!
 Warning:  center 187 has no basis functions!
 Warning:  center 188 has no basis functions!
 Warning:  center 189 has no basis functions!
 Warning:  center 190 has no basis functions!
 Warning:  center 191 has no basis functions!
 Warning:  center 192 has no basis functions!
 Warning:  center 193 has no basis functions!
 Warning:  center 194 has no basis functions!
 Warning:  center 195 has no basis functions!
 Warning:  center 196 has no basis functions!
 Warning:  center 197 has no basis functions!
 Warning:  center 198 has no basis functions!
 Warning:  center 199 has no basis functions!
 Warning:  center 200 has no basis functions!
 Warning:  center 201 has no basis functions!
 Warning:  center 202 has no basis functions!
 Warning:  center 203 has no basis functions!
 Warning:  center 204 has no basis functions!
 Warning:  center 205 has no basis functions!
 Warning:  center 206 has no basis functions!
 Warning:  center 207 has no basis functions!
 Warning:  center 208 has no basis functions!
 Warning:  center 209 has no basis functions!
 Warning:  center 210 has no basis functions!
 Warning:  center 211 has no basis functions!
 Warning:  center 212 has no basis functions!
 Warning:  center 213 has no basis functions!
 Warning:  center 214 has no basis functions!
 Warning:  center 215 has no basis functions!
 Warning:  center 216 has no basis functions!
 Warning:  center 217 has no basis functions!
 Warning:  center 218 has no basis functions!
 Warning:  center 219 has no basis functions!
 Warning:  center 220 has no basis functions!
 Warning:  center 221 has no basis functions!
 Warning:  center 222 has no basis functions!
 Warning:  center 223 has no basis functions!
 Warning:  center 224 has no basis functions!
 Warning:  center 225 has no basis functions!
 Warning:  center 226 has no basis functions!
 Warning:  center 227 has no basis functions!
 Warning:  center 228 has no basis functions!
 Warning:  center 229 has no basis functions!
 Warning:  center 230 has no basis functions!
 Warning:  center 231 has no basis functions!
 Warning:  center 232 has no basis functions!
 Warning:  center 233 has no basis functions!
 Warning:  center 234 has no basis functions!
 Warning:  center 235 has no basis functions!
 Warning:  center 236 has no basis functions!
 Ernie: Thresh=  0.10000D-02 Tol=  0.10000D-05 Strict=F.
   568 basis functions,   904 primitive gaussians,   590 cartesian basis functions
    73 alpha electrons       73 beta electrons
       nuclear repulsion energy      1599.9156270972 Hartrees.
 IExCor=  402 DFT=T Ex+Corr=B3LYP ExCW=0 ScaHFX=  0.200000
 ScaDFX=  0.800000  0.720000  1.000000  0.810000 ScalE2=  1.000000  1.000000
 IRadAn=      0 IRanWt=     -1 IRanGd=            0 ICorTp=0 IEmpDi=  4
 NAtoms=  236 NActive=  236 NUniq=  236 SFac= 1.00D+00 NAtFMM=   60 NAOKFM=T Big=T
 Integral buffers will be    131072 words long.
 Raffenetti 2 integral format.
 Two-electron integral symmetry is turned off.
 Leave Link  301 at Tue Sep 15 13:21:18 2020, MaxMem=   131072000 cpu:         0.6
 (Enter /share/programs/GAUSSIAN/64/g09/l302.exe)
 NPDir=0 NMtPBC=     1 NCelOv=     1 NCel=       1 NClECP=     1 NCelD=      1
         NCelK=      1 NCelE2=     1 NClLst=     1 CellRange=     0.0.
 One-electron integrals computed using PRISM.
 NBasis=   568 RedAO= T EigKep=  1.01D-06  NBF=   568
 NBsUse=   557 1.00D-06 EigRej=  9.19D-07 NBFU=   557
 Precomputing XC quadrature grid using
 IXCGrd= 4 IRadAn=           0 IRanWt=          -1 IRanGd=           0 AccXCQ= 0.00D+00.
 Generated NRdTot=       0 NPtTot=           0 NUsed=           0 NTot=          32
 NSgBfM=   587   588   588   589   589 MxSgAt=   236 MxSgA2=    36.
 Leave Link  302 at Tue Sep 15 13:21:20 2020, MaxMem=   131072000 cpu:        15.2
 (Enter /share/programs/GAUSSIAN/64/g09/l308.exe)
 Leave Link  308 at Tue Sep 15 13:21:20 2020, MaxMem=   131072000 cpu:         1.2
 (Enter /share/programs/GAUSSIAN/64/g09/l303.exe)
 DipDrv:  MaxL=1.
 Leave Link  303 at Tue Sep 15 13:21:21 2020, MaxMem=   131072000 cpu:         0.9
 (Enter /share/programs/GAUSSIAN/64/g09/l401.exe)
 Initial guess from the checkpoint file:  "/scratch/aartigas.39147/Gau-5726.chk"
 Skipping rotation of guess because NAtoms(RWF)=  236 differs from NAtoms(Chk)=   36.
 Guess basis will be translated and rotated to current coordinates.
 JPrj=2 DoOrth=T DoCkMO=T.
 Leave Link  401 at Tue Sep 15 13:21:23 2020, MaxMem=   131072000 cpu:        10.5
 (Enter /share/programs/GAUSSIAN/64/g09/l502.exe)
 Closed shell SCF:
 Using DIIS extrapolation, IDIIS=  1040.
 Two-electron integral symmetry not used.
 IVT=     1071582 IEndB=     1071582 NGot=   131072000 MDV=   130365749
 LenX=   130365749 LenY=   130017059
 Requested convergence on RMS density matrix=1.00D-08 within 128 cycles.
 Requested convergence on MAX density matrix=1.00D-06.
 Requested convergence on             energy=1.00D-06.
 No special actions if energy rises.
 Fock matrices will be formed incrementally for  20 cycles.

 Cycle   1  Pass 1  IDiag  1:
 FoFJK:  IHMeth= 1 ICntrl=       0 DoSepK=F KAlg= 0 I1Cent=   0 FoldK=F
 IRaf= 940000000 NMat=   1 IRICut=       1 DoRegI=T DoRafI=F ISym2E= 0.
 FoFCou: FMM=T IPFlag=           0 FMFlag=      100000 FMFlg1=        2001
         NFxFlg=           0 DoJE=F BraDBF=F KetDBF=F FulRan=T
         wScrn=  0.000000 ICntrl=       0 IOpCl=  0 I1Cent=           0 NGrid=           0
         NMat0=    1 NMatS0=      1 NMatT0=    0 NMatD0=    1 NMtDS0=    0 NMtDT0=    0
 Symmetry not used in FoFCou.
 FMM levels:  10  Number of levels for PrismC:   9
 E= -847.003738666967    
 DIIS: error= 5.05D-08 at cycle   1 NSaved=   1.
 NSaved= 1 IEnMin= 1 EnMin= -847.003738666967     IErMin= 1 ErrMin= 5.05D-08
 ErrMax= 5.05D-08  0.00D+00 EMaxC= 1.00D-01 BMatC= 3.55D-12 BMatP= 3.55D-12
 IDIUse=1 WtCom= 1.00D+00 WtEn= 0.00D+00
 Coeff-Com:  0.100D+01
 Coeff:      0.100D+01
 Gap=     0.151 Goal=   None    Shift=    0.000
 RMSDP=2.88D-07 MaxDP=1.33D-05              OVMax= 3.94D-07

 Cycle   2  Pass 1  IDiag  1:
 RMSU=  2.85D-07    CP:  1.00D+00
 E= -847.003738666860     Delta-E=        0.000000000106 Rises=F Damp=F
 DIIS: error= 1.42D-08 at cycle   2 NSaved=   2.
 NSaved= 2 IEnMin= 1 EnMin= -847.003738666967     IErMin= 2 ErrMin= 1.42D-08
 ErrMax= 1.42D-08  0.00D+00 EMaxC= 1.00D-01 BMatC= 2.13D-13 BMatP= 3.55D-12
 IDIUse=1 WtCom= 1.00D+00 WtEn= 0.00D+00
 Coeff-Com:  0.627D-01 0.937D+00
 Coeff:      0.627D-01 0.937D+00
 Gap=     0.151 Goal=   None    Shift=    0.000
 RMSDP=1.58D-08 MaxDP=7.88D-07 DE= 1.06D-10 OVMax= 3.02D-07

 Cycle   3  Pass 1  IDiag  1:
 RMSU=  1.33D-08    CP:  1.00D+00  1.02D+00
 E= -847.003738666893     Delta-E=       -0.000000000033 Rises=F Damp=F
 DIIS: error= 2.51D-08 at cycle   3 NSaved=   3.
 NSaved= 3 IEnMin= 1 EnMin= -847.003738666967     IErMin= 2 ErrMin= 1.42D-08
 ErrMax= 2.51D-08  0.00D+00 EMaxC= 1.00D-01 BMatC= 5.05D-13 BMatP= 2.13D-13
 IDIUse=1 WtCom= 1.00D+00 WtEn= 0.00D+00
 Coeff-Com: -0.107D-01 0.616D+00 0.395D+00
 Coeff:     -0.107D-01 0.616D+00 0.395D+00
 Gap=     0.151 Goal=   None    Shift=    0.000
 RMSDP=1.03D-08 MaxDP=4.09D-07 DE=-3.27D-11 OVMax= 2.17D-07

 Cycle   4  Pass 1  IDiag  1:
 RMSU=  5.90D-09    CP:  1.00D+00  1.02D+00  3.98D-01
 E= -847.003738666887     Delta-E=        0.000000000006 Rises=F Damp=F
 DIIS: error= 8.06D-09 at cycle   4 NSaved=   4.
 NSaved= 4 IEnMin= 1 EnMin= -847.003738666967     IErMin= 4 ErrMin= 8.06D-09
 ErrMax= 8.06D-09  0.00D+00 EMaxC= 1.00D-01 BMatC= 2.06D-14 BMatP= 2.13D-13
 IDIUse=1 WtCom= 1.00D+00 WtEn= 0.00D+00
 Coeff-Com: -0.876D-02 0.309D+00 0.241D+00 0.459D+00
 Coeff:     -0.876D-02 0.309D+00 0.241D+00 0.459D+00
 Gap=     0.151 Goal=   None    Shift=    0.000
 RMSDP=4.02D-09 MaxDP=1.49D-07 DE= 5.91D-12 OVMax= 6.88D-08

 SCF Done:  E(RB3LYP) =  -847.003738667     A.U. after    4 cycles
            NFock=  4  Conv=0.40D-08     -V/T= 2.0049
 KE= 8.428349970566D+02 PE=-5.164192584015D+03 EE= 1.874438221195D+03
 Leave Link  502 at Tue Sep 15 13:23:33 2020, MaxMem=   131072000 cpu:      1043.6
 (Enter /share/programs/GAUSSIAN/64/g09/l801.exe)
 DoSCS=F DFT=T ScalE2(SS,OS)=  1.000000  1.000000
 Range of M.O.s used for correlation:     1   557
 NBasis=   568 NAE=    73 NBE=    73 NFC=     0 NFV=     0
 NROrb=    557 NOA=    73 NOB=    73 NVA=   484 NVB=   484

 **** Warning!!: The largest alpha MO coefficient is  0.14271944D+03

 Leave Link  801 at Tue Sep 15 13:23:34 2020, MaxMem=   131072000 cpu:         0.3
 (Enter /share/programs/GAUSSIAN/64/g09/l1002.exe)
 Minotr:  Closed shell wavefunction.
          Direct CPHF calculation.
          Differentiating once with respect to magnetic field using GIAOs.
          Electric field/nuclear overlap derivatives assumed to be zero.
          Requested convergence is 1.0D-08 RMS, and 1.0D-07 maximum.
          Secondary convergence is 1.0D-12 RMS, and 1.0D-12 maximum.
          NewPWx=T KeepS1=F KeepF1=F KeepIn=T MapXYZ=F SortEE=F KeepMc=T.
          MDV=     131069551 using IRadAn=       2.
 Generate precomputed XC quadrature information.
          Solving linear equations simultaneously, MaxMat=      72.
 FoFCou: FMM=F IPFlag=           0 FMFlag=      100000 FMFlg1=        2001
         NFxFlg=           0 DoJE=F BraDBF=F KetDBF=T FulRan=T
         wScrn=  0.000000 ICntrl=    6100 IOpCl=  0 I1Cent=           7 NGrid=         236
         NMat0=    1 NMatS0=      1 NMatT0=    0 NMatD0=    1 NMtDS0=    0 NMtDT0=    0
 Symmetry not used in FoFCou.
 FoFJK:  IHMeth= 1 ICntrl=    6127 DoSepK=F KAlg= 0 I1Cent=   0 FoldK=F
 IRaf=         1 NMat=   1 IRICut=       1 DoRegI=T DoRafI=F ISym2E= 0.
          There are     3 degrees of freedom in the 1st order CPHF.  IDoFFX=0 NUNeed=     3.
      3 vectors produced by pass  0 Test12= 1.18D-12 3.33D-08 XBig12= 1.96D+03 8.77D+00.
 AX will form     3 AO Fock derivatives at one time.
      3 vectors produced by pass  1 Test12= 1.18D-12 3.33D-08 XBig12= 3.18D+00 7.58D-01.
      3 vectors produced by pass  2 Test12= 1.18D-12 3.33D-08 XBig12= 1.86D-02 5.85D-02.
      3 vectors produced by pass  3 Test12= 1.18D-12 3.33D-08 XBig12= 4.29D-05 1.35D-03.
      3 vectors produced by pass  4 Test12= 1.18D-12 3.33D-08 XBig12= 9.75D-08 7.22D-05.
      3 vectors produced by pass  5 Test12= 1.18D-12 3.33D-08 XBig12= 3.97D-10 5.92D-06.
      3 vectors produced by pass  6 Test12= 1.18D-12 3.33D-08 XBig12= 1.51D-12 4.40D-07.
 InvSVY:  IOpt=1 It=  1 EMax= 2.13D-14
 Solved reduced A of dimension    21 with     3 vectors.
 Calculating GIAO nuclear magnetic shielding tensors.
 SCF GIAO Magnetic shielding tensor (ppm):
      1  C    Isotropic =    49.6861   Anisotropy =   149.7970
   XX=    46.3088   YX=   -25.0950   ZX=    31.4786
   XY=   -31.1109   YY=   -39.0339   ZY=    13.2621
   XZ=    24.9178   YZ=     8.9888   ZZ=   141.7833
   Eigenvalues:   -49.3507    48.8581   149.5507
      2  C    Isotropic =    49.6861   Anisotropy =   149.7971
   XX=    46.3088   YX=    25.0953   ZX=    31.4786
   XY=    31.1111   YY=   -39.0339   ZY=   -13.2621
   XZ=    24.9177   YZ=    -8.9889   ZZ=   141.7834
   Eigenvalues:   -49.3508    48.8583   149.5509
      3  C    Isotropic =    44.4899   Anisotropy =   204.7372
   XX=   -22.2199   YX=    10.8075   ZX=    51.2710
   XY=     4.9259   YY=   -14.7126   ZY=    14.7921
   XZ=    32.3655   YZ=    21.2392   ZZ=   170.4022
   Eigenvalues:   -31.9593   -15.5523   180.9814
      4  C    Isotropic =    44.4899   Anisotropy =   204.7373
   XX=   -22.2198   YX=   -10.8075   ZX=    51.2710
   XY=    -4.9256   YY=   -14.7126   ZY=   -14.7922
   XZ=    32.3656   YZ=   -21.2393   ZZ=   170.4023
   Eigenvalues:   -31.9592   -15.5524   180.9815
      5  C    Isotropic =    48.5420   Anisotropy =   189.5490
   XX=   -14.6790   YX=     4.7342   ZX=     8.4333
   XY=    20.3759   YY=    -5.5375   ZY=    31.5121
   XZ=    65.1218   YZ=     0.8640   ZZ=   165.8426
   Eigenvalues:   -26.3226    -2.9593   174.9080
      6  C    Isotropic =    48.5421   Anisotropy =   189.5489
   XX=   -14.6789   YX=    -4.7340   ZX=     8.4335
   XY=   -20.3758   YY=    -5.5374   ZY=   -31.5121
   XZ=    65.1218   YZ=    -0.8638   ZZ=   165.8426
   Eigenvalues:   -26.3224    -2.9594   174.9080
      7  C    Isotropic =    50.1907   Anisotropy =   149.2089
   XX=    19.7303   YX=   -44.2755   ZX=    41.2886
   XY=   -38.0437   YY=    -2.7069   ZY=    36.9011
   XZ=    36.5866   YZ=    37.5458   ZZ=   133.5487
   Eigenvalues:   -49.6656    50.5744   149.6633
      8  C    Isotropic =    48.9362   Anisotropy =   152.4339
   XX=   -31.5093   YX=   -11.4921   ZX=    54.7730
   XY=   -19.0468   YY=    46.5898   ZY=    27.5522
   XZ=    42.2451   YZ=    29.8391   ZZ=   131.7282
   Eigenvalues:   -50.1461    46.3960   150.5589
      9  C    Isotropic =    44.4204   Anisotropy =   209.3981
   XX=   -10.1987   YX=    16.7536   ZX=    44.4888
   XY=     8.9342   YY=    -7.7270   ZY=    61.4651
   XZ=    43.3269   YZ=    64.9792   ZZ=   151.1869
   Eigenvalues:   -30.3689   -20.3891   184.0192
     10  C    Isotropic =    45.3894   Anisotropy =   198.3236
   XX=    -5.9706   YX=    23.3819   ZX=    35.6519
   XY=    38.1954   YY=     1.7271   ZY=    73.1370
   XZ=    54.0013   YZ=    45.7045   ZZ=   140.4116
   Eigenvalues:   -33.5315    -7.9055   177.6051
     11  H    Isotropic =    23.8179   Anisotropy =     7.5674
   XX=    27.2191   YX=    -1.9090   ZX=    -2.2602
   XY=    -1.7961   YY=    24.8722   ZY=    -0.1966
   XZ=    -3.3763   YZ=    -0.1950   ZZ=    19.3625
   Eigenvalues:    18.3647    24.2263    28.8628
     12  H    Isotropic =    23.8179   Anisotropy =     7.5674
   XX=    27.2191   YX=     1.9090   ZX=    -2.2602
   XY=     1.7961   YY=    24.8722   ZY=     0.1966
   XZ=    -3.3763   YZ=     0.1950   ZZ=    19.3625
   Eigenvalues:    18.3647    24.2263    28.8628
     13  H    Isotropic =    23.8548   Anisotropy =     7.5124
   XX=    26.7195   YX=    -2.1358   ZX=    -2.0755
[...]
   119  Bq   0.000000
   120  Bq   0.000000
   121  Bq   0.000000
   122  Bq   0.000000
   123  Bq   0.000000
   124  Bq   0.000000
   125  Bq   0.000000
   126  Bq   0.000000
   127  Bq   0.000000
   128  Bq   0.000000
   129  Bq   0.000000
   130  Bq   0.000000
   131  Bq   0.000000
   132  Bq   0.000000
   133  Bq   0.000000
   134  Bq   0.000000
   135  Bq   0.000000
   136  Bq   0.000000
   137  Bq   0.000000
   138  Bq   0.000000
   139  Bq   0.000000
   140  Bq   0.000000
   141  Bq   0.000000
   142  Bq   0.000000
   143  Bq   0.000000
   144  Bq   0.000000
   145  Bq   0.000000
   146  Bq   0.000000
   147  Bq   0.000000
   148  Bq   0.000000
   149  Bq   0.000000
   150  Bq   0.000000
   151  Bq   0.000000
   152  Bq   0.000000
   153  Bq   0.000000
   154  Bq   0.000000
   155  Bq   0.000000
   156  Bq   0.000000
   157  Bq   0.000000
   158  Bq   0.000000
   159  Bq   0.000000
   160  Bq   0.000000
   161  Bq   0.000000
   162  Bq   0.000000
   163  Bq   0.000000
   164  Bq   0.000000
   165  Bq   0.000000
   166  Bq   0.000000
   167  Bq   0.000000
   168  Bq   0.000000
   169  Bq   0.000000
   170  Bq   0.000000
   171  Bq   0.000000
   172  Bq   0.000000
   173  Bq   0.000000
   174  Bq   0.000000
   175  Bq   0.000000
   176  Bq   0.000000
   177  Bq   0.000000
   178  Bq   0.000000
   179  Bq   0.000000
   180  Bq   0.000000
   181  Bq   0.000000
   182  Bq   0.000000
   183  Bq   0.000000
   184  Bq   0.000000
   185  Bq   0.000000
   186  Bq   0.000000
   187  Bq   0.000000
   188  Bq   0.000000
   189  Bq   0.000000
   190  Bq   0.000000
   191  Bq   0.000000
   192  Bq   0.000000
   193  Bq   0.000000
   194  Bq   0.000000
   195  Bq   0.000000
   196  Bq   0.000000
   197  Bq   0.000000
   198  Bq   0.000000
   199  Bq   0.000000
   200  Bq   0.000000
   201  Bq   0.000000
   202  Bq   0.000000
   203  Bq   0.000000
   204  Bq   0.000000
   205  Bq   0.000000
   206  Bq   0.000000
   207  Bq   0.000000
   208  Bq   0.000000
   209  Bq   0.000000
   210  Bq   0.000000
   211  Bq   0.000000
   212  Bq   0.000000
   213  Bq   0.000000
   214  Bq   0.000000
   215  Bq   0.000000
   216  Bq   0.000000
   217  Bq   0.000000
   218  Bq   0.000000
   219  Bq   0.000000
   220  Bq   0.000000
   221  Bq   0.000000
   222  Bq   0.000000
   223  Bq   0.000000
   224  Bq   0.000000
   225  Bq   0.000000
   226  Bq   0.000000
   227  Bq   0.000000
   228  Bq   0.000000
   229  Bq   0.000000
   230  Bq   0.000000
   231  Bq   0.000000
   232  Bq   0.000000
   233  Bq   0.000000
   234  Bq   0.000000
   235  Bq   0.000000
   236  Bq   0.000000
 Sum of Mulliken charges =   0.00000
 Mulliken charges with hydrogens summed into heavy atoms:
               1
     1  C   -0.262865
     2  C   -0.262866
     3  C    0.737923
     4  C    0.737922
     5  C   -0.039994
     6  C   -0.040001
     7  C    0.075155
     8  C   -0.330147
     9  C    0.780501
    10  C   -0.200782
    15  C    0.249272
    16  C   -0.679960
    17  C   -0.189404
    18  C   -0.286191
    23  C   -0.330145
    24  C    0.075154
    25  C    0.780496
    26  C   -0.200782
    27  C    0.249273
    28  C   -0.286192
    29  C   -0.189403
    30  C   -0.533462
    37  Bq   0.000000
    38  Bq   0.000000
    39  Bq   0.000000
    40  Bq   0.000000
    41  Bq   0.000000
    42  Bq   0.000000
    43  Bq   0.000000
    44  Bq   0.000000
    45  Bq   0.000000
    46  Bq   0.000000
    47  Bq   0.000000
    48  Bq   0.000000
    49  Bq   0.000000
    50  Bq   0.000000
    51  Bq   0.000000
    52  Bq   0.000000
    53  Bq   0.000000
    54  Bq   0.000000
    55  Bq   0.000000
    56  Bq   0.000000
    57  Bq   0.000000
    58  Bq   0.000000
    59  Bq   0.000000
    60  Bq   0.000000
    61  Bq   0.000000
    62  Bq   0.000000
    63  Bq   0.000000
    64  Bq   0.000000
    65  Bq   0.000000
    66  Bq   0.000000
    67  Bq   0.000000
    68  Bq   0.000000
    69  Bq   0.000000
    70  Bq   0.000000
    71  Bq   0.000000
    72  Bq   0.000000
    73  Bq   0.000000
    74  Bq   0.000000
    75  Bq   0.000000
    76  Bq   0.000000
    77  Bq   0.000000
    78  Bq   0.000000
    79  Bq   0.000000
    80  Bq   0.000000
    81  Bq   0.000000
    82  Bq   0.000000
    83  Bq   0.000000
    84  Bq   0.000000
    85  Bq   0.000000
    86  Bq   0.000000
    87  Bq   0.000000
    88  Bq   0.000000
    89  Bq   0.000000
    90  Bq   0.000000
    91  Bq   0.000000
    92  Bq   0.000000
    93  Bq   0.000000
    94  Bq   0.000000
    95  Bq   0.000000
    96  Bq   0.000000
    97  Bq   0.000000
    98  Bq   0.000000
    99  Bq   0.000000
   100  Bq   0.000000
   101  Bq   0.000000
   102  Bq   0.000000
   103  Bq   0.000000
   104  Bq   0.000000
   105  Bq   0.000000
   106  Bq   0.000000
   107  Bq   0.000000
   108  Bq   0.000000
   109  Bq   0.000000
   110  Bq   0.000000
   111  Bq   0.000000
   112  Bq   0.000000
   113  Bq   0.000000
   114  Bq   0.000000
   115  Bq   0.000000
   116  Bq   0.000000
   117  Bq   0.000000
   118  Bq   0.000000
   119  Bq   0.000000
   120  Bq   0.000000
   121  Bq   0.000000
   122  Bq   0.000000
   123  Bq   0.000000
   124  Bq   0.000000
   125  Bq   0.000000
   126  Bq   0.000000
   127  Bq   0.000000
   128  Bq   0.000000
   129  Bq   0.000000
   130  Bq   0.000000
   131  Bq   0.000000
   132  Bq   0.000000
   133  Bq   0.000000
   134  Bq   0.000000
   135  Bq   0.000000
   136  Bq   0.000000
   137  Bq   0.000000
   138  Bq   0.000000
   139  Bq   0.000000
   140  Bq   0.000000
   141  Bq   0.000000
   142  Bq   0.000000
   143  Bq   0.000000
   144  Bq   0.000000
   145  Bq   0.000000
   146  Bq   0.000000
   147  Bq   0.000000
   148  Bq   0.000000
   149  Bq   0.000000
   150  Bq   0.000000
   151  Bq   0.000000
   152  Bq   0.146499
   153  Bq   0.000000
   154  Bq   0.000000
   155  Bq   0.000000
   156  Bq   0.000000
   157  Bq   0.000000
   158  Bq   0.000000
   159  Bq   0.000000
   160  Bq   0.000000
   161  Bq   0.000000
   162  Bq   0.000000
   163  Bq   0.000000
   164  Bq   0.000000
   165  Bq   0.000000
   166  Bq   0.000000
   167  Bq   0.000000
   168  Bq   0.000000
   169  Bq   0.000000
   170  Bq   0.000000
   171  Bq   0.000000
   172  Bq   0.000000
   173  Bq   0.000000
   174  Bq   0.000000
   175  Bq   0.000000
   176  Bq   0.000000
   177  Bq   0.000000
   178  Bq   0.000000
   179  Bq   0.000000
   180  Bq   0.000000
   181  Bq   0.000000
   182  Bq   0.000000
   183  Bq   0.000000
   184  Bq   0.000000
   185  Bq   0.000000
   186  Bq   0.000000
   187  Bq   0.000000
   188  Bq   0.000000
   189  Bq   0.000000
   190  Bq   0.000000
   191  Bq   0.000000
   192  Bq   0.000000
   193  Bq   0.000000
   194  Bq   0.000000
   195  Bq   0.000000
   196  Bq   0.000000
   197  Bq   0.000000
   198  Bq   0.000000
   199  Bq   0.000000
   200  Bq   0.000000
   201  Bq   0.000000
   202  Bq   0.000000
   203  Bq   0.000000
   204  Bq   0.000000
   205  Bq   0.000000
   206  Bq   0.000000
   207  Bq   0.000000
   208  Bq   0.000000
   209  Bq   0.000000
   210  Bq   0.000000
   211  Bq   0.000000
   212  Bq   0.000000
   213  Bq   0.000000
   214  Bq   0.000000
   215  Bq   0.000000
   216  Bq   0.000000
   217  Bq   0.000000
   218  Bq   0.000000
   219  Bq   0.000000
   220  Bq   0.000000
   221  Bq   0.000000
   222  Bq   0.000000
   223  Bq   0.000000
   224  Bq   0.000000
   225  Bq   0.000000
   226  Bq   0.000000
   227  Bq   0.000000
   228  Bq   0.000000
   229  Bq   0.000000
   230  Bq   0.000000
   231  Bq   0.000000
   232  Bq   0.000000
   233  Bq   0.000000
   234  Bq   0.000000
   235  Bq   0.000000
   236  Bq   0.000000
 Electronic spatial extent (au):  <R**2>=           5804.3227
 Charge=              0.0000 electrons
 Dipole moment (field-independent basis, Debye):
    X=              0.0000    Y=              0.0732    Z=              0.0000  Tot=              0.0732
 Quadrupole moment (field-independent basis, Debye-Ang):
   XX=           -113.9137   YY=           -113.9781   ZZ=           -133.4378
   XY=              0.0000   XZ=             -4.8717   YZ=              0.0000
 Traceless Quadrupole moment (field-independent basis, Debye-Ang):
   XX=              6.5295   YY=              6.4651   ZZ=            -12.9946
   XY=              0.0000   XZ=             -4.8717   YZ=              0.0000
 Octapole moment (field-independent basis, Debye-Ang**2):
  XXX=              0.0000  YYY=             11.7108  ZZZ=              0.0000  XYY=              0.0000
  XXY=             -6.4067  XXZ=              0.0000  XZZ=              0.0000  YZZ=             -7.8695
  YYZ=              0.0000  XYZ=            -16.2862
 Hexadecapole moment (field-independent basis, Debye-Ang**3):
 XXXX=          -4416.4021 YYYY=          -2784.9756 ZZZZ=           -481.5690 XXXY=              0.0001
 XXXZ=           -124.3517 YYYX=             -0.0003 YYYZ=              0.0001 ZZZX=             -4.4782
 ZZZY=              0.0001 XXYY=          -1189.3576 XXZZ=           -942.9016 YYZZ=           -589.4012
 XXYZ=              0.0000 YYXZ=              7.8297 ZZXY=             -0.0001
 N-N= 1.599915627097D+03 E-N=-5.164192587538D+03  KE= 8.428349970566D+02
 Leave Link  601 at Tue Sep 15 13:34:24 2020, MaxMem=   131072000 cpu:         0.8
 (Enter /share/programs/GAUSSIAN/64/g09/l9999.exe)
 1\1\GINC-URBICANDE\SP\RB3LYP\6-311+G(d,p)\C22H14\AARTIGAS\15-Sep-2020\
 0\\#P rb3lyp/6-311+g** NMR Guess=Read geom=connectivity\\Title\\0,1\C,
 0,0.653241,3.257859,-0.20251\C,0,-0.653243,3.25786,0.20251\C,0,1.37249
 5,2.032956,-0.320807\C,0,-1.372495,2.032956,0.320807\C,0,0.722474,0.79
 5666,-0.050388\C,0,-0.722474,0.795667,0.050387\C,0,2.760385,2.053927,-
 0.674268\C,0,3.508866,0.913916,-0.671362\C,0,2.955226,-0.309622,-0.177
 479\C,0,1.574722,-0.361114,0.197094\H,0,1.183427,4.19574,-0.384599\H,0
 ,-1.183429,4.19574,0.384599\H,0,3.206283,3.012423,-0.951392\H,0,4.5600
 23,0.932956,-0.969333\C,0,3.78302,-1.443098,0.028309\C,0,1.137427,-1.5
 07533,0.912109\C,0,1.973691,-2.584349,1.138062\C,0,3.301853,-2.571588,
 0.661177\H,0,4.825754,-1.39123,-0.295484\H,0,0.124652,-1.532788,1.3084
 72\H,0,1.603586,-3.445682,1.698977\H,0,3.952742,-3.433526,0.825134\C,0
 ,-3.508866,0.913915,0.671362\C,0,-2.760386,2.053926,0.674268\C,0,-2.95
 5226,-0.309623,0.177479\C,0,-1.574722,-0.361114,-0.197094\C,0,-3.78302
 ,-1.443099,-0.028309\C,0,-3.301852,-2.571589,-0.661177\C,0,-1.97369,-2
 .584349,-1.138061\C,0,-1.137426,-1.507534,-0.912109\H,0,-4.560022,0.93
 2954,0.969334\H,0,-3.206283,3.012421,0.951392\H,0,-4.825754,-1.391232,
 0.295484\H,0,-3.952741,-3.433528,-0.825134\H,0,-1.603585,-3.445682,-1.
 698976\H,0,-0.124652,-1.532788,-1.308471\Bq,0,0.5673602,-0.3620204,1.4
 835348\Bq,0,0.5673602,-0.3620204,1.4835348\Bq,0,0.5673602,-0.3620204,1
 .4835348\Bq,0,0.5673602,-0.3620204,1.4835348\Bq,0,0.5673602,-0.3620204
 ,1.4835348\Bq,0,0.5673602,-0.3620204,1.4835348\Bq,0,0.5673602,-0.36202
 04,1.4835348\Bq,0,0.5673602,-0.3620204,1.4835348\Bq,0,0.5673602,-0.362
 0204,1.4835348\Bq,0,0.5673602,-0.3620204,1.4835348\Bq,0,0.5673602,-0.3
 620204,1.4835348\Bq,0,0.5673602,-0.3620204,1.4835348\Bq,0,0.5673602,-0
 .3620204,1.4835348\Bq,0,0.5673602,-0.3620204,1.4835348\Bq,0,0.5673602,
 -0.3620204,1.4835348\Bq,0,0.5673602,-0.3620204,1.4835348\Bq,0,0.567360
 2,-0.3620204,1.4835348\Bq,0,0.5673602,-0.3620204,1.4835348\Bq,0,0.5673
 602,-0.3620204,1.4835348\Bq,0,0.5673602,-0.3620204,1.4835348\Bq,0,0.56
 73602,-0.3620204,1.4835348\Bq,0,0.5673602,-0.3620204,1.4835348\Bq,0,0.
 5673602,-0.3620204,1.4835348\Bq,0,0.5673602,-0.3620204,1.4835348\Bq,0,
 0.5673602,-0.3620204,1.4835348\Bq,0,0.5673602,-0.3620204,1.4835348\Bq,
 0,0.5673602,-0.3620204,1.4835348\Bq,0,0.5673602,-0.3620204,1.4835348\B
 q,0,0.5673602,-0.3620204,1.4835348\Bq,0,0.5673602,-0.3620204,1.4835348
 \Bq,0,0.5673602,-0.3620204,1.4835348\Bq,0,0.5673602,-0.3620204,1.48353
 48\Bq,0,0.5673602,-0.3620204,1.4835348\Bq,0,0.5673602,-0.3620204,1.483
 5348\Bq,0,0.6978863922,-0.3620204,1.4749796614\Bq,0,0.6967697226,-0.34
 49833131,1.4749796614\Bq,0,0.6934388201,-0.3282377356,1.4749796614\Bq,
 0,0.6879506774,-0.3120701887,1.4749796614\Bq,0,0.6803991983,-0.2967573
 039,1.4749796614\Bq,0,0.6709135906,-0.2825610887,1.4749796614\Bq,0,0.6
 596561556,-0.2697244444,1.4749796614\Bq,0,0.6468195113,-0.2584670094,1
 .4749796614\Bq,0,0.6326232961,-0.2489814017,1.4749796614\Bq,0,0.617310
 4113,-0.2414299226,1.4749796614\Bq,0,0.6011428644,-0.2359417799,1.4749
 796614\Bq,0,0.5843972869,-0.2326108774,1.4749796614\Bq,0,0.5673602,-0.
 2314942078,1.4749796614\Bq,0,0.5503231131,-0.2326108774,1.4749796614\B
 q,0,0.5335775356,-0.2359417799,1.4749796614\Bq,0,0.5174099887,-0.24142
 99226,1.4749796614\Bq,0,0.5020971039,-0.2489814017,1.4749796614\Bq,0,0
 .4879008887,-0.2584670094,1.4749796614\Bq,0,0.4750642444,-0.2697244444
 ,1.4749796614\Bq,0,0.4638068094,-0.2825610887,1.4749796614\Bq,0,0.4543
 212017,-0.2967573039,1.4749796614\Bq,0,0.4467697226,-0.3120701887,1.47
 49796614\Bq,0,0.4412815799,-0.3282377356,1.4749796614\Bq,0,0.437950677
 4,-0.3449833131,1.4749796614\Bq,0,0.4368340078,-0.3620204,1.4749796614
 \Bq,0,0.4379506774,-0.3790574869,1.4749796614\Bq,0,0.4412815799,-0.395
 8030644,1.4749796614\Bq,0,0.4467697226,-0.4119706113,1.4749796614\Bq,0
 ,0.4543212017,-0.4272834961,1.4749796614\Bq,0,0.4638068094,-0.44147971
 13,1.4749796614\Bq,0,0.4750642444,-0.4543163556,1.4749796614\Bq,0,0.48
 79008887,-0.4655737906,1.4749796614\Bq,0,0.5020971039,-0.4750593983,1.
 4749796614\Bq,0,0.5174099887,-0.4826108774,1.4749796614\Bq,0,0.5335775
 356,-0.4880990201,1.4749796614\Bq,0,0.5503231131,-0.4914299226,1.47497
 96614\Bq,0,0.5673602,-0.4925465922,1.4749796614\Bq,0,0.5843972869,-0.4
 914299226,1.4749796614\Bq,0,0.6011428644,-0.4880990201,1.4749796614\Bq
 ,0,0.6173104113,-0.4826108774,1.4749796614\Bq,0,0.6326232961,-0.475059
 3983,1.4749796614\Bq,0,0.6468195113,-0.4655737906,1.4749796614\Bq,0,0.
 6596561556,-0.4543163556,1.4749796614\Bq,0,0.6709135906,-0.4414797113,
 1.4749796614\Bq,0,0.6803991983,-0.4272834961,1.4749796614\Bq,0,0.68795
 06774,-0.4119706113,1.4749796614\Bq,0,0.6934388201,-0.3958030644,1.474
 9796614\Bq,0,0.6967697226,-0.3790574869,1.4749796614\Bq,0,0.8261792451
 ,-0.3620204,1.4494606263\Bq,0,0.8239650123,-0.3282377356,1.4494606263\
 Bq,0,0.8173602,-0.2950331019,1.4494606263\Bq,0,0.8064778184,-0.2629746
 395,1.4494606263\Bq,0,0.791504068,-0.2326108774,1.4494606263\Bq,0,0.77
 2695154,-0.2044613482,1.4494606263\Bq,0,0.7503729019,-0.1790076981,1.4
 494606263\Bq,0,0.7249192518,-0.156685446,1.4494606263\Bq,0,0.696769722
 6,-0.137876532,1.4494606263\Bq,0,0.6664059605,-0.1229027816,1.44946062
 63\Bq,0,0.6343474981,-0.1120204,1.4494606263\Bq,0,0.6011428644,-0.1054
 155877,1.4494606263\Bq,0,0.5673602,-0.1032013549,1.4494606263\Bq,0,0.5
 335775356,-0.1054155877,1.4494606263\Bq,0,0.5003729019,-0.1120204,1.44
 94606263\Bq,0,0.4683144395,-0.1229027816,1.4494606263\Bq,0,0.437950677
 4,-0.137876532,1.4494606263\Bq,0,0.4098011482,-0.156685446,1.449460626
 3\Bq,0,0.3843474981,-0.1790076981,1.4494606263\Bq,0,0.362025246,-0.204
 4613482,1.4494606263\Bq,0,0.343216332,-0.2326108774,1.4494606263\Bq,0,
 0.3282425816,-0.2629746395,1.4494606263\Bq,0,0.3173602,-0.2950331019,1
 .4494606263\Bq,0,0.3107553877,-0.3282377356,1.4494606263\Bq,0,0.308541
 1549,-0.3620204,1.4494606263\Bq,0,0.3107553877,-0.3958030644,1.4494606
 263\Bq,0,0.3173602,-0.4290076981,1.4494606263\Bq,0,0.3282425816,-0.461
 0661605,1.4494606263\Bq,0,0.343216332,-0.4914299226,1.4494606263\Bq,0,
 0.362025246,-0.5195794518,1.4494606263\Bq,0,0.3843474981,-0.5450331019
 ,1.4494606263\Bq,0,0.4098011482,-0.567355354,1.4494606263\Bq,0,0.43795
 06774,-0.586164268,1.4494606263\Bq,0,0.4683144395,-0.6011380184,1.4494
 606263\Bq,0,0.5003729019,-0.6120204,1.4494606263\Bq,0,0.5335775356,-0.
 6186252123,1.4494606263\Bq,0,0.5673602,-0.6208394451,1.4494606263\Bq,0
 ,0.6011428644,-0.6186252123,1.4494606263\Bq,0,0.6343474981,-0.6120204,
 1.4494606263\Bq,0,0.6664059605,-0.6011380184,1.4494606263\Bq,0,0.69676
 97226,-0.586164268,1.4494606263\Bq,0,0.7249192518,-0.567355354,1.44946
 06263\Bq,0,0.7503729019,-0.5450331019,1.4494606263\Bq,0,0.772695154,-0
 .5195794518,1.4494606263\Bq,0,0.791504068,-0.4914299226,1.4494606263\B
 q,0,0.8064778184,-0.4610661605,1.4494606263\Bq,0,0.8173602,-0.42900769
 81,1.4494606263\Bq,0,0.8239650123,-0.3958030644,1.4494606263\Bq,0,0.95
 00436324,-0.3620204,1.4074143325\Bq,0,0.9467697226,-0.3120701887,1.407
 4143325\Bq,0,0.9370040106,-0.2629746395,1.4074143325\Bq,0,0.9209135906
 ,-0.2155737906,1.4074143325\Bq,0,0.898773774,-0.1706786838,1.407414332
 5\Bq,0,0.8709633793,-0.1290574869,1.4074143325\Bq,0,0.8379582501,-0.09
 14223499,1.4074143325\Bq,0,0.8003231131,-0.0584172207,1.4074143325\Bq,
 0,0.7587019162,-0.030606826,1.4074143325\Bq,0,0.7138068094,-0.00846700
 94,1.4074143325\Bq,0,0.6664059605,0.0076234106,1.4074143325\Bq,0,0.617
 3104113,0.0173891226,1.4074143325\Bq,0,0.5673602,0.0206630324,1.407414
 3325\Bq,0,0.5174099887,0.0173891226,1.4074143325\Bq,0,0.4683144395,0.0
 076234106,1.4074143325\Bq,0,0.4209135906,-0.0084670094,1.4074143325\Bq
 ,0,0.3760184838,-0.030606826,1.4074143325\Bq,0,0.3343972869,-0.0584172
 207,1.4074143325\Bq,0,0.2967621499,-0.0914223499,1.4074143325\Bq,0,0.2
 637570207,-0.1290574869,1.4074143325\Bq,0,0.235946626,-0.1706786838,1.
 4074143325\Bq,0,0.2138068094,-0.2155737906,1.4074143325\Bq,0,0.1977163
 894,-0.2629746395,1.4074143325\Bq,0,0.1879506774,-0.3120701887,1.40741
 43325\Bq,0,0.1846767676,-0.3620204,1.4074143325\Bq,0,0.1879506774,-0.4
 119706113,1.4074143325\Bq,0,0.1977163894,-0.4610661605,1.4074143325\Bq
 ,0,0.2138068094,-0.5084670094,1.4074143325\Bq,0,0.7138068094,-0.715573
 7906,1.4074143325\Bq,0,0.7587019162,-0.693433974,1.4074143325\Bq,0,0.8
 003231131,-0.6656235793,1.4074143325\Bq,0,0.8379582501,-0.6326184501,1
 .4074143325\Bq,0,0.8709633793,-0.5949833131,1.4074143325\Bq,0,0.898773
 774,-0.5533621162,1.4074143325\Bq,0,0.9209135906,-0.5084670094,1.40741
 43325\Bq,0,0.9370040106,-0.4610661605,1.4074143325\Bq,0,0.9467697226,-
 0.4119706113,1.4074143325\Bq,0,1.0673602,-0.3620204,1.3495602038\Bq,0,
 1.0630826307,-0.2967573039,1.3495602038\Bq,0,1.0503231131,-0.232610877
 4,1.3495602038\Bq,0,1.0292999663,-0.1706786838,1.3495602038\Bq,0,1.000
 3729019,-0.1120204,1.3495602038\Bq,0,0.9640368701,-0.0576396855,1.3495
 602038\Bq,0,0.9209135906,-0.0084670094,1.3495602038\Bq,0,0.8717409145,
 0.0346562701,1.3495602038\Bq,0,0.8173602,0.0709923019,1.3495602038\Bq,
 0,0.7587019162,0.0999193663,1.3495602038\Bq,0,0.6967697226,0.120942513
 1,1.3495602038\Bq,0,0.6326232961,0.1337020307,1.3495602038\Bq,0,0.5673
 602,0.1379796,1.3495602038\Bq,0,0.5020971039,0.1337020307,1.3495602038
 \Bq,0,0.4379506774,0.1209425131,1.3495602038\Bq,0,0.3760184838,0.09991
 93663,1.3495602038\Bq,0,0.3173602,0.0709923019,1.3495602038\Bq,0,0.262
 9794855,0.0346562701,1.3495602038\Bq,0,0.2138068094,-0.0084670094,1.34
 95602038\Bq,0,0.1706835299,-0.0576396855,1.3495602038\Bq,0,0.134347498
 1,-0.1120204,1.3495602038\Bq,0,0.1054204337,-0.1706786838,1.3495602038
 \Bq,0,0.0843972869,-0.2326108774,1.3495602038\Bq,0,0.0716377693,-0.296
 7573039,1.3495602038\Bq,0,0.0673602,-0.3620204,1.3495602038\Bq,0,0.071
 6377693,-0.4272834961,1.3495602038\Bq,0,0.0843972869,-0.4914299226,1.3
 495602038\Bq,0,1.0003729019,-0.6120204,1.3495602038\Bq,0,1.0292999663,
 -0.5533621162,1.3495602038\Bq,0,1.0503231131,-0.4914299226,1.349560203
 8\Bq,0,1.0630826307,-0.4272834961,1.3495602038\Bq,0,1.176121629,-0.362
 0204,1.2768881403\Bq,0,1.1709135906,-0.2825610887,1.2768881403\\Versio
 n=ES64L-G09RevD.01\HF=-847.0037387\RMSD=4.016e-09\Dipole=0.0000004,0.0
 287843,0.0000009\Quadrupole=4.8545288,4.8066247,-9.6611535,-0.0000047,
 -3.6219991,-0.000002\PG=C01 [X(C22H14)]\\@


 THERE ARE TWO THINGS THAT EVERYBODY THINKS THEY CAN DO BETTER THAN
 ANYONE ELSE - PUNCH THE FIRE, AND EDIT A DAILY PAPER.
 -- UNCLE ESEK, "CENTURY MAGAZINE", 1885
 Job cpu time:       0 days  1 hours 42 minutes  6.1 seconds.
 File lengths (MBytes):  RWF=    184 Int=      0 D2E=      0 Chk=     21 Scr=      1
 Normal termination of Gaussian 09 at Tue Sep 15 13:34:24 2020.
