 Entering Gaussian System, Link 0=g09
 Input=input_batch_12200.com
 Output=input_batch_12200.log
 Initial command:
 /share/programs/GAUSSIAN/64/g09/l1.exe "/scratch/aartigas.38975/Gau-3269496.inp" -scrdir="/scratch/aartigas.38975/"
 Entering Link 1 = /share/programs/GAUSSIAN/64/g09/l1.exe PID=   3269497.
  
 Copyright (c) 1988,1990,1992,1993,1995,1998,2003,2009,2013,
            Gaussian, Inc.  All Rights Reserved.
  
 This is part of the Gaussian(R) 09 program.  It is based on
 the Gaussian(R) 03 system (copyright 2003, Gaussian, Inc.),
 the Gaussian(R) 98 system (copyright 1998, Gaussian, Inc.),
 the Gaussian(R) 94 system (copyright 1995, Gaussian, Inc.),
 the Gaussian 92(TM) system (copyright 1992, Gaussian, Inc.),
 the Gaussian 90(TM) system (copyright 1990, Gaussian, Inc.),
 the Gaussian 88(TM) system (copyright 1988, Gaussian, Inc.),
 the Gaussian 86(TM) system (copyright 1986, Carnegie Mellon
 University), and the Gaussian 82(TM) system (copyright 1983,
 Carnegie Mellon University). Gaussian is a federally registered
 trademark of Gaussian, Inc.
  
 This software contains proprietary and confidential information,
 including trade secrets, belonging to Gaussian, Inc.
  
 This software is provided under written license and may be
 used, copied, transmitted, or stored only in accord with that
 written license.
  
 The following legend is applicable only to US Government
 contracts under FAR:
  
                    RESTRICTED RIGHTS LEGEND
  
 Use, reproduction and disclosure by the US Government is
 subject to restrictions as set forth in subparagraphs (a)
 and (c) of the Commercial Computer Software - Restricted
 Rights clause in FAR 52.227-19.
  
 Gaussian, Inc.
 340 Quinnipiac St., Bldg. 40, Wallingford CT 06492
  
  
 ---------------------------------------------------------------
 Warning -- This program may not be used in any manner that
 competes with the business of Gaussian, Inc. or will provide
 assistance to any competitor of Gaussian, Inc.  The licensee
 of this program is prohibited from giving any competitor of
 Gaussian, Inc. access to this program.  By using this program,
 the user acknowledges that Gaussian, Inc. is engaged in the
 business of creating and licensing software in the field of
 computational chemistry and represents and warrants to the
 licensee that it is not a competitor of Gaussian, Inc. and that
 it will not use this program in any manner prohibited above.
 ---------------------------------------------------------------
  

 Cite this work as:
 Gaussian 09, Revision D.01,
 M. J. Frisch, G. W. Trucks, H. B. Schlegel, G. E. Scuseria, 
 M. A. Robb, J. R. Cheeseman, G. Scalmani, V. Barone, B. Mennucci, 
 G. A. Petersson, H. Nakatsuji, M. Caricato, X. Li, H. P. Hratchian, 
 A. F. Izmaylov, J. Bloino, G. Zheng, J. L. Sonnenberg, M. Hada, 
 M. Ehara, K. Toyota, R. Fukuda, J. Hasegawa, M. Ishida, T. Nakajima, 
 Y. Honda, O. Kitao, H. Nakai, T. Vreven, J. A. Montgomery, Jr., 
 J. E. Peralta, F. Ogliaro, M. Bearpark, J. J. Heyd, E. Brothers, 
 K. N. Kudin, V. N. Staroverov, T. Keith, R. Kobayashi, J. Normand, 
 K. Raghavachari, A. Rendell, J. C. Burant, S. S. Iyengar, J. Tomasi, 
 M. Cossi, N. Rega, J. M. Millam, M. Klene, J. E. Knox, J. B. Cross, 
 V. Bakken, C. Adamo, J. Jaramillo, R. Gomperts, R. E. Stratmann, 
 O. Yazyev, A. J. Austin, R. Cammi, C. Pomelli, J. W. Ochterski, 
 R. L. Martin, K. Morokuma, V. G. Zakrzewski, G. A. Voth, 
 P. Salvador, J. J. Dannenberg, S. Dapprich, A. D. Daniels, 
 O. Farkas, J. B. Foresman, J. V. Ortiz, J. Cioslowski, 
 and D. J. Fox, Gaussian, Inc., Wallingford CT, 2013.
 
 ******************************************
 Gaussian 09:  ES64L-G09RevD.01 24-Apr-2013
                15-Sep-2020 
 ******************************************
 %OldChk=/home/aartigas/chk/5_helicene_spe.chk
 %nproc=8
 Will use up to    8 processors via shared memory.
 %mem=1000MB
 Copying data from "/home/aartigas/chk/5_helicene_spe.chk" to current chk file "/scratch/aartigas.38975/Gau-3269497.chk".
 ----------------------------------------------------
 #P rb3lyp/6-311+g** NMR Guess=Read geom=connectivity
 ----------------------------------------------------
 1/38=1,57=2/1;
 2/12=2,17=6,18=5,40=1/2;
 3/5=4,6=6,7=111,11=2,16=1,25=1,30=1,74=-5,116=1/1,2,8,3;
 4/5=1/1;
 5/5=2,38=6/2;
 8/6=1,10=90,11=11/1;
 10/13=100,45=16/2;
 6/7=2,8=2,9=2,10=2,28=1/1;
 99/9=1/99;
 Leave Link    1 at Tue Sep 15 11:50:13 2020, MaxMem=   131072000 cpu:         0.6
 (Enter /share/programs/GAUSSIAN/64/g09/l101.exe)
 -----
 Title
 -----
 Symbolic Z-matrix:
 Charge =  0 Multiplicity = 1
 C                     0.65324   3.25786  -0.20251 
 C                    -0.65324   3.25786   0.20251 
 C                     1.3725    2.03296  -0.32081 
 C                    -1.3725    2.03296   0.32081 
 C                     0.72247   0.79567  -0.05039 
 C                    -0.72247   0.79567   0.05039 
 C                     2.76039   2.05393  -0.67427 
 C                     3.50887   0.91392  -0.67136 
 C                     2.95523  -0.30962  -0.17748 
 C                     1.57472  -0.36111   0.19709 
 H                     1.18343   4.19574  -0.3846 
 H                    -1.18343   4.19574   0.3846 
 H                     3.20628   3.01242  -0.95139 
 H                     4.56002   0.93296  -0.96933 
 C                     3.78302  -1.4431    0.02831 
 C                     1.13743  -1.50753   0.91211 
 C                     1.97369  -2.58435   1.13806 
 C                     3.30185  -2.57159   0.66118 
 H                     4.82575  -1.39123  -0.29548 
 H                     0.12465  -1.53279   1.30847 
 H                     1.60359  -3.44568   1.69898 
 H                     3.95274  -3.43353   0.82513 
 C                    -3.50887   0.91392   0.67136 
 C                    -2.76039   2.05393   0.67427 
 C                    -2.95523  -0.30962   0.17748 
 C                    -1.57472  -0.36111  -0.19709 
 C                    -3.78302  -1.4431   -0.02831 
 C                    -3.30185  -2.57159  -0.66118 
 C                    -1.97369  -2.58435  -1.13806 
 C                    -1.13743  -1.50753  -0.91211 
 H                    -4.56002   0.93295   0.96933 
 H                    -3.20628   3.01242   0.95139 
 H                    -4.82575  -1.39123   0.29548 
 H                    -3.95274  -3.43353  -0.82513 
 H                    -1.60359  -3.44568  -1.69898 
 H                    -0.12465  -1.53279  -1.30847 
 Bq                    0.9503   -4.09896   2.08166 
 Bq                    1.04116  -4.17864   2.08166 
 Bq                    1.14165  -4.24579   2.08166 
 Bq                    1.25003  -4.29924   2.08166 
 Bq                    1.36447  -4.33808   2.08166 
 Bq                    1.483    -4.36166   2.08166 
 Bq                    1.60359  -4.36956   2.08166 
 Bq                    1.72418  -4.36166   2.08166 
 Bq                    1.8427   -4.33808   2.08166 
 Bq                    1.95714  -4.29924   2.08166 
 Bq                    2.06553  -4.24579   2.08166 
 Bq                    2.16601  -4.17864   2.08166 
 Bq                    2.25687  -4.09896   2.08166 
 Bq                    2.33655  -4.0081    2.08166 
 Bq                    2.40369  -3.90762   2.08166 
 Bq                    2.45714  -3.79924   2.08166 
 Bq                    2.49599  -3.6848    2.08166 
 Bq                    2.51956  -3.56627   2.08166 
 Bq                    0.76707  -2.96272   1.9578 
 Bq                    0.71119  -3.07604   1.9578 
 Bq                    0.67057  -3.19568   1.9578 
 Bq                    0.64592  -3.3196    1.9578 
 Bq                    0.63766  -3.44568   1.9578 
 Bq                    0.64592  -3.57176   1.9578 
 Bq                    0.67057  -3.69568   1.9578 
 Bq                    0.71119  -3.81533   1.9578 
 Bq                    0.76707  -3.92864   1.9578 
 Bq                    0.83727  -4.0337    1.9578 
 Bq                    0.92057  -4.12869   1.9578 
 Bq                    1.01557  -4.212     1.9578 
 Bq                    1.12062  -4.2822    1.9578 
 Bq                    1.23394  -4.33808   1.9578 
 Bq                    1.35359  -4.37869   1.9578 
 Bq                    1.47751  -4.40334   1.9578 
 Bq                    1.60359  -4.41161   1.9578 
 Bq                    1.72966  -4.40334   1.9578 
 Bq                    1.85359  -4.37869   1.9578 
 Bq                    1.97323  -4.33808   1.9578 
 Bq                    2.08655  -4.2822    1.9578 
 Bq                    2.1916   -4.212     1.9578 
 Bq                    2.2866   -4.12869   1.9578 
 Bq                    2.36991  -4.0337    1.9578 
 Bq                    2.4401   -3.92864   1.9578 
 Bq                    2.49599  -3.81533   1.9578 
 Bq                    2.5366   -3.69568   1.9578 
 Bq                    2.56125  -3.57176   1.9578 
 Bq                    0.74497  -2.94996   1.8295 
 Bq                    0.68761  -3.06627   1.8295 
 Bq                    0.64592  -3.18908   1.8295 
 Bq                    0.62062  -3.31627   1.8295 
 Bq                    0.61214  -3.44568   1.8295 
 Bq                    0.62062  -3.57509   1.8295 
 Bq                    0.64592  -3.70229   1.8295 
 Bq                    0.68761  -3.82509   1.8295 
 Bq                    0.74497  -3.9414    1.8295 
 Bq                    0.81702  -4.04924   1.8295 
 Bq                    0.90253  -4.14674   1.8295 
 Bq                    1.00003  -4.23225   1.8295 
 Bq                    1.10786  -4.3043    1.8295 
 Bq                    1.22418  -4.36166   1.8295 
 Bq                    1.34698  -4.40334   1.8295 
 Bq                    1.47418  -4.42864   1.8295 
 Bq                    1.60359  -4.43713   1.8295 
 Bq                    1.733    -4.42864   1.8295 
 Bq                    1.86019  -4.40334   1.8295 
 Bq                    1.983    -4.36166   1.8295 
 Bq                    2.09931  -4.3043    1.8295 
 Bq                    2.20714  -4.23225   1.8295 
 Bq                    2.30464  -4.14674   1.8295 
 Bq                    2.39015  -4.04924   1.8295 
 Bq                    2.4622   -3.9414    1.8295 
 Bq                    2.51956  -3.82509   1.8295 
 Bq                    2.56125  -3.70229   1.8295 
 Bq                    0.67971  -3.063     1.69898 
 Bq                    0.63766  -3.18686   1.69898 
 Bq                    0.61214  -3.31516   1.69898 
 Bq                    0.60359  -3.44568   1.69898 
 Bq                    0.61214  -3.57621   1.69898 
 Bq                    0.63766  -3.7045    1.69898 
 Bq                    0.67971  -3.82837   1.69898 
 Bq                    0.73756  -3.94568   1.69898 
 Bq                    0.81023  -4.05444   1.69898 
 Bq                    0.89648  -4.15279   1.69898 
 Bq                    0.99482  -4.23904   1.69898 
 Bq                    1.10359  -4.31171   1.69898 
 Bq                    1.2209   -4.36956   1.69898 
 Bq                    1.34477  -4.41161   1.69898 
 Bq                    1.47306  -4.43713   1.69898 
 Bq                    1.60359  -4.44568   1.69898 
 Bq                    1.73411  -4.43713   1.69898 
 Bq                    1.86241  -4.41161   1.69898 
 Bq                    1.98627  -4.36956   1.69898 
 Bq                    2.10359  -4.31171   1.69898 
 Bq                    2.21235  -4.23904   1.69898 
 Bq                    2.31069  -4.15279   1.69898 
 Bq                    2.39694  -4.05444   1.69898 
 Bq                    2.46961  -3.94568   1.69898 
 Bq                    2.52747  -3.82837   1.69898 
 Bq                    0.68761  -3.06627   1.56845 
 Bq                    0.64592  -3.18908   1.56845 
 Bq                    0.62062  -3.31627   1.56845 
 Bq                    0.61214  -3.44568   1.56845 
 Bq                    0.62062  -3.57509   1.56845 
 Bq                    0.64592  -3.70229   1.56845 
 Bq                    0.68761  -3.82509   1.56845 
 Bq                    0.74497  -3.9414    1.56845 
 Bq                    0.81702  -4.04924   1.56845 
 Bq                    0.90253  -4.14674   1.56845 
 Bq                    1.00003  -4.23225   1.56845 
 Bq                    1.10786  -4.3043    1.56845 
 Bq                    1.22418  -4.36166   1.56845 
 Bq                    1.34698  -4.40334   1.56845 
 Bq                    1.47418  -4.42864   1.56845 
 Bq                    1.60359  -4.43713   1.56845 
 Bq                    1.733    -4.42864   1.56845 
 Bq                    1.86019  -4.40334   1.56845 
 Bq                    1.983    -4.36166   1.56845 
 Bq                    2.09931  -4.3043    1.56845 
 Bq                    2.20714  -4.23225   1.56845 
 Bq                    2.30464  -4.14674   1.56845 
 Bq                    2.39015  -4.04924   1.56845 
 Bq                    2.4622   -3.9414    1.56845 
 Bq                    0.67057  -3.19568   1.44016 
 Bq                    0.64592  -3.3196    1.44016 
 Bq                    0.63766  -3.44568   1.44016 
 Bq                    0.64592  -3.57176   1.44016 
 Bq                    0.67057  -3.69568   1.44016 
 Bq                    0.71119  -3.81533   1.44016 
 Bq                    0.76707  -3.92864   1.44016 
 Bq                    0.83727  -4.0337    1.44016 
 Bq                    0.92057  -4.12869   1.44016 
 Bq                    1.01557  -4.212     1.44016 
 Bq                    1.12062  -4.2822    1.44016 
 Bq                    1.23394  -4.33808   1.44016 
 Bq                    1.35359  -4.37869   1.44016 
 Bq                    1.47751  -4.40334   1.44016 
 Bq                    1.60359  -4.41161   1.44016 
 Bq                    1.72966  -4.40334   1.44016 
 Bq                    1.85359  -4.37869   1.44016 
 Bq                    1.97323  -4.33808   1.44016 
 Bq                    2.08655  -4.2822    1.44016 
 Bq                    2.1916   -4.212     1.44016 
 Bq                    2.2866   -4.12869   1.44016 
 Bq                    2.36991  -4.0337    1.44016 
 Bq                    2.4401   -3.92864   1.44016 
 Bq                    0.71119  -3.20656   1.31629 
 Bq                    0.68761  -3.32509   1.31629 
 Bq                    0.67971  -3.44568   1.31629 
 Bq                    0.68761  -3.56627   1.31629 
 Bq                    0.71119  -3.6848    1.31629 
 Bq                    0.75003  -3.79924   1.31629 
 Bq                    0.80348  -3.90762   1.31629 
 Bq                    0.87062  -4.0081    1.31629 
 Bq                    0.9503   -4.09896   1.31629 
 Bq                    1.04116  -4.17864   1.31629 
 Bq                    1.14165  -4.24579   1.31629 
 Bq                    1.25003  -4.29924   1.31629 
 Bq                    1.36447  -4.33808   1.31629 
 Bq                    1.483    -4.36166   1.31629 
 Bq                    1.60359  -4.36956   1.31629 
 Bq                    1.72418  -4.36166   1.31629 
 Bq                    1.8427   -4.33808   1.31629 
 Bq                    1.95714  -4.29924   1.31629 
 Bq                    2.06553  -4.24579   1.31629 
 Bq                    2.16601  -4.17864   1.31629 
 Bq                    2.25687  -4.09896   1.31629 
 Bq                    2.33655  -4.0081    1.31629 
 Bq                    0.76707  -3.22154   1.19898 
 Bq                    0.74497  -3.33264   1.19898 
 Bq                    0.73756  -3.44568   1.19898 
 Bq                    0.74497  -3.55872   1.19898 
 Bq                    0.76707  -3.66983   1.19898 
 Bq                    0.80348  -3.7771    1.19898 
 Bq                    0.85359  -3.87869   1.19898 
 Bq                    0.91652  -3.97288   1.19898 
 Bq                    0.99121  -4.05805   1.19898 
 Bq                    1.07638  -4.13275   1.19898 
 Bq                    1.17057  -4.19568   1.19898 
 Bq                    1.27217  -4.24579   1.19898 
 Bq                    1.37944  -4.2822    1.19898 
 Bq                    1.49055  -4.3043    1.19898 
 Bq                    1.60359  -4.31171   1.19898 
 Bq                    1.71662  -4.3043    1.19898 
 Bq                    1.82773  -4.2822    1.19898 
 Bq                    1.935    -4.24579   1.19898 
 Bq                    2.0366   -4.19568   1.19898 
 Bq                    2.13079  -4.13275   1.19898 
 Bq                    2.21596  -4.05805   1.19898 
 Bq                    2.29065  -3.97288   1.19898 
 Bq                    0.83727  -3.24035   1.09022 
 Bq                    0.81702  -3.34213   1.09022 
 Bq                    0.81023  -3.44568   1.09022 
 Bq                    0.81702  -3.54924   1.09022 
 Bq                    0.83727  -3.65102   1.09022 
 Bq                    0.87062  -3.74929   1.09022 
 Bq                    0.91652  -3.84236   1.09022 
 Bq                    0.97418  -3.92864   1.09022 
 Bq                    1.0426   -4.00667   1.09022 
 Bq                    1.12062  -4.07509   1.09022 
 Bq                    1.20691  -4.13275   1.09022 
 
 NAtoms=    236 NQM=      236 NQMF=       0 NMMI=      0 NMMIF=      0
                NMic=       0 NMicF=      0.
                    Isotopes and Nuclear Properties:
 (Nuclear quadrupole moments (NQMom) in fm**2, nuclear magnetic moments (NMagM)
  in nuclear magnetons)

  Atom         1           2           3           4           5           6           7           8           9          10
 IAtWgt=          12          12          12          12          12          12          12          12          12          12
 AtmWgt=  12.0000000  12.0000000  12.0000000  12.0000000  12.0000000  12.0000000  12.0000000  12.0000000  12.0000000  12.0000000
 NucSpn=           0           0           0           0           0           0           0           0           0           0
 AtZEff=   0.0000000   0.0000000   0.0000000   0.0000000   0.0000000   0.0000000   0.0000000   0.0000000   0.0000000   0.0000000
 NQMom=    0.0000000   0.0000000   0.0000000   0.0000000   0.0000000   0.0000000   0.0000000   0.0000000   0.0000000   0.0000000
 NMagM=    0.0000000   0.0000000   0.0000000   0.0000000   0.0000000   0.0000000   0.0000000   0.0000000   0.0000000   0.0000000
 AtZNuc=   6.0000000   6.0000000   6.0000000   6.0000000   6.0000000   6.0000000   6.0000000   6.0000000   6.0000000   6.0000000

  Atom        11          12          13          14          15          16          17          18          19          20
 IAtWgt=           1           1           1           1          12          12          12          12           1           1
 AtmWgt=   1.0078250   1.0078250   1.0078250   1.0078250  12.0000000  12.0000000  12.0000000  12.0000000   1.0078250   1.0078250
 NucSpn=           1           1           1           1           0           0           0           0           1           1
 AtZEff=   0.0000000   0.0000000   0.0000000   0.0000000   0.0000000   0.0000000   0.0000000   0.0000000   0.0000000   0.0000000
 NQMom=    0.0000000   0.0000000   0.0000000   0.0000000   0.0000000   0.0000000   0.0000000   0.0000000   0.0000000   0.0000000
 NMagM=    2.7928460   2.7928460   2.7928460   2.7928460   0.0000000   0.0000000   0.0000000   0.0000000   2.7928460   2.7928460
 AtZNuc=   1.0000000   1.0000000   1.0000000   1.0000000   6.0000000   6.0000000   6.0000000   6.0000000   1.0000000   1.0000000

  Atom        21          22          23          24          25          26          27          28          29          30
 IAtWgt=           1           1          12          12          12          12          12          12          12          12
 AtmWgt=   1.0078250   1.0078250  12.0000000  12.0000000  12.0000000  12.0000000  12.0000000  12.0000000  12.0000000  12.0000000
 NucSpn=           1           1           0           0           0           0           0           0           0           0
 AtZEff=   0.0000000   0.0000000   0.0000000   0.0000000   0.0000000   0.0000000   0.0000000   0.0000000   0.0000000   0.0000000
 NQMom=    0.0000000   0.0000000   0.0000000   0.0000000   0.0000000   0.0000000   0.0000000   0.0000000   0.0000000   0.0000000
 NMagM=    2.7928460   2.7928460   0.0000000   0.0000000   0.0000000   0.0000000   0.0000000   0.0000000   0.0000000   0.0000000
 AtZNuc=   1.0000000   1.0000000   6.0000000   6.0000000   6.0000000   6.0000000   6.0000000   6.0000000   6.0000000   6.0000000

  Atom        31          32          33          34          35          36          37          38          39          40
 IAtWgt=           1           1           1           1           1           1           0           0           0           0
 AtmWgt=   1.0078250   1.0078250   1.0078250   1.0078250   1.0078250   1.0078250   0.0000000   0.0000000   0.0000000   0.0000000
 NucSpn=           1           1           1           1           1           1           0           0           0           0
 AtZEff=   0.0000000   0.0000000   0.0000000   0.0000000   0.0000000   0.0000000   0.0000000   0.0000000   0.0000000   0.0000000
 NQMom=    0.0000000   0.0000000   0.0000000   0.0000000   0.0000000   0.0000000   0.0000000   0.0000000   0.0000000   0.0000000
 NMagM=    2.7928460   2.7928460   2.7928460   2.7928460   2.7928460   2.7928460   0.0000000   0.0000000   0.0000000   0.0000000
 AtZNuc=   1.0000000   1.0000000   1.0000000   1.0000000   1.0000000   1.0000000   0.0000000   0.0000000   0.0000000   0.0000000

  Atom        41          42          43          44          45          46          47          48          49          50
 IAtWgt=           0           0           0           0           0           0           0           0           0           0
 AtmWgt=   0.0000000   0.0000000   0.0000000   0.0000000   0.0000000   0.0000000   0.0000000   0.0000000   0.0000000   0.0000000
 NucSpn=           0           0           0           0           0           0           0           0           0           0
 AtZEff=   0.0000000   0.0000000   0.0000000   0.0000000   0.0000000   0.0000000   0.0000000   0.0000000   0.0000000   0.0000000
 NQMom=    0.0000000   0.0000000   0.0000000   0.0000000   0.0000000   0.0000000   0.0000000   0.0000000   0.0000000   0.0000000
 NMagM=    0.0000000   0.0000000   0.0000000   0.0000000   0.0000000   0.0000000   0.0000000   0.0000000   0.0000000   0.0000000
 AtZNuc=   0.0000000   0.0000000   0.0000000   0.0000000   0.0000000   0.0000000   0.0000000   0.0000000   0.0000000   0.0000000

  Atom        51          52          53          54          55          56          57          58          59          60
 IAtWgt=           0           0           0           0           0           0           0           0           0           0
 AtmWgt=   0.0000000   0.0000000   0.0000000   0.0000000   0.0000000   0.0000000   0.0000000   0.0000000   0.0000000   0.0000000
 NucSpn=           0           0           0           0           0           0           0           0           0           0
 AtZEff=   0.0000000   0.0000000   0.0000000   0.0000000   0.0000000   0.0000000   0.0000000   0.0000000   0.0000000   0.0000000
 NQMom=    0.0000000   0.0000000   0.0000000   0.0000000   0.0000000   0.0000000   0.0000000   0.0000000   0.0000000   0.0000000
 NMagM=    0.0000000   0.0000000   0.0000000   0.0000000   0.0000000   0.0000000   0.0000000   0.0000000   0.0000000   0.0000000
 AtZNuc=   0.0000000   0.0000000   0.0000000   0.0000000   0.0000000   0.0000000   0.0000000   0.0000000   0.0000000   0.0000000

  Atom        61          62          63          64          65          66          67          68          69          70
 IAtWgt=           0           0           0           0           0           0           0           0           0           0
 AtmWgt=   0.0000000   0.0000000   0.0000000   0.0000000   0.0000000   0.0000000   0.0000000   0.0000000   0.0000000   0.0000000
 NucSpn=           0           0           0           0           0           0           0           0           0           0
 AtZEff=   0.0000000   0.0000000   0.0000000   0.0000000   0.0000000   0.0000000   0.0000000   0.0000000   0.0000000   0.0000000
 NQMom=    0.0000000   0.0000000   0.0000000   0.0000000   0.0000000   0.0000000   0.0000000   0.0000000   0.0000000   0.0000000
 NMagM=    0.0000000   0.0000000   0.0000000   0.0000000   0.0000000   0.0000000   0.0000000   0.0000000   0.0000000   0.0000000
 AtZNuc=   0.0000000   0.0000000   0.0000000   0.0000000   0.0000000   0.0000000   0.0000000   0.0000000   0.0000000   0.0000000

  Atom        71          72          73          74          75          76          77          78          79          80
 IAtWgt=           0           0           0           0           0           0           0           0           0           0
 AtmWgt=   0.0000000   0.0000000   0.0000000   0.0000000   0.0000000   0.0000000   0.0000000   0.0000000   0.0000000   0.0000000
 NucSpn=           0           0           0           0           0           0           0           0           0           0
 AtZEff=   0.0000000   0.0000000   0.0000000   0.0000000   0.0000000   0.0000000   0.0000000   0.0000000   0.0000000   0.0000000
 NQMom=    0.0000000   0.0000000   0.0000000   0.0000000   0.0000000   0.0000000   0.0000000   0.0000000   0.0000000   0.0000000
 NMagM=    0.0000000   0.0000000   0.0000000   0.0000000   0.0000000   0.0000000   0.0000000   0.0000000   0.0000000   0.0000000
 AtZNuc=   0.0000000   0.0000000   0.0000000   0.0000000   0.0000000   0.0000000   0.0000000   0.0000000   0.0000000   0.0000000

  Atom        81          82          83          84          85          86          87          88          89          90
 IAtWgt=           0           0           0           0           0           0           0           0           0           0
 AtmWgt=   0.0000000   0.0000000   0.0000000   0.0000000   0.0000000   0.0000000   0.0000000   0.0000000   0.0000000   0.0000000
 NucSpn=           0           0           0           0           0           0           0           0           0           0
 AtZEff=   0.0000000   0.0000000   0.0000000   0.0000000   0.0000000   0.0000000   0.0000000   0.0000000   0.0000000   0.0000000
 NQMom=    0.0000000   0.0000000   0.0000000   0.0000000   0.0000000   0.0000000   0.0000000   0.0000000   0.0000000   0.0000000
 NMagM=    0.0000000   0.0000000   0.0000000   0.0000000   0.0000000   0.0000000   0.0000000   0.0000000   0.0000000   0.0000000
 AtZNuc=   0.0000000   0.0000000   0.0000000   0.0000000   0.0000000   0.0000000   0.0000000   0.0000000   0.0000000   0.0000000

  Atom        91          92          93          94          95          96          97          98          99         100
 IAtWgt=           0           0           0           0           0           0           0           0           0           0
 AtmWgt=   0.0000000   0.0000000   0.0000000   0.0000000   0.0000000   0.0000000   0.0000000   0.0000000   0.0000000   0.0000000
 NucSpn=           0           0           0           0           0           0           0           0           0           0
 AtZEff=   0.0000000   0.0000000   0.0000000   0.0000000   0.0000000   0.0000000   0.0000000   0.0000000   0.0000000   0.0000000
 NQMom=    0.0000000   0.0000000   0.0000000   0.0000000   0.0000000   0.0000000   0.0000000   0.0000000   0.0000000   0.0000000
 NMagM=    0.0000000   0.0000000   0.0000000   0.0000000   0.0000000   0.0000000   0.0000000   0.0000000   0.0000000   0.0000000
 AtZNuc=   0.0000000   0.0000000   0.0000000   0.0000000   0.0000000   0.0000000   0.0000000   0.0000000   0.0000000   0.0000000

  Atom       101         102         103         104         105         106         107         108         109         110
 IAtWgt=           0           0           0           0           0           0           0           0           0           0
 AtmWgt=   0.0000000   0.0000000   0.0000000   0.0000000   0.0000000   0.0000000   0.0000000   0.0000000   0.0000000   0.0000000
 NucSpn=           0           0           0           0           0           0           0           0           0           0
 AtZEff=   0.0000000   0.0000000   0.0000000   0.0000000   0.0000000   0.0000000   0.0000000   0.0000000   0.0000000   0.0000000
 NQMom=    0.0000000   0.0000000   0.0000000   0.0000000   0.0000000   0.0000000   0.0000000   0.0000000   0.0000000   0.0000000
 NMagM=    0.0000000   0.0000000   0.0000000   0.0000000   0.0000000   0.0000000   0.0000000   0.0000000   0.0000000   0.0000000
 AtZNuc=   0.0000000   0.0000000   0.0000000   0.0000000   0.0000000   0.0000000   0.0000000   0.0000000   0.0000000   0.0000000

  Atom       111         112         113         114         115         116         117         118         119         120
 IAtWgt=           0           0           0           0           0           0           0           0           0           0
 AtmWgt=   0.0000000   0.0000000   0.0000000   0.0000000   0.0000000   0.0000000   0.0000000   0.0000000   0.0000000   0.0000000
 NucSpn=           0           0           0           0           0           0           0           0           0           0
 AtZEff=   0.0000000   0.0000000   0.0000000   0.0000000   0.0000000   0.0000000   0.0000000   0.0000000   0.0000000   0.0000000
 NQMom=    0.0000000   0.0000000   0.0000000   0.0000000   0.0000000   0.0000000   0.0000000   0.0000000   0.0000000   0.0000000
 NMagM=    0.0000000   0.0000000   0.0000000   0.0000000   0.0000000   0.0000000   0.0000000   0.0000000   0.0000000   0.0000000
 AtZNuc=   0.0000000   0.0000000   0.0000000   0.0000000   0.0000000   0.0000000   0.0000000   0.0000000   0.0000000   0.0000000

  Atom       121         122         123         124         125         126         127         128         129         130
 IAtWgt=           0           0           0           0           0           0           0           0           0           0
 AtmWgt=   0.0000000   0.0000000   0.0000000   0.0000000   0.0000000   0.0000000   0.0000000   0.0000000   0.0000000   0.0000000
 NucSpn=           0           0           0           0           0           0           0           0           0           0
 AtZEff=   0.0000000   0.0000000   0.0000000   0.0000000   0.0000000   0.0000000   0.0000000   0.0000000   0.0000000   0.0000000
 NQMom=    0.0000000   0.0000000   0.0000000   0.0000000   0.0000000   0.0000000   0.0000000   0.0000000   0.0000000   0.0000000
 NMagM=    0.0000000   0.0000000   0.0000000   0.0000000   0.0000000   0.0000000   0.0000000   0.0000000   0.0000000   0.0000000
 AtZNuc=   0.0000000   0.0000000   0.0000000   0.0000000   0.0000000   0.0000000   0.0000000   0.0000000   0.0000000   0.0000000

  Atom       131         132         133         134         135         136         137         138         139         140
 IAtWgt=           0           0           0           0           0           0           0           0           0           0
 AtmWgt=   0.0000000   0.0000000   0.0000000   0.0000000   0.0000000   0.0000000   0.0000000   0.0000000   0.0000000   0.0000000
 NucSpn=           0           0           0           0           0           0           0           0           0           0
 AtZEff=   0.0000000   0.0000000   0.0000000   0.0000000   0.0000000   0.0000000   0.0000000   0.0000000   0.0000000   0.0000000
 NQMom=    0.0000000   0.0000000   0.0000000   0.0000000   0.0000000   0.0000000   0.0000000   0.0000000   0.0000000   0.0000000
 NMagM=    0.0000000   0.0000000   0.0000000   0.0000000   0.0000000   0.0000000   0.0000000   0.0000000   0.0000000   0.0000000
 AtZNuc=   0.0000000   0.0000000   0.0000000   0.0000000   0.0000000   0.0000000   0.0000000   0.0000000   0.0000000   0.0000000

  Atom       141         142         143         144         145         146         147         148         149         150
 IAtWgt=           0           0           0           0           0           0           0           0           0           0
 AtmWgt=   0.0000000   0.0000000   0.0000000   0.0000000   0.0000000   0.0000000   0.0000000   0.0000000   0.0000000   0.0000000
 NucSpn=           0           0           0           0           0           0           0           0           0           0
 AtZEff=   0.0000000   0.0000000   0.0000000   0.0000000   0.0000000   0.0000000   0.0000000   0.0000000   0.0000000   0.0000000
 NQMom=    0.0000000   0.0000000   0.0000000   0.0000000   0.0000000   0.0000000   0.0000000   0.0000000   0.0000000   0.0000000
 NMagM=    0.0000000   0.0000000   0.0000000   0.0000000   0.0000000   0.0000000   0.0000000   0.0000000   0.0000000   0.0000000
 AtZNuc=   0.0000000   0.0000000   0.0000000   0.0000000   0.0000000   0.0000000   0.0000000   0.0000000   0.0000000   0.0000000

  Atom       151         152         153         154         155         156         157         158         159         160
 IAtWgt=           0           0           0           0           0           0           0           0           0           0
 AtmWgt=   0.0000000   0.0000000   0.0000000   0.0000000   0.0000000   0.0000000   0.0000000   0.0000000   0.0000000   0.0000000
 NucSpn=           0           0           0           0           0           0           0           0           0           0
 AtZEff=   0.0000000   0.0000000   0.0000000   0.0000000   0.0000000   0.0000000   0.0000000   0.0000000   0.0000000   0.0000000
 NQMom=    0.0000000   0.0000000   0.0000000   0.0000000   0.0000000   0.0000000   0.0000000   0.0000000   0.0000000   0.0000000
 NMagM=    0.0000000   0.0000000   0.0000000   0.0000000   0.0000000   0.0000000   0.0000000   0.0000000   0.0000000   0.0000000
 AtZNuc=   0.0000000   0.0000000   0.0000000   0.0000000   0.0000000   0.0000000   0.0000000   0.0000000   0.0000000   0.0000000

  Atom       161         162         163         164         165         166         167         168         169         170
 IAtWgt=           0           0           0           0           0           0           0           0           0           0
 AtmWgt=   0.0000000   0.0000000   0.0000000   0.0000000   0.0000000   0.0000000   0.0000000   0.0000000   0.0000000   0.0000000
 NucSpn=           0           0           0           0           0           0           0           0           0           0
 AtZEff=   0.0000000   0.0000000   0.0000000   0.0000000   0.0000000   0.0000000   0.0000000   0.0000000   0.0000000   0.0000000
 NQMom=    0.0000000   0.0000000   0.0000000   0.0000000   0.0000000   0.0000000   0.0000000   0.0000000   0.0000000   0.0000000
 NMagM=    0.0000000   0.0000000   0.0000000   0.0000000   0.0000000   0.0000000   0.0000000   0.0000000   0.0000000   0.0000000
 AtZNuc=   0.0000000   0.0000000   0.0000000   0.0000000   0.0000000   0.0000000   0.0000000   0.0000000   0.0000000   0.0000000

  Atom       171         172         173         174         175         176         177         178         179         180
 IAtWgt=           0           0           0           0           0           0           0           0           0           0
 AtmWgt=   0.0000000   0.0000000   0.0000000   0.0000000   0.0000000   0.0000000   0.0000000   0.0000000   0.0000000   0.0000000
 NucSpn=           0           0           0           0           0           0           0           0           0           0
 AtZEff=   0.0000000   0.0000000   0.0000000   0.0000000   0.0000000   0.0000000   0.0000000   0.0000000   0.0000000   0.0000000
 NQMom=    0.0000000   0.0000000   0.0000000   0.0000000   0.0000000   0.0000000   0.0000000   0.0000000   0.0000000   0.0000000
 NMagM=    0.0000000   0.0000000   0.0000000   0.0000000   0.0000000   0.0000000   0.0000000   0.0000000   0.0000000   0.0000000
 AtZNuc=   0.0000000   0.0000000   0.0000000   0.0000000   0.0000000   0.0000000   0.0000000   0.0000000   0.0000000   0.0000000

  Atom       181         182         183         184         185         186         187         188         189         190
 IAtWgt=           0           0           0           0           0           0           0           0           0           0
 AtmWgt=   0.0000000   0.0000000   0.0000000   0.0000000   0.0000000   0.0000000   0.0000000   0.0000000   0.0000000   0.0000000
 NucSpn=           0           0           0           0           0           0           0           0           0           0
 AtZEff=   0.0000000   0.0000000   0.0000000   0.0000000   0.0000000   0.0000000   0.0000000   0.0000000   0.0000000   0.0000000
 NQMom=    0.0000000   0.0000000   0.0000000   0.0000000   0.0000000   0.0000000   0.0000000   0.0000000   0.0000000   0.0000000
 NMagM=    0.0000000   0.0000000   0.0000000   0.0000000   0.0000000   0.0000000   0.0000000   0.0000000   0.0000000   0.0000000
 AtZNuc=   0.0000000   0.0000000   0.0000000   0.0000000   0.0000000   0.0000000   0.0000000   0.0000000   0.0000000   0.0000000

  Atom       191         192         193         194         195         196         197         198         199         200
 IAtWgt=           0           0           0           0           0           0           0           0           0           0
 AtmWgt=   0.0000000   0.0000000   0.0000000   0.0000000   0.0000000   0.0000000   0.0000000   0.0000000   0.0000000   0.0000000
 NucSpn=           0           0           0           0           0           0           0           0           0           0
 AtZEff=   0.0000000   0.0000000   0.0000000   0.0000000   0.0000000   0.0000000   0.0000000   0.0000000   0.0000000   0.0000000
 NQMom=    0.0000000   0.0000000   0.0000000   0.0000000   0.0000000   0.0000000   0.0000000   0.0000000   0.0000000   0.0000000
 NMagM=    0.0000000   0.0000000   0.0000000   0.0000000   0.0000000   0.0000000   0.0000000   0.0000000   0.0000000   0.0000000
 AtZNuc=   0.0000000   0.0000000   0.0000000   0.0000000   0.0000000   0.0000000   0.0000000   0.0000000   0.0000000   0.0000000

  Atom       201         202         203         204         205         206         207         208         209         210
 IAtWgt=           0           0           0           0           0           0           0           0           0           0
 AtmWgt=   0.0000000   0.0000000   0.0000000   0.0000000   0.0000000   0.0000000   0.0000000   0.0000000   0.0000000   0.0000000
 NucSpn=           0           0           0           0           0           0           0           0           0           0
 AtZEff=   0.0000000   0.0000000   0.0000000   0.0000000   0.0000000   0.0000000   0.0000000   0.0000000   0.0000000   0.0000000
 NQMom=    0.0000000   0.0000000   0.0000000   0.0000000   0.0000000   0.0000000   0.0000000   0.0000000   0.0000000   0.0000000
 NMagM=    0.0000000   0.0000000   0.0000000   0.0000000   0.0000000   0.0000000   0.0000000   0.0000000   0.0000000   0.0000000
 AtZNuc=   0.0000000   0.0000000   0.0000000   0.0000000   0.0000000   0.0000000   0.0000000   0.0000000   0.0000000   0.0000000

  Atom       211         212         213         214         215         216         217         218         219         220
 IAtWgt=           0           0           0           0           0           0           0           0           0           0
 AtmWgt=   0.0000000   0.0000000   0.0000000   0.0000000   0.0000000   0.0000000   0.0000000   0.0000000   0.0000000   0.0000000
 NucSpn=           0           0           0           0           0           0           0           0           0           0
 AtZEff=   0.0000000   0.0000000   0.0000000   0.0000000   0.0000000   0.0000000   0.0000000   0.0000000   0.0000000   0.0000000
 NQMom=    0.0000000   0.0000000   0.0000000   0.0000000   0.0000000   0.0000000   0.0000000   0.0000000   0.0000000   0.0000000
 NMagM=    0.0000000   0.0000000   0.0000000   0.0000000   0.0000000   0.0000000   0.0000000   0.0000000   0.0000000   0.0000000
 AtZNuc=   0.0000000   0.0000000   0.0000000   0.0000000   0.0000000   0.0000000   0.0000000   0.0000000   0.0000000   0.0000000

  Atom       221         222         223         224         225         226         227         228         229         230
 IAtWgt=           0           0           0           0           0           0           0           0           0           0
 AtmWgt=   0.0000000   0.0000000   0.0000000   0.0000000   0.0000000   0.0000000   0.0000000   0.0000000   0.0000000   0.0000000
 NucSpn=           0           0           0           0           0           0           0           0           0           0
 AtZEff=   0.0000000   0.0000000   0.0000000   0.0000000   0.0000000   0.0000000   0.0000000   0.0000000   0.0000000   0.0000000
 NQMom=    0.0000000   0.0000000   0.0000000   0.0000000   0.0000000   0.0000000   0.0000000   0.0000000   0.0000000   0.0000000
 NMagM=    0.0000000   0.0000000   0.0000000   0.0000000   0.0000000   0.0000000   0.0000000   0.0000000   0.0000000   0.0000000
 AtZNuc=   0.0000000   0.0000000   0.0000000   0.0000000   0.0000000   0.0000000   0.0000000   0.0000000   0.0000000   0.0000000

  Atom       231         232         233         234         235         236
 IAtWgt=           0           0           0           0           0           0
 AtmWgt=   0.0000000   0.0000000   0.0000000   0.0000000   0.0000000   0.0000000
 NucSpn=           0           0           0           0           0           0
 AtZEff=   0.0000000   0.0000000   0.0000000   0.0000000   0.0000000   0.0000000
 NQMom=    0.0000000   0.0000000   0.0000000   0.0000000   0.0000000   0.0000000
 NMagM=    0.0000000   0.0000000   0.0000000   0.0000000   0.0000000   0.0000000
 AtZNuc=   0.0000000   0.0000000   0.0000000   0.0000000   0.0000000   0.0000000
 Leave Link  101 at Tue Sep 15 11:50:14 2020, MaxMem=   131072000 cpu:         4.6
 (Enter /share/programs/GAUSSIAN/64/g09/l202.exe)
 Symmetry turned off:
 Cannot cope with ghost atoms or with translation vectors.
 Stoichiometry    C22H14
 Framework group  C1[X(C22H14)]
 NUMDOF-- NAT=    36 NAtoms=   236
 Deg. of freedom     0
 Full point group                 C1      NOp   1
                          Input orientation:                          
 ---------------------------------------------------------------------
 Center     Atomic      Atomic             Coordinates (Angstroms)
 Number     Number       Type             X           Y           Z
 ---------------------------------------------------------------------
      1          6           0        0.653241    3.257859   -0.202510
      2          6           0       -0.653243    3.257860    0.202510
      3          6           0        1.372495    2.032956   -0.320807
      4          6           0       -1.372495    2.032956    0.320807
      5          6           0        0.722474    0.795666   -0.050388
      6          6           0       -0.722474    0.795667    0.050387
      7          6           0        2.760385    2.053927   -0.674268
      8          6           0        3.508866    0.913916   -0.671362
      9          6           0        2.955226   -0.309622   -0.177479
     10          6           0        1.574722   -0.361114    0.197094
     11          1           0        1.183427    4.195740   -0.384599
     12          1           0       -1.183429    4.195740    0.384599
     13          1           0        3.206283    3.012423   -0.951392
     14          1           0        4.560023    0.932956   -0.969333
     15          6           0        3.783020   -1.443098    0.028309
     16          6           0        1.137427   -1.507533    0.912109
     17          6           0        1.973691   -2.584349    1.138062
     18          6           0        3.301853   -2.571588    0.661177
     19          1           0        4.825754   -1.391230   -0.295484
     20          1           0        0.124652   -1.532788    1.308472
     21          1           0        1.603586   -3.445682    1.698977
     22          1           0        3.952742   -3.433526    0.825134
     23          6           0       -3.508866    0.913915    0.671362
     24          6           0       -2.760386    2.053926    0.674268
     25          6           0       -2.955226   -0.309623    0.177479
     26          6           0       -1.574722   -0.361114   -0.197094
     27          6           0       -3.783020   -1.443099   -0.028309
     28          6           0       -3.301852   -2.571589   -0.661177
     29          6           0       -1.973690   -2.584349   -1.138061
     30          6           0       -1.137426   -1.507534   -0.912109
     31          1           0       -4.560022    0.932954    0.969334
     32          1           0       -3.206283    3.012421    0.951392
     33          1           0       -4.825754   -1.391232    0.295484
     34          1           0       -3.952741   -3.433528   -0.825134
     35          1           0       -1.603585   -3.445682   -1.698976
     36          1           0       -0.124652   -1.532788   -1.308471
     37          0           0        0.950305   -4.098963    2.081660
     38          0           0        1.041164   -4.178645    2.081660
     39          0           0        1.141646   -4.245785    2.081660
     40          0           0        1.250033   -4.299235    2.081660
     41          0           0        1.364468   -4.338081    2.081660
     42          0           0        1.482996   -4.361658    2.081660
     43          0           0        1.603586   -4.369562    2.081660
     44          0           0        1.724176   -4.361658    2.081660
     45          0           0        1.842704   -4.338081    2.081660
     46          0           0        1.957139   -4.299235    2.081660
     47          0           0        2.065526   -4.245785    2.081660
     48          0           0        2.166008   -4.178645    2.081660
     49          0           0        2.256867   -4.098963    2.081660
     50          0           0        2.336549   -4.008104    2.081660
     51          0           0        2.403689   -3.907622    2.081660
     52          0           0        2.457139   -3.799235    2.081660
     53          0           0        2.495985   -3.684800    2.081660
     54          0           0        2.519562   -3.566272    2.081660
     55          0           0        0.767070   -2.962719    1.957796
     56          0           0        0.711187   -3.076038    1.957796
     57          0           0        0.670573   -3.195682    1.957796
     58          0           0        0.645924   -3.319603    1.957796
     59          0           0        0.637660   -3.445682    1.957796
     60          0           0        0.645924   -3.571761    1.957796
     61          0           0        0.670573   -3.695682    1.957796
     62          0           0        0.711187   -3.815326    1.957796
     63          0           0        0.767070   -3.928645    1.957796
     64          0           0        0.837266   -4.033700    1.957796
     65          0           0        0.920573   -4.128695    1.957796
     66          0           0        1.015568   -4.212002    1.957796
     67          0           0        1.120623   -4.282198    1.957796
     68          0           0        1.233942   -4.338081    1.957796
     69          0           0        1.353586   -4.378695    1.957796
     70          0           0        1.477507   -4.403344    1.957796
     71          0           0        1.603586   -4.411608    1.957796
     72          0           0        1.729665   -4.403344    1.957796
     73          0           0        1.853586   -4.378695    1.957796
     74          0           0        1.973230   -4.338081    1.957796
     75          0           0        2.086549   -4.282198    1.957796
     76          0           0        2.191604   -4.212002    1.957796
     77          0           0        2.286599   -4.128695    1.957796
     78          0           0        2.369906   -4.033700    1.957796
     79          0           0        2.440102   -3.928645    1.957796
     80          0           0        2.495985   -3.815326    1.957796
     81          0           0        2.536599   -3.695682    1.957796
     82          0           0        2.561248   -3.571761    1.957796
     83          0           0        0.744970   -2.949960    1.829503
     84          0           0        0.687610   -3.066272    1.829503
     85          0           0        0.645924   -3.189077    1.829503
     86          0           0        0.620623   -3.316272    1.829503
     87          0           0        0.612141   -3.445682    1.829503
     88          0           0        0.620623   -3.575092    1.829503
     89          0           0        0.645924   -3.702287    1.829503
     90          0           0        0.687610   -3.825092    1.829503
     91          0           0        0.744970   -3.941404    1.829503
     92          0           0        0.817020   -4.049235    1.829503
     93          0           0        0.902529   -4.146739    1.829503
     94          0           0        1.000033   -4.232248    1.829503
     95          0           0        1.107864   -4.304298    1.829503
     96          0           0        1.224176   -4.361658    1.829503
     97          0           0        1.346981   -4.403344    1.829503
     98          0           0        1.474176   -4.428645    1.829503
     99          0           0        1.603586   -4.437127    1.829503
    100          0           0        1.732996   -4.428645    1.829503
    101          0           0        1.860191   -4.403344    1.829503
    102          0           0        1.982996   -4.361658    1.829503
    103          0           0        2.099308   -4.304298    1.829503
    104          0           0        2.207139   -4.232248    1.829503
    105          0           0        2.304643   -4.146739    1.829503
    106          0           0        2.390152   -4.049235    1.829503
    107          0           0        2.462202   -3.941404    1.829503
    108          0           0        2.519562   -3.825092    1.829503
    109          0           0        2.561248   -3.702287    1.829503
    110          0           0        0.679706   -3.062999    1.698977
    111          0           0        0.637660   -3.186863    1.698977
    112          0           0        0.612141   -3.315156    1.698977
    113          0           0        0.603586   -3.445682    1.698977
    114          0           0        0.612141   -3.576208    1.698977
    115          0           0        0.637660   -3.704501    1.698977
    116          0           0        0.679706   -3.828365    1.698977
    117          0           0        0.737561   -3.945682    1.698977
    118          0           0        0.810233   -4.054443    1.698977
    119          0           0        0.896479   -4.152789    1.698977
    120          0           0        0.994825   -4.239035    1.698977
    121          0           0        1.103586   -4.311707    1.698977
    122          0           0        1.220903   -4.369562    1.698977
    123          0           0        1.344767   -4.411608    1.698977
    124          0           0        1.473060   -4.437127    1.698977
    125          0           0        1.603586   -4.445682    1.698977
    126          0           0        1.734112   -4.437127    1.698977
    127          0           0        1.862405   -4.411608    1.698977
    128          0           0        1.986269   -4.369562    1.698977
    129          0           0        2.103586   -4.311707    1.698977
    130          0           0        2.212347   -4.239035    1.698977
    131          0           0        2.310693   -4.152789    1.698977
    132          0           0        2.396939   -4.054443    1.698977
    133          0           0        2.469611   -3.945682    1.698977
    134          0           0        2.527466   -3.828365    1.698977
    135          0           0        0.687610   -3.066272    1.568451
    136          0           0        0.645924   -3.189077    1.568451
    137          0           0        0.620623   -3.316272    1.568451
    138          0           0        0.612141   -3.445682    1.568451
    139          0           0        0.620623   -3.575092    1.568451
    140          0           0        0.645924   -3.702287    1.568451
    141          0           0        0.687610   -3.825092    1.568451
    142          0           0        0.744970   -3.941404    1.568451
    143          0           0        0.817020   -4.049235    1.568451
    144          0           0        0.902529   -4.146739    1.568451
    145          0           0        1.000033   -4.232248    1.568451
    146          0           0        1.107864   -4.304298    1.568451
    147          0           0        1.224176   -4.361658    1.568451
    148          0           0        1.346981   -4.403344    1.568451
    149          0           0        1.474176   -4.428645    1.568451
    150          0           0        1.603586   -4.437127    1.568451
    151          0           0        1.732996   -4.428645    1.568451
    152          0           0        1.860191   -4.403344    1.568451
    153          0           0        1.982996   -4.361658    1.568451
    154          0           0        2.099308   -4.304298    1.568451
    155          0           0        2.207139   -4.232248    1.568451
    156          0           0        2.304643   -4.146739    1.568451
    157          0           0        2.390152   -4.049235    1.568451
    158          0           0        2.462202   -3.941404    1.568451
    159          0           0        0.670573   -3.195682    1.440158
    160          0           0        0.645924   -3.319603    1.440158
    161          0           0        0.637660   -3.445682    1.440158
    162          0           0        0.645924   -3.571761    1.440158
    163          0           0        0.670573   -3.695682    1.440158
    164          0           0        0.711187   -3.815326    1.440158
    165          0           0        0.767070   -3.928645    1.440158
    166          0           0        0.837266   -4.033700    1.440158
    167          0           0        0.920573   -4.128695    1.440158
    168          0           0        1.015568   -4.212002    1.440158
    169          0           0        1.120623   -4.282198    1.440158
    170          0           0        1.233942   -4.338081    1.440158
    171          0           0        1.353586   -4.378695    1.440158
    172          0           0        1.477507   -4.403344    1.440158
    173          0           0        1.603586   -4.411608    1.440158
    174          0           0        1.729665   -4.403344    1.440158
    175          0           0        1.853586   -4.378695    1.440158
    176          0           0        1.973230   -4.338081    1.440158
    177          0           0        2.086549   -4.282198    1.440158
    178          0           0        2.191604   -4.212002    1.440158
    179          0           0        2.286599   -4.128695    1.440158
    180          0           0        2.369906   -4.033700    1.440158
    181          0           0        2.440102   -3.928645    1.440158
    182          0           0        0.711187   -3.206564    1.316294
    183          0           0        0.687610   -3.325092    1.316294
    184          0           0        0.679706   -3.445682    1.316294
    185          0           0        0.687610   -3.566272    1.316294
    186          0           0        0.711187   -3.684800    1.316294
    187          0           0        0.750033   -3.799235    1.316294
    188          0           0        0.803483   -3.907622    1.316294
    189          0           0        0.870623   -4.008104    1.316294
    190          0           0        0.950305   -4.098963    1.316294
    191          0           0        1.041164   -4.178645    1.316294
    192          0           0        1.141646   -4.245785    1.316294
    193          0           0        1.250033   -4.299235    1.316294
    194          0           0        1.364468   -4.338081    1.316294
    195          0           0        1.482996   -4.361658    1.316294
    196          0           0        1.603586   -4.369562    1.316294
    197          0           0        1.724176   -4.361658    1.316294
    198          0           0        1.842704   -4.338081    1.316294
    199          0           0        1.957139   -4.299235    1.316294
    200          0           0        2.065526   -4.245785    1.316294
    201          0           0        2.166008   -4.178645    1.316294
    202          0           0        2.256867   -4.098963    1.316294
    203          0           0        2.336549   -4.008104    1.316294
    204          0           0        0.767070   -3.221538    1.198977
    205          0           0        0.744970   -3.332643    1.198977
    206          0           0        0.737561   -3.445682    1.198977
    207          0           0        0.744970   -3.558721    1.198977
    208          0           0        0.767070   -3.669826    1.198977
    209          0           0        0.803483   -3.777096    1.198977
    210          0           0        0.853586   -3.878695    1.198977
    211          0           0        0.916522   -3.972885    1.198977
    212          0           0        0.991214   -4.058054    1.198977
    213          0           0        1.076383   -4.132746    1.198977
    214          0           0        1.170573   -4.195682    1.198977
    215          0           0        1.272172   -4.245785    1.198977
    216          0           0        1.379442   -4.282198    1.198977
    217          0           0        1.490547   -4.304298    1.198977
    218          0           0        1.603586   -4.311707    1.198977
    219          0           0        1.716625   -4.304298    1.198977
    220          0           0        1.827730   -4.282198    1.198977
    221          0           0        1.935000   -4.245785    1.198977
    222          0           0        2.036599   -4.195682    1.198977
    223          0           0        2.130789   -4.132746    1.198977
    224          0           0        2.215958   -4.058054    1.198977
    225          0           0        2.290650   -3.972885    1.198977
    226          0           0        0.837266   -3.240347    1.090216
    227          0           0        0.817020   -3.342129    1.090216
    228          0           0        0.810233   -3.445682    1.090216
    229          0           0        0.817020   -3.549235    1.090216
    230          0           0        0.837266   -3.651017    1.090216
    231          0           0        0.870623   -3.749285    1.090216
    232          0           0        0.916522   -3.842359    1.090216
    233          0           0        0.974176   -3.928645    1.090216
    234          0           0        1.042600   -4.006668    1.090216
    235          0           0        1.120623   -4.075092    1.090216
    236          0           0        1.206909   -4.132746    1.090216
 ---------------------------------------------------------------------
 Rotational constants (GHZ):      0.4454681      0.2811480      0.1854303
 Leave Link  202 at Tue Sep 15 11:50:14 2020, MaxMem=   131072000 cpu:         0.0
 (Enter /share/programs/GAUSSIAN/64/g09/l301.exe)
 Standard basis: 6-311+G(d,p) (5D, 7F)
 Warning:  center  37 has no basis functions!
 Warning:  center  38 has no basis functions!
 Warning:  center  39 has no basis functions!
 Warning:  center  40 has no basis functions!
 Warning:  center  41 has no basis functions!
 Warning:  center  42 has no basis functions!
 Warning:  center  43 has no basis functions!
 Warning:  center  44 has no basis functions!
 Warning:  center  45 has no basis functions!
 Warning:  center  46 has no basis functions!
 Warning:  center  47 has no basis functions!
 Warning:  center  48 has no basis functions!
 Warning:  center  49 has no basis functions!
 Warning:  center  50 has no basis functions!
 Warning:  center  51 has no basis functions!
 Warning:  center  52 has no basis functions!
 Warning:  center  53 has no basis functions!
 Warning:  center  54 has no basis functions!
 Warning:  center  55 has no basis functions!
 Warning:  center  56 has no basis functions!
 Warning:  center  57 has no basis functions!
 Warning:  center  58 has no basis functions!
 Warning:  center  59 has no basis functions!
 Warning:  center  60 has no basis functions!
 Warning:  center  61 has no basis functions!
 Warning:  center  62 has no basis functions!
 Warning:  center  63 has no basis functions!
 Warning:  center  64 has no basis functions!
 Warning:  center  65 has no basis functions!
 Warning:  center  66 has no basis functions!
 Warning:  center  67 has no basis functions!
 Warning:  center  68 has no basis functions!
 Warning:  center  69 has no basis functions!
 Warning:  center  70 has no basis functions!
 Warning:  center  71 has no basis functions!
 Warning:  center  72 has no basis functions!
 Warning:  center  73 has no basis functions!
 Warning:  center  74 has no basis functions!
 Warning:  center  75 has no basis functions!
 Warning:  center  76 has no basis functions!
 Warning:  center  77 has no basis functions!
 Warning:  center  78 has no basis functions!
 Warning:  center  79 has no basis functions!
 Warning:  center  80 has no basis functions!
 Warning:  center  81 has no basis functions!
 Warning:  center  82 has no basis functions!
 Warning:  center  83 has no basis functions!
 Warning:  center  84 has no basis functions!
 Warning:  center  85 has no basis functions!
 Warning:  center  86 has no basis functions!
 Warning:  center  87 has no basis functions!
 Warning:  center  88 has no basis functions!
 Warning:  center  89 has no basis functions!
 Warning:  center  90 has no basis functions!
 Warning:  center  91 has no basis functions!
 Warning:  center  92 has no basis functions!
 Warning:  center  93 has no basis functions!
 Warning:  center  94 has no basis functions!
 Warning:  center  95 has no basis functions!
 Warning:  center  96 has no basis functions!
 Warning:  center  97 has no basis functions!
 Warning:  center  98 has no basis functions!
 Warning:  center  99 has no basis functions!
 Warning:  center 100 has no basis functions!
 Warning:  center 101 has no basis functions!
 Warning:  center 102 has no basis functions!
 Warning:  center 103 has no basis functions!
 Warning:  center 104 has no basis functions!
 Warning:  center 105 has no basis functions!
 Warning:  center 106 has no basis functions!
 Warning:  center 107 has no basis functions!
 Warning:  center 108 has no basis functions!
 Warning:  center 109 has no basis functions!
 Warning:  center 110 has no basis functions!
 Warning:  center 111 has no basis functions!
 Warning:  center 112 has no basis functions!
 Warning:  center 113 has no basis functions!
 Warning:  center 114 has no basis functions!
 Warning:  center 115 has no basis functions!
 Warning:  center 116 has no basis functions!
 Warning:  center 117 has no basis functions!
 Warning:  center 118 has no basis functions!
 Warning:  center 119 has no basis functions!
 Warning:  center 120 has no basis functions!
 Warning:  center 121 has no basis functions!
 Warning:  center 122 has no basis functions!
 Warning:  center 123 has no basis functions!
 Warning:  center 124 has no basis functions!
 Warning:  center 125 has no basis functions!
 Warning:  center 126 has no basis functions!
 Warning:  center 127 has no basis functions!
 Warning:  center 128 has no basis functions!
 Warning:  center 129 has no basis functions!
 Warning:  center 130 has no basis functions!
 Warning:  center 131 has no basis functions!
 Warning:  center 132 has no basis functions!
 Warning:  center 133 has no basis functions!
 Warning:  center 134 has no basis functions!
 Warning:  center 135 has no basis functions!
 Warning:  center 136 has no basis functions!
 Warning:  center 137 has no basis functions!
 Warning:  center 138 has no basis functions!
 Warning:  center 139 has no basis functions!
 Warning:  center 140 has no basis functions!
 Warning:  center 141 has no basis functions!
 Warning:  center 142 has no basis functions!
 Warning:  center 143 has no basis functions!
 Warning:  center 144 has no basis functions!
 Warning:  center 145 has no basis functions!
 Warning:  center 146 has no basis functions!
 Warning:  center 147 has no basis functions!
 Warning:  center 148 has no basis functions!
 Warning:  center 149 has no basis functions!
 Warning:  center 150 has no basis functions!
 Warning:  center 151 has no basis functions!
 Warning:  center 152 has no basis functions!
 Warning:  center 153 has no basis functions!
 Warning:  center 154 has no basis functions!
 Warning:  center 155 has no basis functions!
 Warning:  center 156 has no basis functions!
 Warning:  center 157 has no basis functions!
 Warning:  center 158 has no basis functions!
 Warning:  center 159 has no basis functions!
 Warning:  center 160 has no basis functions!
 Warning:  center 161 has no basis functions!
 Warning:  center 162 has no basis functions!
 Warning:  center 163 has no basis functions!
 Warning:  center 164 has no basis functions!
 Warning:  center 165 has no basis functions!
 Warning:  center 166 has no basis functions!
 Warning:  center 167 has no basis functions!
 Warning:  center 168 has no basis functions!
 Warning:  center 169 has no basis functions!
 Warning:  center 170 has no basis functions!
 Warning:  center 171 has no basis functions!
 Warning:  center 172 has no basis functions!
 Warning:  center 173 has no basis functions!
 Warning:  center 174 has no basis functions!
 Warning:  center 175 has no basis functions!
 Warning:  center 176 has no basis functions!
 Warning:  center 177 has no basis functions!
 Warning:  center 178 has no basis functions!
 Warning:  center 179 has no basis functions!
 Warning:  center 180 has no basis functions!
 Warning:  center 181 has no basis functions!
 Warning:  center 182 has no basis functions!
 Warning:  center 183 has no basis functions!
 Warning:  center 184 has no basis functions!
 Warning:  center 185 has no basis functions!
 Warning:  center 186 has no basis functions!
 Warning:  center 187 has no basis functions!
 Warning:  center 188 has no basis functions!
 Warning:  center 189 has no basis functions!
 Warning:  center 190 has no basis functions!
 Warning:  center 191 has no basis functions!
 Warning:  center 192 has no basis functions!
 Warning:  center 193 has no basis functions!
 Warning:  center 194 has no basis functions!
 Warning:  center 195 has no basis functions!
 Warning:  center 196 has no basis functions!
 Warning:  center 197 has no basis functions!
 Warning:  center 198 has no basis functions!
 Warning:  center 199 has no basis functions!
 Warning:  center 200 has no basis functions!
 Warning:  center 201 has no basis functions!
 Warning:  center 202 has no basis functions!
 Warning:  center 203 has no basis functions!
 Warning:  center 204 has no basis functions!
 Warning:  center 205 has no basis functions!
 Warning:  center 206 has no basis functions!
 Warning:  center 207 has no basis functions!
 Warning:  center 208 has no basis functions!
 Warning:  center 209 has no basis functions!
 Warning:  center 210 has no basis functions!
 Warning:  center 211 has no basis functions!
 Warning:  center 212 has no basis functions!
 Warning:  center 213 has no basis functions!
 Warning:  center 214 has no basis functions!
 Warning:  center 215 has no basis functions!
 Warning:  center 216 has no basis functions!
 Warning:  center 217 has no basis functions!
 Warning:  center 218 has no basis functions!
 Warning:  center 219 has no basis functions!
 Warning:  center 220 has no basis functions!
 Warning:  center 221 has no basis functions!
 Warning:  center 222 has no basis functions!
 Warning:  center 223 has no basis functions!
 Warning:  center 224 has no basis functions!
 Warning:  center 225 has no basis functions!
 Warning:  center 226 has no basis functions!
 Warning:  center 227 has no basis functions!
 Warning:  center 228 has no basis functions!
 Warning:  center 229 has no basis functions!
 Warning:  center 230 has no basis functions!
 Warning:  center 231 has no basis functions!
 Warning:  center 232 has no basis functions!
 Warning:  center 233 has no basis functions!
 Warning:  center 234 has no basis functions!
 Warning:  center 235 has no basis functions!
 Warning:  center 236 has no basis functions!
 Ernie: Thresh=  0.10000D-02 Tol=  0.10000D-05 Strict=F.
   568 basis functions,   904 primitive gaussians,   590 cartesian basis functions
    73 alpha electrons       73 beta electrons
       nuclear repulsion energy      1599.9156270972 Hartrees.
 IExCor=  402 DFT=T Ex+Corr=B3LYP ExCW=0 ScaHFX=  0.200000
 ScaDFX=  0.800000  0.720000  1.000000  0.810000 ScalE2=  1.000000  1.000000
 IRadAn=      0 IRanWt=     -1 IRanGd=            0 ICorTp=0 IEmpDi=  4
 NAtoms=  236 NActive=  236 NUniq=  236 SFac= 1.00D+00 NAtFMM=   60 NAOKFM=T Big=T
 Integral buffers will be    131072 words long.
 Raffenetti 2 integral format.
 Two-electron integral symmetry is turned off.
 Leave Link  301 at Tue Sep 15 11:50:14 2020, MaxMem=   131072000 cpu:         0.5
 (Enter /share/programs/GAUSSIAN/64/g09/l302.exe)
 NPDir=0 NMtPBC=     1 NCelOv=     1 NCel=       1 NClECP=     1 NCelD=      1
         NCelK=      1 NCelE2=     1 NClLst=     1 CellRange=     0.0.
 One-electron integrals computed using PRISM.
 NBasis=   568 RedAO= T EigKep=  1.01D-06  NBF=   568
 NBsUse=   557 1.00D-06 EigRej=  9.19D-07 NBFU=   557
 Precomputing XC quadrature grid using
 IXCGrd= 4 IRadAn=           0 IRanWt=          -1 IRanGd=           0 AccXCQ= 0.00D+00.
 Generated NRdTot=       0 NPtTot=           0 NUsed=           0 NTot=          32
 NSgBfM=   587   588   588   589   589 MxSgAt=   236 MxSgA2=    36.
 Leave Link  302 at Tue Sep 15 11:50:15 2020, MaxMem=   131072000 cpu:        13.5
 (Enter /share/programs/GAUSSIAN/64/g09/l308.exe)
 Leave Link  308 at Tue Sep 15 11:50:16 2020, MaxMem=   131072000 cpu:         1.1
 (Enter /share/programs/GAUSSIAN/64/g09/l303.exe)
 DipDrv:  MaxL=1.
 Leave Link  303 at Tue Sep 15 11:50:16 2020, MaxMem=   131072000 cpu:         0.6
 (Enter /share/programs/GAUSSIAN/64/g09/l401.exe)
 Initial guess from the checkpoint file:  "/scratch/aartigas.38975/Gau-3269497.chk"
 Skipping rotation of guess because NAtoms(RWF)=  236 differs from NAtoms(Chk)=   36.
 Guess basis will be translated and rotated to current coordinates.
 JPrj=2 DoOrth=T DoCkMO=T.
 Leave Link  401 at Tue Sep 15 11:50:18 2020, MaxMem=   131072000 cpu:        10.5
 (Enter /share/programs/GAUSSIAN/64/g09/l502.exe)
 Closed shell SCF:
 Using DIIS extrapolation, IDIIS=  1040.
 Two-electron integral symmetry not used.
 IVT=     1071582 IEndB=     1071582 NGot=   131072000 MDV=   130365749
 LenX=   130365749 LenY=   130017059
 Requested convergence on RMS density matrix=1.00D-08 within 128 cycles.
 Requested convergence on MAX density matrix=1.00D-06.
 Requested convergence on             energy=1.00D-06.
 No special actions if energy rises.
 Fock matrices will be formed incrementally for  20 cycles.

 Cycle   1  Pass 1  IDiag  1:
 FoFJK:  IHMeth= 1 ICntrl=       0 DoSepK=F KAlg= 0 I1Cent=   0 FoldK=F
 IRaf= 940000000 NMat=   1 IRICut=       1 DoRegI=T DoRafI=F ISym2E= 0.
 FoFCou: FMM=T IPFlag=           0 FMFlag=      100000 FMFlg1=        2001
         NFxFlg=           0 DoJE=F BraDBF=F KetDBF=F FulRan=T
         wScrn=  0.000000 ICntrl=       0 IOpCl=  0 I1Cent=           0 NGrid=           0
         NMat0=    1 NMatS0=      1 NMatT0=    0 NMatD0=    1 NMtDS0=    0 NMtDT0=    0
 Symmetry not used in FoFCou.
 FMM levels:  10  Number of levels for PrismC:   9
 E= -847.003738666969    
 DIIS: error= 5.05D-08 at cycle   1 NSaved=   1.
 NSaved= 1 IEnMin= 1 EnMin= -847.003738666969     IErMin= 1 ErrMin= 5.05D-08
 ErrMax= 5.05D-08  0.00D+00 EMaxC= 1.00D-01 BMatC= 3.55D-12 BMatP= 3.55D-12
 IDIUse=1 WtCom= 1.00D+00 WtEn= 0.00D+00
 Coeff-Com:  0.100D+01
 Coeff:      0.100D+01
 Gap=     0.151 Goal=   None    Shift=    0.000
 RMSDP=2.89D-07 MaxDP=1.33D-05              OVMax= 3.94D-07

 Cycle   2  Pass 1  IDiag  1:
 RMSU=  2.85D-07    CP:  1.00D+00
 E= -847.003738666844     Delta-E=        0.000000000125 Rises=F Damp=F
 DIIS: error= 1.42D-08 at cycle   2 NSaved=   2.
 NSaved= 2 IEnMin= 1 EnMin= -847.003738666969     IErMin= 2 ErrMin= 1.42D-08
 ErrMax= 1.42D-08  0.00D+00 EMaxC= 1.00D-01 BMatC= 2.13D-13 BMatP= 3.55D-12
 IDIUse=1 WtCom= 1.00D+00 WtEn= 0.00D+00
 Coeff-Com:  0.627D-01 0.937D+00
 Coeff:      0.627D-01 0.937D+00
 Gap=     0.151 Goal=   None    Shift=    0.000
 RMSDP=1.58D-08 MaxDP=7.91D-07 DE= 1.25D-10 OVMax= 3.02D-07

 Cycle   3  Pass 1  IDiag  1:
 RMSU=  1.33D-08    CP:  1.00D+00  1.02D+00
 E= -847.003738666838     Delta-E=        0.000000000006 Rises=F Damp=F
 DIIS: error= 2.51D-08 at cycle   3 NSaved=   3.
 NSaved= 3 IEnMin= 1 EnMin= -847.003738666969     IErMin= 2 ErrMin= 1.42D-08
 ErrMax= 2.51D-08  0.00D+00 EMaxC= 1.00D-01 BMatC= 5.05D-13 BMatP= 2.13D-13
 IDIUse=1 WtCom= 1.00D+00 WtEn= 0.00D+00
 Coeff-Com: -0.107D-01 0.616D+00 0.395D+00
 Coeff:     -0.107D-01 0.616D+00 0.395D+00
 Gap=     0.151 Goal=   None    Shift=    0.000
 RMSDP=1.03D-08 MaxDP=4.18D-07 DE= 5.91D-12 OVMax= 2.17D-07

 Cycle   4  Pass 1  IDiag  1:
 RMSU=  5.87D-09    CP:  1.00D+00  1.02D+00  3.93D-01
 E= -847.003738666855     Delta-E=       -0.000000000016 Rises=F Damp=F
 DIIS: error= 8.06D-09 at cycle   4 NSaved=   4.
 NSaved= 4 IEnMin= 1 EnMin= -847.003738666969     IErMin= 4 ErrMin= 8.06D-09
 ErrMax= 8.06D-09  0.00D+00 EMaxC= 1.00D-01 BMatC= 2.06D-14 BMatP= 2.13D-13
 IDIUse=1 WtCom= 1.00D+00 WtEn= 0.00D+00
 Coeff-Com: -0.876D-02 0.309D+00 0.241D+00 0.459D+00
 Coeff:     -0.876D-02 0.309D+00 0.241D+00 0.459D+00
 Gap=     0.151 Goal=   None    Shift=    0.000
 RMSDP=4.17D-09 MaxDP=1.58D-07 DE=-1.64D-11 OVMax= 6.88D-08

 SCF Done:  E(RB3LYP) =  -847.003738667     A.U. after    4 cycles
            NFock=  4  Conv=0.42D-08     -V/T= 2.0049
 KE= 8.428349970566D+02 PE=-5.164192584015D+03 EE= 1.874438221195D+03
 Leave Link  502 at Tue Sep 15 11:52:24 2020, MaxMem=   131072000 cpu:      1002.3
 (Enter /share/programs/GAUSSIAN/64/g09/l801.exe)
 DoSCS=F DFT=T ScalE2(SS,OS)=  1.000000  1.000000
 Range of M.O.s used for correlation:     1   557
 NBasis=   568 NAE=    73 NBE=    73 NFC=     0 NFV=     0
 NROrb=    557 NOA=    73 NOB=    73 NVA=   484 NVB=   484

 **** Warning!!: The largest alpha MO coefficient is  0.14271947D+03

 Leave Link  801 at Tue Sep 15 11:52:25 2020, MaxMem=   131072000 cpu:         0.2
 (Enter /share/programs/GAUSSIAN/64/g09/l1002.exe)
 Minotr:  Closed shell wavefunction.
          Direct CPHF calculation.
          Differentiating once with respect to magnetic field using GIAOs.
          Electric field/nuclear overlap derivatives assumed to be zero.
          Requested convergence is 1.0D-08 RMS, and 1.0D-07 maximum.
          Secondary convergence is 1.0D-12 RMS, and 1.0D-12 maximum.
          NewPWx=T KeepS1=F KeepF1=F KeepIn=T MapXYZ=F SortEE=F KeepMc=T.
          MDV=     131069551 using IRadAn=       2.
 Generate precomputed XC quadrature information.
          Solving linear equations simultaneously, MaxMat=      72.
 FoFCou: FMM=F IPFlag=           0 FMFlag=      100000 FMFlg1=        2001
         NFxFlg=           0 DoJE=F BraDBF=F KetDBF=T FulRan=T
         wScrn=  0.000000 ICntrl=    6100 IOpCl=  0 I1Cent=           7 NGrid=         236
         NMat0=    1 NMatS0=      1 NMatT0=    0 NMatD0=    1 NMtDS0=    0 NMtDT0=    0
 Symmetry not used in FoFCou.
 FoFJK:  IHMeth= 1 ICntrl=    6127 DoSepK=F KAlg= 0 I1Cent=   0 FoldK=F
 IRaf=         1 NMat=   1 IRICut=       1 DoRegI=T DoRafI=F ISym2E= 0.
          There are     3 degrees of freedom in the 1st order CPHF.  IDoFFX=0 NUNeed=     3.
      3 vectors produced by pass  0 Test12= 1.18D-12 3.33D-08 XBig12= 1.96D+03 8.77D+00.
 AX will form     3 AO Fock derivatives at one time.
      3 vectors produced by pass  1 Test12= 1.18D-12 3.33D-08 XBig12= 3.18D+00 7.58D-01.
      3 vectors produced by pass  2 Test12= 1.18D-12 3.33D-08 XBig12= 1.86D-02 5.85D-02.
      3 vectors produced by pass  3 Test12= 1.18D-12 3.33D-08 XBig12= 4.29D-05 1.35D-03.
      3 vectors produced by pass  4 Test12= 1.18D-12 3.33D-08 XBig12= 9.75D-08 7.22D-05.
      3 vectors produced by pass  5 Test12= 1.18D-12 3.33D-08 XBig12= 3.97D-10 5.92D-06.
      3 vectors produced by pass  6 Test12= 1.18D-12 3.33D-08 XBig12= 1.51D-12 4.40D-07.
 InvSVY:  IOpt=1 It=  1 EMax= 7.11D-15
 Solved reduced A of dimension    21 with     3 vectors.
 Calculating GIAO nuclear magnetic shielding tensors.
 SCF GIAO Magnetic shielding tensor (ppm):
      1  C    Isotropic =    49.6861   Anisotropy =   149.7970
   XX=    46.3088   YX=   -25.0950   ZX=    31.4786
   XY=   -31.1109   YY=   -39.0339   ZY=    13.2621
   XZ=    24.9178   YZ=     8.9888   ZZ=   141.7833
   Eigenvalues:   -49.3507    48.8581   149.5507
      2  C    Isotropic =    49.6861   Anisotropy =   149.7971
   XX=    46.3088   YX=    25.0953   ZX=    31.4786
   XY=    31.1111   YY=   -39.0339   ZY=   -13.2621
   XZ=    24.9177   YZ=    -8.9889   ZZ=   141.7834
   Eigenvalues:   -49.3508    48.8583   149.5509
      3  C    Isotropic =    44.4899   Anisotropy =   204.7372
   XX=   -22.2199   YX=    10.8075   ZX=    51.2710
   XY=     4.9259   YY=   -14.7126   ZY=    14.7921
   XZ=    32.3655   YZ=    21.2392   ZZ=   170.4022
   Eigenvalues:   -31.9593   -15.5523   180.9814
      4  C    Isotropic =    44.4899   Anisotropy =   204.7373
   XX=   -22.2198   YX=   -10.8075   ZX=    51.2710
   XY=    -4.9256   YY=   -14.7126   ZY=   -14.7922
   XZ=    32.3656   YZ=   -21.2393   ZZ=   170.4023
   Eigenvalues:   -31.9592   -15.5524   180.9815
      5  C    Isotropic =    48.5420   Anisotropy =   189.5490
   XX=   -14.6790   YX=     4.7342   ZX=     8.4333
   XY=    20.3759   YY=    -5.5375   ZY=    31.5121
   XZ=    65.1218   YZ=     0.8640   ZZ=   165.8426
   Eigenvalues:   -26.3226    -2.9593   174.9080
      6  C    Isotropic =    48.5421   Anisotropy =   189.5489
   XX=   -14.6789   YX=    -4.7340   ZX=     8.4335
   XY=   -20.3758   YY=    -5.5374   ZY=   -31.5121
   XZ=    65.1218   YZ=    -0.8638   ZZ=   165.8426
   Eigenvalues:   -26.3224    -2.9594   174.9080
      7  C    Isotropic =    50.1907   Anisotropy =   149.2089
   XX=    19.7303   YX=   -44.2755   ZX=    41.2886
   XY=   -38.0437   YY=    -2.7069   ZY=    36.9011
   XZ=    36.5866   YZ=    37.5458   ZZ=   133.5487
   Eigenvalues:   -49.6656    50.5744   149.6633
      8  C    Isotropic =    48.9362   Anisotropy =   152.4339
   XX=   -31.5093   YX=   -11.4921   ZX=    54.7730
   XY=   -19.0468   YY=    46.5898   ZY=    27.5522
   XZ=    42.2451   YZ=    29.8391   ZZ=   131.7282
   Eigenvalues:   -50.1461    46.3960   150.5589
      9  C    Isotropic =    44.4204   Anisotropy =   209.3981
   XX=   -10.1987   YX=    16.7536   ZX=    44.4888
   XY=     8.9342   YY=    -7.7270   ZY=    61.4651
   XZ=    43.3269   YZ=    64.9792   ZZ=   151.1869
   Eigenvalues:   -30.3689   -20.3891   184.0192
     10  C    Isotropic =    45.3894   Anisotropy =   198.3236
   XX=    -5.9706   YX=    23.3819   ZX=    35.6519
   XY=    38.1954   YY=     1.7271   ZY=    73.1370
   XZ=    54.0013   YZ=    45.7045   ZZ=   140.4116
   Eigenvalues:   -33.5315    -7.9055   177.6051
     11  H    Isotropic =    23.8179   Anisotropy =     7.5674
   XX=    27.2191   YX=    -1.9090   ZX=    -2.2602
   XY=    -1.7961   YY=    24.8722   ZY=    -0.1966
   XZ=    -3.3763   YZ=    -0.1950   ZZ=    19.3625
   Eigenvalues:    18.3647    24.2263    28.8628
     12  H    Isotropic =    23.8179   Anisotropy =     7.5674
   XX=    27.2191   YX=     1.9090   ZX=    -2.2602
   XY=     1.7961   YY=    24.8722   ZY=     0.1966
   XZ=    -3.3763   YZ=     0.1950   ZZ=    19.3625
   Eigenvalues:    18.3647    24.2263    28.8628
     13  H    Isotropic =    23.8548   Anisotropy =     7.5124
   XX=    26.7195   YX=    -2.1358   ZX=    -2.0755
[...]
   120  Bq   0.000000
   121  Bq   0.000000
   122  Bq   0.000000
   123  Bq   0.000000
   124  Bq   0.000000
   125  Bq   0.000000
   126  Bq   0.000000
   127  Bq   0.000000
   128  Bq   0.000000
   129  Bq   0.000000
   130  Bq   0.000000
   131  Bq   0.000000
   132  Bq   0.000000
   133  Bq   0.000000
   134  Bq   0.000000
   135  Bq   0.000000
   136  Bq   0.000000
   137  Bq   0.000000
   138  Bq   0.000000
   139  Bq   0.000000
   140  Bq   0.000000
   141  Bq   0.000000
   142  Bq   0.000000
   143  Bq   0.000000
   144  Bq   0.000000
   145  Bq   0.000000
   146  Bq   0.000000
   147  Bq   0.000000
   148  Bq   0.000000
   149  Bq   0.000000
   150  Bq   0.000000
   151  Bq   0.000000
   152  Bq   0.000000
   153  Bq   0.000000
   154  Bq   0.000000
   155  Bq   0.000000
   156  Bq   0.000000
   157  Bq   0.000000
   158  Bq   0.000000
   159  Bq   0.000000
   160  Bq   0.000000
   161  Bq   0.000000
   162  Bq   0.000000
   163  Bq   0.000000
   164  Bq   0.000000
   165  Bq   0.000000
   166  Bq   0.000000
   167  Bq   0.000000
   168  Bq   0.000000
   169  Bq   0.000000
   170  Bq   0.000000
   171  Bq   0.000000
   172  Bq   0.000000
   173  Bq   0.000000
   174  Bq   0.000000
   175  Bq   0.000000
   176  Bq   0.000000
   177  Bq   0.000000
   178  Bq   0.000000
   179  Bq   0.000000
   180  Bq   0.000000
   181  Bq   0.000000
   182  Bq   0.000000
   183  Bq   0.000000
   184  Bq   0.000000
   185  Bq   0.000000
   186  Bq   0.000000
   187  Bq   0.000000
   188  Bq   0.000000
   189  Bq   0.000000
   190  Bq   0.000000
   191  Bq   0.000000
   192  Bq   0.000000
   193  Bq   0.000000
   194  Bq   0.000000
   195  Bq   0.000000
   196  Bq   0.000000
   197  Bq   0.000000
   198  Bq   0.000000
   199  Bq   0.000000
   200  Bq   0.000000
   201  Bq   0.000000
   202  Bq   0.000000
   203  Bq   0.000000
   204  Bq   0.000000
   205  Bq   0.000000
   206  Bq   0.000000
   207  Bq   0.000000
   208  Bq   0.000000
   209  Bq   0.000000
   210  Bq   0.000000
   211  Bq   0.000000
   212  Bq   0.000000
   213  Bq   0.000000
   214  Bq   0.000000
   215  Bq   0.000000
   216  Bq   0.000000
   217  Bq   0.000000
   218  Bq   0.000000
   219  Bq   0.000000
   220  Bq   0.000000
   221  Bq   0.000000
   222  Bq   0.000000
   223  Bq   0.000000
   224  Bq   0.000000
   225  Bq   0.000000
   226  Bq   0.000000
   227  Bq   0.000000
   228  Bq   0.000000
   229  Bq   0.000000
   230  Bq   0.000000
   231  Bq   0.000000
   232  Bq   0.000000
   233  Bq   0.000000
   234  Bq   0.000000
   235  Bq   0.000000
   236  Bq   0.000000
 Sum of Mulliken charges =   0.00000
 Mulliken charges with hydrogens summed into heavy atoms:
               1
     1  C   -0.262865
     2  C   -0.262866
     3  C    0.737923
     4  C    0.737922
     5  C   -0.039994
     6  C   -0.040001
     7  C    0.075155
     8  C   -0.330147
     9  C    0.780501
    10  C   -0.200782
    15  C    0.249272
    16  C   -0.533462
    17  C   -0.313984
    18  C   -0.286191
    23  C   -0.330145
    24  C    0.075154
    25  C    0.780496
    26  C   -0.200782
    27  C    0.249273
    28  C   -0.286192
    29  C   -0.189403
    30  C   -0.533462
    37  Bq   0.000000
    38  Bq   0.000000
    39  Bq   0.000000
    40  Bq   0.000000
    41  Bq   0.000000
    42  Bq   0.000000
    43  Bq   0.000000
    44  Bq   0.000000
    45  Bq   0.000000
    46  Bq   0.000000
    47  Bq   0.000000
    48  Bq   0.000000
    49  Bq   0.000000
    50  Bq   0.000000
    51  Bq   0.000000
    52  Bq   0.000000
    53  Bq   0.000000
    54  Bq   0.000000
    55  Bq   0.000000
    56  Bq   0.000000
    57  Bq   0.000000
    58  Bq   0.000000
    59  Bq   0.000000
    60  Bq   0.000000
    61  Bq   0.000000
    62  Bq   0.000000
    63  Bq   0.000000
    64  Bq   0.000000
    65  Bq   0.000000
    66  Bq   0.000000
    67  Bq   0.000000
    68  Bq   0.000000
    69  Bq   0.000000
    70  Bq   0.000000
    71  Bq   0.000000
    72  Bq   0.000000
    73  Bq   0.000000
    74  Bq   0.000000
    75  Bq   0.000000
    76  Bq   0.000000
    77  Bq   0.000000
    78  Bq   0.000000
    79  Bq   0.000000
    80  Bq   0.000000
    81  Bq   0.000000
    82  Bq   0.000000
    83  Bq   0.000000
    84  Bq   0.000000
    85  Bq   0.000000
    86  Bq   0.000000
    87  Bq   0.000000
    88  Bq   0.000000
    89  Bq   0.000000
    90  Bq   0.000000
    91  Bq   0.000000
    92  Bq   0.000000
    93  Bq   0.000000
    94  Bq   0.000000
    95  Bq   0.000000
    96  Bq   0.000000
    97  Bq   0.000000
    98  Bq   0.000000
    99  Bq   0.000000
   100  Bq   0.000000
   101  Bq   0.000000
   102  Bq   0.000000
   103  Bq   0.000000
   104  Bq   0.000000
   105  Bq   0.124580
   106  Bq   0.000000
   107  Bq   0.000000
   108  Bq   0.000000
   109  Bq   0.000000
   110  Bq   0.000000
   111  Bq   0.000000
   112  Bq   0.000000
   113  Bq   0.000000
   114  Bq   0.000000
   115  Bq   0.000000
   116  Bq   0.000000
   117  Bq   0.000000
   118  Bq   0.000000
   119  Bq   0.000000
   120  Bq   0.000000
   121  Bq   0.000000
   122  Bq   0.000000
   123  Bq   0.000000
   124  Bq   0.000000
   125  Bq   0.000000
   126  Bq   0.000000
   127  Bq   0.000000
   128  Bq   0.000000
   129  Bq   0.000000
   130  Bq   0.000000
   131  Bq   0.000000
   132  Bq   0.000000
   133  Bq   0.000000
   134  Bq   0.000000
   135  Bq   0.000000
   136  Bq   0.000000
   137  Bq   0.000000
   138  Bq   0.000000
   139  Bq   0.000000
   140  Bq   0.000000
   141  Bq   0.000000
   142  Bq   0.000000
   143  Bq   0.000000
   144  Bq   0.000000
   145  Bq   0.000000
   146  Bq   0.000000
   147  Bq   0.000000
   148  Bq   0.000000
   149  Bq   0.000000
   150  Bq   0.000000
   151  Bq   0.000000
   152  Bq   0.000000
   153  Bq   0.000000
   154  Bq   0.000000
   155  Bq   0.000000
   156  Bq   0.000000
   157  Bq   0.000000
   158  Bq   0.000000
   159  Bq   0.000000
   160  Bq   0.000000
   161  Bq   0.000000
   162  Bq   0.000000
   163  Bq   0.000000
   164  Bq   0.000000
   165  Bq   0.000000
   166  Bq   0.000000
   167  Bq   0.000000
   168  Bq   0.000000
   169  Bq   0.000000
   170  Bq   0.000000
   171  Bq   0.000000
   172  Bq   0.000000
   173  Bq   0.000000
   174  Bq   0.000000
   175  Bq   0.000000
   176  Bq   0.000000
   177  Bq   0.000000
   178  Bq   0.000000
   179  Bq   0.000000
   180  Bq   0.000000
   181  Bq   0.000000
   182  Bq   0.000000
   183  Bq   0.000000
   184  Bq   0.000000
   185  Bq   0.000000
   186  Bq   0.000000
   187  Bq   0.000000
   188  Bq   0.000000
   189  Bq   0.000000
   190  Bq   0.000000
   191  Bq   0.000000
   192  Bq   0.000000
   193  Bq   0.000000
   194  Bq   0.000000
   195  Bq   0.000000
   196  Bq   0.000000
   197  Bq   0.000000
   198  Bq   0.000000
   199  Bq   0.000000
   200  Bq   0.000000
   201  Bq   0.000000
   202  Bq   0.000000
   203  Bq   0.000000
   204  Bq   0.000000
   205  Bq   0.000000
   206  Bq   0.000000
   207  Bq   0.000000
   208  Bq   0.000000
   209  Bq   0.000000
   210  Bq   0.000000
   211  Bq   0.000000
   212  Bq   0.000000
   213  Bq   0.000000
   214  Bq   0.000000
   215  Bq   0.000000
   216  Bq   0.000000
   217  Bq   0.000000
   218  Bq   0.000000
   219  Bq   0.000000
   220  Bq   0.000000
   221  Bq   0.000000
   222  Bq   0.000000
   223  Bq   0.000000
   224  Bq   0.000000
   225  Bq   0.000000
   226  Bq   0.000000
   227  Bq   0.000000
   228  Bq   0.000000
   229  Bq   0.000000
   230  Bq   0.000000
   231  Bq   0.000000
   232  Bq   0.000000
   233  Bq   0.000000
   234  Bq   0.000000
   235  Bq   0.000000
   236  Bq   0.000000
 Electronic spatial extent (au):  <R**2>=           5804.3227
 Charge=              0.0000 electrons
 Dipole moment (field-independent basis, Debye):
    X=              0.0000    Y=              0.0732    Z=              0.0000  Tot=              0.0732
 Quadrupole moment (field-independent basis, Debye-Ang):
   XX=           -113.9137   YY=           -113.9781   ZZ=           -133.4378
   XY=              0.0000   XZ=             -4.8717   YZ=              0.0000
 Traceless Quadrupole moment (field-independent basis, Debye-Ang):
   XX=              6.5295   YY=              6.4651   ZZ=            -12.9946
   XY=              0.0000   XZ=             -4.8717   YZ=              0.0000
 Octapole moment (field-independent basis, Debye-Ang**2):
  XXX=              0.0000  YYY=             11.7108  ZZZ=              0.0000  XYY=              0.0000
  XXY=             -6.4067  XXZ=              0.0000  XZZ=              0.0000  YZZ=             -7.8695
  YYZ=              0.0000  XYZ=            -16.2862
 Hexadecapole moment (field-independent basis, Debye-Ang**3):
 XXXX=          -4416.4021 YYYY=          -2784.9756 ZZZZ=           -481.5690 XXXY=              0.0001
 XXXZ=           -124.3517 YYYX=             -0.0003 YYYZ=              0.0001 ZZZX=             -4.4782
 ZZZY=              0.0001 XXYY=          -1189.3576 XXZZ=           -942.9016 YYZZ=           -589.4012
 XXYZ=              0.0000 YYXZ=              7.8297 ZZXY=             -0.0001
 N-N= 1.599915627097D+03 E-N=-5.164192587538D+03  KE= 8.428349970566D+02
 Leave Link  601 at Tue Sep 15 12:00:41 2020, MaxMem=   131072000 cpu:         0.8
 (Enter /share/programs/GAUSSIAN/64/g09/l9999.exe)
 1\1\GINC-PLANA\SP\RB3LYP\6-311+G(d,p)\C22H14\AARTIGAS\15-Sep-2020\0\\#
 P rb3lyp/6-311+g** NMR Guess=Read geom=connectivity\\Title\\0,1\C,0,0.
 653241,3.257859,-0.20251\C,0,-0.653243,3.25786,0.20251\C,0,1.372495,2.
 032956,-0.320807\C,0,-1.372495,2.032956,0.320807\C,0,0.722474,0.795666
 ,-0.050388\C,0,-0.722474,0.795667,0.050387\C,0,2.760385,2.053927,-0.67
 4268\C,0,3.508866,0.913916,-0.671362\C,0,2.955226,-0.309622,-0.177479\
 C,0,1.574722,-0.361114,0.197094\H,0,1.183427,4.19574,-0.384599\H,0,-1.
 183429,4.19574,0.384599\H,0,3.206283,3.012423,-0.951392\H,0,4.560023,0
 .932956,-0.969333\C,0,3.78302,-1.443098,0.028309\C,0,1.137427,-1.50753
 3,0.912109\C,0,1.973691,-2.584349,1.138062\C,0,3.301853,-2.571588,0.66
 1177\H,0,4.825754,-1.39123,-0.295484\H,0,0.124652,-1.532788,1.308472\H
 ,0,1.603586,-3.445682,1.698977\H,0,3.952742,-3.433526,0.825134\C,0,-3.
 508866,0.913915,0.671362\C,0,-2.760386,2.053926,0.674268\C,0,-2.955226
 ,-0.309623,0.177479\C,0,-1.574722,-0.361114,-0.197094\C,0,-3.78302,-1.
 443099,-0.028309\C,0,-3.301852,-2.571589,-0.661177\C,0,-1.97369,-2.584
 349,-1.138061\C,0,-1.137426,-1.507534,-0.912109\H,0,-4.560022,0.932954
 ,0.969334\H,0,-3.206283,3.012421,0.951392\H,0,-4.825754,-1.391232,0.29
 5484\H,0,-3.952741,-3.433528,-0.825134\H,0,-1.603585,-3.445682,-1.6989
 76\H,0,-0.124652,-1.532788,-1.308471\Bq,0,0.9503045176,-4.0989634824,2
 .0816604324\Bq,0,1.0411637756,-4.1786449131,2.0816604324\Bq,0,1.141646
 2337,-4.2457851452,2.0816604324\Bq,0,1.2500326094,-4.2992353906,2.0816
 604324\Bq,0,1.3644683816,-4.3380811008,2.0816604324\Bq,0,1.4829955226,
 -4.361657615,2.0816604324\Bq,0,1.603586,-4.3695615325,2.0816604324\Bq,
 0,1.7241764774,-4.361657615,2.0816604324\Bq,0,1.8427036184,-4.33808110
 08,2.0816604324\Bq,0,1.9571393906,-4.2992353906,2.0816604324\Bq,0,2.06
 55257663,-4.2457851452,2.0816604324\Bq,0,2.1660082244,-4.1786449131,2.
 0816604324\Bq,0,2.2568674824,-4.0989634824,2.0816604324\Bq,0,2.3365489
 131,-4.0081042244,2.0816604324\Bq,0,2.4036891452,-3.9076217663,2.08166
 04324\Bq,0,2.4571393906,-3.7992353906,2.0816604324\Bq,0,2.4959851008,-
 3.6847996184,2.0816604324\Bq,0,2.519561615,-3.5662724774,2.0816604324\
 Bq,0,0.7670696963,-2.9627190869,1.9577960451\Bq,0,0.7111868992,-3.0760
 381894,1.9577960451\Bq,0,0.6705732981,-3.195682,1.9577960451\Bq,0,0.64
 59238031,-3.3196033799,1.9577960451\Bq,0,0.6376601737,-3.445682,1.9577
 960451\Bq,0,0.6459238031,-3.5717606201,1.9577960451\Bq,0,0.6705732981,
 -3.695682,1.9577960451\Bq,0,0.7111868992,-3.8153258106,1.9577960451\Bq
 ,0,0.7670696963,-3.9286449131,1.9577960451\Bq,0,0.8372655192,-4.033700
 3863,1.9577960451\Bq,0,0.9205732981,-4.1286947019,1.9577960451\Bq,0,1.
 0155676137,-4.2120024808,1.9577960451\Bq,0,1.1206230869,-4.2821983037,
 1.9577960451\Bq,0,1.2339421894,-4.3380811008,1.9577960451\Bq,0,1.35358
 6,-4.3786947019,1.9577960451\Bq,0,1.4775073799,-4.4033441969,1.9577960
 451\Bq,0,1.603586,-4.4116078263,1.9577960451\Bq,0,1.7296646201,-4.4033
 441969,1.9577960451\Bq,0,1.853586,-4.3786947019,1.9577960451\Bq,0,1.97
 32298106,-4.3380811008,1.9577960451\Bq,0,2.0865489131,-4.2821983037,1.
 9577960451\Bq,0,2.1916043863,-4.2120024808,1.9577960451\Bq,0,2.2865987
 019,-4.1286947019,1.9577960451\Bq,0,2.3699064808,-4.0337003863,1.95779
 60451\Bq,0,2.4401023037,-3.9286449131,1.9577960451\Bq,0,2.4959851008,-
 3.8153258106,1.9577960451\Bq,0,2.5365987019,-3.695682,1.9577960451\Bq,
 0,2.5612481969,-3.5717606201,1.9577960451\Bq,0,0.7449695636,-2.9499595
 693,1.8295031922\Bq,0,0.687610385,-3.0662724774,1.8295031922\Bq,0,0.64
 59238031,-3.1890771877,1.8295031922\Bq,0,0.6206230869,-3.3162724774,1.
 8295031922\Bq,0,0.6121411386,-3.445682,1.8295031922\Bq,0,0.6206230869,
 -3.5750915226,1.8295031922\Bq,0,0.6459238031,-3.7022868123,1.829503192
 2\Bq,0,0.687610385,-3.8250915226,1.8295031922\Bq,0,0.7449695636,-3.941
 4044307,1.8295031922\Bq,0,0.8170199075,-4.0492353906,1.8295031922\Bq,0
 ,0.9025286154,-4.1467393846,1.8295031922\Bq,0,1.0000326094,-4.23224809
 25,1.8295031922\Bq,0,1.1078635693,-4.3042984364,1.8295031922\Bq,0,1.22
 41764774,-4.361657615,1.8295031922\Bq,0,1.3469811877,-4.4033441969,1.8
 295031922\Bq,0,1.4741764774,-4.4286449131,1.8295031922\Bq,0,1.603586,-
 4.4371268614,1.8295031922\Bq,0,1.7329955226,-4.4286449131,1.8295031922
 \Bq,0,1.8601908123,-4.4033441969,1.8295031922\Bq,0,1.9829955226,-4.361
 657615,1.8295031922\Bq,0,2.0993084307,-4.3042984364,1.8295031922\Bq,0,
 2.2071393906,-4.2322480925,1.8295031922\Bq,0,2.3046433846,-4.146739384
 6,1.8295031922\Bq,0,2.3901520925,-4.0492353906,1.8295031922\Bq,0,2.462
 2024364,-3.9414044307,1.8295031922\Bq,0,2.519561615,-3.8250915226,1.82
 95031922\Bq,0,2.5612481969,-3.7022868123,1.8295031922\Bq,0,0.679706467
 5,-3.0629985676,1.698977\Bq,0,0.6376601737,-3.1868629549,1.698977\Bq,0
 ,0.6121411386,-3.3151558078,1.698977\Bq,0,0.603586,-3.445682,1.698977\
 Bq,0,0.6121411386,-3.5762081922,1.698977\Bq,0,0.6376601737,-3.70450104
 51,1.698977\Bq,0,0.6797064675,-3.8283654324,1.698977\Bq,0,0.7375605962
 ,-3.945682,1.698977\Bq,0,0.8102326597,-4.054443429,1.698977\Bq,0,0.896
 4792188,-4.1527887812,1.698977\Bq,0,0.994824571,-4.2390353403,1.698977
 \Bq,0,1.103586,-4.3117074038,1.698977\Bq,0,1.2209025676,-4.3695615325,
 1.698977\Bq,0,1.3447669549,-4.4116078263,1.698977\Bq,0,1.4730598078,-4
 .4371268614,1.698977\Bq,0,1.603586,-4.445682,1.698977\Bq,0,1.734112192
 2,-4.4371268614,1.698977\Bq,0,1.8624050451,-4.4116078263,1.698977\Bq,0
 ,1.9862694324,-4.3695615325,1.698977\Bq,0,2.103586,-4.3117074038,1.698
 977\Bq,0,2.212347429,-4.2390353403,1.698977\Bq,0,2.3106927812,-4.15278
 87812,1.698977\Bq,0,2.3969393403,-4.054443429,1.698977\Bq,0,2.46961140
 38,-3.945682,1.698977\Bq,0,2.5274655325,-3.8283654324,1.698977\Bq,0,0.
 687610385,-3.0662724774,1.5684508078\Bq,0,0.6459238031,-3.1890771877,1
 .5684508078\Bq,0,0.6206230869,-3.3162724774,1.5684508078\Bq,0,0.612141
 1386,-3.445682,1.5684508078\Bq,0,0.6206230869,-3.5750915226,1.56845080
 78\Bq,0,0.6459238031,-3.7022868123,1.5684508078\Bq,0,0.687610385,-3.82
 50915226,1.5684508078\Bq,0,0.7449695636,-3.9414044307,1.5684508078\Bq,
 0,0.8170199075,-4.0492353906,1.5684508078\Bq,0,0.9025286154,-4.1467393
 846,1.5684508078\Bq,0,1.0000326094,-4.2322480925,1.5684508078\Bq,0,1.1
 078635693,-4.3042984364,1.5684508078\Bq,0,1.2241764774,-4.361657615,1.
 5684508078\Bq,0,1.3469811877,-4.4033441969,1.5684508078\Bq,0,1.4741764
 774,-4.4286449131,1.5684508078\Bq,0,1.603586,-4.4371268614,1.568450807
 8\Bq,0,1.7329955226,-4.4286449131,1.5684508078\Bq,0,1.8601908123,-4.40
 33441969,1.5684508078\Bq,0,1.9829955226,-4.361657615,1.5684508078\Bq,0
 ,2.0993084307,-4.3042984364,1.5684508078\Bq,0,2.2071393906,-4.23224809
 25,1.5684508078\Bq,0,2.3046433846,-4.1467393846,1.5684508078\Bq,0,2.39
 01520925,-4.0492353906,1.5684508078\Bq,0,2.4622024364,-3.9414044307,1.
 5684508078\Bq,0,0.6705732981,-3.195682,1.4401579549\Bq,0,0.6459238031,
 -3.3196033799,1.4401579549\Bq,0,0.6376601737,-3.445682,1.4401579549\Bq
 ,0,0.6459238031,-3.5717606201,1.4401579549\Bq,0,0.6705732981,-3.695682
 ,1.4401579549\Bq,0,0.7111868992,-3.8153258106,1.4401579549\Bq,0,0.7670
 696963,-3.9286449131,1.4401579549\Bq,0,0.8372655192,-4.0337003863,1.44
 01579549\Bq,0,0.9205732981,-4.1286947019,1.4401579549\Bq,0,1.015567613
 7,-4.2120024808,1.4401579549\Bq,0,1.1206230869,-4.2821983037,1.4401579
 549\Bq,0,1.2339421894,-4.3380811008,1.4401579549\Bq,0,1.353586,-4.3786
 947019,1.4401579549\Bq,0,1.4775073799,-4.4033441969,1.4401579549\Bq,0,
 1.603586,-4.4116078263,1.4401579549\Bq,0,1.7296646201,-4.4033441969,1.
 4401579549\Bq,0,1.853586,-4.3786947019,1.4401579549\Bq,0,1.9732298106,
 -4.3380811008,1.4401579549\Bq,0,2.0865489131,-4.2821983037,1.440157954
 9\Bq,0,2.1916043863,-4.2120024808,1.4401579549\Bq,0,2.2865987019,-4.12
 86947019,1.4401579549\Bq,0,2.3699064808,-4.0337003863,1.4401579549\Bq,
 0,2.4401023037,-3.9286449131,1.4401579549\Bq,0,0.7111868992,-3.2065643
 816,1.3162935676\Bq,0,0.687610385,-3.3250915226,1.3162935676\Bq,0,0.67
 97064675,-3.445682,1.3162935676\Bq,0,0.687610385,-3.5662724774,1.31629
 35676\Bq,0,0.7111868992,-3.6847996184,1.3162935676\Bq,0,0.7500326094,-
 3.7992353906,1.3162935676\Bq,0,0.8034828548,-3.9076217663,1.3162935676
 \Bq,0,0.8706230869,-4.0081042244,1.3162935676\Bq,0,0.9503045176,-4.098
 9634824,1.3162935676\Bq,0,1.0411637756,-4.1786449131,1.3162935676\Bq,0
 ,1.1416462337,-4.2457851452,1.3162935676\Bq,0,1.2500326094,-4.29923539
 06,1.3162935676\Bq,0,1.3644683816,-4.3380811008,1.3162935676\Bq,0,1.48
 29955226,-4.361657615,1.3162935676\Bq,0,1.603586,-4.3695615325,1.31629
 35676\Bq,0,1.7241764774,-4.361657615,1.3162935676\Bq,0,1.8427036184,-4
 .3380811008,1.3162935676\Bq,0,1.9571393906,-4.2992353906,1.3162935676\
 Bq,0,2.0655257663,-4.2457851452,1.3162935676\Bq,0,2.1660082244,-4.1786
 449131,1.3162935676\Bq,0,2.2568674824,-4.0989634824,1.3162935676\Bq,0,
 2.3365489131,-4.0081042244,1.3162935676\Bq,0,0.7670696963,-3.221538132
 ,1.198977\Bq,0,0.7449695636,-3.3326430017,1.198977\Bq,0,0.7375605962,-
 3.445682,1.198977\Bq,0,0.7449695636,-3.5587209983,1.198977\Bq,0,0.7670
 696963,-3.669825868,1.198977\Bq,0,0.8034828548,-3.777095574,1.198977\B
 q,0,0.853586,-3.8786947019,1.198977\Bq,0,0.9165218531,-3.9728848624,1.
 198977\Bq,0,0.9912135643,-4.0580544357,1.198977\Bq,0,1.0763831376,-4.1
 327461469,1.198977\Bq,0,1.1705732981,-4.195682,1.198977\Bq,0,1.2721724
 26,-4.2457851452,1.198977\Bq,0,1.379442132,-4.2821983037,1.198977\Bq,0
 ,1.4905470017,-4.3042984364,1.198977\Bq,0,1.603586,-4.3117074038,1.198
 977\Bq,0,1.7166249983,-4.3042984364,1.198977\Bq,0,1.827729868,-4.28219
 83037,1.198977\Bq,0,1.934999574,-4.2457851452,1.198977\Bq,0,2.03659870
 19,-4.195682,1.198977\Bq,0,2.1307888624,-4.1327461469,1.198977\Bq,0,2.
 2159584357,-4.0580544357,1.198977\Bq,0,2.2906501469,-3.9728848624,1.19
 8977\Bq,0,0.8372655192,-3.240347046,1.090215571\Bq,0,0.8170199075,-3.3
 421286094,1.090215571\Bq,0,0.8102326597,-3.445682,1.090215571\Bq,0,0.8
 170199075,-3.5492353906,1.090215571\Bq,0,0.8372655192,-3.651016954,1.0
 90215571\Bq,0,0.8706230869,-3.7492851793,1.090215571\Bq,0,0.9165218531
 ,-3.8423586701,1.090215571\Bq,0,0.9741764774,-3.9286449131,1.090215571
 \Bq,0,1.0426004732,-4.0066675268,1.090215571\Bq,0,1.1206230869,-4.0750
 915226,1.090215571\Bq,0,1.2069093299,-4.1327461469,1.090215571\\Versio
 n=ES64L-G09RevD.01\HF=-847.0037387\RMSD=4.169e-09\Dipole=0.0000004,0.0
 287843,0.0000009\Quadrupole=4.8545288,4.8066247,-9.6611535,-0.0000047,
 -3.6219991,-0.000002\PG=C01 [X(C22H14)]\\@


 THERE IS NO CURE FOR BIRTH AND DEATH SAVE TO ENJOY THE INTERVAL.

                               -- GEORGE SANTAYANA
 Job cpu time:       0 days  1 hours 21 minutes 31.6 seconds.
 File lengths (MBytes):  RWF=    184 Int=      0 D2E=      0 Chk=     21 Scr=      1
 Normal termination of Gaussian 09 at Tue Sep 15 12:00:41 2020.
