 Entering Gaussian System, Link 0=g09
 Input=input_batch_06200.com
 Output=input_batch_06200.log
 Initial command:
 /share/programs/GAUSSIAN/64/g09/l1.exe "/scratch/aartigas.38846/Gau-3549491.inp" -scrdir="/scratch/aartigas.38846/"
 Entering Link 1 = /share/programs/GAUSSIAN/64/g09/l1.exe PID=   3549492.
  
 Copyright (c) 1988,1990,1992,1993,1995,1998,2003,2009,2013,
            Gaussian, Inc.  All Rights Reserved.
  
 This is part of the Gaussian(R) 09 program.  It is based on
 the Gaussian(R) 03 system (copyright 2003, Gaussian, Inc.),
 the Gaussian(R) 98 system (copyright 1998, Gaussian, Inc.),
 the Gaussian(R) 94 system (copyright 1995, Gaussian, Inc.),
 the Gaussian 92(TM) system (copyright 1992, Gaussian, Inc.),
 the Gaussian 90(TM) system (copyright 1990, Gaussian, Inc.),
 the Gaussian 88(TM) system (copyright 1988, Gaussian, Inc.),
 the Gaussian 86(TM) system (copyright 1986, Carnegie Mellon
 University), and the Gaussian 82(TM) system (copyright 1983,
 Carnegie Mellon University). Gaussian is a federally registered
 trademark of Gaussian, Inc.
  
 This software contains proprietary and confidential information,
 including trade secrets, belonging to Gaussian, Inc.
  
 This software is provided under written license and may be
 used, copied, transmitted, or stored only in accord with that
 written license.
  
 The following legend is applicable only to US Government
 contracts under FAR:
  
                    RESTRICTED RIGHTS LEGEND
  
 Use, reproduction and disclosure by the US Government is
 subject to restrictions as set forth in subparagraphs (a)
 and (c) of the Commercial Computer Software - Restricted
 Rights clause in FAR 52.227-19.
  
 Gaussian, Inc.
 340 Quinnipiac St., Bldg. 40, Wallingford CT 06492
  
  
 ---------------------------------------------------------------
 Warning -- This program may not be used in any manner that
 competes with the business of Gaussian, Inc. or will provide
 assistance to any competitor of Gaussian, Inc.  The licensee
 of this program is prohibited from giving any competitor of
 Gaussian, Inc. access to this program.  By using this program,
 the user acknowledges that Gaussian, Inc. is engaged in the
 business of creating and licensing software in the field of
 computational chemistry and represents and warrants to the
 licensee that it is not a competitor of Gaussian, Inc. and that
 it will not use this program in any manner prohibited above.
 ---------------------------------------------------------------
  

 Cite this work as:
 Gaussian 09, Revision D.01,
 M. J. Frisch, G. W. Trucks, H. B. Schlegel, G. E. Scuseria, 
 M. A. Robb, J. R. Cheeseman, G. Scalmani, V. Barone, B. Mennucci, 
 G. A. Petersson, H. Nakatsuji, M. Caricato, X. Li, H. P. Hratchian, 
 A. F. Izmaylov, J. Bloino, G. Zheng, J. L. Sonnenberg, M. Hada, 
 M. Ehara, K. Toyota, R. Fukuda, J. Hasegawa, M. Ishida, T. Nakajima, 
 Y. Honda, O. Kitao, H. Nakai, T. Vreven, J. A. Montgomery, Jr., 
 J. E. Peralta, F. Ogliaro, M. Bearpark, J. J. Heyd, E. Brothers, 
 K. N. Kudin, V. N. Staroverov, T. Keith, R. Kobayashi, J. Normand, 
 K. Raghavachari, A. Rendell, J. C. Burant, S. S. Iyengar, J. Tomasi, 
 M. Cossi, N. Rega, J. M. Millam, M. Klene, J. E. Knox, J. B. Cross, 
 V. Bakken, C. Adamo, J. Jaramillo, R. Gomperts, R. E. Stratmann, 
 O. Yazyev, A. J. Austin, R. Cammi, C. Pomelli, J. W. Ochterski, 
 R. L. Martin, K. Morokuma, V. G. Zakrzewski, G. A. Voth, 
 P. Salvador, J. J. Dannenberg, S. Dapprich, A. D. Daniels, 
 O. Farkas, J. B. Foresman, J. V. Ortiz, J. Cioslowski, 
 and D. J. Fox, Gaussian, Inc., Wallingford CT, 2013.
 
 ******************************************
 Gaussian 09:  ES64L-G09RevD.01 24-Apr-2013
                15-Sep-2020 
 ******************************************
 %OldChk=/home/aartigas/chk/5_helicene_spe.chk
 %nproc=8
 Will use up to    8 processors via shared memory.
 %mem=1000MB
 Copying data from "/home/aartigas/chk/5_helicene_spe.chk" to current chk file "/scratch/aartigas.38846/Gau-3549492.chk".
 ----------------------------------------------------
 #P rb3lyp/6-311+g** NMR Guess=Read geom=connectivity
 ----------------------------------------------------
 1/38=1,57=2/1;
 2/12=2,17=6,18=5,40=1/2;
 3/5=4,6=6,7=111,11=2,16=1,25=1,30=1,74=-5,116=1/1,2,8,3;
 4/5=1/1;
 5/5=2,38=6/2;
 8/6=1,10=90,11=11/1;
 10/13=100,45=16/2;
 6/7=2,8=2,9=2,10=2,28=1/1;
 99/9=1/99;
 Leave Link    1 at Tue Sep 15 11:02:02 2020, MaxMem=   131072000 cpu:         0.3
 (Enter /share/programs/GAUSSIAN/64/g09/l101.exe)
 -----
 Title
 -----
 Symbolic Z-matrix:
 Charge =  0 Multiplicity = 1
 C                     0.65324   3.25786  -0.20251 
 C                    -0.65324   3.25786   0.20251 
 C                     1.3725    2.03296  -0.32081 
 C                    -1.3725    2.03296   0.32081 
 C                     0.72247   0.79567  -0.05039 
 C                    -0.72247   0.79567   0.05039 
 C                     2.76039   2.05393  -0.67427 
 C                     3.50887   0.91392  -0.67136 
 C                     2.95523  -0.30962  -0.17748 
 C                     1.57472  -0.36111   0.19709 
 H                     1.18343   4.19574  -0.3846 
 H                    -1.18343   4.19574   0.3846 
 H                     3.20628   3.01242  -0.95139 
 H                     4.56002   0.93296  -0.96933 
 C                     3.78302  -1.4431    0.02831 
 C                     1.13743  -1.50753   0.91211 
 C                     1.97369  -2.58435   1.13806 
 C                     3.30185  -2.57159   0.66118 
 H                     4.82575  -1.39123  -0.29548 
 H                     0.12465  -1.53279   1.30847 
 H                     1.60359  -3.44568   1.69898 
 H                     3.95274  -3.43353   0.82513 
 C                    -3.50887   0.91392   0.67136 
 C                    -2.76039   2.05393   0.67427 
 C                    -2.95523  -0.30962   0.17748 
 C                    -1.57472  -0.36111  -0.19709 
 C                    -3.78302  -1.4431   -0.02831 
 C                    -3.30185  -2.57159  -0.66118 
 C                    -1.97369  -2.58435  -1.13806 
 C                    -1.13743  -1.50753  -0.91211 
 H                    -4.56002   0.93295   0.96933 
 H                    -3.20628   3.01242   0.95139 
 H                    -4.82575  -1.39123   0.29548 
 H                    -3.95274  -3.43353  -0.82513 
 H                    -1.60359  -3.44568  -1.69898 
 H                    -0.12465  -1.53279  -1.30847 
 Bq                   -1.55307   4.29479   1.30848 
 Bq                   -1.56284   4.24569   1.30848 
 Bq                   -1.56611   4.19574   1.30848 
 Bq                   -1.56284   4.14579   1.30848 
 Bq                   -1.55307   4.09669   1.30848 
 Bq                   -1.53698   4.04929   1.30848 
 Bq                   -1.51484   4.0044    1.30848 
 Bq                   -1.48703   3.96278   1.30848 
 Bq                   -1.45403   3.92514   1.30848 
 Bq                   -1.41639   3.89214   1.30848 
 Bq                   -1.37477   3.86433   1.30848 
 Bq                   -1.32988   3.84219   1.30848 
 Bq                   -1.28247   3.8261    1.30848 
 Bq                   -1.23338   3.81633   1.30848 
 Bq                   -1.18343   3.81306   1.30848 
 Bq                   -1.13348   3.81633   1.30848 
 Bq                   -1.08438   3.8261    1.30848 
 Bq                   -1.03698   3.84219   1.30848 
 Bq                   -0.99209   3.86433   1.30848 
 Bq                   -0.95047   3.89214   1.30848 
 Bq                   -0.91283   3.92514   1.30848 
 Bq                   -0.87983   3.96278   1.30848 
 Bq                   -0.85202   4.0044    1.30848 
 Bq                   -0.82988   4.04929   1.30848 
 Bq                   -0.81379   4.09669   1.30848 
 Bq                   -0.80402   4.14579   1.30848 
 Bq                   -0.68343   4.19574   1.25062 
 Bq                   -0.68771   4.261     1.25062 
 Bq                   -0.70047   4.32515   1.25062 
 Bq                   -0.72149   4.38708   1.25062 
 Bq                   -0.75042   4.44574   1.25062 
 Bq                   -0.78675   4.50012   1.25062 
 Bq                   -0.82988   4.54929   1.25062 
 Bq                   -0.87905   4.59242   1.25062 
 Bq                   -0.93343   4.62875   1.25062 
 Bq                   -0.99209   4.65768   1.25062 
 Bq                   -1.05402   4.6787    1.25062 
 Bq                   -1.11817   4.69146   1.25062 
 Bq                   -1.18343   4.69574   1.25062 
 Bq                   -1.24869   4.69146   1.25062 
 Bq                   -1.31284   4.6787    1.25062 
 Bq                   -1.37477   4.65768   1.25062 
 Bq                   -1.43343   4.62875   1.25062 
 Bq                   -1.48781   4.59242   1.25062 
 Bq                   -1.53698   4.54929   1.25062 
 Bq                   -1.58011   4.50012   1.25062 
 Bq                   -1.61644   4.44574   1.25062 
 Bq                   -1.64537   4.38708   1.25062 
 Bq                   -1.66639   4.32515   1.25062 
 Bq                   -1.67915   4.261     1.25062 
 Bq                   -1.68343   4.19574   1.25062 
 Bq                   -1.67915   4.13048   1.25062 
 Bq                   -1.66639   4.06633   1.25062 
 Bq                   -1.64537   4.0044    1.25062 
 Bq                   -1.61644   3.94574   1.25062 
 Bq                   -1.58011   3.89136   1.25062 
 Bq                   -1.53698   3.84219   1.25062 
 Bq                   -1.48781   3.79906   1.25062 
 Bq                   -1.43343   3.76273   1.25062 
 Bq                   -1.37477   3.7338    1.25062 
 Bq                   -1.31284   3.71278   1.25062 
 Bq                   -1.24869   3.70002   1.25062 
 Bq                   -1.18343   3.69574   1.25062 
 Bq                   -1.11817   3.70002   1.25062 
 Bq                   -1.05402   3.71278   1.25062 
 Bq                   -0.99209   3.7338    1.25062 
 Bq                   -0.93343   3.76273   1.25062 
 Bq                   -0.87905   3.79906   1.25062 
 Bq                   -0.82988   3.84219   1.25062 
 Bq                   -0.78675   3.89136   1.25062 
 Bq                   -0.75042   3.94574   1.25062 
 Bq                   -0.72149   4.0044    1.25062 
 Bq                   -0.70047   4.06633   1.25062 
 Bq                   -0.68771   4.13048   1.25062 
 Bq                   -0.57467   4.19574   1.17795 
 Bq                   -0.57988   4.2752    1.17795 
 Bq                   -0.59541   4.3533    1.17795 
 Bq                   -0.62101   4.4287    1.17795 
 Bq                   -0.65623   4.50012   1.17795 
 Bq                   -0.70047   4.56633   1.17795 
 Bq                   -0.75297   4.6262    1.17795 
 Bq                   -0.81284   4.6787    1.17795 
 Bq                   -0.87905   4.72294   1.17795 
 Bq                   -0.95047   4.75816   1.17795 
 Bq                   -1.02587   4.78376   1.17795 
 Bq                   -1.10397   4.79929   1.17795 
 Bq                   -1.18343   4.8045    1.17795 
 Bq                   -1.26289   4.79929   1.17795 
 Bq                   -1.34099   4.78376   1.17795 
 Bq                   -1.41639   4.75816   1.17795 
 Bq                   -1.48781   4.72294   1.17795 
 Bq                   -1.55402   4.6787    1.17795 
 Bq                   -1.61389   4.6262    1.17795 
 Bq                   -1.66639   4.56633   1.17795 
 Bq                   -1.71063   4.50012   1.17795 
 Bq                   -1.74585   4.4287    1.17795 
 Bq                   -1.77145   4.3533    1.17795 
 Bq                   -1.78698   4.2752    1.17795 
 Bq                   -1.79219   4.19574   1.17795 
 Bq                   -1.78698   4.11628   1.17795 
 Bq                   -1.77145   4.03818   1.17795 
 Bq                   -1.74585   3.96278   1.17795 
 Bq                   -1.71063   3.89136   1.17795 
 Bq                   -1.66639   3.82515   1.17795 
 Bq                   -1.61389   3.76528   1.17795 
 Bq                   -1.55402   3.71278   1.17795 
 Bq                   -1.48781   3.66854   1.17795 
 Bq                   -1.41639   3.63332   1.17795 
 Bq                   -1.34099   3.60772   1.17795 
 Bq                   -1.26289   3.59219   1.17795 
 Bq                   -1.18343   3.58698   1.17795 
 Bq                   -1.10397   3.59219   1.17795 
 Bq                   -1.02587   3.60772   1.17795 
 Bq                   -0.95047   3.63332   1.17795 
 Bq                   -0.87905   3.66854   1.17795 
 Bq                   -0.81284   3.71278   1.17795 
 Bq                   -0.75297   3.76528   1.17795 
 Bq                   -0.70047   3.82515   1.17795 
 Bq                   -0.65623   3.89136   1.17795 
 Bq                   -0.62101   3.96278   1.17795 
 Bq                   -0.59541   4.03818   1.17795 
 Bq                   -0.57988   4.11628   1.17795 
 Bq                   -0.47632   4.19574   1.09171 
 Bq                   -0.48237   4.28804   1.09171 
 Bq                   -0.50042   4.37875   1.09171 
 Bq                   -0.53015   4.46634   1.09171 
 Bq                   -0.57106   4.54929   1.09171 
 Bq                   -0.62244   4.6262    1.09171 
 Bq                   -0.68343   4.69574   1.09171 
 Bq                   -0.75297   4.75673   1.09171 
 Bq                   -0.82988   4.80811   1.09171 
 Bq                   -0.91283   4.84902   1.09171 
 Bq                   -1.00042   4.87875   1.09171 
 Bq                   -1.09113   4.8968    1.09171 
 Bq                   -1.18343   4.90285   1.09171 
 Bq                   -1.27572   4.8968    1.09171 
 Bq                   -1.36644   4.87875   1.09171 
 Bq                   -1.45403   4.84902   1.09171 
 Bq                   -1.53698   4.80811   1.09171 
 Bq                   -1.61389   4.75673   1.09171 
 Bq                   -1.68343   4.69574   1.09171 
 Bq                   -1.74441   4.6262    1.09171 
 Bq                   -1.7958    4.54929   1.09171 
 Bq                   -1.83671   4.46634   1.09171 
 Bq                   -1.86644   4.37875   1.09171 
 Bq                   -1.88449   4.28804   1.09171 
 Bq                   -1.89054   4.19574   1.09171 
 Bq                   -1.88449   4.10344   1.09171 
 Bq                   -1.86644   4.01273   1.09171 
 Bq                   -1.83671   3.92514   1.09171 
 Bq                   -1.7958    3.84219   1.09171 
 Bq                   -1.74441   3.76528   1.09171 
 Bq                   -1.18343   3.48863   1.09171 
 Bq                   -1.09113   3.49468   1.09171 
 Bq                   -0.62244   3.76528   1.09171 
 Bq                   -0.57106   3.84219   1.09171 
 Bq                   -0.53015   3.92514   1.09171 
 Bq                   -0.50042   4.01273   1.09171 
 Bq                   -0.48237   4.10344   1.09171 
 Bq                   -0.39008   4.19574   0.99336 
 Bq                   -0.39686   4.29929   0.99336 
 Bq                   -0.41711   4.40107   0.99336 
 Bq                   -0.45047   4.49934   0.99336 
 Bq                   -0.49636   4.59242   0.99336 
 Bq                   -0.55402   4.6787    0.99336 
 Bq                   -0.62244   4.75673   0.99336 
 Bq                   -0.70047   4.82515   0.99336 
 Bq                   -0.78675   4.8828    0.99336 
 Bq                   -0.87983   4.9287    0.99336 
 Bq                   -0.97809   4.96206   0.99336 
 Bq                   -1.07988   4.98231   0.99336 
 Bq                   -1.18343   4.98909   0.99336 
 Bq                   -1.28698   4.98231   0.99336 
 Bq                   -1.38876   4.96206   0.99336 
 Bq                   -1.48703   4.9287    0.99336 
 Bq                   -1.58011   4.8828    0.99336 
 Bq                   -1.66639   4.82515   0.99336 
 Bq                   -1.74441   4.75673   0.99336 
 Bq                   -1.81284   4.6787    0.99336 
 Bq                   -1.87049   4.59242   0.99336 
 Bq                   -1.91639   4.49934   0.99336 
 Bq                   -1.94975   4.40107   0.99336 
 Bq                   -1.97      4.29929   0.99336 
 Bq                   -1.97678   4.19574   0.99336 
 Bq                   -1.97      4.09219   0.99336 
 Bq                   -1.94975   3.99041   0.99336 
 Bq                   -1.91639   3.89214   0.99336 
 Bq                   -1.87049   3.79906   0.99336 
 Bq                   -0.45047   3.89214   0.99336 
 Bq                   -0.41711   3.99041   0.99336 
 Bq                   -0.39686   4.09219   0.99336 
 Bq                   -0.3174    4.19574   0.8846 
 Bq                   -0.32481   4.30878   0.8846 
 Bq                   -0.34691   4.41988   0.8846 
 Bq                   -0.38333   4.52715   0.8846 
 Bq                   -0.43343   4.62875   0.8846 
 Bq                   -0.49636   4.72294   0.8846 
 Bq                   -0.57106   4.80811   0.8846 
 Bq                   -0.65623   4.8828    0.8846 
 Bq                   -0.75042   4.94574   0.8846 
 
 NAtoms=    236 NQM=      236 NQMF=       0 NMMI=      0 NMMIF=      0
                NMic=       0 NMicF=      0.
                    Isotopes and Nuclear Properties:
 (Nuclear quadrupole moments (NQMom) in fm**2, nuclear magnetic moments (NMagM)
  in nuclear magnetons)

  Atom         1           2           3           4           5           6           7           8           9          10
 IAtWgt=          12          12          12          12          12          12          12          12          12          12
 AtmWgt=  12.0000000  12.0000000  12.0000000  12.0000000  12.0000000  12.0000000  12.0000000  12.0000000  12.0000000  12.0000000
 NucSpn=           0           0           0           0           0           0           0           0           0           0
 AtZEff=   0.0000000   0.0000000   0.0000000   0.0000000   0.0000000   0.0000000   0.0000000   0.0000000   0.0000000   0.0000000
 NQMom=    0.0000000   0.0000000   0.0000000   0.0000000   0.0000000   0.0000000   0.0000000   0.0000000   0.0000000   0.0000000
 NMagM=    0.0000000   0.0000000   0.0000000   0.0000000   0.0000000   0.0000000   0.0000000   0.0000000   0.0000000   0.0000000
 AtZNuc=   6.0000000   6.0000000   6.0000000   6.0000000   6.0000000   6.0000000   6.0000000   6.0000000   6.0000000   6.0000000

  Atom        11          12          13          14          15          16          17          18          19          20
 IAtWgt=           1           1           1           1          12          12          12          12           1           1
 AtmWgt=   1.0078250   1.0078250   1.0078250   1.0078250  12.0000000  12.0000000  12.0000000  12.0000000   1.0078250   1.0078250
 NucSpn=           1           1           1           1           0           0           0           0           1           1
 AtZEff=   0.0000000   0.0000000   0.0000000   0.0000000   0.0000000   0.0000000   0.0000000   0.0000000   0.0000000   0.0000000
 NQMom=    0.0000000   0.0000000   0.0000000   0.0000000   0.0000000   0.0000000   0.0000000   0.0000000   0.0000000   0.0000000
 NMagM=    2.7928460   2.7928460   2.7928460   2.7928460   0.0000000   0.0000000   0.0000000   0.0000000   2.7928460   2.7928460
 AtZNuc=   1.0000000   1.0000000   1.0000000   1.0000000   6.0000000   6.0000000   6.0000000   6.0000000   1.0000000   1.0000000

  Atom        21          22          23          24          25          26          27          28          29          30
 IAtWgt=           1           1          12          12          12          12          12          12          12          12
 AtmWgt=   1.0078250   1.0078250  12.0000000  12.0000000  12.0000000  12.0000000  12.0000000  12.0000000  12.0000000  12.0000000
 NucSpn=           1           1           0           0           0           0           0           0           0           0
 AtZEff=   0.0000000   0.0000000   0.0000000   0.0000000   0.0000000   0.0000000   0.0000000   0.0000000   0.0000000   0.0000000
 NQMom=    0.0000000   0.0000000   0.0000000   0.0000000   0.0000000   0.0000000   0.0000000   0.0000000   0.0000000   0.0000000
 NMagM=    2.7928460   2.7928460   0.0000000   0.0000000   0.0000000   0.0000000   0.0000000   0.0000000   0.0000000   0.0000000
 AtZNuc=   1.0000000   1.0000000   6.0000000   6.0000000   6.0000000   6.0000000   6.0000000   6.0000000   6.0000000   6.0000000

  Atom        31          32          33          34          35          36          37          38          39          40
 IAtWgt=           1           1           1           1           1           1           0           0           0           0
 AtmWgt=   1.0078250   1.0078250   1.0078250   1.0078250   1.0078250   1.0078250   0.0000000   0.0000000   0.0000000   0.0000000
 NucSpn=           1           1           1           1           1           1           0           0           0           0
 AtZEff=   0.0000000   0.0000000   0.0000000   0.0000000   0.0000000   0.0000000   0.0000000   0.0000000   0.0000000   0.0000000
 NQMom=    0.0000000   0.0000000   0.0000000   0.0000000   0.0000000   0.0000000   0.0000000   0.0000000   0.0000000   0.0000000
 NMagM=    2.7928460   2.7928460   2.7928460   2.7928460   2.7928460   2.7928460   0.0000000   0.0000000   0.0000000   0.0000000
 AtZNuc=   1.0000000   1.0000000   1.0000000   1.0000000   1.0000000   1.0000000   0.0000000   0.0000000   0.0000000   0.0000000

  Atom        41          42          43          44          45          46          47          48          49          50
 IAtWgt=           0           0           0           0           0           0           0           0           0           0
 AtmWgt=   0.0000000   0.0000000   0.0000000   0.0000000   0.0000000   0.0000000   0.0000000   0.0000000   0.0000000   0.0000000
 NucSpn=           0           0           0           0           0           0           0           0           0           0
 AtZEff=   0.0000000   0.0000000   0.0000000   0.0000000   0.0000000   0.0000000   0.0000000   0.0000000   0.0000000   0.0000000
 NQMom=    0.0000000   0.0000000   0.0000000   0.0000000   0.0000000   0.0000000   0.0000000   0.0000000   0.0000000   0.0000000
 NMagM=    0.0000000   0.0000000   0.0000000   0.0000000   0.0000000   0.0000000   0.0000000   0.0000000   0.0000000   0.0000000
 AtZNuc=   0.0000000   0.0000000   0.0000000   0.0000000   0.0000000   0.0000000   0.0000000   0.0000000   0.0000000   0.0000000

  Atom        51          52          53          54          55          56          57          58          59          60
 IAtWgt=           0           0           0           0           0           0           0           0           0           0
 AtmWgt=   0.0000000   0.0000000   0.0000000   0.0000000   0.0000000   0.0000000   0.0000000   0.0000000   0.0000000   0.0000000
 NucSpn=           0           0           0           0           0           0           0           0           0           0
 AtZEff=   0.0000000   0.0000000   0.0000000   0.0000000   0.0000000   0.0000000   0.0000000   0.0000000   0.0000000   0.0000000
 NQMom=    0.0000000   0.0000000   0.0000000   0.0000000   0.0000000   0.0000000   0.0000000   0.0000000   0.0000000   0.0000000
 NMagM=    0.0000000   0.0000000   0.0000000   0.0000000   0.0000000   0.0000000   0.0000000   0.0000000   0.0000000   0.0000000
 AtZNuc=   0.0000000   0.0000000   0.0000000   0.0000000   0.0000000   0.0000000   0.0000000   0.0000000   0.0000000   0.0000000

  Atom        61          62          63          64          65          66          67          68          69          70
 IAtWgt=           0           0           0           0           0           0           0           0           0           0
 AtmWgt=   0.0000000   0.0000000   0.0000000   0.0000000   0.0000000   0.0000000   0.0000000   0.0000000   0.0000000   0.0000000
 NucSpn=           0           0           0           0           0           0           0           0           0           0
 AtZEff=   0.0000000   0.0000000   0.0000000   0.0000000   0.0000000   0.0000000   0.0000000   0.0000000   0.0000000   0.0000000
 NQMom=    0.0000000   0.0000000   0.0000000   0.0000000   0.0000000   0.0000000   0.0000000   0.0000000   0.0000000   0.0000000
 NMagM=    0.0000000   0.0000000   0.0000000   0.0000000   0.0000000   0.0000000   0.0000000   0.0000000   0.0000000   0.0000000
 AtZNuc=   0.0000000   0.0000000   0.0000000   0.0000000   0.0000000   0.0000000   0.0000000   0.0000000   0.0000000   0.0000000

  Atom        71          72          73          74          75          76          77          78          79          80
 IAtWgt=           0           0           0           0           0           0           0           0           0           0
 AtmWgt=   0.0000000   0.0000000   0.0000000   0.0000000   0.0000000   0.0000000   0.0000000   0.0000000   0.0000000   0.0000000
 NucSpn=           0           0           0           0           0           0           0           0           0           0
 AtZEff=   0.0000000   0.0000000   0.0000000   0.0000000   0.0000000   0.0000000   0.0000000   0.0000000   0.0000000   0.0000000
 NQMom=    0.0000000   0.0000000   0.0000000   0.0000000   0.0000000   0.0000000   0.0000000   0.0000000   0.0000000   0.0000000
 NMagM=    0.0000000   0.0000000   0.0000000   0.0000000   0.0000000   0.0000000   0.0000000   0.0000000   0.0000000   0.0000000
 AtZNuc=   0.0000000   0.0000000   0.0000000   0.0000000   0.0000000   0.0000000   0.0000000   0.0000000   0.0000000   0.0000000

  Atom        81          82          83          84          85          86          87          88          89          90
 IAtWgt=           0           0           0           0           0           0           0           0           0           0
 AtmWgt=   0.0000000   0.0000000   0.0000000   0.0000000   0.0000000   0.0000000   0.0000000   0.0000000   0.0000000   0.0000000
 NucSpn=           0           0           0           0           0           0           0           0           0           0
 AtZEff=   0.0000000   0.0000000   0.0000000   0.0000000   0.0000000   0.0000000   0.0000000   0.0000000   0.0000000   0.0000000
 NQMom=    0.0000000   0.0000000   0.0000000   0.0000000   0.0000000   0.0000000   0.0000000   0.0000000   0.0000000   0.0000000
 NMagM=    0.0000000   0.0000000   0.0000000   0.0000000   0.0000000   0.0000000   0.0000000   0.0000000   0.0000000   0.0000000
 AtZNuc=   0.0000000   0.0000000   0.0000000   0.0000000   0.0000000   0.0000000   0.0000000   0.0000000   0.0000000   0.0000000

  Atom        91          92          93          94          95          96          97          98          99         100
 IAtWgt=           0           0           0           0           0           0           0           0           0           0
 AtmWgt=   0.0000000   0.0000000   0.0000000   0.0000000   0.0000000   0.0000000   0.0000000   0.0000000   0.0000000   0.0000000
 NucSpn=           0           0           0           0           0           0           0           0           0           0
 AtZEff=   0.0000000   0.0000000   0.0000000   0.0000000   0.0000000   0.0000000   0.0000000   0.0000000   0.0000000   0.0000000
 NQMom=    0.0000000   0.0000000   0.0000000   0.0000000   0.0000000   0.0000000   0.0000000   0.0000000   0.0000000   0.0000000
 NMagM=    0.0000000   0.0000000   0.0000000   0.0000000   0.0000000   0.0000000   0.0000000   0.0000000   0.0000000   0.0000000
 AtZNuc=   0.0000000   0.0000000   0.0000000   0.0000000   0.0000000   0.0000000   0.0000000   0.0000000   0.0000000   0.0000000

  Atom       101         102         103         104         105         106         107         108         109         110
 IAtWgt=           0           0           0           0           0           0           0           0           0           0
 AtmWgt=   0.0000000   0.0000000   0.0000000   0.0000000   0.0000000   0.0000000   0.0000000   0.0000000   0.0000000   0.0000000
 NucSpn=           0           0           0           0           0           0           0           0           0           0
 AtZEff=   0.0000000   0.0000000   0.0000000   0.0000000   0.0000000   0.0000000   0.0000000   0.0000000   0.0000000   0.0000000
 NQMom=    0.0000000   0.0000000   0.0000000   0.0000000   0.0000000   0.0000000   0.0000000   0.0000000   0.0000000   0.0000000
 NMagM=    0.0000000   0.0000000   0.0000000   0.0000000   0.0000000   0.0000000   0.0000000   0.0000000   0.0000000   0.0000000
 AtZNuc=   0.0000000   0.0000000   0.0000000   0.0000000   0.0000000   0.0000000   0.0000000   0.0000000   0.0000000   0.0000000

  Atom       111         112         113         114         115         116         117         118         119         120
 IAtWgt=           0           0           0           0           0           0           0           0           0           0
 AtmWgt=   0.0000000   0.0000000   0.0000000   0.0000000   0.0000000   0.0000000   0.0000000   0.0000000   0.0000000   0.0000000
 NucSpn=           0           0           0           0           0           0           0           0           0           0
 AtZEff=   0.0000000   0.0000000   0.0000000   0.0000000   0.0000000   0.0000000   0.0000000   0.0000000   0.0000000   0.0000000
 NQMom=    0.0000000   0.0000000   0.0000000   0.0000000   0.0000000   0.0000000   0.0000000   0.0000000   0.0000000   0.0000000
 NMagM=    0.0000000   0.0000000   0.0000000   0.0000000   0.0000000   0.0000000   0.0000000   0.0000000   0.0000000   0.0000000
 AtZNuc=   0.0000000   0.0000000   0.0000000   0.0000000   0.0000000   0.0000000   0.0000000   0.0000000   0.0000000   0.0000000

  Atom       121         122         123         124         125         126         127         128         129         130
 IAtWgt=           0           0           0           0           0           0           0           0           0           0
 AtmWgt=   0.0000000   0.0000000   0.0000000   0.0000000   0.0000000   0.0000000   0.0000000   0.0000000   0.0000000   0.0000000
 NucSpn=           0           0           0           0           0           0           0           0           0           0
 AtZEff=   0.0000000   0.0000000   0.0000000   0.0000000   0.0000000   0.0000000   0.0000000   0.0000000   0.0000000   0.0000000
 NQMom=    0.0000000   0.0000000   0.0000000   0.0000000   0.0000000   0.0000000   0.0000000   0.0000000   0.0000000   0.0000000
 NMagM=    0.0000000   0.0000000   0.0000000   0.0000000   0.0000000   0.0000000   0.0000000   0.0000000   0.0000000   0.0000000
 AtZNuc=   0.0000000   0.0000000   0.0000000   0.0000000   0.0000000   0.0000000   0.0000000   0.0000000   0.0000000   0.0000000

  Atom       131         132         133         134         135         136         137         138         139         140
 IAtWgt=           0           0           0           0           0           0           0           0           0           0
 AtmWgt=   0.0000000   0.0000000   0.0000000   0.0000000   0.0000000   0.0000000   0.0000000   0.0000000   0.0000000   0.0000000
 NucSpn=           0           0           0           0           0           0           0           0           0           0
 AtZEff=   0.0000000   0.0000000   0.0000000   0.0000000   0.0000000   0.0000000   0.0000000   0.0000000   0.0000000   0.0000000
 NQMom=    0.0000000   0.0000000   0.0000000   0.0000000   0.0000000   0.0000000   0.0000000   0.0000000   0.0000000   0.0000000
 NMagM=    0.0000000   0.0000000   0.0000000   0.0000000   0.0000000   0.0000000   0.0000000   0.0000000   0.0000000   0.0000000
 AtZNuc=   0.0000000   0.0000000   0.0000000   0.0000000   0.0000000   0.0000000   0.0000000   0.0000000   0.0000000   0.0000000

  Atom       141         142         143         144         145         146         147         148         149         150
 IAtWgt=           0           0           0           0           0           0           0           0           0           0
 AtmWgt=   0.0000000   0.0000000   0.0000000   0.0000000   0.0000000   0.0000000   0.0000000   0.0000000   0.0000000   0.0000000
 NucSpn=           0           0           0           0           0           0           0           0           0           0
 AtZEff=   0.0000000   0.0000000   0.0000000   0.0000000   0.0000000   0.0000000   0.0000000   0.0000000   0.0000000   0.0000000
 NQMom=    0.0000000   0.0000000   0.0000000   0.0000000   0.0000000   0.0000000   0.0000000   0.0000000   0.0000000   0.0000000
 NMagM=    0.0000000   0.0000000   0.0000000   0.0000000   0.0000000   0.0000000   0.0000000   0.0000000   0.0000000   0.0000000
 AtZNuc=   0.0000000   0.0000000   0.0000000   0.0000000   0.0000000   0.0000000   0.0000000   0.0000000   0.0000000   0.0000000

  Atom       151         152         153         154         155         156         157         158         159         160
 IAtWgt=           0           0           0           0           0           0           0           0           0           0
 AtmWgt=   0.0000000   0.0000000   0.0000000   0.0000000   0.0000000   0.0000000   0.0000000   0.0000000   0.0000000   0.0000000
 NucSpn=           0           0           0           0           0           0           0           0           0           0
 AtZEff=   0.0000000   0.0000000   0.0000000   0.0000000   0.0000000   0.0000000   0.0000000   0.0000000   0.0000000   0.0000000
 NQMom=    0.0000000   0.0000000   0.0000000   0.0000000   0.0000000   0.0000000   0.0000000   0.0000000   0.0000000   0.0000000
 NMagM=    0.0000000   0.0000000   0.0000000   0.0000000   0.0000000   0.0000000   0.0000000   0.0000000   0.0000000   0.0000000
 AtZNuc=   0.0000000   0.0000000   0.0000000   0.0000000   0.0000000   0.0000000   0.0000000   0.0000000   0.0000000   0.0000000

  Atom       161         162         163         164         165         166         167         168         169         170
 IAtWgt=           0           0           0           0           0           0           0           0           0           0
 AtmWgt=   0.0000000   0.0000000   0.0000000   0.0000000   0.0000000   0.0000000   0.0000000   0.0000000   0.0000000   0.0000000
 NucSpn=           0           0           0           0           0           0           0           0           0           0
 AtZEff=   0.0000000   0.0000000   0.0000000   0.0000000   0.0000000   0.0000000   0.0000000   0.0000000   0.0000000   0.0000000
 NQMom=    0.0000000   0.0000000   0.0000000   0.0000000   0.0000000   0.0000000   0.0000000   0.0000000   0.0000000   0.0000000
 NMagM=    0.0000000   0.0000000   0.0000000   0.0000000   0.0000000   0.0000000   0.0000000   0.0000000   0.0000000   0.0000000
 AtZNuc=   0.0000000   0.0000000   0.0000000   0.0000000   0.0000000   0.0000000   0.0000000   0.0000000   0.0000000   0.0000000

  Atom       171         172         173         174         175         176         177         178         179         180
 IAtWgt=           0           0           0           0           0           0           0           0           0           0
 AtmWgt=   0.0000000   0.0000000   0.0000000   0.0000000   0.0000000   0.0000000   0.0000000   0.0000000   0.0000000   0.0000000
 NucSpn=           0           0           0           0           0           0           0           0           0           0
 AtZEff=   0.0000000   0.0000000   0.0000000   0.0000000   0.0000000   0.0000000   0.0000000   0.0000000   0.0000000   0.0000000
 NQMom=    0.0000000   0.0000000   0.0000000   0.0000000   0.0000000   0.0000000   0.0000000   0.0000000   0.0000000   0.0000000
 NMagM=    0.0000000   0.0000000   0.0000000   0.0000000   0.0000000   0.0000000   0.0000000   0.0000000   0.0000000   0.0000000
 AtZNuc=   0.0000000   0.0000000   0.0000000   0.0000000   0.0000000   0.0000000   0.0000000   0.0000000   0.0000000   0.0000000

  Atom       181         182         183         184         185         186         187         188         189         190
 IAtWgt=           0           0           0           0           0           0           0           0           0           0
 AtmWgt=   0.0000000   0.0000000   0.0000000   0.0000000   0.0000000   0.0000000   0.0000000   0.0000000   0.0000000   0.0000000
 NucSpn=           0           0           0           0           0           0           0           0           0           0
 AtZEff=   0.0000000   0.0000000   0.0000000   0.0000000   0.0000000   0.0000000   0.0000000   0.0000000   0.0000000   0.0000000
 NQMom=    0.0000000   0.0000000   0.0000000   0.0000000   0.0000000   0.0000000   0.0000000   0.0000000   0.0000000   0.0000000
 NMagM=    0.0000000   0.0000000   0.0000000   0.0000000   0.0000000   0.0000000   0.0000000   0.0000000   0.0000000   0.0000000
 AtZNuc=   0.0000000   0.0000000   0.0000000   0.0000000   0.0000000   0.0000000   0.0000000   0.0000000   0.0000000   0.0000000

  Atom       191         192         193         194         195         196         197         198         199         200
 IAtWgt=           0           0           0           0           0           0           0           0           0           0
 AtmWgt=   0.0000000   0.0000000   0.0000000   0.0000000   0.0000000   0.0000000   0.0000000   0.0000000   0.0000000   0.0000000
 NucSpn=           0           0           0           0           0           0           0           0           0           0
 AtZEff=   0.0000000   0.0000000   0.0000000   0.0000000   0.0000000   0.0000000   0.0000000   0.0000000   0.0000000   0.0000000
 NQMom=    0.0000000   0.0000000   0.0000000   0.0000000   0.0000000   0.0000000   0.0000000   0.0000000   0.0000000   0.0000000
 NMagM=    0.0000000   0.0000000   0.0000000   0.0000000   0.0000000   0.0000000   0.0000000   0.0000000   0.0000000   0.0000000
 AtZNuc=   0.0000000   0.0000000   0.0000000   0.0000000   0.0000000   0.0000000   0.0000000   0.0000000   0.0000000   0.0000000

  Atom       201         202         203         204         205         206         207         208         209         210
 IAtWgt=           0           0           0           0           0           0           0           0           0           0
 AtmWgt=   0.0000000   0.0000000   0.0000000   0.0000000   0.0000000   0.0000000   0.0000000   0.0000000   0.0000000   0.0000000
 NucSpn=           0           0           0           0           0           0           0           0           0           0
 AtZEff=   0.0000000   0.0000000   0.0000000   0.0000000   0.0000000   0.0000000   0.0000000   0.0000000   0.0000000   0.0000000
 NQMom=    0.0000000   0.0000000   0.0000000   0.0000000   0.0000000   0.0000000   0.0000000   0.0000000   0.0000000   0.0000000
 NMagM=    0.0000000   0.0000000   0.0000000   0.0000000   0.0000000   0.0000000   0.0000000   0.0000000   0.0000000   0.0000000
 AtZNuc=   0.0000000   0.0000000   0.0000000   0.0000000   0.0000000   0.0000000   0.0000000   0.0000000   0.0000000   0.0000000

  Atom       211         212         213         214         215         216         217         218         219         220
 IAtWgt=           0           0           0           0           0           0           0           0           0           0
 AtmWgt=   0.0000000   0.0000000   0.0000000   0.0000000   0.0000000   0.0000000   0.0000000   0.0000000   0.0000000   0.0000000
 NucSpn=           0           0           0           0           0           0           0           0           0           0
 AtZEff=   0.0000000   0.0000000   0.0000000   0.0000000   0.0000000   0.0000000   0.0000000   0.0000000   0.0000000   0.0000000
 NQMom=    0.0000000   0.0000000   0.0000000   0.0000000   0.0000000   0.0000000   0.0000000   0.0000000   0.0000000   0.0000000
 NMagM=    0.0000000   0.0000000   0.0000000   0.0000000   0.0000000   0.0000000   0.0000000   0.0000000   0.0000000   0.0000000
 AtZNuc=   0.0000000   0.0000000   0.0000000   0.0000000   0.0000000   0.0000000   0.0000000   0.0000000   0.0000000   0.0000000

  Atom       221         222         223         224         225         226         227         228         229         230
 IAtWgt=           0           0           0           0           0           0           0           0           0           0
 AtmWgt=   0.0000000   0.0000000   0.0000000   0.0000000   0.0000000   0.0000000   0.0000000   0.0000000   0.0000000   0.0000000
 NucSpn=           0           0           0           0           0           0           0           0           0           0
 AtZEff=   0.0000000   0.0000000   0.0000000   0.0000000   0.0000000   0.0000000   0.0000000   0.0000000   0.0000000   0.0000000
 NQMom=    0.0000000   0.0000000   0.0000000   0.0000000   0.0000000   0.0000000   0.0000000   0.0000000   0.0000000   0.0000000
 NMagM=    0.0000000   0.0000000   0.0000000   0.0000000   0.0000000   0.0000000   0.0000000   0.0000000   0.0000000   0.0000000
 AtZNuc=   0.0000000   0.0000000   0.0000000   0.0000000   0.0000000   0.0000000   0.0000000   0.0000000   0.0000000   0.0000000

  Atom       231         232         233         234         235         236
 IAtWgt=           0           0           0           0           0           0
 AtmWgt=   0.0000000   0.0000000   0.0000000   0.0000000   0.0000000   0.0000000
 NucSpn=           0           0           0           0           0           0
 AtZEff=   0.0000000   0.0000000   0.0000000   0.0000000   0.0000000   0.0000000
 NQMom=    0.0000000   0.0000000   0.0000000   0.0000000   0.0000000   0.0000000
 NMagM=    0.0000000   0.0000000   0.0000000   0.0000000   0.0000000   0.0000000
 AtZNuc=   0.0000000   0.0000000   0.0000000   0.0000000   0.0000000   0.0000000
 Leave Link  101 at Tue Sep 15 11:02:03 2020, MaxMem=   131072000 cpu:         3.2
 (Enter /share/programs/GAUSSIAN/64/g09/l202.exe)
 Symmetry turned off:
 Cannot cope with ghost atoms or with translation vectors.
 Stoichiometry    C22H14
 Framework group  C1[X(C22H14)]
 NUMDOF-- NAT=    36 NAtoms=   236
 Deg. of freedom     0
 Full point group                 C1      NOp   1
                          Input orientation:                          
 ---------------------------------------------------------------------
 Center     Atomic      Atomic             Coordinates (Angstroms)
 Number     Number       Type             X           Y           Z
 ---------------------------------------------------------------------
      1          6           0        0.653241    3.257859   -0.202510
      2          6           0       -0.653243    3.257860    0.202510
      3          6           0        1.372495    2.032956   -0.320807
      4          6           0       -1.372495    2.032956    0.320807
      5          6           0        0.722474    0.795666   -0.050388
      6          6           0       -0.722474    0.795667    0.050387
      7          6           0        2.760385    2.053927   -0.674268
      8          6           0        3.508866    0.913916   -0.671362
      9          6           0        2.955226   -0.309622   -0.177479
     10          6           0        1.574722   -0.361114    0.197094
     11          1           0        1.183427    4.195740   -0.384599
     12          1           0       -1.183429    4.195740    0.384599
     13          1           0        3.206283    3.012423   -0.951392
     14          1           0        4.560023    0.932956   -0.969333
     15          6           0        3.783020   -1.443098    0.028309
     16          6           0        1.137427   -1.507533    0.912109
     17          6           0        1.973691   -2.584349    1.138062
     18          6           0        3.301853   -2.571588    0.661177
     19          1           0        4.825754   -1.391230   -0.295484
     20          1           0        0.124652   -1.532788    1.308472
     21          1           0        1.603586   -3.445682    1.698977
     22          1           0        3.952742   -3.433526    0.825134
     23          6           0       -3.508866    0.913915    0.671362
     24          6           0       -2.760386    2.053926    0.674268
     25          6           0       -2.955226   -0.309623    0.177479
     26          6           0       -1.574722   -0.361114   -0.197094
     27          6           0       -3.783020   -1.443099   -0.028309
     28          6           0       -3.301852   -2.571589   -0.661177
     29          6           0       -1.973690   -2.584349   -1.138061
     30          6           0       -1.137426   -1.507534   -0.912109
     31          1           0       -4.560022    0.932954    0.969334
     32          1           0       -3.206283    3.012421    0.951392
     33          1           0       -4.825754   -1.391232    0.295484
     34          1           0       -3.952741   -3.433528   -0.825134
     35          1           0       -1.603585   -3.445682   -1.698976
     36          1           0       -0.124652   -1.532788   -1.308471
     37          0           0       -1.553073    4.294786    1.308479
     38          0           0       -1.562839    4.245690    1.308479
     39          0           0       -1.566112    4.195740    1.308479
     40          0           0       -1.562839    4.145790    1.308479
     41          0           0       -1.553073    4.096694    1.308479
     42          0           0       -1.536982    4.049293    1.308479
     43          0           0       -1.514843    4.004398    1.308479
     44          0           0       -1.487032    3.962777    1.308479
     45          0           0       -1.454027    3.925142    1.308479
     46          0           0       -1.416392    3.892137    1.308479
     47          0           0       -1.374771    3.864326    1.308479
     48          0           0       -1.329876    3.842187    1.308479
     49          0           0       -1.282475    3.826096    1.308479
     50          0           0       -1.233379    3.816330    1.308479
     51          0           0       -1.183429    3.813057    1.308479
     52          0           0       -1.133479    3.816330    1.308479
     53          0           0       -1.084383    3.826096    1.308479
     54          0           0       -1.036982    3.842187    1.308479
     55          0           0       -0.992087    3.864326    1.308479
     56          0           0       -0.950466    3.892137    1.308479
     57          0           0       -0.912831    3.925142    1.308479
     58          0           0       -0.879826    3.962777    1.308479
     59          0           0       -0.852015    4.004398    1.308479
     60          0           0       -0.829876    4.049293    1.308479
     61          0           0       -0.813785    4.096694    1.308479
     62          0           0       -0.804019    4.145790    1.308479
     63          0           0       -0.683429    4.195740    1.250624
     64          0           0       -0.687707    4.261003    1.250624
     65          0           0       -0.700466    4.325150    1.250624
     66          0           0       -0.721489    4.387082    1.250624
     67          0           0       -0.750416    4.445740    1.250624
     68          0           0       -0.786752    4.500121    1.250624
     69          0           0       -0.829876    4.549293    1.250624
     70          0           0       -0.879048    4.592417    1.250624
     71          0           0       -0.933429    4.628753    1.250624
     72          0           0       -0.992087    4.657680    1.250624
     73          0           0       -1.054019    4.678703    1.250624
     74          0           0       -1.118166    4.691462    1.250624
     75          0           0       -1.183429    4.695740    1.250624
     76          0           0       -1.248692    4.691462    1.250624
     77          0           0       -1.312839    4.678703    1.250624
     78          0           0       -1.374771    4.657680    1.250624
     79          0           0       -1.433429    4.628753    1.250624
     80          0           0       -1.487810    4.592417    1.250624
     81          0           0       -1.536982    4.549293    1.250624
     82          0           0       -1.580106    4.500121    1.250624
     83          0           0       -1.616442    4.445740    1.250624
     84          0           0       -1.645369    4.387082    1.250624
     85          0           0       -1.666392    4.325150    1.250624
     86          0           0       -1.679151    4.261003    1.250624
     87          0           0       -1.683429    4.195740    1.250624
     88          0           0       -1.679151    4.130477    1.250624
     89          0           0       -1.666392    4.066330    1.250624
     90          0           0       -1.645369    4.004398    1.250624
     91          0           0       -1.616442    3.945740    1.250624
     92          0           0       -1.580106    3.891359    1.250624
     93          0           0       -1.536982    3.842187    1.250624
     94          0           0       -1.487810    3.799063    1.250624
     95          0           0       -1.433429    3.762727    1.250624
     96          0           0       -1.374771    3.733800    1.250624
     97          0           0       -1.312839    3.712777    1.250624
     98          0           0       -1.248692    3.700018    1.250624
     99          0           0       -1.183429    3.695740    1.250624
    100          0           0       -1.118166    3.700018    1.250624
    101          0           0       -1.054019    3.712777    1.250624
    102          0           0       -0.992087    3.733800    1.250624
    103          0           0       -0.933429    3.762727    1.250624
    104          0           0       -0.879048    3.799063    1.250624
    105          0           0       -0.829876    3.842187    1.250624
    106          0           0       -0.786752    3.891359    1.250624
    107          0           0       -0.750416    3.945740    1.250624
    108          0           0       -0.721489    4.004398    1.250624
    109          0           0       -0.700466    4.066330    1.250624
    110          0           0       -0.687707    4.130477    1.250624
    111          0           0       -0.574668    4.195740    1.177952
    112          0           0       -0.579876    4.275199    1.177952
    113          0           0       -0.595411    4.353299    1.177952
    114          0           0       -0.621007    4.428703    1.177952
    115          0           0       -0.656226    4.500121    1.177952
    116          0           0       -0.700466    4.566330    1.177952
    117          0           0       -0.752970    4.626199    1.177952
    118          0           0       -0.812839    4.678703    1.177952
    119          0           0       -0.879048    4.722943    1.177952
    120          0           0       -0.950466    4.758162    1.177952
    121          0           0       -1.025870    4.783758    1.177952
    122          0           0       -1.103970    4.799293    1.177952
    123          0           0       -1.183429    4.804501    1.177952
    124          0           0       -1.262888    4.799293    1.177952
    125          0           0       -1.340988    4.783758    1.177952
    126          0           0       -1.416392    4.758162    1.177952
    127          0           0       -1.487810    4.722943    1.177952
    128          0           0       -1.554019    4.678703    1.177952
    129          0           0       -1.613888    4.626199    1.177952
    130          0           0       -1.666392    4.566330    1.177952
    131          0           0       -1.710632    4.500121    1.177952
    132          0           0       -1.745851    4.428703    1.177952
    133          0           0       -1.771447    4.353299    1.177952
    134          0           0       -1.786982    4.275199    1.177952
    135          0           0       -1.792190    4.195740    1.177952
    136          0           0       -1.786982    4.116281    1.177952
    137          0           0       -1.771447    4.038181    1.177952
    138          0           0       -1.745851    3.962777    1.177952
    139          0           0       -1.710632    3.891359    1.177952
    140          0           0       -1.666392    3.825150    1.177952
    141          0           0       -1.613888    3.765281    1.177952
    142          0           0       -1.554019    3.712777    1.177952
    143          0           0       -1.487810    3.668537    1.177952
    144          0           0       -1.416392    3.633318    1.177952
    145          0           0       -1.340988    3.607722    1.177952
    146          0           0       -1.262888    3.592187    1.177952
    147          0           0       -1.183429    3.586979    1.177952
    148          0           0       -1.103970    3.592187    1.177952
    149          0           0       -1.025870    3.607722    1.177952
    150          0           0       -0.950466    3.633318    1.177952
    151          0           0       -0.879048    3.668537    1.177952
    152          0           0       -0.812839    3.712777    1.177952
    153          0           0       -0.752970    3.765281    1.177952
    154          0           0       -0.700466    3.825150    1.177952
    155          0           0       -0.656226    3.891359    1.177952
    156          0           0       -0.621007    3.962777    1.177952
    157          0           0       -0.595411    4.038181    1.177952
    158          0           0       -0.579876    4.116281    1.177952
    159          0           0       -0.476322    4.195740    1.091706
    160          0           0       -0.482372    4.288036    1.091706
    161          0           0       -0.500416    4.378753    1.091706
    162          0           0       -0.530148    4.466338    1.091706
    163          0           0       -0.571057    4.549293    1.091706
    164          0           0       -0.622443    4.626199    1.091706
    165          0           0       -0.683429    4.695740    1.091706
    166          0           0       -0.752970    4.756726    1.091706
    167          0           0       -0.829876    4.808112    1.091706
    168          0           0       -0.912831    4.849021    1.091706
    169          0           0       -1.000416    4.878753    1.091706
    170          0           0       -1.091133    4.896797    1.091706
    171          0           0       -1.183429    4.902847    1.091706
    172          0           0       -1.275725    4.896797    1.091706
    173          0           0       -1.366442    4.878753    1.091706
    174          0           0       -1.454027    4.849021    1.091706
    175          0           0       -1.536982    4.808112    1.091706
    176          0           0       -1.613888    4.756726    1.091706
    177          0           0       -1.683429    4.695740    1.091706
    178          0           0       -1.744415    4.626199    1.091706
    179          0           0       -1.795801    4.549293    1.091706
    180          0           0       -1.836710    4.466338    1.091706
    181          0           0       -1.866442    4.378753    1.091706
    182          0           0       -1.884486    4.288036    1.091706
    183          0           0       -1.890536    4.195740    1.091706
    184          0           0       -1.884486    4.103444    1.091706
    185          0           0       -1.866442    4.012727    1.091706
    186          0           0       -1.836710    3.925142    1.091706
    187          0           0       -1.795801    3.842187    1.091706
    188          0           0       -1.744415    3.765281    1.091706
    189          0           0       -1.183429    3.488633    1.091706
    190          0           0       -1.091133    3.494683    1.091706
    191          0           0       -0.622443    3.765281    1.091706
    192          0           0       -0.571057    3.842187    1.091706
    193          0           0       -0.530148    3.925142    1.091706
    194          0           0       -0.500416    4.012727    1.091706
    195          0           0       -0.482372    4.103444    1.091706
    196          0           0       -0.390076    4.195740    0.993360
    197          0           0       -0.396863    4.299293    0.993360
    198          0           0       -0.417109    4.401075    0.993360
    199          0           0       -0.450466    4.499343    0.993360
    200          0           0       -0.496365    4.592417    0.993360
    201          0           0       -0.554019    4.678703    0.993360
    202          0           0       -0.622443    4.756726    0.993360
    203          0           0       -0.700466    4.825150    0.993360
    204          0           0       -0.786752    4.882804    0.993360
    205          0           0       -0.879826    4.928703    0.993360
    206          0           0       -0.978094    4.962060    0.993360
    207          0           0       -1.079876    4.982306    0.993360
    208          0           0       -1.183429    4.989093    0.993360
    209          0           0       -1.286982    4.982306    0.993360
    210          0           0       -1.388764    4.962060    0.993360
    211          0           0       -1.487032    4.928703    0.993360
    212          0           0       -1.580106    4.882804    0.993360
    213          0           0       -1.666392    4.825150    0.993360
    214          0           0       -1.744415    4.756726    0.993360
    215          0           0       -1.812839    4.678703    0.993360
    216          0           0       -1.870493    4.592417    0.993360
    217          0           0       -1.916392    4.499343    0.993360
    218          0           0       -1.949749    4.401075    0.993360
    219          0           0       -1.969995    4.299293    0.993360
    220          0           0       -1.976782    4.195740    0.993360
    221          0           0       -1.969995    4.092187    0.993360
    222          0           0       -1.949749    3.990405    0.993360
    223          0           0       -1.916392    3.892137    0.993360
    224          0           0       -1.870493    3.799063    0.993360
    225          0           0       -0.450466    3.892137    0.993360
    226          0           0       -0.417109    3.990405    0.993360
    227          0           0       -0.396863    4.092187    0.993360
    228          0           0       -0.317404    4.195740    0.884599
    229          0           0       -0.324813    4.308779    0.884599
    230          0           0       -0.346913    4.419884    0.884599
    231          0           0       -0.383326    4.527154    0.884599
    232          0           0       -0.433429    4.628753    0.884599
    233          0           0       -0.496365    4.722943    0.884599
    234          0           0       -0.571057    4.808112    0.884599
    235          0           0       -0.656226    4.882804    0.884599
    236          0           0       -0.750416    4.945740    0.884599
 ---------------------------------------------------------------------
 Rotational constants (GHZ):      0.4454681      0.2811480      0.1854303
 Leave Link  202 at Tue Sep 15 11:02:03 2020, MaxMem=   131072000 cpu:         0.0
 (Enter /share/programs/GAUSSIAN/64/g09/l301.exe)
 Standard basis: 6-311+G(d,p) (5D, 7F)
 Warning:  center  37 has no basis functions!
 Warning:  center  38 has no basis functions!
 Warning:  center  39 has no basis functions!
 Warning:  center  40 has no basis functions!
 Warning:  center  41 has no basis functions!
 Warning:  center  42 has no basis functions!
 Warning:  center  43 has no basis functions!
 Warning:  center  44 has no basis functions!
 Warning:  center  45 has no basis functions!
 Warning:  center  46 has no basis functions!
 Warning:  center  47 has no basis functions!
 Warning:  center  48 has no basis functions!
 Warning:  center  49 has no basis functions!
 Warning:  center  50 has no basis functions!
 Warning:  center  51 has no basis functions!
 Warning:  center  52 has no basis functions!
 Warning:  center  53 has no basis functions!
 Warning:  center  54 has no basis functions!
 Warning:  center  55 has no basis functions!
 Warning:  center  56 has no basis functions!
 Warning:  center  57 has no basis functions!
 Warning:  center  58 has no basis functions!
 Warning:  center  59 has no basis functions!
 Warning:  center  60 has no basis functions!
 Warning:  center  61 has no basis functions!
 Warning:  center  62 has no basis functions!
 Warning:  center  63 has no basis functions!
 Warning:  center  64 has no basis functions!
 Warning:  center  65 has no basis functions!
 Warning:  center  66 has no basis functions!
 Warning:  center  67 has no basis functions!
 Warning:  center  68 has no basis functions!
 Warning:  center  69 has no basis functions!
 Warning:  center  70 has no basis functions!
 Warning:  center  71 has no basis functions!
 Warning:  center  72 has no basis functions!
 Warning:  center  73 has no basis functions!
 Warning:  center  74 has no basis functions!
 Warning:  center  75 has no basis functions!
 Warning:  center  76 has no basis functions!
 Warning:  center  77 has no basis functions!
 Warning:  center  78 has no basis functions!
 Warning:  center  79 has no basis functions!
 Warning:  center  80 has no basis functions!
 Warning:  center  81 has no basis functions!
 Warning:  center  82 has no basis functions!
 Warning:  center  83 has no basis functions!
 Warning:  center  84 has no basis functions!
 Warning:  center  85 has no basis functions!
 Warning:  center  86 has no basis functions!
 Warning:  center  87 has no basis functions!
 Warning:  center  88 has no basis functions!
 Warning:  center  89 has no basis functions!
 Warning:  center  90 has no basis functions!
 Warning:  center  91 has no basis functions!
 Warning:  center  92 has no basis functions!
 Warning:  center  93 has no basis functions!
 Warning:  center  94 has no basis functions!
 Warning:  center  95 has no basis functions!
 Warning:  center  96 has no basis functions!
 Warning:  center  97 has no basis functions!
 Warning:  center  98 has no basis functions!
 Warning:  center  99 has no basis functions!
 Warning:  center 100 has no basis functions!
 Warning:  center 101 has no basis functions!
 Warning:  center 102 has no basis functions!
 Warning:  center 103 has no basis functions!
 Warning:  center 104 has no basis functions!
 Warning:  center 105 has no basis functions!
 Warning:  center 106 has no basis functions!
 Warning:  center 107 has no basis functions!
 Warning:  center 108 has no basis functions!
 Warning:  center 109 has no basis functions!
 Warning:  center 110 has no basis functions!
 Warning:  center 111 has no basis functions!
 Warning:  center 112 has no basis functions!
 Warning:  center 113 has no basis functions!
 Warning:  center 114 has no basis functions!
 Warning:  center 115 has no basis functions!
 Warning:  center 116 has no basis functions!
 Warning:  center 117 has no basis functions!
 Warning:  center 118 has no basis functions!
 Warning:  center 119 has no basis functions!
 Warning:  center 120 has no basis functions!
 Warning:  center 121 has no basis functions!
 Warning:  center 122 has no basis functions!
 Warning:  center 123 has no basis functions!
 Warning:  center 124 has no basis functions!
 Warning:  center 125 has no basis functions!
 Warning:  center 126 has no basis functions!
 Warning:  center 127 has no basis functions!
 Warning:  center 128 has no basis functions!
 Warning:  center 129 has no basis functions!
 Warning:  center 130 has no basis functions!
 Warning:  center 131 has no basis functions!
 Warning:  center 132 has no basis functions!
 Warning:  center 133 has no basis functions!
 Warning:  center 134 has no basis functions!
 Warning:  center 135 has no basis functions!
 Warning:  center 136 has no basis functions!
 Warning:  center 137 has no basis functions!
 Warning:  center 138 has no basis functions!
 Warning:  center 139 has no basis functions!
 Warning:  center 140 has no basis functions!
 Warning:  center 141 has no basis functions!
 Warning:  center 142 has no basis functions!
 Warning:  center 143 has no basis functions!
 Warning:  center 144 has no basis functions!
 Warning:  center 145 has no basis functions!
 Warning:  center 146 has no basis functions!
 Warning:  center 147 has no basis functions!
 Warning:  center 148 has no basis functions!
 Warning:  center 149 has no basis functions!
 Warning:  center 150 has no basis functions!
 Warning:  center 151 has no basis functions!
 Warning:  center 152 has no basis functions!
 Warning:  center 153 has no basis functions!
 Warning:  center 154 has no basis functions!
 Warning:  center 155 has no basis functions!
 Warning:  center 156 has no basis functions!
 Warning:  center 157 has no basis functions!
 Warning:  center 158 has no basis functions!
 Warning:  center 159 has no basis functions!
 Warning:  center 160 has no basis functions!
 Warning:  center 161 has no basis functions!
 Warning:  center 162 has no basis functions!
 Warning:  center 163 has no basis functions!
 Warning:  center 164 has no basis functions!
 Warning:  center 165 has no basis functions!
 Warning:  center 166 has no basis functions!
 Warning:  center 167 has no basis functions!
 Warning:  center 168 has no basis functions!
 Warning:  center 169 has no basis functions!
 Warning:  center 170 has no basis functions!
 Warning:  center 171 has no basis functions!
 Warning:  center 172 has no basis functions!
 Warning:  center 173 has no basis functions!
 Warning:  center 174 has no basis functions!
 Warning:  center 175 has no basis functions!
 Warning:  center 176 has no basis functions!
 Warning:  center 177 has no basis functions!
 Warning:  center 178 has no basis functions!
 Warning:  center 179 has no basis functions!
 Warning:  center 180 has no basis functions!
 Warning:  center 181 has no basis functions!
 Warning:  center 182 has no basis functions!
 Warning:  center 183 has no basis functions!
 Warning:  center 184 has no basis functions!
 Warning:  center 185 has no basis functions!
 Warning:  center 186 has no basis functions!
 Warning:  center 187 has no basis functions!
 Warning:  center 188 has no basis functions!
 Warning:  center 189 has no basis functions!
 Warning:  center 190 has no basis functions!
 Warning:  center 191 has no basis functions!
 Warning:  center 192 has no basis functions!
 Warning:  center 193 has no basis functions!
 Warning:  center 194 has no basis functions!
 Warning:  center 195 has no basis functions!
 Warning:  center 196 has no basis functions!
 Warning:  center 197 has no basis functions!
 Warning:  center 198 has no basis functions!
 Warning:  center 199 has no basis functions!
 Warning:  center 200 has no basis functions!
 Warning:  center 201 has no basis functions!
 Warning:  center 202 has no basis functions!
 Warning:  center 203 has no basis functions!
 Warning:  center 204 has no basis functions!
 Warning:  center 205 has no basis functions!
 Warning:  center 206 has no basis functions!
 Warning:  center 207 has no basis functions!
 Warning:  center 208 has no basis functions!
 Warning:  center 209 has no basis functions!
 Warning:  center 210 has no basis functions!
 Warning:  center 211 has no basis functions!
 Warning:  center 212 has no basis functions!
 Warning:  center 213 has no basis functions!
 Warning:  center 214 has no basis functions!
 Warning:  center 215 has no basis functions!
 Warning:  center 216 has no basis functions!
 Warning:  center 217 has no basis functions!
 Warning:  center 218 has no basis functions!
 Warning:  center 219 has no basis functions!
 Warning:  center 220 has no basis functions!
 Warning:  center 221 has no basis functions!
 Warning:  center 222 has no basis functions!
 Warning:  center 223 has no basis functions!
 Warning:  center 224 has no basis functions!
 Warning:  center 225 has no basis functions!
 Warning:  center 226 has no basis functions!
 Warning:  center 227 has no basis functions!
 Warning:  center 228 has no basis functions!
 Warning:  center 229 has no basis functions!
 Warning:  center 230 has no basis functions!
 Warning:  center 231 has no basis functions!
 Warning:  center 232 has no basis functions!
 Warning:  center 233 has no basis functions!
 Warning:  center 234 has no basis functions!
 Warning:  center 235 has no basis functions!
 Warning:  center 236 has no basis functions!
 Ernie: Thresh=  0.10000D-02 Tol=  0.10000D-05 Strict=F.
   568 basis functions,   904 primitive gaussians,   590 cartesian basis functions
    73 alpha electrons       73 beta electrons
       nuclear repulsion energy      1599.9156270972 Hartrees.
 IExCor=  402 DFT=T Ex+Corr=B3LYP ExCW=0 ScaHFX=  0.200000
 ScaDFX=  0.800000  0.720000  1.000000  0.810000 ScalE2=  1.000000  1.000000
 IRadAn=      0 IRanWt=     -1 IRanGd=            0 ICorTp=0 IEmpDi=  4
 NAtoms=  236 NActive=  236 NUniq=  236 SFac= 1.00D+00 NAtFMM=   60 NAOKFM=T Big=T
 Integral buffers will be    131072 words long.
 Raffenetti 2 integral format.
 Two-electron integral symmetry is turned off.
 Leave Link  301 at Tue Sep 15 11:02:03 2020, MaxMem=   131072000 cpu:         0.3
 (Enter /share/programs/GAUSSIAN/64/g09/l302.exe)
 NPDir=0 NMtPBC=     1 NCelOv=     1 NCel=       1 NClECP=     1 NCelD=      1
         NCelK=      1 NCelE2=     1 NClLst=     1 CellRange=     0.0.
 One-electron integrals computed using PRISM.
 NBasis=   568 RedAO= T EigKep=  1.01D-06  NBF=   568
 NBsUse=   557 1.00D-06 EigRej=  9.19D-07 NBFU=   557
 Precomputing XC quadrature grid using
 IXCGrd= 4 IRadAn=           0 IRanWt=          -1 IRanGd=           0 AccXCQ= 0.00D+00.
 Generated NRdTot=       0 NPtTot=           0 NUsed=           0 NTot=          32
 NSgBfM=   587   588   588   589   589 MxSgAt=   236 MxSgA2=    36.
 Leave Link  302 at Tue Sep 15 11:02:04 2020, MaxMem=   131072000 cpu:        11.3
 (Enter /share/programs/GAUSSIAN/64/g09/l308.exe)
 Leave Link  308 at Tue Sep 15 11:02:05 2020, MaxMem=   131072000 cpu:         0.8
 (Enter /share/programs/GAUSSIAN/64/g09/l303.exe)
 DipDrv:  MaxL=1.
 Leave Link  303 at Tue Sep 15 11:02:05 2020, MaxMem=   131072000 cpu:         0.6
 (Enter /share/programs/GAUSSIAN/64/g09/l401.exe)
 Initial guess from the checkpoint file:  "/scratch/aartigas.38846/Gau-3549492.chk"
 Skipping rotation of guess because NAtoms(RWF)=  236 differs from NAtoms(Chk)=   36.
 Guess basis will be translated and rotated to current coordinates.
 JPrj=2 DoOrth=T DoCkMO=T.
 Leave Link  401 at Tue Sep 15 11:02:06 2020, MaxMem=   131072000 cpu:         8.1
 (Enter /share/programs/GAUSSIAN/64/g09/l502.exe)
 Closed shell SCF:
 Using DIIS extrapolation, IDIIS=  1040.
 Two-electron integral symmetry not used.
 IVT=     1071582 IEndB=     1071582 NGot=   131072000 MDV=   130365749
 LenX=   130365749 LenY=   130017059
 Requested convergence on RMS density matrix=1.00D-08 within 128 cycles.
 Requested convergence on MAX density matrix=1.00D-06.
 Requested convergence on             energy=1.00D-06.
 No special actions if energy rises.
 Fock matrices will be formed incrementally for  20 cycles.

 Cycle   1  Pass 1  IDiag  1:
 FoFJK:  IHMeth= 1 ICntrl=       0 DoSepK=F KAlg= 0 I1Cent=   0 FoldK=F
 IRaf= 940000000 NMat=   1 IRICut=       1 DoRegI=T DoRafI=F ISym2E= 0.
 FoFCou: FMM=T IPFlag=           0 FMFlag=      100000 FMFlg1=        2001
         NFxFlg=           0 DoJE=F BraDBF=F KetDBF=F FulRan=T
         wScrn=  0.000000 ICntrl=       0 IOpCl=  0 I1Cent=           0 NGrid=           0
         NMat0=    1 NMatS0=      1 NMatT0=    0 NMatD0=    1 NMtDS0=    0 NMtDT0=    0
 Symmetry not used in FoFCou.
 FMM levels:  10  Number of levels for PrismC:   9
 E= -847.003738666969    
 DIIS: error= 5.05D-08 at cycle   1 NSaved=   1.
 NSaved= 1 IEnMin= 1 EnMin= -847.003738666969     IErMin= 1 ErrMin= 5.05D-08
 ErrMax= 5.05D-08  0.00D+00 EMaxC= 1.00D-01 BMatC= 3.55D-12 BMatP= 3.55D-12
 IDIUse=1 WtCom= 1.00D+00 WtEn= 0.00D+00
 Coeff-Com:  0.100D+01
 Coeff:      0.100D+01
 Gap=     0.151 Goal=   None    Shift=    0.000
 RMSDP=2.89D-07 MaxDP=1.33D-05              OVMax= 3.94D-07

 Cycle   2  Pass 1  IDiag  1:
 RMSU=  2.85D-07    CP:  1.00D+00
 E= -847.003738666864     Delta-E=        0.000000000106 Rises=F Damp=F
 DIIS: error= 1.42D-08 at cycle   2 NSaved=   2.
 NSaved= 2 IEnMin= 1 EnMin= -847.003738666969     IErMin= 2 ErrMin= 1.42D-08
 ErrMax= 1.42D-08  0.00D+00 EMaxC= 1.00D-01 BMatC= 2.13D-13 BMatP= 3.55D-12
 IDIUse=1 WtCom= 1.00D+00 WtEn= 0.00D+00
 Coeff-Com:  0.627D-01 0.937D+00
 Coeff:      0.627D-01 0.937D+00
 Gap=     0.151 Goal=   None    Shift=    0.000
 RMSDP=1.57D-08 MaxDP=7.88D-07 DE= 1.06D-10 OVMax= 3.02D-07

 Cycle   3  Pass 1  IDiag  1:
 RMSU=  1.32D-08    CP:  1.00D+00  1.02D+00
 E= -847.003738666856     Delta-E=        0.000000000007 Rises=F Damp=F
 DIIS: error= 2.51D-08 at cycle   3 NSaved=   3.
 NSaved= 3 IEnMin= 1 EnMin= -847.003738666969     IErMin= 2 ErrMin= 1.42D-08
 ErrMax= 2.51D-08  0.00D+00 EMaxC= 1.00D-01 BMatC= 5.05D-13 BMatP= 2.13D-13
 IDIUse=1 WtCom= 1.00D+00 WtEn= 0.00D+00
 Coeff-Com: -0.107D-01 0.616D+00 0.395D+00
 Coeff:     -0.107D-01 0.616D+00 0.395D+00
 Gap=     0.151 Goal=   None    Shift=    0.000
 RMSDP=1.03D-08 MaxDP=4.14D-07 DE= 7.28D-12 OVMax= 2.17D-07

 Cycle   4  Pass 1  IDiag  1:
 RMSU=  5.85D-09    CP:  1.00D+00  1.02D+00  3.90D-01
 E= -847.003738666776     Delta-E=        0.000000000081 Rises=F Damp=F
 DIIS: error= 8.06D-09 at cycle   4 NSaved=   4.
 NSaved= 4 IEnMin= 1 EnMin= -847.003738666969     IErMin= 4 ErrMin= 8.06D-09
 ErrMax= 8.06D-09  0.00D+00 EMaxC= 1.00D-01 BMatC= 2.07D-14 BMatP= 2.13D-13
 IDIUse=1 WtCom= 1.00D+00 WtEn= 0.00D+00
 Coeff-Com: -0.876D-02 0.309D+00 0.241D+00 0.459D+00
 Coeff:     -0.876D-02 0.309D+00 0.241D+00 0.459D+00
 Gap=     0.151 Goal=   None    Shift=    0.000
 RMSDP=4.11D-09 MaxDP=1.53D-07 DE= 8.09D-11 OVMax= 6.88D-08

 SCF Done:  E(RB3LYP) =  -847.003738667     A.U. after    4 cycles
            NFock=  4  Conv=0.41D-08     -V/T= 2.0049
 KE= 8.428349970566D+02 PE=-5.164192584015D+03 EE= 1.874438221195D+03
 Leave Link  502 at Tue Sep 15 11:03:28 2020, MaxMem=   131072000 cpu:       655.9
 (Enter /share/programs/GAUSSIAN/64/g09/l801.exe)
 DoSCS=F DFT=T ScalE2(SS,OS)=  1.000000  1.000000
 Range of M.O.s used for correlation:     1   557
 NBasis=   568 NAE=    73 NBE=    73 NFC=     0 NFV=     0
 NROrb=    557 NOA=    73 NOB=    73 NVA=   484 NVB=   484

 **** Warning!!: The largest alpha MO coefficient is  0.14271947D+03

 Leave Link  801 at Tue Sep 15 11:03:28 2020, MaxMem=   131072000 cpu:         0.2
 (Enter /share/programs/GAUSSIAN/64/g09/l1002.exe)
 Minotr:  Closed shell wavefunction.
          Direct CPHF calculation.
          Differentiating once with respect to magnetic field using GIAOs.
          Electric field/nuclear overlap derivatives assumed to be zero.
          Requested convergence is 1.0D-08 RMS, and 1.0D-07 maximum.
          Secondary convergence is 1.0D-12 RMS, and 1.0D-12 maximum.
          NewPWx=T KeepS1=F KeepF1=F KeepIn=T MapXYZ=F SortEE=F KeepMc=T.
          MDV=     131069551 using IRadAn=       2.
 Generate precomputed XC quadrature information.
          Solving linear equations simultaneously, MaxMat=      72.
 FoFCou: FMM=F IPFlag=           0 FMFlag=      100000 FMFlg1=        2001
         NFxFlg=           0 DoJE=F BraDBF=F KetDBF=T FulRan=T
         wScrn=  0.000000 ICntrl=    6100 IOpCl=  0 I1Cent=           7 NGrid=         236
         NMat0=    1 NMatS0=      1 NMatT0=    0 NMatD0=    1 NMtDS0=    0 NMtDT0=    0
 Symmetry not used in FoFCou.
 FoFJK:  IHMeth= 1 ICntrl=    6127 DoSepK=F KAlg= 0 I1Cent=   0 FoldK=F
 IRaf=         1 NMat=   1 IRICut=       1 DoRegI=T DoRafI=F ISym2E= 0.
          There are     3 degrees of freedom in the 1st order CPHF.  IDoFFX=0 NUNeed=     3.
      3 vectors produced by pass  0 Test12= 1.18D-12 3.33D-08 XBig12= 1.96D+03 8.77D+00.
 AX will form     3 AO Fock derivatives at one time.
      3 vectors produced by pass  1 Test12= 1.18D-12 3.33D-08 XBig12= 3.18D+00 7.58D-01.
      3 vectors produced by pass  2 Test12= 1.18D-12 3.33D-08 XBig12= 1.86D-02 5.85D-02.
      3 vectors produced by pass  3 Test12= 1.18D-12 3.33D-08 XBig12= 4.29D-05 1.35D-03.
      3 vectors produced by pass  4 Test12= 1.18D-12 3.33D-08 XBig12= 9.75D-08 7.22D-05.
      3 vectors produced by pass  5 Test12= 1.18D-12 3.33D-08 XBig12= 3.97D-10 5.92D-06.
      3 vectors produced by pass  6 Test12= 1.18D-12 3.33D-08 XBig12= 1.51D-12 4.40D-07.
 InvSVY:  IOpt=1 It=  1 EMax= 3.55D-15
 Solved reduced A of dimension    21 with     3 vectors.
 Calculating GIAO nuclear magnetic shielding tensors.
 SCF GIAO Magnetic shielding tensor (ppm):
      1  C    Isotropic =    49.6861   Anisotropy =   149.7970
   XX=    46.3088   YX=   -25.0950   ZX=    31.4786
   XY=   -31.1109   YY=   -39.0339   ZY=    13.2621
   XZ=    24.9178   YZ=     8.9888   ZZ=   141.7833
   Eigenvalues:   -49.3507    48.8581   149.5507
      2  C    Isotropic =    49.6861   Anisotropy =   149.7971
   XX=    46.3088   YX=    25.0953   ZX=    31.4786
   XY=    31.1111   YY=   -39.0339   ZY=   -13.2621
   XZ=    24.9177   YZ=    -8.9889   ZZ=   141.7834
   Eigenvalues:   -49.3508    48.8583   149.5509
      3  C    Isotropic =    44.4899   Anisotropy =   204.7372
   XX=   -22.2199   YX=    10.8075   ZX=    51.2710
   XY=     4.9259   YY=   -14.7126   ZY=    14.7921
   XZ=    32.3655   YZ=    21.2392   ZZ=   170.4022
   Eigenvalues:   -31.9593   -15.5523   180.9814
      4  C    Isotropic =    44.4899   Anisotropy =   204.7373
   XX=   -22.2198   YX=   -10.8075   ZX=    51.2710
   XY=    -4.9256   YY=   -14.7126   ZY=   -14.7922
   XZ=    32.3656   YZ=   -21.2393   ZZ=   170.4023
   Eigenvalues:   -31.9592   -15.5524   180.9815
      5  C    Isotropic =    48.5420   Anisotropy =   189.5490
   XX=   -14.6790   YX=     4.7342   ZX=     8.4333
   XY=    20.3759   YY=    -5.5375   ZY=    31.5121
   XZ=    65.1218   YZ=     0.8640   ZZ=   165.8426
   Eigenvalues:   -26.3226    -2.9593   174.9080
      6  C    Isotropic =    48.5421   Anisotropy =   189.5489
   XX=   -14.6789   YX=    -4.7340   ZX=     8.4335
   XY=   -20.3758   YY=    -5.5374   ZY=   -31.5121
   XZ=    65.1218   YZ=    -0.8638   ZZ=   165.8426
   Eigenvalues:   -26.3224    -2.9594   174.9080
      7  C    Isotropic =    50.1907   Anisotropy =   149.2089
   XX=    19.7303   YX=   -44.2755   ZX=    41.2886
   XY=   -38.0437   YY=    -2.7069   ZY=    36.9011
   XZ=    36.5866   YZ=    37.5458   ZZ=   133.5487
   Eigenvalues:   -49.6656    50.5744   149.6633
      8  C    Isotropic =    48.9362   Anisotropy =   152.4339
   XX=   -31.5093   YX=   -11.4921   ZX=    54.7730
   XY=   -19.0468   YY=    46.5898   ZY=    27.5522
   XZ=    42.2451   YZ=    29.8391   ZZ=   131.7282
   Eigenvalues:   -50.1461    46.3960   150.5589
      9  C    Isotropic =    44.4204   Anisotropy =   209.3981
   XX=   -10.1987   YX=    16.7536   ZX=    44.4888
   XY=     8.9342   YY=    -7.7270   ZY=    61.4651
   XZ=    43.3269   YZ=    64.9792   ZZ=   151.1869
   Eigenvalues:   -30.3689   -20.3891   184.0192
     10  C    Isotropic =    45.3894   Anisotropy =   198.3236
   XX=    -5.9706   YX=    23.3819   ZX=    35.6519
   XY=    38.1954   YY=     1.7271   ZY=    73.1370
   XZ=    54.0013   YZ=    45.7045   ZZ=   140.4116
   Eigenvalues:   -33.5315    -7.9055   177.6051
     11  H    Isotropic =    23.8179   Anisotropy =     7.5674
   XX=    27.2191   YX=    -1.9090   ZX=    -2.2602
   XY=    -1.7961   YY=    24.8722   ZY=    -0.1966
   XZ=    -3.3763   YZ=    -0.1950   ZZ=    19.3625
   Eigenvalues:    18.3647    24.2263    28.8628
     12  H    Isotropic =    23.8179   Anisotropy =     7.5674
   XX=    27.2191   YX=     1.9090   ZX=    -2.2602
   XY=     1.7961   YY=    24.8722   ZY=     0.1966
   XZ=    -3.3763   YZ=     0.1950   ZZ=    19.3625
   Eigenvalues:    18.3647    24.2263    28.8628
     13  H    Isotropic =    23.8548   Anisotropy =     7.5124
   XX=    26.7195   YX=    -2.1358   ZX=    -2.0755
[...]
   126  Bq   0.000000
   127  Bq   0.000000
   128  Bq   0.000000
   129  Bq   0.000000
   130  Bq   0.000000
   131  Bq   0.000000
   132  Bq   0.000000
   133  Bq   0.000000
   134  Bq   0.000000
   135  Bq   0.000000
   136  Bq   0.000000
   137  Bq   0.000000
   138  Bq   0.000000
   139  Bq   0.000000
   140  Bq   0.000000
   141  Bq   0.000000
   142  Bq   0.000000
   143  Bq   0.000000
   144  Bq   0.000000
   145  Bq   0.000000
   146  Bq   0.000000
   147  Bq   0.000000
   148  Bq   0.000000
   149  Bq   0.000000
   150  Bq   0.000000
   151  Bq   0.000000
   152  Bq   0.000000
   153  Bq   0.000000
   154  Bq   0.000000
   155  Bq   0.000000
   156  Bq   0.000000
   157  Bq   0.000000
   158  Bq   0.000000
   159  Bq   0.000000
   160  Bq   0.000000
   161  Bq   0.000000
   162  Bq   0.000000
   163  Bq   0.000000
   164  Bq   0.000000
   165  Bq   0.000000
   166  Bq   0.000000
   167  Bq   0.000000
   168  Bq   0.000000
   169  Bq   0.000000
   170  Bq   0.000000
   171  Bq   0.000000
   172  Bq   0.000000
   173  Bq   0.000000
   174  Bq   0.000000
   175  Bq   0.000000
   176  Bq   0.000000
   177  Bq   0.000000
   178  Bq   0.000000
   179  Bq   0.000000
   180  Bq   0.000000
   181  Bq   0.000000
   182  Bq   0.000000
   183  Bq   0.000000
   184  Bq   0.000000
   185  Bq   0.000000
   186  Bq   0.000000
   187  Bq   0.000000
   188  Bq   0.000000
   189  Bq   0.000000
   190  Bq   0.000000
   191  Bq   0.000000
   192  Bq   0.000000
   193  Bq   0.000000
   194  Bq   0.000000
   195  Bq   0.000000
   196  Bq   0.000000
   197  Bq   0.000000
   198  Bq   0.000000
   199  Bq   0.000000
   200  Bq   0.000000
   201  Bq   0.000000
   202  Bq   0.000000
   203  Bq   0.000000
   204  Bq   0.000000
   205  Bq   0.000000
   206  Bq   0.000000
   207  Bq   0.000000
   208  Bq   0.000000
   209  Bq   0.000000
   210  Bq   0.000000
   211  Bq   0.000000
   212  Bq   0.000000
   213  Bq   0.000000
   214  Bq   0.000000
   215  Bq   0.000000
   216  Bq   0.000000
   217  Bq   0.000000
   218  Bq   0.000000
   219  Bq   0.000000
   220  Bq   0.000000
   221  Bq   0.000000
   222  Bq   0.000000
   223  Bq   0.000000
   224  Bq   0.000000
   225  Bq   0.000000
   226  Bq   0.000000
   227  Bq   0.000000
   228  Bq   0.000000
   229  Bq   0.000000
   230  Bq   0.000000
   231  Bq   0.000000
   232  Bq   0.000000
   233  Bq   0.000000
   234  Bq   0.000000
   235  Bq   0.000000
   236  Bq   0.000000
 Sum of Mulliken charges =   0.00000
 Mulliken charges with hydrogens summed into heavy atoms:
               1
     1  C   -0.262865
     2  C   -0.384058
     3  C    0.737923
     4  C    0.737922
     5  C   -0.039994
     6  C   -0.040001
     7  C    0.075155
     8  C   -0.330147
     9  C    0.780501
    10  C   -0.200782
    15  C    0.249272
    16  C   -0.533462
    17  C   -0.189404
    18  C   -0.286191
    23  C   -0.330145
    24  C    0.075154
    25  C    0.780496
    26  C   -0.200782
    27  C    0.249273
    28  C   -0.286192
    29  C   -0.189403
    30  C   -0.533462
    37  Bq   0.000000
    38  Bq   0.000000
    39  Bq   0.000000
    40  Bq   0.000000
    41  Bq   0.000000
    42  Bq   0.000000
    43  Bq   0.000000
    44  Bq   0.000000
    45  Bq   0.000000
    46  Bq   0.000000
    47  Bq   0.000000
    48  Bq   0.000000
    49  Bq   0.000000
    50  Bq   0.000000
    51  Bq   0.000000
    52  Bq   0.000000
    53  Bq   0.000000
    54  Bq   0.000000
    55  Bq   0.000000
    56  Bq   0.000000
    57  Bq   0.000000
    58  Bq   0.000000
    59  Bq   0.000000
    60  Bq   0.000000
    61  Bq   0.000000
    62  Bq   0.000000
    63  Bq   0.000000
    64  Bq   0.000000
    65  Bq   0.000000
    66  Bq   0.000000
    67  Bq   0.000000
    68  Bq   0.000000
    69  Bq   0.000000
    70  Bq   0.000000
    71  Bq   0.000000
    72  Bq   0.000000
    73  Bq   0.000000
    74  Bq   0.000000
    75  Bq   0.000000
    76  Bq   0.000000
    77  Bq   0.000000
    78  Bq   0.000000
    79  Bq   0.000000
    80  Bq   0.000000
    81  Bq   0.000000
    82  Bq   0.000000
    83  Bq   0.000000
    84  Bq   0.000000
    85  Bq   0.000000
    86  Bq   0.000000
    87  Bq   0.000000
    88  Bq   0.000000
    89  Bq   0.000000
    90  Bq   0.000000
    91  Bq   0.000000
    92  Bq   0.000000
    93  Bq   0.000000
    94  Bq   0.000000
    95  Bq   0.000000
    96  Bq   0.000000
    97  Bq   0.000000
    98  Bq   0.000000
    99  Bq   0.000000
   100  Bq   0.000000
   101  Bq   0.000000
   102  Bq   0.000000
   103  Bq   0.000000
   104  Bq   0.000000
   105  Bq   0.000000
   106  Bq   0.000000
   107  Bq   0.000000
   108  Bq   0.000000
   109  Bq   0.000000
   110  Bq   0.000000
   111  Bq   0.000000
   112  Bq   0.000000
   113  Bq   0.000000
   114  Bq   0.000000
   115  Bq   0.000000
   116  Bq   0.000000
   117  Bq   0.000000
   118  Bq   0.000000
   119  Bq   0.000000
   120  Bq   0.000000
   121  Bq   0.000000
   122  Bq   0.000000
   123  Bq   0.000000
   124  Bq   0.000000
   125  Bq   0.000000
   126  Bq   0.000000
   127  Bq   0.000000
   128  Bq   0.000000
   129  Bq   0.000000
   130  Bq   0.000000
   131  Bq   0.000000
   132  Bq   0.000000
   133  Bq   0.000000
   134  Bq   0.000000
   135  Bq   0.000000
   136  Bq   0.000000
   137  Bq   0.000000
   138  Bq   0.000000
   139  Bq   0.000000
   140  Bq   0.000000
   141  Bq   0.000000
   142  Bq   0.000000
   143  Bq   0.000000
   144  Bq   0.000000
   145  Bq   0.000000
   146  Bq   0.000000
   147  Bq   0.000000
   148  Bq   0.000000
   149  Bq   0.000000
   150  Bq   0.000000
   151  Bq   0.000000
   152  Bq   0.000000
   153  Bq   0.000000
   154  Bq   0.000000
   155  Bq   0.000000
   156  Bq   0.000000
   157  Bq   0.000000
   158  Bq   0.000000
   159  Bq   0.000000
   160  Bq   0.000000
   161  Bq   0.000000
   162  Bq   0.000000
   163  Bq   0.000000
   164  Bq   0.000000
   165  Bq   0.000000
   166  Bq   0.000000
   167  Bq   0.000000
   168  Bq   0.000000
   169  Bq   0.000000
   170  Bq   0.000000
   171  Bq   0.000000
   172  Bq   0.000000
   173  Bq   0.000000
   174  Bq   0.000000
   175  Bq   0.000000
   176  Bq   0.000000
   177  Bq   0.000000
   178  Bq   0.000000
   179  Bq   0.000000
   180  Bq   0.000000
   181  Bq   0.000000
   182  Bq   0.000000
   183  Bq   0.000000
   184  Bq   0.000000
   185  Bq   0.000000
   186  Bq   0.000000
   187  Bq   0.000000
   188  Bq   0.000000
   189  Bq   0.000000
   190  Bq   0.000000
   191  Bq   0.000000
   192  Bq   0.000000
   193  Bq   0.000000
   194  Bq   0.000000
   195  Bq   0.000000
   196  Bq   0.000000
   197  Bq   0.000000
   198  Bq   0.000000
   199  Bq   0.000000
   200  Bq   0.000000
   201  Bq   0.000000
   202  Bq   0.000000
   203  Bq   0.000000
   204  Bq   0.000000
   205  Bq   0.000000
   206  Bq   0.000000
   207  Bq   0.000000
   208  Bq   0.000000
   209  Bq   0.000000
   210  Bq   0.000000
   211  Bq   0.000000
   212  Bq   0.000000
   213  Bq   0.000000
   214  Bq   0.000000
   215  Bq   0.000000
   216  Bq   0.000000
   217  Bq   0.000000
   218  Bq   0.000000
   219  Bq   0.000000
   220  Bq   0.000000
   221  Bq   0.000000
   222  Bq   0.000000
   223  Bq   0.000000
   224  Bq   0.000000
   225  Bq   0.121192
   226  Bq   0.000000
   227  Bq   0.000000
   228  Bq   0.000000
   229  Bq   0.000000
   230  Bq   0.000000
   231  Bq   0.000000
   232  Bq   0.000000
   233  Bq   0.000000
   234  Bq   0.000000
   235  Bq   0.000000
   236  Bq   0.000000
 Electronic spatial extent (au):  <R**2>=           5804.3227
 Charge=              0.0000 electrons
 Dipole moment (field-independent basis, Debye):
    X=              0.0000    Y=              0.0732    Z=              0.0000  Tot=              0.0732
 Quadrupole moment (field-independent basis, Debye-Ang):
   XX=           -113.9137   YY=           -113.9781   ZZ=           -133.4378
   XY=              0.0000   XZ=             -4.8717   YZ=              0.0000
 Traceless Quadrupole moment (field-independent basis, Debye-Ang):
   XX=              6.5295   YY=              6.4651   ZZ=            -12.9946
   XY=              0.0000   XZ=             -4.8717   YZ=              0.0000
 Octapole moment (field-independent basis, Debye-Ang**2):
  XXX=              0.0000  YYY=             11.7108  ZZZ=              0.0000  XYY=              0.0000
  XXY=             -6.4067  XXZ=              0.0000  XZZ=              0.0000  YZZ=             -7.8695
  YYZ=              0.0000  XYZ=            -16.2862
 Hexadecapole moment (field-independent basis, Debye-Ang**3):
 XXXX=          -4416.4021 YYYY=          -2784.9756 ZZZZ=           -481.5690 XXXY=              0.0001
 XXXZ=           -124.3517 YYYX=             -0.0003 YYYZ=              0.0001 ZZZX=             -4.4782
 ZZZY=              0.0001 XXYY=          -1189.3576 XXZZ=           -942.9016 YYZZ=           -589.4012
 XXYZ=              0.0000 YYXZ=              7.8297 ZZXY=             -0.0001
 N-N= 1.599915627097D+03 E-N=-5.164192587538D+03  KE= 8.428349970566D+02
 Leave Link  601 at Tue Sep 15 11:09:48 2020, MaxMem=   131072000 cpu:         0.6
 (Enter /share/programs/GAUSSIAN/64/g09/l9999.exe)
 1\1\GINC-MUHKA\SP\RB3LYP\6-311+G(d,p)\C22H14\AARTIGAS\15-Sep-2020\0\\#
 P rb3lyp/6-311+g** NMR Guess=Read geom=connectivity\\Title\\0,1\C,0,0.
 653241,3.257859,-0.20251\C,0,-0.653243,3.25786,0.20251\C,0,1.372495,2.
 032956,-0.320807\C,0,-1.372495,2.032956,0.320807\C,0,0.722474,0.795666
 ,-0.050388\C,0,-0.722474,0.795667,0.050387\C,0,2.760385,2.053927,-0.67
 4268\C,0,3.508866,0.913916,-0.671362\C,0,2.955226,-0.309622,-0.177479\
 C,0,1.574722,-0.361114,0.197094\H,0,1.183427,4.19574,-0.384599\H,0,-1.
 183429,4.19574,0.384599\H,0,3.206283,3.012423,-0.951392\H,0,4.560023,0
 .932956,-0.969333\C,0,3.78302,-1.443098,0.028309\C,0,1.137427,-1.50753
 3,0.912109\C,0,1.973691,-2.584349,1.138062\C,0,3.301853,-2.571588,0.66
 1177\H,0,4.825754,-1.39123,-0.295484\H,0,0.124652,-1.532788,1.308472\H
 ,0,1.603586,-3.445682,1.698977\H,0,3.952742,-3.433526,0.825134\C,0,-3.
 508866,0.913915,0.671362\C,0,-2.760386,2.053926,0.674268\C,0,-2.955226
 ,-0.309623,0.177479\C,0,-1.574722,-0.361114,-0.197094\C,0,-3.78302,-1.
 443099,-0.028309\C,0,-3.301852,-2.571589,-0.661177\C,0,-1.97369,-2.584
 349,-1.138061\C,0,-1.137426,-1.507534,-0.912109\H,0,-4.560022,0.932954
 ,0.969334\H,0,-3.206283,3.012421,0.951392\H,0,-4.825754,-1.391232,0.29
 5484\H,0,-3.952741,-3.433528,-0.825134\H,0,-1.603585,-3.445682,-1.6989
 76\H,0,-0.124652,-1.532788,-1.308471\Bq,0,-1.5530728106,4.2947857605,1
 .3084785325\Bq,0,-1.5628385226,4.2456902113,1.3084785325\Bq,0,-1.56611
 24324,4.19574,1.3084785325\Bq,0,-1.5628385226,4.1457897887,1.308478532
 5\Bq,0,-1.5530728106,4.0966942395,1.3084785325\Bq,0,-1.5369823906,4.04
 92933906,1.3084785325\Bq,0,-1.514842574,4.0043982838,1.3084785325\Bq,0
 ,-1.4870321793,3.9627770869,1.3084785325\Bq,0,-1.4540270501,3.92514194
 99,1.3084785325\Bq,0,-1.4163919131,3.8921368207,1.3084785325\Bq,0,-1.3
 747707162,3.864326426,1.3084785325\Bq,0,-1.3298756094,3.8421866094,1.3
 084785325\Bq,0,-1.2824747605,3.8260961894,1.3084785325\Bq,0,-1.2333792
 113,3.8163304774,1.3084785325\Bq,0,-1.183429,3.8130565676,1.3084785325
 \Bq,0,-1.1334787887,3.8163304774,1.3084785325\Bq,0,-1.0843832395,3.826
 0961894,1.3084785325\Bq,0,-1.0369823906,3.8421866094,1.3084785325\Bq,0
 ,-0.9920872838,3.864326426,1.3084785325\Bq,0,-0.9504660869,3.892136820
 7,1.3084785325\Bq,0,-0.9128309499,3.9251419499,1.3084785325\Bq,0,-0.87
 98258207,3.9627770869,1.3084785325\Bq,0,-0.852015426,4.0043982838,1.30
 84785325\Bq,0,-0.8298756094,4.0492933906,1.3084785325\Bq,0,-0.81378518
 94,4.0966942395,1.3084785325\Bq,0,-0.8040194774,4.1457897887,1.3084785
 325\Bq,0,-0.683429,4.19574,1.2506244038\Bq,0,-0.6877065693,4.261003096
 1,1.2506244038\Bq,0,-0.7004660869,4.3251495226,1.2506244038\Bq,0,-0.72
 14892337,4.3870817162,1.2506244038\Bq,0,-0.7504162981,4.44574,1.250624
 4038\Bq,0,-0.7867523299,4.5001207145,1.2506244038\Bq,0,-0.8298756094,4
 .5492933906,1.2506244038\Bq,0,-0.8790482855,4.5924166701,1.2506244038\
 Bq,0,-0.933429,4.6287527019,1.2506244038\Bq,0,-0.9920872838,4.65767976
 63,1.2506244038\Bq,0,-1.0540194774,4.6787029131,1.2506244038\Bq,0,-1.1
 181659039,4.6914624307,1.2506244038\Bq,0,-1.183429,4.69574,1.250624403
 8\Bq,0,-1.2486920961,4.6914624307,1.2506244038\Bq,0,-1.3128385226,4.67
 87029131,1.2506244038\Bq,0,-1.3747707162,4.6576797663,1.2506244038\Bq,
 0,-1.433429,4.6287527019,1.2506244038\Bq,0,-1.4878097145,4.5924166701,
 1.2506244038\Bq,0,-1.5369823906,4.5492933906,1.2506244038\Bq,0,-1.5801
 056701,4.5001207145,1.2506244038\Bq,0,-1.6164417019,4.44574,1.25062440
 38\Bq,0,-1.6453687663,4.3870817162,1.2506244038\Bq,0,-1.6663919131,4.3
 251495226,1.2506244038\Bq,0,-1.6791514307,4.2610030961,1.2506244038\Bq
 ,0,-1.683429,4.19574,1.2506244038\Bq,0,-1.6791514307,4.1304769039,1.25
 06244038\Bq,0,-1.6663919131,4.0663304774,1.2506244038\Bq,0,-1.64536876
 63,4.0043982838,1.2506244038\Bq,0,-1.6164417019,3.94574,1.2506244038\B
 q,0,-1.5801056701,3.8913592855,1.2506244038\Bq,0,-1.5369823906,3.84218
 66094,1.2506244038\Bq,0,-1.4878097145,3.7990633299,1.2506244038\Bq,0,-
 1.433429,3.7627272981,1.2506244038\Bq,0,-1.3747707162,3.7338002337,1.2
 506244038\Bq,0,-1.3128385226,3.7127770869,1.2506244038\Bq,0,-1.2486920
 961,3.7000175693,1.2506244038\Bq,0,-1.183429,3.69574,1.2506244038\Bq,0
 ,-1.1181659039,3.7000175693,1.2506244038\Bq,0,-1.0540194774,3.71277708
 69,1.2506244038\Bq,0,-0.9920872838,3.7338002337,1.2506244038\Bq,0,-0.9
 33429,3.7627272981,1.2506244038\Bq,0,-0.8790482855,3.7990633299,1.2506
 244038\Bq,0,-0.8298756094,3.8421866094,1.2506244038\Bq,0,-0.7867523299
 ,3.8913592855,1.2506244038\Bq,0,-0.7504162981,3.94574,1.2506244038\Bq,
 0,-0.7214892337,4.0043982838,1.2506244038\Bq,0,-0.7004660869,4.0663304
 774,1.2506244038\Bq,0,-0.6877065693,4.1304769039,1.2506244038\Bq,0,-0.
 574667571,4.19574,1.1779523403\Bq,0,-0.5798756094,4.2751993113,1.17795
 23403\Bq,0,-0.5954106137,4.3532990518,1.1779523403\Bq,0,-0.6210067756,
 4.4287029131,1.1779523403\Bq,0,-0.6562261376,4.5001207145,1.1779523403
 \Bq,0,-0.7004660869,4.5663304774,1.1779523403\Bq,0,-0.7529696654,4.626
 1993346,1.1779523403\Bq,0,-0.8128385226,4.6787029131,1.1779523403\Bq,0
 ,-0.8790482855,4.7229428624,1.1779523403\Bq,0,-0.9504660869,4.75816222
 44,1.1779523403\Bq,0,-1.0258699482,4.7837583863,1.1779523403\Bq,0,-1.1
 039696887,4.7992933906,1.1779523403\Bq,0,-1.183429,4.804501429,1.17795
 23403\Bq,0,-1.2628883113,4.7992933906,1.1779523403\Bq,0,-1.3409880518,
 4.7837583863,1.1779523403\Bq,0,-1.4163919131,4.7581622244,1.1779523403
 \Bq,0,-1.4878097145,4.7229428624,1.1779523403\Bq,0,-1.5540194774,4.678
 7029131,1.1779523403\Bq,0,-1.6138883346,4.6261993346,1.1779523403\Bq,0
 ,-1.6663919131,4.5663304774,1.1779523403\Bq,0,-1.7106318624,4.50012071
 45,1.1779523403\Bq,0,-1.7458512244,4.4287029131,1.1779523403\Bq,0,-1.7
 714473863,4.3532990518,1.1779523403\Bq,0,-1.7869823906,4.2751993113,1.
 1779523403\Bq,0,-1.792190429,4.19574,1.1779523403\Bq,0,-1.7869823906,4
 .1162806887,1.1779523403\Bq,0,-1.7714473863,4.0381809482,1.1779523403\
 Bq,0,-1.7458512244,3.9627770869,1.1779523403\Bq,0,-1.7106318624,3.8913
 592855,1.1779523403\Bq,0,-1.6663919131,3.8251495226,1.1779523403\Bq,0,
 -1.6138883346,3.7652806654,1.1779523403\Bq,0,-1.5540194774,3.712777086
 9,1.1779523403\Bq,0,-1.4878097145,3.6685371376,1.1779523403\Bq,0,-1.41
 63919131,3.6333177756,1.1779523403\Bq,0,-1.3409880518,3.6077216137,1.1
 779523403\Bq,0,-1.2628883113,3.5921866094,1.1779523403\Bq,0,-1.183429,
 3.586978571,1.1779523403\Bq,0,-1.1039696887,3.5921866094,1.1779523403\
 Bq,0,-1.0258699482,3.6077216137,1.1779523403\Bq,0,-0.9504660869,3.6333
 177756,1.1779523403\Bq,0,-0.8790482855,3.6685371376,1.1779523403\Bq,0,
 -0.8128385226,3.7127770869,1.1779523403\Bq,0,-0.7529696654,3.765280665
 4,1.1779523403\Bq,0,-0.7004660869,3.8251495226,1.1779523403\Bq,0,-0.65
 62261376,3.8913592855,1.1779523403\Bq,0,-0.6210067756,3.9627770869,1.1
 779523403\Bq,0,-0.5954106137,4.0381809482,1.1779523403\Bq,0,-0.5798756
 094,4.1162806887,1.1779523403\Bq,0,-0.4763222188,4.19574,1.0917057812\
 Bq,0,-0.4823716154,4.2880359556,1.0917057812\Bq,0,-0.5004162981,4.3787
 527019,1.0917057812\Bq,0,-0.5301475176,4.4663380501,1.0917057812\Bq,0,
 -0.5710565643,4.5492933906,1.0917057812\Bq,0,-0.6224434732,4.626199334
 6,1.0917057812\Bq,0,-0.683429,4.69574,1.0917057812\Bq,0,-0.7529696654,
 4.7567255268,1.0917057812\Bq,0,-0.8298756094,4.8081124357,1.0917057812
 \Bq,0,-0.9128309499,4.8490214824,1.0917057812\Bq,0,-1.0004162981,4.878
 7527019,1.0917057812\Bq,0,-1.0911330444,4.8967973846,1.0917057812\Bq,0
 ,-1.183429,4.9028467812,1.0917057812\Bq,0,-1.2757249556,4.8967973846,1
 .0917057812\Bq,0,-1.3664417019,4.8787527019,1.0917057812\Bq,0,-1.45402
 70501,4.8490214824,1.0917057812\Bq,0,-1.5369823906,4.8081124357,1.0917
 057812\Bq,0,-1.6138883346,4.7567255268,1.0917057812\Bq,0,-1.683429,4.6
 9574,1.0917057812\Bq,0,-1.7444145268,4.6261993346,1.0917057812\Bq,0,-1
 .7958014357,4.5492933906,1.0917057812\Bq,0,-1.8367104824,4.4663380501,
 1.0917057812\Bq,0,-1.8664417019,4.3787527019,1.0917057812\Bq,0,-1.8844
 863846,4.2880359556,1.0917057812\Bq,0,-1.8905357812,4.19574,1.09170578
 12\Bq,0,-1.8844863846,4.1034440444,1.0917057812\Bq,0,-1.8664417019,4.0
 127272981,1.0917057812\Bq,0,-1.8367104824,3.9251419499,1.0917057812\Bq
 ,0,-1.7958014357,3.8421866094,1.0917057812\Bq,0,-1.7444145268,3.765280
 6654,1.0917057812\Bq,0,-1.183429,3.4886332188,1.0917057812\Bq,0,-1.091
 1330444,3.4946826154,1.0917057812\Bq,0,-0.6224434732,3.7652806654,1.09
 17057812\Bq,0,-0.5710565643,3.8421866094,1.0917057812\Bq,0,-0.53014751
 76,3.9251419499,1.0917057812\Bq,0,-0.5004162981,4.0127272981,1.0917057
 812\Bq,0,-0.4823716154,4.1034440444,1.0917057812\Bq,0,-0.3900756597,4.
 19574,0.993360429\Bq,0,-0.3968629075,4.2992933906,0.993360429\Bq,0,-0.
 4171085192,4.401074954,0.993360429\Bq,0,-0.4504660869,4.4993431793,0.9
 93360429\Bq,0,-0.4963648531,4.5924166701,0.993360429\Bq,0,-0.554019477
 4,4.6787029131,0.993360429\Bq,0,-0.6224434732,4.7567255268,0.993360429
 \Bq,0,-0.7004660869,4.8251495226,0.993360429\Bq,0,-0.7867523299,4.8828
 041469,0.993360429\Bq,0,-0.8798258207,4.9287029131,0.993360429\Bq,0,-0
 .978094046,4.9620604808,0.993360429\Bq,0,-1.0798756094,4.9823060925,0.
 993360429\Bq,0,-1.183429,4.9890933403,0.993360429\Bq,0,-1.2869823906,4
 .9823060925,0.993360429\Bq,0,-1.388763954,4.9620604808,0.993360429\Bq,
 0,-1.4870321793,4.9287029131,0.993360429\Bq,0,-1.5801056701,4.88280414
 69,0.993360429\Bq,0,-1.6663919131,4.8251495226,0.993360429\Bq,0,-1.744
 4145268,4.7567255268,0.993360429\Bq,0,-1.8128385226,4.6787029131,0.993
 360429\Bq,0,-1.8704931469,4.5924166701,0.993360429\Bq,0,-1.9163919131,
 4.4993431793,0.993360429\Bq,0,-1.9497494808,4.401074954,0.993360429\Bq
 ,0,-1.9699950925,4.2992933906,0.993360429\Bq,0,-1.9767823403,4.19574,0
 .993360429\Bq,0,-1.9699950925,4.0921866094,0.993360429\Bq,0,-1.9497494
 808,3.990405046,0.993360429\Bq,0,-1.9163919131,3.8921368207,0.99336042
 9\Bq,0,-1.8704931469,3.7990633299,0.993360429\Bq,0,-0.4504660869,3.892
 1368207,0.993360429\Bq,0,-0.4171085192,3.990405046,0.993360429\Bq,0,-0
 .3968629075,4.0921866094,0.993360429\Bq,0,-0.3174035962,4.19574,0.8845
 99\Bq,0,-0.3248125636,4.3087789983,0.884599\Bq,0,-0.3469126963,4.41988
 3868,0.884599\Bq,0,-0.3833258548,4.527153574,0.884599\Bq,0,-0.433429,4
 .6287527019,0.884599\Bq,0,-0.4963648531,4.7229428624,0.884599\Bq,0,-0.
 5710565643,4.8081124357,0.884599\Bq,0,-0.6562261376,4.8828041469,0.884
 599\Bq,0,-0.7504162981,4.94574,0.884599\\Version=ES64L-G09RevD.01\HF=-
 847.0037387\RMSD=4.107e-09\Dipole=0.0000004,0.0287843,0.0000009\Quadru
 pole=4.8545288,4.8066247,-9.6611535,-0.0000047,-3.6219991,-0.000002\PG
 =C01 [X(C22H14)]\\@


 IMAGINATION WILL OFTEN CARRY US TO WORLDS THAT NEVER WERE.
 BUT WITHOUT IT, WE GO NOWHERE. -- CARL SAGAN (COSMOS)
 Job cpu time:       0 days  1 hours  0 minutes  9.2 seconds.
 File lengths (MBytes):  RWF=    184 Int=      0 D2E=      0 Chk=     21 Scr=      1
 Normal termination of Gaussian 09 at Tue Sep 15 11:09:48 2020.
