 Entering Gaussian System, Link 0=g09
 Input=input_batch_20000.com
 Output=input_batch_20000.log
 Initial command:
 /share/programs/GAUSSIAN/64/g09/l1.exe "/scratch/aartigas.39124/Gau-3296224.inp" -scrdir="/scratch/aartigas.39124/"
 Entering Link 1 = /share/programs/GAUSSIAN/64/g09/l1.exe PID=   3296226.
  
 Copyright (c) 1988,1990,1992,1993,1995,1998,2003,2009,2013,
            Gaussian, Inc.  All Rights Reserved.
  
 This is part of the Gaussian(R) 09 program.  It is based on
 the Gaussian(R) 03 system (copyright 2003, Gaussian, Inc.),
 the Gaussian(R) 98 system (copyright 1998, Gaussian, Inc.),
 the Gaussian(R) 94 system (copyright 1995, Gaussian, Inc.),
 the Gaussian 92(TM) system (copyright 1992, Gaussian, Inc.),
 the Gaussian 90(TM) system (copyright 1990, Gaussian, Inc.),
 the Gaussian 88(TM) system (copyright 1988, Gaussian, Inc.),
 the Gaussian 86(TM) system (copyright 1986, Carnegie Mellon
 University), and the Gaussian 82(TM) system (copyright 1983,
 Carnegie Mellon University). Gaussian is a federally registered
 trademark of Gaussian, Inc.
  
 This software contains proprietary and confidential information,
 including trade secrets, belonging to Gaussian, Inc.
  
 This software is provided under written license and may be
 used, copied, transmitted, or stored only in accord with that
 written license.
  
 The following legend is applicable only to US Government
 contracts under FAR:
  
                    RESTRICTED RIGHTS LEGEND
  
 Use, reproduction and disclosure by the US Government is
 subject to restrictions as set forth in subparagraphs (a)
 and (c) of the Commercial Computer Software - Restricted
 Rights clause in FAR 52.227-19.
  
 Gaussian, Inc.
 340 Quinnipiac St., Bldg. 40, Wallingford CT 06492
  
  
 ---------------------------------------------------------------
 Warning -- This program may not be used in any manner that
 competes with the business of Gaussian, Inc. or will provide
 assistance to any competitor of Gaussian, Inc.  The licensee
 of this program is prohibited from giving any competitor of
 Gaussian, Inc. access to this program.  By using this program,
 the user acknowledges that Gaussian, Inc. is engaged in the
 business of creating and licensing software in the field of
 computational chemistry and represents and warrants to the
 licensee that it is not a competitor of Gaussian, Inc. and that
 it will not use this program in any manner prohibited above.
 ---------------------------------------------------------------
  

 Cite this work as:
 Gaussian 09, Revision D.01,
 M. J. Frisch, G. W. Trucks, H. B. Schlegel, G. E. Scuseria, 
 M. A. Robb, J. R. Cheeseman, G. Scalmani, V. Barone, B. Mennucci, 
 G. A. Petersson, H. Nakatsuji, M. Caricato, X. Li, H. P. Hratchian, 
 A. F. Izmaylov, J. Bloino, G. Zheng, J. L. Sonnenberg, M. Hada, 
 M. Ehara, K. Toyota, R. Fukuda, J. Hasegawa, M. Ishida, T. Nakajima, 
 Y. Honda, O. Kitao, H. Nakai, T. Vreven, J. A. Montgomery, Jr., 
 J. E. Peralta, F. Ogliaro, M. Bearpark, J. J. Heyd, E. Brothers, 
 K. N. Kudin, V. N. Staroverov, T. Keith, R. Kobayashi, J. Normand, 
 K. Raghavachari, A. Rendell, J. C. Burant, S. S. Iyengar, J. Tomasi, 
 M. Cossi, N. Rega, J. M. Millam, M. Klene, J. E. Knox, J. B. Cross, 
 V. Bakken, C. Adamo, J. Jaramillo, R. Gomperts, R. E. Stratmann, 
 O. Yazyev, A. J. Austin, R. Cammi, C. Pomelli, J. W. Ochterski, 
 R. L. Martin, K. Morokuma, V. G. Zakrzewski, G. A. Voth, 
 P. Salvador, J. J. Dannenberg, S. Dapprich, A. D. Daniels, 
 O. Farkas, J. B. Foresman, J. V. Ortiz, J. Cioslowski, 
 and D. J. Fox, Gaussian, Inc., Wallingford CT, 2013.
 
 ******************************************
 Gaussian 09:  ES64L-G09RevD.01 24-Apr-2013
                15-Sep-2020 
 ******************************************
 %OldChk=/home/aartigas/chk/5_helicene_spe.chk
 %nproc=8
 Will use up to    8 processors via shared memory.
 %mem=1000MB
 Copying data from "/home/aartigas/chk/5_helicene_spe.chk" to current chk file "/scratch/aartigas.39124/Gau-3296226.chk".
 ----------------------------------------------------
 #P rb3lyp/6-311+g** NMR Guess=Read geom=connectivity
 ----------------------------------------------------
 1/38=1,57=2/1;
 2/12=2,17=6,18=5,40=1/2;
 3/5=4,6=6,7=111,11=2,16=1,25=1,30=1,74=-5,116=1/1,2,8,3;
 4/5=1/1;
 5/5=2,38=6/2;
 8/6=1,10=90,11=11/1;
 10/13=100,45=16/2;
 6/7=2,8=2,9=2,10=2,28=1/1;
 99/9=1/99;
 Leave Link    1 at Tue Sep 15 12:59:54 2020, MaxMem=   131072000 cpu:         0.5
 (Enter /share/programs/GAUSSIAN/64/g09/l101.exe)
 -----
 Title
 -----
 Symbolic Z-matrix:
 Charge =  0 Multiplicity = 1
 C                     0.65324   3.25786  -0.20251 
 C                    -0.65324   3.25786   0.20251 
 C                     1.3725    2.03296  -0.32081 
 C                    -1.3725    2.03296   0.32081 
 C                     0.72247   0.79567  -0.05039 
 C                    -0.72247   0.79567   0.05039 
 C                     2.76039   2.05393  -0.67427 
 C                     3.50887   0.91392  -0.67136 
 C                     2.95523  -0.30962  -0.17748 
 C                     1.57472  -0.36111   0.19709 
 H                     1.18343   4.19574  -0.3846 
 H                    -1.18343   4.19574   0.3846 
 H                     3.20628   3.01242  -0.95139 
 H                     4.56002   0.93296  -0.96933 
 C                     3.78302  -1.4431    0.02831 
 C                     1.13743  -1.50753   0.91211 
 C                     1.97369  -2.58435   1.13806 
 C                     3.30185  -2.57159   0.66118 
 H                     4.82575  -1.39123  -0.29548 
 H                     0.12465  -1.53279   1.30847 
 H                     1.60359  -3.44568   1.69898 
 H                     3.95274  -3.43353   0.82513 
 C                    -3.50887   0.91392   0.67136 
 C                    -2.76039   2.05393   0.67427 
 C                    -2.95523  -0.30962   0.17748 
 C                    -1.57472  -0.36111  -0.19709 
 C                    -3.78302  -1.4431   -0.02831 
 C                    -3.30185  -2.57159  -0.66118 
 C                    -1.97369  -2.58435  -1.13806 
 C                    -1.13743  -1.50753  -0.91211 
 H                    -4.56002   0.93295   0.96933 
 H                    -3.20628   3.01242   0.95139 
 H                    -4.82575  -1.39123   0.29548 
 H                    -3.95274  -3.43353  -0.82513 
 H                    -1.60359  -3.44568  -1.69898 
 H                    -0.12465  -1.53279  -1.30847 
 Bq                   -4.84514  -3.19441  -1.20782 
 Bq                   -4.86872  -3.31294  -1.20782 
 Bq                   -4.87662  -3.43353  -1.20782 
 Bq                   -4.86872  -3.55412  -1.20782 
 Bq                   -4.84514  -3.67265  -1.20782 
 Bq                   -4.80629  -3.78708  -1.20782 
 Bq                   -4.75284  -3.89547  -1.20782 
 Bq                   -4.6857   -3.99595  -1.20782 
 Bq                   -4.60602  -4.08681  -1.20782 
 Bq                   -4.51516  -4.16649  -1.20782 
 Bq                   -4.41468  -4.23363  -1.20782 
 Bq                   -4.30629  -4.28708  -1.20782 
 Bq                   -4.19186  -4.32593  -1.20782 
 Bq                   -4.07333  -4.3495   -1.20782 
 Bq                   -3.95274  -4.35741  -1.20782 
 Bq                   -3.83215  -4.3495   -1.20782 
 Bq                   -3.71362  -4.32593  -1.20782 
 Bq                   -3.59919  -4.28708  -1.20782 
 Bq                   -3.4908   -4.23363  -1.20782 
 Bq                   -3.39032  -4.16649  -1.20782 
 Bq                   -3.29946  -4.08681  -1.20782 
 Bq                   -3.21978  -3.99595  -1.20782 
 Bq                   -3.15264  -3.89547  -1.20782 
 Bq                   -4.06578  -2.57491  -1.32513 
 Bq                   -4.17688  -2.59701  -1.32513 
 Bq                   -4.28415  -2.63342  -1.32513 
 Bq                   -4.38575  -2.68353  -1.32513 
 Bq                   -4.47994  -2.74646  -1.32513 
 Bq                   -4.56511  -2.82116  -1.32513 
 Bq                   -4.63981  -2.90633  -1.32513 
 Bq                   -4.70274  -3.00052  -1.32513 
 Bq                   -4.75284  -3.10211  -1.32513 
 Bq                   -4.78926  -3.20938  -1.32513 
 Bq                   -4.81136  -3.32049  -1.32513 
 Bq                   -4.81877  -3.43353  -1.32513 
 Bq                   -4.81136  -3.54657  -1.32513 
 Bq                   -4.78926  -3.65767  -1.32513 
 Bq                   -4.75284  -3.76494  -1.32513 
 Bq                   -4.70274  -3.86654  -1.32513 
 Bq                   -4.63981  -3.96073  -1.32513 
 Bq                   -4.56511  -4.0459   -1.32513 
 Bq                   -4.47994  -4.12059  -1.32513 
 Bq                   -4.38575  -4.18353  -1.32513 
 Bq                   -4.28415  -4.23363  -1.32513 
 Bq                   -4.17688  -4.27004  -1.32513 
 Bq                   -4.06578  -4.29214  -1.32513 
 Bq                   -3.95274  -4.29955  -1.32513 
 Bq                   -3.8397   -4.29214  -1.32513 
 Bq                   -3.7286   -4.27004  -1.32513 
 Bq                   -3.62133  -4.23363  -1.32513 
 Bq                   -3.51973  -4.18353  -1.32513 
 Bq                   -3.42554  -4.12059  -1.32513 
 Bq                   -3.34037  -4.0459   -1.32513 
 Bq                   -3.26568  -3.96073  -1.32513 
 Bq                   -3.20274  -3.86654  -1.32513 
 Bq                   -3.95274  -2.64017  -1.4339 
 Bq                   -4.05629  -2.64696  -1.4339 
 Bq                   -4.15808  -2.66721  -1.4339 
 Bq                   -4.25634  -2.70057  -1.4339 
 Bq                   -4.34942  -2.74646  -1.4339 
 Bq                   -4.4357   -2.80412  -1.4339 
 Bq                   -4.51373  -2.87254  -1.4339 
 Bq                   -4.58215  -2.95057  -1.4339 
 Bq                   -4.63981  -3.03685  -1.4339 
 Bq                   -4.6857   -3.12992  -1.4339 
 Bq                   -4.71906  -3.22819  -1.4339 
 Bq                   -4.73931  -3.32997  -1.4339 
 Bq                   -4.74609  -3.43353  -1.4339 
 Bq                   -4.73931  -3.53708  -1.4339 
 Bq                   -4.71906  -3.63886  -1.4339 
 Bq                   -4.6857   -3.73713  -1.4339 
 Bq                   -4.63981  -3.8302   -1.4339 
 Bq                   -4.58215  -3.91649  -1.4339 
 Bq                   -4.51373  -3.99451  -1.4339 
 Bq                   -4.4357   -4.06294  -1.4339 
 Bq                   -4.34942  -4.12059  -1.4339 
 Bq                   -4.25634  -4.16649  -1.4339 
 Bq                   -4.15808  -4.19985  -1.4339 
 Bq                   -4.05629  -4.22009  -1.4339 
 Bq                   -3.95274  -4.22688  -1.4339 
 Bq                   -3.84919  -4.22009  -1.4339 
 Bq                   -3.74741  -4.19985  -1.4339 
 Bq                   -3.64914  -4.16649  -1.4339 
 Bq                   -3.55606  -4.12059  -1.4339 
 Bq                   -3.46978  -4.06294  -1.4339 
 Bq                   -3.39176  -3.99451  -1.4339 
 Bq                   -3.32333  -3.91649  -1.4339 
 Bq                   -3.26568  -3.8302   -1.4339 
 Bq                   -3.76973  -2.75052  -1.53224 
 Bq                   -3.86045  -2.73247  -1.53224 
 Bq                   -3.95274  -2.72642  -1.53224 
 Bq                   -4.04504  -2.73247  -1.53224 
 Bq                   -4.13575  -2.75052  -1.53224 
 Bq                   -4.22334  -2.78025  -1.53224 
 Bq                   -4.30629  -2.82116  -1.53224 
 Bq                   -4.3832   -2.87254  -1.53224 
 Bq                   -4.45274  -2.93353  -1.53224 
 Bq                   -4.51373  -3.00307  -1.53224 
 Bq                   -4.56511  -3.07997  -1.53224 
 Bq                   -4.60602  -3.16293  -1.53224 
 Bq                   -4.63575  -3.25052  -1.53224 
 Bq                   -4.6538   -3.34123  -1.53224 
 Bq                   -4.65985  -3.43353  -1.53224 
 Bq                   -4.6538   -3.52582  -1.53224 
 Bq                   -4.63575  -3.61654  -1.53224 
 Bq                   -4.60602  -3.70413  -1.53224 
 Bq                   -4.56511  -3.78708  -1.53224 
 Bq                   -4.51373  -3.86399  -1.53224 
 Bq                   -4.45274  -3.93353  -1.53224 
 Bq                   -4.3832   -3.99451  -1.53224 
 Bq                   -4.30629  -4.0459   -1.53224 
 Bq                   -4.22334  -4.08681  -1.53224 
 Bq                   -4.13575  -4.11654  -1.53224 
 Bq                   -4.04504  -4.13459  -1.53224 
 Bq                   -3.95274  -4.14063  -1.53224 
 Bq                   -3.86045  -4.13459  -1.53224 
 Bq                   -3.76973  -4.11654  -1.53224 
 Bq                   -3.68214  -4.08681  -1.53224 
 Bq                   -3.59919  -4.0459   -1.53224 
 Bq                   -3.52228  -3.99451  -1.53224 
 Bq                   -3.45274  -3.93353  -1.53224 
 Bq                   -3.39176  -3.86399  -1.53224 
 Bq                   -3.34037  -3.78708  -1.53224 
 Bq                   -3.29946  -3.70413  -1.53224 
 Bq                   -3.58215  -2.95057  -1.61849 
 Bq                   -3.64836  -2.90633  -1.61849 
 Bq                   -3.71978  -2.87111  -1.61849 
 Bq                   -3.79518  -2.84551  -1.61849 
 Bq                   -3.87328  -2.82997  -1.61849 
 Bq                   -3.95274  -2.82477  -1.61849 
 Bq                   -4.0322   -2.82997  -1.61849 
 Bq                   -4.1103   -2.84551  -1.61849 
 Bq                   -4.1857   -2.87111  -1.61849 
 Bq                   -4.25712  -2.90633  -1.61849 
 Bq                   -4.32333  -2.95057  -1.61849 
 Bq                   -4.3832   -3.00307  -1.61849 
 Bq                   -4.4357   -3.06294  -1.61849 
 Bq                   -4.47994  -3.12915  -1.61849 
 Bq                   -4.51516  -3.20057  -1.61849 
 Bq                   -4.54076  -3.27597  -1.61849 
 Bq                   -4.55629  -3.35407  -1.61849 
 Bq                   -4.5615   -3.43353  -1.61849 
 Bq                   -4.55629  -3.51299  -1.61849 
 Bq                   -4.54076  -3.59109  -1.61849 
 Bq                   -4.51516  -3.66649  -1.61849 
 Bq                   -4.47994  -3.73791  -1.61849 
 Bq                   -4.4357   -3.80412  -1.61849 
 Bq                   -4.3832   -3.86399  -1.61849 
 Bq                   -4.32333  -3.91649  -1.61849 
 Bq                   -4.25712  -3.96073  -1.61849 
 Bq                   -4.1857   -3.99595  -1.61849 
 Bq                   -4.1103   -4.02155  -1.61849 
 Bq                   -4.0322   -4.03708  -1.61849 
 Bq                   -3.95274  -4.04229  -1.61849 
 Bq                   -3.87328  -4.03708  -1.61849 
 Bq                   -3.79518  -4.02155  -1.61849 
 Bq                   -3.71978  -3.99595  -1.61849 
 Bq                   -3.64836  -3.96073  -1.61849 
 Bq                   -3.58215  -3.91649  -1.61849 
 Bq                   -3.52228  -3.86399  -1.61849 
 Bq                   -3.46978  -3.80412  -1.61849 
 Bq                   -3.42554  -3.73791  -1.61849 
 Bq                   -3.39032  -3.66649  -1.61849 
 Bq                   -3.36472  -3.59109  -1.61849 
 Bq                   -3.45274  -3.43353  -1.69116 
 Bq                   -3.45702  -3.36826  -1.69116 
 Bq                   -3.46978  -3.30412  -1.69116 
 Bq                   -3.4908   -3.24219  -1.69116 
 Bq                   -3.51973  -3.18353  -1.69116 
 Bq                   -3.55606  -3.12915  -1.69116 
 Bq                   -3.59919  -3.07997  -1.69116 
 Bq                   -3.64836  -3.03685  -1.69116 
 Bq                   -3.70274  -3.00052  -1.69116 
 Bq                   -3.7614   -2.97159  -1.69116 
 Bq                   -3.82333  -2.95057  -1.69116 
 Bq                   -3.88748  -2.93781  -1.69116 
 Bq                   -3.95274  -2.93353  -1.69116 
 Bq                   -4.018    -2.93781  -1.69116 
 Bq                   -4.08215  -2.95057  -1.69116 
 Bq                   -4.14408  -2.97159  -1.69116 
 Bq                   -4.20274  -3.00052  -1.69116 
 Bq                   -4.25712  -3.03685  -1.69116 
 Bq                   -4.30629  -3.07997  -1.69116 
 Bq                   -4.34942  -3.12915  -1.69116 
 Bq                   -4.38575  -3.18353  -1.69116 
 Bq                   -4.41468  -3.24219  -1.69116 
 Bq                   -4.4357   -3.30412  -1.69116 
 Bq                   -4.44846  -3.36826  -1.69116 
 Bq                   -4.45274  -3.43353  -1.69116 
 Bq                   -4.44846  -3.49879  -1.69116 
 Bq                   -4.4357   -3.56294  -1.69116 
 Bq                   -4.41468  -3.62487  -1.69116 
 Bq                   -4.38575  -3.68353  -1.69116 
 Bq                   -4.34942  -3.73791  -1.69116 
 Bq                   -4.30629  -3.78708  -1.69116 
 Bq                   -4.25712  -3.8302   -1.69116 
 Bq                   -4.20274  -3.86654  -1.69116 
 Bq                   -4.14408  -3.89547  -1.69116 
 Bq                   -4.08215  -3.91649  -1.69116 
 Bq                   -4.018    -3.92925  -1.69116 
 
 NAtoms=    236 NQM=      236 NQMF=       0 NMMI=      0 NMMIF=      0
                NMic=       0 NMicF=      0.
                    Isotopes and Nuclear Properties:
 (Nuclear quadrupole moments (NQMom) in fm**2, nuclear magnetic moments (NMagM)
  in nuclear magnetons)

  Atom         1           2           3           4           5           6           7           8           9          10
 IAtWgt=          12          12          12          12          12          12          12          12          12          12
 AtmWgt=  12.0000000  12.0000000  12.0000000  12.0000000  12.0000000  12.0000000  12.0000000  12.0000000  12.0000000  12.0000000
 NucSpn=           0           0           0           0           0           0           0           0           0           0
 AtZEff=   0.0000000   0.0000000   0.0000000   0.0000000   0.0000000   0.0000000   0.0000000   0.0000000   0.0000000   0.0000000
 NQMom=    0.0000000   0.0000000   0.0000000   0.0000000   0.0000000   0.0000000   0.0000000   0.0000000   0.0000000   0.0000000
 NMagM=    0.0000000   0.0000000   0.0000000   0.0000000   0.0000000   0.0000000   0.0000000   0.0000000   0.0000000   0.0000000
 AtZNuc=   6.0000000   6.0000000   6.0000000   6.0000000   6.0000000   6.0000000   6.0000000   6.0000000   6.0000000   6.0000000

  Atom        11          12          13          14          15          16          17          18          19          20
 IAtWgt=           1           1           1           1          12          12          12          12           1           1
 AtmWgt=   1.0078250   1.0078250   1.0078250   1.0078250  12.0000000  12.0000000  12.0000000  12.0000000   1.0078250   1.0078250
 NucSpn=           1           1           1           1           0           0           0           0           1           1
 AtZEff=   0.0000000   0.0000000   0.0000000   0.0000000   0.0000000   0.0000000   0.0000000   0.0000000   0.0000000   0.0000000
 NQMom=    0.0000000   0.0000000   0.0000000   0.0000000   0.0000000   0.0000000   0.0000000   0.0000000   0.0000000   0.0000000
 NMagM=    2.7928460   2.7928460   2.7928460   2.7928460   0.0000000   0.0000000   0.0000000   0.0000000   2.7928460   2.7928460
 AtZNuc=   1.0000000   1.0000000   1.0000000   1.0000000   6.0000000   6.0000000   6.0000000   6.0000000   1.0000000   1.0000000

  Atom        21          22          23          24          25          26          27          28          29          30
 IAtWgt=           1           1          12          12          12          12          12          12          12          12
 AtmWgt=   1.0078250   1.0078250  12.0000000  12.0000000  12.0000000  12.0000000  12.0000000  12.0000000  12.0000000  12.0000000
 NucSpn=           1           1           0           0           0           0           0           0           0           0
 AtZEff=   0.0000000   0.0000000   0.0000000   0.0000000   0.0000000   0.0000000   0.0000000   0.0000000   0.0000000   0.0000000
 NQMom=    0.0000000   0.0000000   0.0000000   0.0000000   0.0000000   0.0000000   0.0000000   0.0000000   0.0000000   0.0000000
 NMagM=    2.7928460   2.7928460   0.0000000   0.0000000   0.0000000   0.0000000   0.0000000   0.0000000   0.0000000   0.0000000
 AtZNuc=   1.0000000   1.0000000   6.0000000   6.0000000   6.0000000   6.0000000   6.0000000   6.0000000   6.0000000   6.0000000

  Atom        31          32          33          34          35          36          37          38          39          40
 IAtWgt=           1           1           1           1           1           1           0           0           0           0
 AtmWgt=   1.0078250   1.0078250   1.0078250   1.0078250   1.0078250   1.0078250   0.0000000   0.0000000   0.0000000   0.0000000
 NucSpn=           1           1           1           1           1           1           0           0           0           0
 AtZEff=   0.0000000   0.0000000   0.0000000   0.0000000   0.0000000   0.0000000   0.0000000   0.0000000   0.0000000   0.0000000
 NQMom=    0.0000000   0.0000000   0.0000000   0.0000000   0.0000000   0.0000000   0.0000000   0.0000000   0.0000000   0.0000000
 NMagM=    2.7928460   2.7928460   2.7928460   2.7928460   2.7928460   2.7928460   0.0000000   0.0000000   0.0000000   0.0000000
 AtZNuc=   1.0000000   1.0000000   1.0000000   1.0000000   1.0000000   1.0000000   0.0000000   0.0000000   0.0000000   0.0000000

  Atom        41          42          43          44          45          46          47          48          49          50
 IAtWgt=           0           0           0           0           0           0           0           0           0           0
 AtmWgt=   0.0000000   0.0000000   0.0000000   0.0000000   0.0000000   0.0000000   0.0000000   0.0000000   0.0000000   0.0000000
 NucSpn=           0           0           0           0           0           0           0           0           0           0
 AtZEff=   0.0000000   0.0000000   0.0000000   0.0000000   0.0000000   0.0000000   0.0000000   0.0000000   0.0000000   0.0000000
 NQMom=    0.0000000   0.0000000   0.0000000   0.0000000   0.0000000   0.0000000   0.0000000   0.0000000   0.0000000   0.0000000
 NMagM=    0.0000000   0.0000000   0.0000000   0.0000000   0.0000000   0.0000000   0.0000000   0.0000000   0.0000000   0.0000000
 AtZNuc=   0.0000000   0.0000000   0.0000000   0.0000000   0.0000000   0.0000000   0.0000000   0.0000000   0.0000000   0.0000000

  Atom        51          52          53          54          55          56          57          58          59          60
 IAtWgt=           0           0           0           0           0           0           0           0           0           0
 AtmWgt=   0.0000000   0.0000000   0.0000000   0.0000000   0.0000000   0.0000000   0.0000000   0.0000000   0.0000000   0.0000000
 NucSpn=           0           0           0           0           0           0           0           0           0           0
 AtZEff=   0.0000000   0.0000000   0.0000000   0.0000000   0.0000000   0.0000000   0.0000000   0.0000000   0.0000000   0.0000000
 NQMom=    0.0000000   0.0000000   0.0000000   0.0000000   0.0000000   0.0000000   0.0000000   0.0000000   0.0000000   0.0000000
 NMagM=    0.0000000   0.0000000   0.0000000   0.0000000   0.0000000   0.0000000   0.0000000   0.0000000   0.0000000   0.0000000
 AtZNuc=   0.0000000   0.0000000   0.0000000   0.0000000   0.0000000   0.0000000   0.0000000   0.0000000   0.0000000   0.0000000

  Atom        61          62          63          64          65          66          67          68          69          70
 IAtWgt=           0           0           0           0           0           0           0           0           0           0
 AtmWgt=   0.0000000   0.0000000   0.0000000   0.0000000   0.0000000   0.0000000   0.0000000   0.0000000   0.0000000   0.0000000
 NucSpn=           0           0           0           0           0           0           0           0           0           0
 AtZEff=   0.0000000   0.0000000   0.0000000   0.0000000   0.0000000   0.0000000   0.0000000   0.0000000   0.0000000   0.0000000
 NQMom=    0.0000000   0.0000000   0.0000000   0.0000000   0.0000000   0.0000000   0.0000000   0.0000000   0.0000000   0.0000000
 NMagM=    0.0000000   0.0000000   0.0000000   0.0000000   0.0000000   0.0000000   0.0000000   0.0000000   0.0000000   0.0000000
 AtZNuc=   0.0000000   0.0000000   0.0000000   0.0000000   0.0000000   0.0000000   0.0000000   0.0000000   0.0000000   0.0000000

  Atom        71          72          73          74          75          76          77          78          79          80
 IAtWgt=           0           0           0           0           0           0           0           0           0           0
 AtmWgt=   0.0000000   0.0000000   0.0000000   0.0000000   0.0000000   0.0000000   0.0000000   0.0000000   0.0000000   0.0000000
 NucSpn=           0           0           0           0           0           0           0           0           0           0
 AtZEff=   0.0000000   0.0000000   0.0000000   0.0000000   0.0000000   0.0000000   0.0000000   0.0000000   0.0000000   0.0000000
 NQMom=    0.0000000   0.0000000   0.0000000   0.0000000   0.0000000   0.0000000   0.0000000   0.0000000   0.0000000   0.0000000
 NMagM=    0.0000000   0.0000000   0.0000000   0.0000000   0.0000000   0.0000000   0.0000000   0.0000000   0.0000000   0.0000000
 AtZNuc=   0.0000000   0.0000000   0.0000000   0.0000000   0.0000000   0.0000000   0.0000000   0.0000000   0.0000000   0.0000000

  Atom        81          82          83          84          85          86          87          88          89          90
 IAtWgt=           0           0           0           0           0           0           0           0           0           0
 AtmWgt=   0.0000000   0.0000000   0.0000000   0.0000000   0.0000000   0.0000000   0.0000000   0.0000000   0.0000000   0.0000000
 NucSpn=           0           0           0           0           0           0           0           0           0           0
 AtZEff=   0.0000000   0.0000000   0.0000000   0.0000000   0.0000000   0.0000000   0.0000000   0.0000000   0.0000000   0.0000000
 NQMom=    0.0000000   0.0000000   0.0000000   0.0000000   0.0000000   0.0000000   0.0000000   0.0000000   0.0000000   0.0000000
 NMagM=    0.0000000   0.0000000   0.0000000   0.0000000   0.0000000   0.0000000   0.0000000   0.0000000   0.0000000   0.0000000
 AtZNuc=   0.0000000   0.0000000   0.0000000   0.0000000   0.0000000   0.0000000   0.0000000   0.0000000   0.0000000   0.0000000

  Atom        91          92          93          94          95          96          97          98          99         100
 IAtWgt=           0           0           0           0           0           0           0           0           0           0
 AtmWgt=   0.0000000   0.0000000   0.0000000   0.0000000   0.0000000   0.0000000   0.0000000   0.0000000   0.0000000   0.0000000
 NucSpn=           0           0           0           0           0           0           0           0           0           0
 AtZEff=   0.0000000   0.0000000   0.0000000   0.0000000   0.0000000   0.0000000   0.0000000   0.0000000   0.0000000   0.0000000
 NQMom=    0.0000000   0.0000000   0.0000000   0.0000000   0.0000000   0.0000000   0.0000000   0.0000000   0.0000000   0.0000000
 NMagM=    0.0000000   0.0000000   0.0000000   0.0000000   0.0000000   0.0000000   0.0000000   0.0000000   0.0000000   0.0000000
 AtZNuc=   0.0000000   0.0000000   0.0000000   0.0000000   0.0000000   0.0000000   0.0000000   0.0000000   0.0000000   0.0000000

  Atom       101         102         103         104         105         106         107         108         109         110
 IAtWgt=           0           0           0           0           0           0           0           0           0           0
 AtmWgt=   0.0000000   0.0000000   0.0000000   0.0000000   0.0000000   0.0000000   0.0000000   0.0000000   0.0000000   0.0000000
 NucSpn=           0           0           0           0           0           0           0           0           0           0
 AtZEff=   0.0000000   0.0000000   0.0000000   0.0000000   0.0000000   0.0000000   0.0000000   0.0000000   0.0000000   0.0000000
 NQMom=    0.0000000   0.0000000   0.0000000   0.0000000   0.0000000   0.0000000   0.0000000   0.0000000   0.0000000   0.0000000
 NMagM=    0.0000000   0.0000000   0.0000000   0.0000000   0.0000000   0.0000000   0.0000000   0.0000000   0.0000000   0.0000000
 AtZNuc=   0.0000000   0.0000000   0.0000000   0.0000000   0.0000000   0.0000000   0.0000000   0.0000000   0.0000000   0.0000000

  Atom       111         112         113         114         115         116         117         118         119         120
 IAtWgt=           0           0           0           0           0           0           0           0           0           0
 AtmWgt=   0.0000000   0.0000000   0.0000000   0.0000000   0.0000000   0.0000000   0.0000000   0.0000000   0.0000000   0.0000000
 NucSpn=           0           0           0           0           0           0           0           0           0           0
 AtZEff=   0.0000000   0.0000000   0.0000000   0.0000000   0.0000000   0.0000000   0.0000000   0.0000000   0.0000000   0.0000000
 NQMom=    0.0000000   0.0000000   0.0000000   0.0000000   0.0000000   0.0000000   0.0000000   0.0000000   0.0000000   0.0000000
 NMagM=    0.0000000   0.0000000   0.0000000   0.0000000   0.0000000   0.0000000   0.0000000   0.0000000   0.0000000   0.0000000
 AtZNuc=   0.0000000   0.0000000   0.0000000   0.0000000   0.0000000   0.0000000   0.0000000   0.0000000   0.0000000   0.0000000

  Atom       121         122         123         124         125         126         127         128         129         130
 IAtWgt=           0           0           0           0           0           0           0           0           0           0
 AtmWgt=   0.0000000   0.0000000   0.0000000   0.0000000   0.0000000   0.0000000   0.0000000   0.0000000   0.0000000   0.0000000
 NucSpn=           0           0           0           0           0           0           0           0           0           0
 AtZEff=   0.0000000   0.0000000   0.0000000   0.0000000   0.0000000   0.0000000   0.0000000   0.0000000   0.0000000   0.0000000
 NQMom=    0.0000000   0.0000000   0.0000000   0.0000000   0.0000000   0.0000000   0.0000000   0.0000000   0.0000000   0.0000000
 NMagM=    0.0000000   0.0000000   0.0000000   0.0000000   0.0000000   0.0000000   0.0000000   0.0000000   0.0000000   0.0000000
 AtZNuc=   0.0000000   0.0000000   0.0000000   0.0000000   0.0000000   0.0000000   0.0000000   0.0000000   0.0000000   0.0000000

  Atom       131         132         133         134         135         136         137         138         139         140
 IAtWgt=           0           0           0           0           0           0           0           0           0           0
 AtmWgt=   0.0000000   0.0000000   0.0000000   0.0000000   0.0000000   0.0000000   0.0000000   0.0000000   0.0000000   0.0000000
 NucSpn=           0           0           0           0           0           0           0           0           0           0
 AtZEff=   0.0000000   0.0000000   0.0000000   0.0000000   0.0000000   0.0000000   0.0000000   0.0000000   0.0000000   0.0000000
 NQMom=    0.0000000   0.0000000   0.0000000   0.0000000   0.0000000   0.0000000   0.0000000   0.0000000   0.0000000   0.0000000
 NMagM=    0.0000000   0.0000000   0.0000000   0.0000000   0.0000000   0.0000000   0.0000000   0.0000000   0.0000000   0.0000000
 AtZNuc=   0.0000000   0.0000000   0.0000000   0.0000000   0.0000000   0.0000000   0.0000000   0.0000000   0.0000000   0.0000000

  Atom       141         142         143         144         145         146         147         148         149         150
 IAtWgt=           0           0           0           0           0           0           0           0           0           0
 AtmWgt=   0.0000000   0.0000000   0.0000000   0.0000000   0.0000000   0.0000000   0.0000000   0.0000000   0.0000000   0.0000000
 NucSpn=           0           0           0           0           0           0           0           0           0           0
 AtZEff=   0.0000000   0.0000000   0.0000000   0.0000000   0.0000000   0.0000000   0.0000000   0.0000000   0.0000000   0.0000000
 NQMom=    0.0000000   0.0000000   0.0000000   0.0000000   0.0000000   0.0000000   0.0000000   0.0000000   0.0000000   0.0000000
 NMagM=    0.0000000   0.0000000   0.0000000   0.0000000   0.0000000   0.0000000   0.0000000   0.0000000   0.0000000   0.0000000
 AtZNuc=   0.0000000   0.0000000   0.0000000   0.0000000   0.0000000   0.0000000   0.0000000   0.0000000   0.0000000   0.0000000

  Atom       151         152         153         154         155         156         157         158         159         160
 IAtWgt=           0           0           0           0           0           0           0           0           0           0
 AtmWgt=   0.0000000   0.0000000   0.0000000   0.0000000   0.0000000   0.0000000   0.0000000   0.0000000   0.0000000   0.0000000
 NucSpn=           0           0           0           0           0           0           0           0           0           0
 AtZEff=   0.0000000   0.0000000   0.0000000   0.0000000   0.0000000   0.0000000   0.0000000   0.0000000   0.0000000   0.0000000
 NQMom=    0.0000000   0.0000000   0.0000000   0.0000000   0.0000000   0.0000000   0.0000000   0.0000000   0.0000000   0.0000000
 NMagM=    0.0000000   0.0000000   0.0000000   0.0000000   0.0000000   0.0000000   0.0000000   0.0000000   0.0000000   0.0000000
 AtZNuc=   0.0000000   0.0000000   0.0000000   0.0000000   0.0000000   0.0000000   0.0000000   0.0000000   0.0000000   0.0000000

  Atom       161         162         163         164         165         166         167         168         169         170
 IAtWgt=           0           0           0           0           0           0           0           0           0           0
 AtmWgt=   0.0000000   0.0000000   0.0000000   0.0000000   0.0000000   0.0000000   0.0000000   0.0000000   0.0000000   0.0000000
 NucSpn=           0           0           0           0           0           0           0           0           0           0
 AtZEff=   0.0000000   0.0000000   0.0000000   0.0000000   0.0000000   0.0000000   0.0000000   0.0000000   0.0000000   0.0000000
 NQMom=    0.0000000   0.0000000   0.0000000   0.0000000   0.0000000   0.0000000   0.0000000   0.0000000   0.0000000   0.0000000
 NMagM=    0.0000000   0.0000000   0.0000000   0.0000000   0.0000000   0.0000000   0.0000000   0.0000000   0.0000000   0.0000000
 AtZNuc=   0.0000000   0.0000000   0.0000000   0.0000000   0.0000000   0.0000000   0.0000000   0.0000000   0.0000000   0.0000000

  Atom       171         172         173         174         175         176         177         178         179         180
 IAtWgt=           0           0           0           0           0           0           0           0           0           0
 AtmWgt=   0.0000000   0.0000000   0.0000000   0.0000000   0.0000000   0.0000000   0.0000000   0.0000000   0.0000000   0.0000000
 NucSpn=           0           0           0           0           0           0           0           0           0           0
 AtZEff=   0.0000000   0.0000000   0.0000000   0.0000000   0.0000000   0.0000000   0.0000000   0.0000000   0.0000000   0.0000000
 NQMom=    0.0000000   0.0000000   0.0000000   0.0000000   0.0000000   0.0000000   0.0000000   0.0000000   0.0000000   0.0000000
 NMagM=    0.0000000   0.0000000   0.0000000   0.0000000   0.0000000   0.0000000   0.0000000   0.0000000   0.0000000   0.0000000
 AtZNuc=   0.0000000   0.0000000   0.0000000   0.0000000   0.0000000   0.0000000   0.0000000   0.0000000   0.0000000   0.0000000

  Atom       181         182         183         184         185         186         187         188         189         190
 IAtWgt=           0           0           0           0           0           0           0           0           0           0
 AtmWgt=   0.0000000   0.0000000   0.0000000   0.0000000   0.0000000   0.0000000   0.0000000   0.0000000   0.0000000   0.0000000
 NucSpn=           0           0           0           0           0           0           0           0           0           0
 AtZEff=   0.0000000   0.0000000   0.0000000   0.0000000   0.0000000   0.0000000   0.0000000   0.0000000   0.0000000   0.0000000
 NQMom=    0.0000000   0.0000000   0.0000000   0.0000000   0.0000000   0.0000000   0.0000000   0.0000000   0.0000000   0.0000000
 NMagM=    0.0000000   0.0000000   0.0000000   0.0000000   0.0000000   0.0000000   0.0000000   0.0000000   0.0000000   0.0000000
 AtZNuc=   0.0000000   0.0000000   0.0000000   0.0000000   0.0000000   0.0000000   0.0000000   0.0000000   0.0000000   0.0000000

  Atom       191         192         193         194         195         196         197         198         199         200
 IAtWgt=           0           0           0           0           0           0           0           0           0           0
 AtmWgt=   0.0000000   0.0000000   0.0000000   0.0000000   0.0000000   0.0000000   0.0000000   0.0000000   0.0000000   0.0000000
 NucSpn=           0           0           0           0           0           0           0           0           0           0
 AtZEff=   0.0000000   0.0000000   0.0000000   0.0000000   0.0000000   0.0000000   0.0000000   0.0000000   0.0000000   0.0000000
 NQMom=    0.0000000   0.0000000   0.0000000   0.0000000   0.0000000   0.0000000   0.0000000   0.0000000   0.0000000   0.0000000
 NMagM=    0.0000000   0.0000000   0.0000000   0.0000000   0.0000000   0.0000000   0.0000000   0.0000000   0.0000000   0.0000000
 AtZNuc=   0.0000000   0.0000000   0.0000000   0.0000000   0.0000000   0.0000000   0.0000000   0.0000000   0.0000000   0.0000000

  Atom       201         202         203         204         205         206         207         208         209         210
 IAtWgt=           0           0           0           0           0           0           0           0           0           0
 AtmWgt=   0.0000000   0.0000000   0.0000000   0.0000000   0.0000000   0.0000000   0.0000000   0.0000000   0.0000000   0.0000000
 NucSpn=           0           0           0           0           0           0           0           0           0           0
 AtZEff=   0.0000000   0.0000000   0.0000000   0.0000000   0.0000000   0.0000000   0.0000000   0.0000000   0.0000000   0.0000000
 NQMom=    0.0000000   0.0000000   0.0000000   0.0000000   0.0000000   0.0000000   0.0000000   0.0000000   0.0000000   0.0000000
 NMagM=    0.0000000   0.0000000   0.0000000   0.0000000   0.0000000   0.0000000   0.0000000   0.0000000   0.0000000   0.0000000
 AtZNuc=   0.0000000   0.0000000   0.0000000   0.0000000   0.0000000   0.0000000   0.0000000   0.0000000   0.0000000   0.0000000

  Atom       211         212         213         214         215         216         217         218         219         220
 IAtWgt=           0           0           0           0           0           0           0           0           0           0
 AtmWgt=   0.0000000   0.0000000   0.0000000   0.0000000   0.0000000   0.0000000   0.0000000   0.0000000   0.0000000   0.0000000
 NucSpn=           0           0           0           0           0           0           0           0           0           0
 AtZEff=   0.0000000   0.0000000   0.0000000   0.0000000   0.0000000   0.0000000   0.0000000   0.0000000   0.0000000   0.0000000
 NQMom=    0.0000000   0.0000000   0.0000000   0.0000000   0.0000000   0.0000000   0.0000000   0.0000000   0.0000000   0.0000000
 NMagM=    0.0000000   0.0000000   0.0000000   0.0000000   0.0000000   0.0000000   0.0000000   0.0000000   0.0000000   0.0000000
 AtZNuc=   0.0000000   0.0000000   0.0000000   0.0000000   0.0000000   0.0000000   0.0000000   0.0000000   0.0000000   0.0000000

  Atom       221         222         223         224         225         226         227         228         229         230
 IAtWgt=           0           0           0           0           0           0           0           0           0           0
 AtmWgt=   0.0000000   0.0000000   0.0000000   0.0000000   0.0000000   0.0000000   0.0000000   0.0000000   0.0000000   0.0000000
 NucSpn=           0           0           0           0           0           0           0           0           0           0
 AtZEff=   0.0000000   0.0000000   0.0000000   0.0000000   0.0000000   0.0000000   0.0000000   0.0000000   0.0000000   0.0000000
 NQMom=    0.0000000   0.0000000   0.0000000   0.0000000   0.0000000   0.0000000   0.0000000   0.0000000   0.0000000   0.0000000
 NMagM=    0.0000000   0.0000000   0.0000000   0.0000000   0.0000000   0.0000000   0.0000000   0.0000000   0.0000000   0.0000000
 AtZNuc=   0.0000000   0.0000000   0.0000000   0.0000000   0.0000000   0.0000000   0.0000000   0.0000000   0.0000000   0.0000000

  Atom       231         232         233         234         235         236
 IAtWgt=           0           0           0           0           0           0
 AtmWgt=   0.0000000   0.0000000   0.0000000   0.0000000   0.0000000   0.0000000
 NucSpn=           0           0           0           0           0           0
 AtZEff=   0.0000000   0.0000000   0.0000000   0.0000000   0.0000000   0.0000000
 NQMom=    0.0000000   0.0000000   0.0000000   0.0000000   0.0000000   0.0000000
 NMagM=    0.0000000   0.0000000   0.0000000   0.0000000   0.0000000   0.0000000
 AtZNuc=   0.0000000   0.0000000   0.0000000   0.0000000   0.0000000   0.0000000
 Leave Link  101 at Tue Sep 15 12:59:55 2020, MaxMem=   131072000 cpu:         4.4
 (Enter /share/programs/GAUSSIAN/64/g09/l202.exe)
 Symmetry turned off:
 Cannot cope with ghost atoms or with translation vectors.
 Stoichiometry    C22H14
 Framework group  C1[X(C22H14)]
 NUMDOF-- NAT=    36 NAtoms=   236
 Deg. of freedom     0
 Full point group                 C1      NOp   1
                          Input orientation:                          
 ---------------------------------------------------------------------
 Center     Atomic      Atomic             Coordinates (Angstroms)
 Number     Number       Type             X           Y           Z
 ---------------------------------------------------------------------
      1          6           0        0.653241    3.257859   -0.202510
      2          6           0       -0.653243    3.257860    0.202510
      3          6           0        1.372495    2.032956   -0.320807
      4          6           0       -1.372495    2.032956    0.320807
      5          6           0        0.722474    0.795666   -0.050388
      6          6           0       -0.722474    0.795667    0.050387
      7          6           0        2.760385    2.053927   -0.674268
      8          6           0        3.508866    0.913916   -0.671362
      9          6           0        2.955226   -0.309622   -0.177479
     10          6           0        1.574722   -0.361114    0.197094
     11          1           0        1.183427    4.195740   -0.384599
     12          1           0       -1.183429    4.195740    0.384599
     13          1           0        3.206283    3.012423   -0.951392
     14          1           0        4.560023    0.932956   -0.969333
     15          6           0        3.783020   -1.443098    0.028309
     16          6           0        1.137427   -1.507533    0.912109
     17          6           0        1.973691   -2.584349    1.138062
     18          6           0        3.301853   -2.571588    0.661177
     19          1           0        4.825754   -1.391230   -0.295484
     20          1           0        0.124652   -1.532788    1.308472
     21          1           0        1.603586   -3.445682    1.698977
     22          1           0        3.952742   -3.433526    0.825134
     23          6           0       -3.508866    0.913915    0.671362
     24          6           0       -2.760386    2.053926    0.674268
     25          6           0       -2.955226   -0.309623    0.177479
     26          6           0       -1.574722   -0.361114   -0.197094
     27          6           0       -3.783020   -1.443099   -0.028309
     28          6           0       -3.301852   -2.571589   -0.661177
     29          6           0       -1.973690   -2.584349   -1.138061
     30          6           0       -1.137426   -1.507534   -0.912109
     31          1           0       -4.560022    0.932954    0.969334
     32          1           0       -3.206283    3.012421    0.951392
     33          1           0       -4.825754   -1.391232    0.295484
     34          1           0       -3.952741   -3.433528   -0.825134
     35          1           0       -1.603585   -3.445682   -1.698976
     36          1           0       -0.124652   -1.532788   -1.308471
     37          0           0       -4.845140   -3.194410   -1.207817
     38          0           0       -4.868717   -3.312938   -1.207817
     39          0           0       -4.876621   -3.433528   -1.207817
     40          0           0       -4.868717   -3.554118   -1.207817
     41          0           0       -4.845140   -3.672646   -1.207817
     42          0           0       -4.806294   -3.787081   -1.207817
     43          0           0       -4.752844   -3.895468   -1.207817
     44          0           0       -4.685704   -3.995950   -1.207817
     45          0           0       -4.606022   -4.086809   -1.207817
     46          0           0       -4.515163   -4.166491   -1.207817
     47          0           0       -4.414681   -4.233631   -1.207817
     48          0           0       -4.306294   -4.287081   -1.207817
     49          0           0       -4.191859   -4.325927   -1.207817
     50          0           0       -4.073331   -4.349504   -1.207817
     51          0           0       -3.952741   -4.357408   -1.207817
     52          0           0       -3.832151   -4.349504   -1.207817
     53          0           0       -3.713623   -4.325927   -1.207817
     54          0           0       -3.599188   -4.287081   -1.207817
     55          0           0       -3.490801   -4.233631   -1.207817
     56          0           0       -3.390319   -4.166491   -1.207817
     57          0           0       -3.299460   -4.086809   -1.207817
     58          0           0       -3.219778   -3.995950   -1.207817
     59          0           0       -3.152638   -3.895468   -1.207817
     60          0           0       -4.065780   -2.574912   -1.325134
     61          0           0       -4.176885   -2.597012   -1.325134
     62          0           0       -4.284155   -2.633425   -1.325134
     63          0           0       -4.385754   -2.683528   -1.325134
     64          0           0       -4.479944   -2.746464   -1.325134
     65          0           0       -4.565113   -2.821156   -1.325134
     66          0           0       -4.639805   -2.906325   -1.325134
     67          0           0       -4.702741   -3.000515   -1.325134
     68          0           0       -4.752844   -3.102114   -1.325134
     69          0           0       -4.789257   -3.209384   -1.325134
     70          0           0       -4.811357   -3.320489   -1.325134
     71          0           0       -4.818766   -3.433528   -1.325134
     72          0           0       -4.811357   -3.546567   -1.325134
     73          0           0       -4.789257   -3.657672   -1.325134
     74          0           0       -4.752844   -3.764942   -1.325134
     75          0           0       -4.702741   -3.866541   -1.325134
     76          0           0       -4.639805   -3.960731   -1.325134
     77          0           0       -4.565113   -4.045900   -1.325134
     78          0           0       -4.479944   -4.120592   -1.325134
     79          0           0       -4.385754   -4.183528   -1.325134
     80          0           0       -4.284155   -4.233631   -1.325134
     81          0           0       -4.176885   -4.270044   -1.325134
     82          0           0       -4.065780   -4.292144   -1.325134
     83          0           0       -3.952741   -4.299553   -1.325134
     84          0           0       -3.839702   -4.292144   -1.325134
     85          0           0       -3.728597   -4.270044   -1.325134
     86          0           0       -3.621327   -4.233631   -1.325134
     87          0           0       -3.519728   -4.183528   -1.325134
     88          0           0       -3.425538   -4.120592   -1.325134
     89          0           0       -3.340369   -4.045900   -1.325134
     90          0           0       -3.265677   -3.960731   -1.325134
     91          0           0       -3.202741   -3.866541   -1.325134
     92          0           0       -3.952741   -2.640175   -1.433895
     93          0           0       -4.056294   -2.646962   -1.433895
     94          0           0       -4.158076   -2.667208   -1.433895
     95          0           0       -4.256344   -2.700565   -1.433895
     96          0           0       -4.349418   -2.746464   -1.433895
     97          0           0       -4.435704   -2.804118   -1.433895
     98          0           0       -4.513727   -2.872542   -1.433895
     99          0           0       -4.582151   -2.950565   -1.433895
    100          0           0       -4.639805   -3.036851   -1.433895
    101          0           0       -4.685704   -3.129925   -1.433895
    102          0           0       -4.719061   -3.228193   -1.433895
    103          0           0       -4.739307   -3.329975   -1.433895
    104          0           0       -4.746094   -3.433528   -1.433895
    105          0           0       -4.739307   -3.537081   -1.433895
    106          0           0       -4.719061   -3.638863   -1.433895
    107          0           0       -4.685704   -3.737131   -1.433895
    108          0           0       -4.639805   -3.830205   -1.433895
    109          0           0       -4.582151   -3.916491   -1.433895
    110          0           0       -4.513727   -3.994514   -1.433895
    111          0           0       -4.435704   -4.062938   -1.433895
    112          0           0       -4.349418   -4.120592   -1.433895
    113          0           0       -4.256344   -4.166491   -1.433895
    114          0           0       -4.158076   -4.199848   -1.433895
    115          0           0       -4.056294   -4.220094   -1.433895
    116          0           0       -3.952741   -4.226881   -1.433895
    117          0           0       -3.849188   -4.220094   -1.433895
    118          0           0       -3.747406   -4.199848   -1.433895
    119          0           0       -3.649138   -4.166491   -1.433895
    120          0           0       -3.556064   -4.120592   -1.433895
    121          0           0       -3.469778   -4.062938   -1.433895
    122          0           0       -3.391755   -3.994514   -1.433895
    123          0           0       -3.323331   -3.916491   -1.433895
    124          0           0       -3.265677   -3.830205   -1.433895
    125          0           0       -3.769728   -2.750515   -1.532241
    126          0           0       -3.860445   -2.732471   -1.532241
    127          0           0       -3.952741   -2.726421   -1.532241
    128          0           0       -4.045037   -2.732471   -1.532241
    129          0           0       -4.135754   -2.750515   -1.532241
    130          0           0       -4.223339   -2.780247   -1.532241
    131          0           0       -4.306294   -2.821156   -1.532241
    132          0           0       -4.383200   -2.872542   -1.532241
    133          0           0       -4.452741   -2.933528   -1.532241
    134          0           0       -4.513727   -3.003069   -1.532241
    135          0           0       -4.565113   -3.079975   -1.532241
    136          0           0       -4.606022   -3.162930   -1.532241
    137          0           0       -4.635754   -3.250515   -1.532241
    138          0           0       -4.653798   -3.341232   -1.532241
    139          0           0       -4.659848   -3.433528   -1.532241
    140          0           0       -4.653798   -3.525824   -1.532241
    141          0           0       -4.635754   -3.616541   -1.532241
    142          0           0       -4.606022   -3.704126   -1.532241
    143          0           0       -4.565113   -3.787081   -1.532241
    144          0           0       -4.513727   -3.863987   -1.532241
    145          0           0       -4.452741   -3.933528   -1.532241
    146          0           0       -4.383200   -3.994514   -1.532241
    147          0           0       -4.306294   -4.045900   -1.532241
    148          0           0       -4.223339   -4.086809   -1.532241
    149          0           0       -4.135754   -4.116541   -1.532241
    150          0           0       -4.045037   -4.134585   -1.532241
    151          0           0       -3.952741   -4.140635   -1.532241
    152          0           0       -3.860445   -4.134585   -1.532241
    153          0           0       -3.769728   -4.116541   -1.532241
    154          0           0       -3.682143   -4.086809   -1.532241
    155          0           0       -3.599188   -4.045900   -1.532241
    156          0           0       -3.522282   -3.994514   -1.532241
    157          0           0       -3.452741   -3.933528   -1.532241
    158          0           0       -3.391755   -3.863987   -1.532241
    159          0           0       -3.340369   -3.787081   -1.532241
    160          0           0       -3.299460   -3.704126   -1.532241
    161          0           0       -3.582151   -2.950565   -1.618487
    162          0           0       -3.648360   -2.906325   -1.618487
    163          0           0       -3.719778   -2.871106   -1.618487
    164          0           0       -3.795182   -2.845510   -1.618487
    165          0           0       -3.873282   -2.829975   -1.618487
    166          0           0       -3.952741   -2.824767   -1.618487
    167          0           0       -4.032200   -2.829975   -1.618487
    168          0           0       -4.110300   -2.845510   -1.618487
    169          0           0       -4.185704   -2.871106   -1.618487
    170          0           0       -4.257122   -2.906325   -1.618487
    171          0           0       -4.323331   -2.950565   -1.618487
    172          0           0       -4.383200   -3.003069   -1.618487
    173          0           0       -4.435704   -3.062938   -1.618487
    174          0           0       -4.479944   -3.129147   -1.618487
    175          0           0       -4.515163   -3.200565   -1.618487
    176          0           0       -4.540759   -3.275969   -1.618487
    177          0           0       -4.556294   -3.354069   -1.618487
    178          0           0       -4.561502   -3.433528   -1.618487
    179          0           0       -4.556294   -3.512987   -1.618487
    180          0           0       -4.540759   -3.591087   -1.618487
    181          0           0       -4.515163   -3.666491   -1.618487
    182          0           0       -4.479944   -3.737909   -1.618487
    183          0           0       -4.435704   -3.804118   -1.618487
    184          0           0       -4.383200   -3.863987   -1.618487
    185          0           0       -4.323331   -3.916491   -1.618487
    186          0           0       -4.257122   -3.960731   -1.618487
    187          0           0       -4.185704   -3.995950   -1.618487
    188          0           0       -4.110300   -4.021546   -1.618487
    189          0           0       -4.032200   -4.037081   -1.618487
    190          0           0       -3.952741   -4.042289   -1.618487
    191          0           0       -3.873282   -4.037081   -1.618487
    192          0           0       -3.795182   -4.021546   -1.618487
    193          0           0       -3.719778   -3.995950   -1.618487
    194          0           0       -3.648360   -3.960731   -1.618487
    195          0           0       -3.582151   -3.916491   -1.618487
    196          0           0       -3.522282   -3.863987   -1.618487
    197          0           0       -3.469778   -3.804118   -1.618487
    198          0           0       -3.425538   -3.737909   -1.618487
    199          0           0       -3.390319   -3.666491   -1.618487
    200          0           0       -3.364723   -3.591087   -1.618487
    201          0           0       -3.452741   -3.433528   -1.691159
    202          0           0       -3.457019   -3.368265   -1.691159
    203          0           0       -3.469778   -3.304118   -1.691159
    204          0           0       -3.490801   -3.242186   -1.691159
    205          0           0       -3.519728   -3.183528   -1.691159
    206          0           0       -3.556064   -3.129147   -1.691159
    207          0           0       -3.599188   -3.079975   -1.691159
    208          0           0       -3.648360   -3.036851   -1.691159
    209          0           0       -3.702741   -3.000515   -1.691159
    210          0           0       -3.761399   -2.971588   -1.691159
    211          0           0       -3.823331   -2.950565   -1.691159
    212          0           0       -3.887478   -2.937806   -1.691159
    213          0           0       -3.952741   -2.933528   -1.691159
    214          0           0       -4.018004   -2.937806   -1.691159
    215          0           0       -4.082151   -2.950565   -1.691159
    216          0           0       -4.144083   -2.971588   -1.691159
    217          0           0       -4.202741   -3.000515   -1.691159
    218          0           0       -4.257122   -3.036851   -1.691159
    219          0           0       -4.306294   -3.079975   -1.691159
    220          0           0       -4.349418   -3.129147   -1.691159
    221          0           0       -4.385754   -3.183528   -1.691159
    222          0           0       -4.414681   -3.242186   -1.691159
    223          0           0       -4.435704   -3.304118   -1.691159
    224          0           0       -4.448463   -3.368265   -1.691159
    225          0           0       -4.452741   -3.433528   -1.691159
    226          0           0       -4.448463   -3.498791   -1.691159
    227          0           0       -4.435704   -3.562938   -1.691159
    228          0           0       -4.414681   -3.624870   -1.691159
    229          0           0       -4.385754   -3.683528   -1.691159
    230          0           0       -4.349418   -3.737909   -1.691159
    231          0           0       -4.306294   -3.787081   -1.691159
    232          0           0       -4.257122   -3.830205   -1.691159
    233          0           0       -4.202741   -3.866541   -1.691159
    234          0           0       -4.144083   -3.895468   -1.691159
    235          0           0       -4.082151   -3.916491   -1.691159
    236          0           0       -4.018004   -3.929250   -1.691159
 ---------------------------------------------------------------------
 Rotational constants (GHZ):      0.4454681      0.2811480      0.1854303
 Leave Link  202 at Tue Sep 15 12:59:55 2020, MaxMem=   131072000 cpu:         0.0
 (Enter /share/programs/GAUSSIAN/64/g09/l301.exe)
 Standard basis: 6-311+G(d,p) (5D, 7F)
 Warning:  center  37 has no basis functions!
 Warning:  center  38 has no basis functions!
 Warning:  center  39 has no basis functions!
 Warning:  center  40 has no basis functions!
 Warning:  center  41 has no basis functions!
 Warning:  center  42 has no basis functions!
 Warning:  center  43 has no basis functions!
 Warning:  center  44 has no basis functions!
 Warning:  center  45 has no basis functions!
 Warning:  center  46 has no basis functions!
 Warning:  center  47 has no basis functions!
 Warning:  center  48 has no basis functions!
 Warning:  center  49 has no basis functions!
 Warning:  center  50 has no basis functions!
 Warning:  center  51 has no basis functions!
 Warning:  center  52 has no basis functions!
 Warning:  center  53 has no basis functions!
 Warning:  center  54 has no basis functions!
 Warning:  center  55 has no basis functions!
 Warning:  center  56 has no basis functions!
 Warning:  center  57 has no basis functions!
 Warning:  center  58 has no basis functions!
 Warning:  center  59 has no basis functions!
 Warning:  center  60 has no basis functions!
 Warning:  center  61 has no basis functions!
 Warning:  center  62 has no basis functions!
 Warning:  center  63 has no basis functions!
 Warning:  center  64 has no basis functions!
 Warning:  center  65 has no basis functions!
 Warning:  center  66 has no basis functions!
 Warning:  center  67 has no basis functions!
 Warning:  center  68 has no basis functions!
 Warning:  center  69 has no basis functions!
 Warning:  center  70 has no basis functions!
 Warning:  center  71 has no basis functions!
 Warning:  center  72 has no basis functions!
 Warning:  center  73 has no basis functions!
 Warning:  center  74 has no basis functions!
 Warning:  center  75 has no basis functions!
 Warning:  center  76 has no basis functions!
 Warning:  center  77 has no basis functions!
 Warning:  center  78 has no basis functions!
 Warning:  center  79 has no basis functions!
 Warning:  center  80 has no basis functions!
 Warning:  center  81 has no basis functions!
 Warning:  center  82 has no basis functions!
 Warning:  center  83 has no basis functions!
 Warning:  center  84 has no basis functions!
 Warning:  center  85 has no basis functions!
 Warning:  center  86 has no basis functions!
 Warning:  center  87 has no basis functions!
 Warning:  center  88 has no basis functions!
 Warning:  center  89 has no basis functions!
 Warning:  center  90 has no basis functions!
 Warning:  center  91 has no basis functions!
 Warning:  center  92 has no basis functions!
 Warning:  center  93 has no basis functions!
 Warning:  center  94 has no basis functions!
 Warning:  center  95 has no basis functions!
 Warning:  center  96 has no basis functions!
 Warning:  center  97 has no basis functions!
 Warning:  center  98 has no basis functions!
 Warning:  center  99 has no basis functions!
 Warning:  center 100 has no basis functions!
 Warning:  center 101 has no basis functions!
 Warning:  center 102 has no basis functions!
 Warning:  center 103 has no basis functions!
 Warning:  center 104 has no basis functions!
 Warning:  center 105 has no basis functions!
 Warning:  center 106 has no basis functions!
 Warning:  center 107 has no basis functions!
 Warning:  center 108 has no basis functions!
 Warning:  center 109 has no basis functions!
 Warning:  center 110 has no basis functions!
 Warning:  center 111 has no basis functions!
 Warning:  center 112 has no basis functions!
 Warning:  center 113 has no basis functions!
 Warning:  center 114 has no basis functions!
 Warning:  center 115 has no basis functions!
 Warning:  center 116 has no basis functions!
 Warning:  center 117 has no basis functions!
 Warning:  center 118 has no basis functions!
 Warning:  center 119 has no basis functions!
 Warning:  center 120 has no basis functions!
 Warning:  center 121 has no basis functions!
 Warning:  center 122 has no basis functions!
 Warning:  center 123 has no basis functions!
 Warning:  center 124 has no basis functions!
 Warning:  center 125 has no basis functions!
 Warning:  center 126 has no basis functions!
 Warning:  center 127 has no basis functions!
 Warning:  center 128 has no basis functions!
 Warning:  center 129 has no basis functions!
 Warning:  center 130 has no basis functions!
 Warning:  center 131 has no basis functions!
 Warning:  center 132 has no basis functions!
 Warning:  center 133 has no basis functions!
 Warning:  center 134 has no basis functions!
 Warning:  center 135 has no basis functions!
 Warning:  center 136 has no basis functions!
 Warning:  center 137 has no basis functions!
 Warning:  center 138 has no basis functions!
 Warning:  center 139 has no basis functions!
 Warning:  center 140 has no basis functions!
 Warning:  center 141 has no basis functions!
 Warning:  center 142 has no basis functions!
 Warning:  center 143 has no basis functions!
 Warning:  center 144 has no basis functions!
 Warning:  center 145 has no basis functions!
 Warning:  center 146 has no basis functions!
 Warning:  center 147 has no basis functions!
 Warning:  center 148 has no basis functions!
 Warning:  center 149 has no basis functions!
 Warning:  center 150 has no basis functions!
 Warning:  center 151 has no basis functions!
 Warning:  center 152 has no basis functions!
 Warning:  center 153 has no basis functions!
 Warning:  center 154 has no basis functions!
 Warning:  center 155 has no basis functions!
 Warning:  center 156 has no basis functions!
 Warning:  center 157 has no basis functions!
 Warning:  center 158 has no basis functions!
 Warning:  center 159 has no basis functions!
 Warning:  center 160 has no basis functions!
 Warning:  center 161 has no basis functions!
 Warning:  center 162 has no basis functions!
 Warning:  center 163 has no basis functions!
 Warning:  center 164 has no basis functions!
 Warning:  center 165 has no basis functions!
 Warning:  center 166 has no basis functions!
 Warning:  center 167 has no basis functions!
 Warning:  center 168 has no basis functions!
 Warning:  center 169 has no basis functions!
 Warning:  center 170 has no basis functions!
 Warning:  center 171 has no basis functions!
 Warning:  center 172 has no basis functions!
 Warning:  center 173 has no basis functions!
 Warning:  center 174 has no basis functions!
 Warning:  center 175 has no basis functions!
 Warning:  center 176 has no basis functions!
 Warning:  center 177 has no basis functions!
 Warning:  center 178 has no basis functions!
 Warning:  center 179 has no basis functions!
 Warning:  center 180 has no basis functions!
 Warning:  center 181 has no basis functions!
 Warning:  center 182 has no basis functions!
 Warning:  center 183 has no basis functions!
 Warning:  center 184 has no basis functions!
 Warning:  center 185 has no basis functions!
 Warning:  center 186 has no basis functions!
 Warning:  center 187 has no basis functions!
 Warning:  center 188 has no basis functions!
 Warning:  center 189 has no basis functions!
 Warning:  center 190 has no basis functions!
 Warning:  center 191 has no basis functions!
 Warning:  center 192 has no basis functions!
 Warning:  center 193 has no basis functions!
 Warning:  center 194 has no basis functions!
 Warning:  center 195 has no basis functions!
 Warning:  center 196 has no basis functions!
 Warning:  center 197 has no basis functions!
 Warning:  center 198 has no basis functions!
 Warning:  center 199 has no basis functions!
 Warning:  center 200 has no basis functions!
 Warning:  center 201 has no basis functions!
 Warning:  center 202 has no basis functions!
 Warning:  center 203 has no basis functions!
 Warning:  center 204 has no basis functions!
 Warning:  center 205 has no basis functions!
 Warning:  center 206 has no basis functions!
 Warning:  center 207 has no basis functions!
 Warning:  center 208 has no basis functions!
 Warning:  center 209 has no basis functions!
 Warning:  center 210 has no basis functions!
 Warning:  center 211 has no basis functions!
 Warning:  center 212 has no basis functions!
 Warning:  center 213 has no basis functions!
 Warning:  center 214 has no basis functions!
 Warning:  center 215 has no basis functions!
 Warning:  center 216 has no basis functions!
 Warning:  center 217 has no basis functions!
 Warning:  center 218 has no basis functions!
 Warning:  center 219 has no basis functions!
 Warning:  center 220 has no basis functions!
 Warning:  center 221 has no basis functions!
 Warning:  center 222 has no basis functions!
 Warning:  center 223 has no basis functions!
 Warning:  center 224 has no basis functions!
 Warning:  center 225 has no basis functions!
 Warning:  center 226 has no basis functions!
 Warning:  center 227 has no basis functions!
 Warning:  center 228 has no basis functions!
 Warning:  center 229 has no basis functions!
 Warning:  center 230 has no basis functions!
 Warning:  center 231 has no basis functions!
 Warning:  center 232 has no basis functions!
 Warning:  center 233 has no basis functions!
 Warning:  center 234 has no basis functions!
 Warning:  center 235 has no basis functions!
 Warning:  center 236 has no basis functions!
 Ernie: Thresh=  0.10000D-02 Tol=  0.10000D-05 Strict=F.
   568 basis functions,   904 primitive gaussians,   590 cartesian basis functions
    73 alpha electrons       73 beta electrons
       nuclear repulsion energy      1599.9156270972 Hartrees.
 IExCor=  402 DFT=T Ex+Corr=B3LYP ExCW=0 ScaHFX=  0.200000
 ScaDFX=  0.800000  0.720000  1.000000  0.810000 ScalE2=  1.000000  1.000000
 IRadAn=      0 IRanWt=     -1 IRanGd=            0 ICorTp=0 IEmpDi=  4
 NAtoms=  236 NActive=  236 NUniq=  236 SFac= 1.00D+00 NAtFMM=   60 NAOKFM=T Big=T
 Integral buffers will be    131072 words long.
 Raffenetti 2 integral format.
 Two-electron integral symmetry is turned off.
 Leave Link  301 at Tue Sep 15 12:59:55 2020, MaxMem=   131072000 cpu:         0.6
 (Enter /share/programs/GAUSSIAN/64/g09/l302.exe)
 NPDir=0 NMtPBC=     1 NCelOv=     1 NCel=       1 NClECP=     1 NCelD=      1
         NCelK=      1 NCelE2=     1 NClLst=     1 CellRange=     0.0.
 One-electron integrals computed using PRISM.
 NBasis=   568 RedAO= T EigKep=  1.01D-06  NBF=   568
 NBsUse=   557 1.00D-06 EigRej=  9.19D-07 NBFU=   557
 Precomputing XC quadrature grid using
 IXCGrd= 4 IRadAn=           0 IRanWt=          -1 IRanGd=           0 AccXCQ= 0.00D+00.
 Generated NRdTot=       0 NPtTot=           0 NUsed=           0 NTot=          32
 NSgBfM=   587   588   588   589   589 MxSgAt=   236 MxSgA2=    36.
 Leave Link  302 at Tue Sep 15 12:59:58 2020, MaxMem=   131072000 cpu:        24.5
 (Enter /share/programs/GAUSSIAN/64/g09/l308.exe)
 Leave Link  308 at Tue Sep 15 12:59:58 2020, MaxMem=   131072000 cpu:         1.2
 (Enter /share/programs/GAUSSIAN/64/g09/l303.exe)
 DipDrv:  MaxL=1.
 Leave Link  303 at Tue Sep 15 12:59:58 2020, MaxMem=   131072000 cpu:         0.9
 (Enter /share/programs/GAUSSIAN/64/g09/l401.exe)
 Initial guess from the checkpoint file:  "/scratch/aartigas.39124/Gau-3296226.chk"
 Skipping rotation of guess because NAtoms(RWF)=  236 differs from NAtoms(Chk)=   36.
 Guess basis will be translated and rotated to current coordinates.
 JPrj=2 DoOrth=T DoCkMO=T.
 Leave Link  401 at Tue Sep 15 13:00:03 2020, MaxMem=   131072000 cpu:        22.6
 (Enter /share/programs/GAUSSIAN/64/g09/l502.exe)
 Closed shell SCF:
 Using DIIS extrapolation, IDIIS=  1040.
 Two-electron integral symmetry not used.
 IVT=     1071582 IEndB=     1071582 NGot=   131072000 MDV=   130365749
 LenX=   130365749 LenY=   130017059
 Requested convergence on RMS density matrix=1.00D-08 within 128 cycles.
 Requested convergence on MAX density matrix=1.00D-06.
 Requested convergence on             energy=1.00D-06.
 No special actions if energy rises.
 Fock matrices will be formed incrementally for  20 cycles.

 Cycle   1  Pass 1  IDiag  1:
 FoFJK:  IHMeth= 1 ICntrl=       0 DoSepK=F KAlg= 0 I1Cent=   0 FoldK=F
 IRaf= 940000000 NMat=   1 IRICut=       1 DoRegI=T DoRafI=F ISym2E= 0.
 FoFCou: FMM=T IPFlag=           0 FMFlag=      100000 FMFlg1=        2001
         NFxFlg=           0 DoJE=F BraDBF=F KetDBF=F FulRan=T
         wScrn=  0.000000 ICntrl=       0 IOpCl=  0 I1Cent=           0 NGrid=           0
         NMat0=    1 NMatS0=      1 NMatT0=    0 NMatD0=    1 NMtDS0=    0 NMtDT0=    0
 Symmetry not used in FoFCou.
 FMM levels:  10  Number of levels for PrismC:   9
 E= -847.003738666968    
 DIIS: error= 5.05D-08 at cycle   1 NSaved=   1.
 NSaved= 1 IEnMin= 1 EnMin= -847.003738666968     IErMin= 1 ErrMin= 5.05D-08
 ErrMax= 5.05D-08  0.00D+00 EMaxC= 1.00D-01 BMatC= 3.55D-12 BMatP= 3.55D-12
 IDIUse=1 WtCom= 1.00D+00 WtEn= 0.00D+00
 Coeff-Com:  0.100D+01
 Coeff:      0.100D+01
 Gap=     0.151 Goal=   None    Shift=    0.000
 RMSDP=2.88D-07 MaxDP=1.33D-05              OVMax= 3.94D-07

 Cycle   2  Pass 1  IDiag  1:
 RMSU=  2.85D-07    CP:  1.00D+00
 E= -847.003738666824     Delta-E=        0.000000000145 Rises=F Damp=F
 DIIS: error= 1.42D-08 at cycle   2 NSaved=   2.
 NSaved= 2 IEnMin= 1 EnMin= -847.003738666968     IErMin= 2 ErrMin= 1.42D-08
 ErrMax= 1.42D-08  0.00D+00 EMaxC= 1.00D-01 BMatC= 2.13D-13 BMatP= 3.55D-12
 IDIUse=1 WtCom= 1.00D+00 WtEn= 0.00D+00
 Coeff-Com:  0.627D-01 0.937D+00
 Coeff:      0.627D-01 0.937D+00
 Gap=     0.151 Goal=   None    Shift=    0.000
 RMSDP=1.57D-08 MaxDP=7.95D-07 DE= 1.45D-10 OVMax= 3.02D-07

 Cycle   3  Pass 1  IDiag  1:
 RMSU=  1.32D-08    CP:  1.00D+00  1.02D+00
 E= -847.003738666860     Delta-E=       -0.000000000036 Rises=F Damp=F
 DIIS: error= 2.51D-08 at cycle   3 NSaved=   3.
 NSaved= 3 IEnMin= 1 EnMin= -847.003738666968     IErMin= 2 ErrMin= 1.42D-08
 ErrMax= 2.51D-08  0.00D+00 EMaxC= 1.00D-01 BMatC= 5.05D-13 BMatP= 2.13D-13
 IDIUse=1 WtCom= 1.00D+00 WtEn= 0.00D+00
 Coeff-Com: -0.107D-01 0.616D+00 0.395D+00
 Coeff:     -0.107D-01 0.616D+00 0.395D+00
 Gap=     0.151 Goal=   None    Shift=    0.000
 RMSDP=1.03D-08 MaxDP=4.14D-07 DE=-3.59D-11 OVMax= 2.17D-07

 Cycle   4  Pass 1  IDiag  1:
 RMSU=  5.89D-09    CP:  1.00D+00  1.02D+00  3.93D-01
 E= -847.003738666832     Delta-E=        0.000000000028 Rises=F Damp=F
 DIIS: error= 8.06D-09 at cycle   4 NSaved=   4.
 NSaved= 4 IEnMin= 1 EnMin= -847.003738666968     IErMin= 4 ErrMin= 8.06D-09
 ErrMax= 8.06D-09  0.00D+00 EMaxC= 1.00D-01 BMatC= 2.06D-14 BMatP= 2.13D-13
 IDIUse=1 WtCom= 1.00D+00 WtEn= 0.00D+00
 Coeff-Com: -0.876D-02 0.309D+00 0.241D+00 0.459D+00
 Coeff:     -0.876D-02 0.309D+00 0.241D+00 0.459D+00
 Gap=     0.151 Goal=   None    Shift=    0.000
 RMSDP=4.06D-09 MaxDP=1.53D-07 DE= 2.77D-11 OVMax= 6.88D-08

 SCF Done:  E(RB3LYP) =  -847.003738667     A.U. after    4 cycles
            NFock=  4  Conv=0.41D-08     -V/T= 2.0049
 KE= 8.428349970566D+02 PE=-5.164192584015D+03 EE= 1.874438221195D+03
 Leave Link  502 at Tue Sep 15 13:02:11 2020, MaxMem=   131072000 cpu:      1015.5
 (Enter /share/programs/GAUSSIAN/64/g09/l801.exe)
 DoSCS=F DFT=T ScalE2(SS,OS)=  1.000000  1.000000
 Range of M.O.s used for correlation:     1   557
 NBasis=   568 NAE=    73 NBE=    73 NFC=     0 NFV=     0
 NROrb=    557 NOA=    73 NOB=    73 NVA=   484 NVB=   484

 **** Warning!!: The largest alpha MO coefficient is  0.14271944D+03

 Leave Link  801 at Tue Sep 15 13:02:11 2020, MaxMem=   131072000 cpu:         0.2
 (Enter /share/programs/GAUSSIAN/64/g09/l1002.exe)
 Minotr:  Closed shell wavefunction.
          Direct CPHF calculation.
          Differentiating once with respect to magnetic field using GIAOs.
          Electric field/nuclear overlap derivatives assumed to be zero.
          Requested convergence is 1.0D-08 RMS, and 1.0D-07 maximum.
          Secondary convergence is 1.0D-12 RMS, and 1.0D-12 maximum.
          NewPWx=T KeepS1=F KeepF1=F KeepIn=T MapXYZ=F SortEE=F KeepMc=T.
          MDV=     131069551 using IRadAn=       2.
 Generate precomputed XC quadrature information.
          Solving linear equations simultaneously, MaxMat=      72.
 FoFCou: FMM=F IPFlag=           0 FMFlag=      100000 FMFlg1=        2001
         NFxFlg=           0 DoJE=F BraDBF=F KetDBF=T FulRan=T
         wScrn=  0.000000 ICntrl=    6100 IOpCl=  0 I1Cent=           7 NGrid=         236
         NMat0=    1 NMatS0=      1 NMatT0=    0 NMatD0=    1 NMtDS0=    0 NMtDT0=    0
 Symmetry not used in FoFCou.
 FoFJK:  IHMeth= 1 ICntrl=    6127 DoSepK=F KAlg= 0 I1Cent=   0 FoldK=F
 IRaf=         1 NMat=   1 IRICut=       1 DoRegI=T DoRafI=F ISym2E= 0.
          There are     3 degrees of freedom in the 1st order CPHF.  IDoFFX=0 NUNeed=     3.
      3 vectors produced by pass  0 Test12= 1.18D-12 3.33D-08 XBig12= 1.96D+03 8.77D+00.
 AX will form     3 AO Fock derivatives at one time.
      3 vectors produced by pass  1 Test12= 1.18D-12 3.33D-08 XBig12= 3.18D+00 7.58D-01.
      3 vectors produced by pass  2 Test12= 1.18D-12 3.33D-08 XBig12= 1.86D-02 5.85D-02.
      3 vectors produced by pass  3 Test12= 1.18D-12 3.33D-08 XBig12= 4.29D-05 1.35D-03.
      3 vectors produced by pass  4 Test12= 1.18D-12 3.33D-08 XBig12= 9.75D-08 7.22D-05.
      3 vectors produced by pass  5 Test12= 1.18D-12 3.33D-08 XBig12= 3.97D-10 5.92D-06.
      3 vectors produced by pass  6 Test12= 1.18D-12 3.33D-08 XBig12= 1.51D-12 4.40D-07.
 InvSVY:  IOpt=1 It=  1 EMax= 2.13D-14
 Solved reduced A of dimension    21 with     3 vectors.
 Calculating GIAO nuclear magnetic shielding tensors.
 SCF GIAO Magnetic shielding tensor (ppm):
      1  C    Isotropic =    49.6861   Anisotropy =   149.7970
   XX=    46.3088   YX=   -25.0950   ZX=    31.4786
   XY=   -31.1109   YY=   -39.0339   ZY=    13.2621
   XZ=    24.9178   YZ=     8.9888   ZZ=   141.7833
   Eigenvalues:   -49.3507    48.8581   149.5507
      2  C    Isotropic =    49.6861   Anisotropy =   149.7971
   XX=    46.3088   YX=    25.0953   ZX=    31.4786
   XY=    31.1111   YY=   -39.0339   ZY=   -13.2621
   XZ=    24.9177   YZ=    -8.9889   ZZ=   141.7834
   Eigenvalues:   -49.3508    48.8583   149.5509
      3  C    Isotropic =    44.4899   Anisotropy =   204.7372
   XX=   -22.2199   YX=    10.8075   ZX=    51.2710
   XY=     4.9259   YY=   -14.7126   ZY=    14.7921
   XZ=    32.3655   YZ=    21.2392   ZZ=   170.4022
   Eigenvalues:   -31.9593   -15.5523   180.9814
      4  C    Isotropic =    44.4899   Anisotropy =   204.7373
   XX=   -22.2198   YX=   -10.8075   ZX=    51.2710
   XY=    -4.9256   YY=   -14.7126   ZY=   -14.7922
   XZ=    32.3656   YZ=   -21.2393   ZZ=   170.4023
   Eigenvalues:   -31.9592   -15.5524   180.9815
      5  C    Isotropic =    48.5420   Anisotropy =   189.5490
   XX=   -14.6790   YX=     4.7342   ZX=     8.4333
   XY=    20.3759   YY=    -5.5375   ZY=    31.5121
   XZ=    65.1218   YZ=     0.8640   ZZ=   165.8426
   Eigenvalues:   -26.3226    -2.9593   174.9080
      6  C    Isotropic =    48.5421   Anisotropy =   189.5489
   XX=   -14.6789   YX=    -4.7340   ZX=     8.4335
   XY=   -20.3758   YY=    -5.5374   ZY=   -31.5121
   XZ=    65.1218   YZ=    -0.8638   ZZ=   165.8426
   Eigenvalues:   -26.3224    -2.9594   174.9080
      7  C    Isotropic =    50.1907   Anisotropy =   149.2089
   XX=    19.7303   YX=   -44.2755   ZX=    41.2886
   XY=   -38.0437   YY=    -2.7069   ZY=    36.9011
   XZ=    36.5866   YZ=    37.5458   ZZ=   133.5487
   Eigenvalues:   -49.6656    50.5744   149.6633
      8  C    Isotropic =    48.9362   Anisotropy =   152.4339
   XX=   -31.5093   YX=   -11.4921   ZX=    54.7730
   XY=   -19.0468   YY=    46.5898   ZY=    27.5522
   XZ=    42.2451   YZ=    29.8391   ZZ=   131.7282
   Eigenvalues:   -50.1461    46.3960   150.5589
      9  C    Isotropic =    44.4204   Anisotropy =   209.3981
   XX=   -10.1987   YX=    16.7536   ZX=    44.4888
   XY=     8.9342   YY=    -7.7270   ZY=    61.4651
   XZ=    43.3269   YZ=    64.9792   ZZ=   151.1869
   Eigenvalues:   -30.3689   -20.3891   184.0192
     10  C    Isotropic =    45.3894   Anisotropy =   198.3236
   XX=    -5.9706   YX=    23.3819   ZX=    35.6519
   XY=    38.1954   YY=     1.7271   ZY=    73.1370
   XZ=    54.0013   YZ=    45.7045   ZZ=   140.4116
   Eigenvalues:   -33.5315    -7.9055   177.6051
     11  H    Isotropic =    23.8179   Anisotropy =     7.5674
   XX=    27.2191   YX=    -1.9090   ZX=    -2.2602
   XY=    -1.7961   YY=    24.8722   ZY=    -0.1966
   XZ=    -3.3763   YZ=    -0.1950   ZZ=    19.3625
   Eigenvalues:    18.3647    24.2263    28.8628
     12  H    Isotropic =    23.8179   Anisotropy =     7.5674
   XX=    27.2191   YX=     1.9090   ZX=    -2.2602
   XY=     1.7961   YY=    24.8722   ZY=     0.1966
   XZ=    -3.3763   YZ=     0.1950   ZZ=    19.3625
   Eigenvalues:    18.3647    24.2263    28.8628
     13  H    Isotropic =    23.8548   Anisotropy =     7.5124
   XX=    26.7195   YX=    -2.1358   ZX=    -2.0755
[...]
   138  Bq   0.000000
   139  Bq   0.000000
   140  Bq   0.000000
   141  Bq   0.000000
   142  Bq   0.000000
   143  Bq   0.000000
   144  Bq   0.000000
   145  Bq   0.000000
   146  Bq   0.000000
   147  Bq   0.000000
   148  Bq   0.000000
   149  Bq   0.000000
   150  Bq   0.000000
   151  Bq   0.000000
   152  Bq   0.000000
   153  Bq   0.000000
   154  Bq   0.000000
   155  Bq   0.000000
   156  Bq   0.000000
   157  Bq   0.000000
   158  Bq   0.000000
   159  Bq   0.000000
   160  Bq   0.000000
   161  Bq   0.000000
   162  Bq   0.000000
   163  Bq   0.000000
   164  Bq   0.000000
   165  Bq   0.000000
   166  Bq   0.000000
   167  Bq   0.000000
   168  Bq   0.000000
   169  Bq   0.000000
   170  Bq   0.000000
   171  Bq   0.000000
   172  Bq   0.000000
   173  Bq   0.000000
   174  Bq   0.000000
   175  Bq   0.000000
   176  Bq   0.000000
   177  Bq   0.000000
   178  Bq   0.000000
   179  Bq   0.000000
   180  Bq   0.000000
   181  Bq   0.000000
   182  Bq   0.000000
   183  Bq   0.000000
   184  Bq   0.000000
   185  Bq   0.000000
   186  Bq   0.000000
   187  Bq   0.000000
   188  Bq   0.000000
   189  Bq   0.000000
   190  Bq   0.000000
   191  Bq   0.000000
   192  Bq   0.000000
   193  Bq   0.000000
   194  Bq   0.000000
   195  Bq   0.000000
   196  Bq   0.000000
   197  Bq   0.000000
   198  Bq   0.000000
   199  Bq   0.000000
   200  Bq   0.000000
   201  Bq   0.000000
   202  Bq   0.000000
   203  Bq   0.000000
   204  Bq   0.000000
   205  Bq   0.000000
   206  Bq   0.000000
   207  Bq   0.000000
   208  Bq   0.000000
   209  Bq   0.000000
   210  Bq   0.000000
   211  Bq   0.000000
   212  Bq   0.000000
   213  Bq   0.000000
   214  Bq   0.000000
   215  Bq   0.000000
   216  Bq   0.000000
   217  Bq   0.000000
   218  Bq   0.000000
   219  Bq   0.000000
   220  Bq   0.000000
   221  Bq   0.000000
   222  Bq   0.000000
   223  Bq   0.000000
   224  Bq   0.000000
   225  Bq   0.000000
   226  Bq   0.000000
   227  Bq   0.000000
   228  Bq   0.000000
   229  Bq   0.000000
   230  Bq   0.000000
   231  Bq   0.000000
   232  Bq   0.000000
   233  Bq   0.000000
   234  Bq   0.000000
   235  Bq   0.000000
   236  Bq   0.000000
 Sum of Mulliken charges =   0.00000
 Mulliken charges with hydrogens summed into heavy atoms:
               1
     1  C   -0.262865
     2  C   -0.262866
     3  C    0.737923
     4  C    0.737922
     5  C   -0.039994
     6  C   -0.040001
     7  C    0.075155
     8  C   -0.330147
     9  C    0.780501
    10  C   -0.200782
    15  C    0.249272
    16  C   -0.533462
    17  C   -0.189404
    18  C   -0.286191
    23  C   -0.330145
    24  C    0.075154
    25  C    0.780496
    26  C   -0.200782
    27  C    0.249273
    28  C   -0.412303
    29  C   -0.189403
    30  C   -0.533462
    37  Bq   0.000000
    38  Bq   0.000000
    39  Bq   0.000000
    40  Bq   0.000000
    41  Bq   0.000000
    42  Bq   0.000000
    43  Bq   0.000000
    44  Bq   0.000000
    45  Bq   0.000000
    46  Bq   0.000000
    47  Bq   0.000000
    48  Bq   0.000000
    49  Bq   0.000000
    50  Bq   0.000000
    51  Bq   0.000000
    52  Bq   0.000000
    53  Bq   0.000000
    54  Bq   0.000000
    55  Bq   0.000000
    56  Bq   0.000000
    57  Bq   0.000000
    58  Bq   0.000000
    59  Bq   0.000000
    60  Bq   0.000000
    61  Bq   0.000000
    62  Bq   0.000000
    63  Bq   0.000000
    64  Bq   0.000000
    65  Bq   0.000000
    66  Bq   0.000000
    67  Bq   0.000000
    68  Bq   0.000000
    69  Bq   0.000000
    70  Bq   0.000000
    71  Bq   0.000000
    72  Bq   0.000000
    73  Bq   0.000000
    74  Bq   0.000000
    75  Bq   0.000000
    76  Bq   0.000000
    77  Bq   0.000000
    78  Bq   0.000000
    79  Bq   0.000000
    80  Bq   0.000000
    81  Bq   0.000000
    82  Bq   0.000000
    83  Bq   0.000000
    84  Bq   0.000000
    85  Bq   0.000000
    86  Bq   0.000000
    87  Bq   0.000000
    88  Bq   0.000000
    89  Bq   0.000000
    90  Bq   0.000000
    91  Bq   0.000000
    92  Bq   0.000000
    93  Bq   0.000000
    94  Bq   0.000000
    95  Bq   0.000000
    96  Bq   0.000000
    97  Bq   0.000000
    98  Bq   0.000000
    99  Bq   0.000000
   100  Bq   0.000000
   101  Bq   0.000000
   102  Bq   0.000000
   103  Bq   0.000000
   104  Bq   0.000000
   105  Bq   0.000000
   106  Bq   0.000000
   107  Bq   0.126111
   108  Bq   0.000000
   109  Bq   0.000000
   110  Bq   0.000000
   111  Bq   0.000000
   112  Bq   0.000000
   113  Bq   0.000000
   114  Bq   0.000000
   115  Bq   0.000000
   116  Bq   0.000000
   117  Bq   0.000000
   118  Bq   0.000000
   119  Bq   0.000000
   120  Bq   0.000000
   121  Bq   0.000000
   122  Bq   0.000000
   123  Bq   0.000000
   124  Bq   0.000000
   125  Bq   0.000000
   126  Bq   0.000000
   127  Bq   0.000000
   128  Bq   0.000000
   129  Bq   0.000000
   130  Bq   0.000000
   131  Bq   0.000000
   132  Bq   0.000000
   133  Bq   0.000000
   134  Bq   0.000000
   135  Bq   0.000000
   136  Bq   0.000000
   137  Bq   0.000000
   138  Bq   0.000000
   139  Bq   0.000000
   140  Bq   0.000000
   141  Bq   0.000000
   142  Bq   0.000000
   143  Bq   0.000000
   144  Bq   0.000000
   145  Bq   0.000000
   146  Bq   0.000000
   147  Bq   0.000000
   148  Bq   0.000000
   149  Bq   0.000000
   150  Bq   0.000000
   151  Bq   0.000000
   152  Bq   0.000000
   153  Bq   0.000000
   154  Bq   0.000000
   155  Bq   0.000000
   156  Bq   0.000000
   157  Bq   0.000000
   158  Bq   0.000000
   159  Bq   0.000000
   160  Bq   0.000000
   161  Bq   0.000000
   162  Bq   0.000000
   163  Bq   0.000000
   164  Bq   0.000000
   165  Bq   0.000000
   166  Bq   0.000000
   167  Bq   0.000000
   168  Bq   0.000000
   169  Bq   0.000000
   170  Bq   0.000000
   171  Bq   0.000000
   172  Bq   0.000000
   173  Bq   0.000000
   174  Bq   0.000000
   175  Bq   0.000000
   176  Bq   0.000000
   177  Bq   0.000000
   178  Bq   0.000000
   179  Bq   0.000000
   180  Bq   0.000000
   181  Bq   0.000000
   182  Bq   0.000000
   183  Bq   0.000000
   184  Bq   0.000000
   185  Bq   0.000000
   186  Bq   0.000000
   187  Bq   0.000000
   188  Bq   0.000000
   189  Bq   0.000000
   190  Bq   0.000000
   191  Bq   0.000000
   192  Bq   0.000000
   193  Bq   0.000000
   194  Bq   0.000000
   195  Bq   0.000000
   196  Bq   0.000000
   197  Bq   0.000000
   198  Bq   0.000000
   199  Bq   0.000000
   200  Bq   0.000000
   201  Bq   0.000000
   202  Bq   0.000000
   203  Bq   0.000000
   204  Bq   0.000000
   205  Bq   0.000000
   206  Bq   0.000000
   207  Bq   0.000000
   208  Bq   0.000000
   209  Bq   0.000000
   210  Bq   0.000000
   211  Bq   0.000000
   212  Bq   0.000000
   213  Bq   0.000000
   214  Bq   0.000000
   215  Bq   0.000000
   216  Bq   0.000000
   217  Bq   0.000000
   218  Bq   0.000000
   219  Bq   0.000000
   220  Bq   0.000000
   221  Bq   0.000000
   222  Bq   0.000000
   223  Bq   0.000000
   224  Bq   0.000000
   225  Bq   0.000000
   226  Bq   0.000000
   227  Bq   0.000000
   228  Bq   0.000000
   229  Bq   0.000000
   230  Bq   0.000000
   231  Bq   0.000000
   232  Bq   0.000000
   233  Bq   0.000000
   234  Bq   0.000000
   235  Bq   0.000000
   236  Bq   0.000000
 Electronic spatial extent (au):  <R**2>=           5804.3227
 Charge=              0.0000 electrons
 Dipole moment (field-independent basis, Debye):
    X=              0.0000    Y=              0.0732    Z=              0.0000  Tot=              0.0732
 Quadrupole moment (field-independent basis, Debye-Ang):
   XX=           -113.9137   YY=           -113.9781   ZZ=           -133.4378
   XY=              0.0000   XZ=             -4.8717   YZ=              0.0000
 Traceless Quadrupole moment (field-independent basis, Debye-Ang):
   XX=              6.5295   YY=              6.4651   ZZ=            -12.9946
   XY=              0.0000   XZ=             -4.8717   YZ=              0.0000
 Octapole moment (field-independent basis, Debye-Ang**2):
  XXX=              0.0000  YYY=             11.7108  ZZZ=              0.0000  XYY=              0.0000
  XXY=             -6.4067  XXZ=              0.0000  XZZ=              0.0000  YZZ=             -7.8695
  YYZ=              0.0000  XYZ=            -16.2862
 Hexadecapole moment (field-independent basis, Debye-Ang**3):
 XXXX=          -4416.4021 YYYY=          -2784.9756 ZZZZ=           -481.5690 XXXY=              0.0001
 XXXZ=           -124.3517 YYYX=             -0.0003 YYYZ=              0.0001 ZZZX=             -4.4782
 ZZZY=              0.0001 XXYY=          -1189.3576 XXZZ=           -942.9016 YYZZ=           -589.4012
 XXYZ=              0.0000 YYXZ=              7.8297 ZZXY=             -0.0001
 N-N= 1.599915627097D+03 E-N=-5.164192587538D+03  KE= 8.428349970566D+02
 Leave Link  601 at Tue Sep 15 13:09:56 2020, MaxMem=   131072000 cpu:         0.7
 (Enter /share/programs/GAUSSIAN/64/g09/l9999.exe)
 1\1\GINC-PLANA\SP\RB3LYP\6-311+G(d,p)\C22H14\AARTIGAS\15-Sep-2020\0\\#
 P rb3lyp/6-311+g** NMR Guess=Read geom=connectivity\\Title\\0,1\C,0,0.
 653241,3.257859,-0.20251\C,0,-0.653243,3.25786,0.20251\C,0,1.372495,2.
 032956,-0.320807\C,0,-1.372495,2.032956,0.320807\C,0,0.722474,0.795666
 ,-0.050388\C,0,-0.722474,0.795667,0.050387\C,0,2.760385,2.053927,-0.67
 4268\C,0,3.508866,0.913916,-0.671362\C,0,2.955226,-0.309622,-0.177479\
 C,0,1.574722,-0.361114,0.197094\H,0,1.183427,4.19574,-0.384599\H,0,-1.
 183429,4.19574,0.384599\H,0,3.206283,3.012423,-0.951392\H,0,4.560023,0
 .932956,-0.969333\C,0,3.78302,-1.443098,0.028309\C,0,1.137427,-1.50753
 3,0.912109\C,0,1.973691,-2.584349,1.138062\C,0,3.301853,-2.571588,0.66
 1177\H,0,4.825754,-1.39123,-0.295484\H,0,0.124652,-1.532788,1.308472\H
 ,0,1.603586,-3.445682,1.698977\H,0,3.952742,-3.433526,0.825134\C,0,-3.
 508866,0.913915,0.671362\C,0,-2.760386,2.053926,0.674268\C,0,-2.955226
 ,-0.309623,0.177479\C,0,-1.574722,-0.361114,-0.197094\C,0,-3.78302,-1.
 443099,-0.028309\C,0,-3.301852,-2.571589,-0.661177\C,0,-1.97369,-2.584
 349,-1.138061\C,0,-1.137426,-1.507534,-0.912109\H,0,-4.560022,0.932954
 ,0.969334\H,0,-3.206283,3.012421,0.951392\H,0,-4.825754,-1.391232,0.29
 5484\H,0,-3.952741,-3.433528,-0.825134\H,0,-1.603585,-3.445682,-1.6989
 76\H,0,-0.124652,-1.532788,-1.308471\Bq,0,-4.8451401008,-3.1944103816,
 -1.2078174324\Bq,0,-4.868716615,-3.3129375226,-1.2078174324\Bq,0,-4.87
 66205325,-3.433528,-1.2078174324\Bq,0,-4.868716615,-3.5541184774,-1.20
 78174324\Bq,0,-4.8451401008,-3.6726456184,-1.2078174324\Bq,0,-4.806294
 3906,-3.7870813906,-1.2078174324\Bq,0,-4.7528441452,-3.8954677663,-1.2
 078174324\Bq,0,-4.6857039131,-3.9959502244,-1.2078174324\Bq,0,-4.60602
 24824,-4.0868094824,-1.2078174324\Bq,0,-4.5151632244,-4.1664909131,-1.
 2078174324\Bq,0,-4.4146807663,-4.2336311452,-1.2078174324\Bq,0,-4.3062
 943906,-4.2870813906,-1.2078174324\Bq,0,-4.1918586184,-4.3259271008,-1
 .2078174324\Bq,0,-4.0733314774,-4.349503615,-1.2078174324\Bq,0,-3.9527
 41,-4.3574075325,-1.2078174324\Bq,0,-3.8321505226,-4.349503615,-1.2078
 174324\Bq,0,-3.7136233816,-4.3259271008,-1.2078174324\Bq,0,-3.59918760
 94,-4.2870813906,-1.2078174324\Bq,0,-3.4908012337,-4.2336311452,-1.207
 8174324\Bq,0,-3.3903187756,-4.1664909131,-1.2078174324\Bq,0,-3.2994595
 176,-4.0868094824,-1.2078174324\Bq,0,-3.2197780869,-3.9959502244,-1.20
 78174324\Bq,0,-3.1526378548,-3.8954677663,-1.2078174324\Bq,0,-4.065779
 9983,-2.5749115636,-1.325134\Bq,0,-4.176884868,-2.5970116963,-1.325134
 \Bq,0,-4.284154574,-2.6334248548,-1.325134\Bq,0,-4.3857537019,-2.68352
 8,-1.325134\Bq,0,-4.4799438624,-2.7464638531,-1.325134\Bq,0,-4.5651134
 357,-2.8211555643,-1.325134\Bq,0,-4.6398051469,-2.9063251376,-1.325134
 \Bq,0,-4.702741,-3.0005152981,-1.325134\Bq,0,-4.7528441452,-3.10211442
 6,-1.325134\Bq,0,-4.7892573037,-3.209384132,-1.325134\Bq,0,-4.81135743
 64,-3.3204890017,-1.325134\Bq,0,-4.8187664038,-3.433528,-1.325134\Bq,0
 ,-4.8113574364,-3.5465669983,-1.325134\Bq,0,-4.7892573037,-3.657671868
 ,-1.325134\Bq,0,-4.7528441452,-3.764941574,-1.325134\Bq,0,-4.702741,-3
 .8665407019,-1.325134\Bq,0,-4.6398051469,-3.9607308624,-1.325134\Bq,0,
 -4.5651134357,-4.0459004357,-1.325134\Bq,0,-4.4799438624,-4.1205921469
 ,-1.325134\Bq,0,-4.3857537019,-4.183528,-1.325134\Bq,0,-4.284154574,-4
 .2336311452,-1.325134\Bq,0,-4.176884868,-4.2700443037,-1.325134\Bq,0,-
 4.0657799983,-4.2921444364,-1.325134\Bq,0,-3.952741,-4.2995534038,-1.3
 25134\Bq,0,-3.8397020017,-4.2921444364,-1.325134\Bq,0,-3.728597132,-4.
 2700443037,-1.325134\Bq,0,-3.621327426,-4.2336311452,-1.325134\Bq,0,-3
 .5197282981,-4.183528,-1.325134\Bq,0,-3.4255381376,-4.1205921469,-1.32
 5134\Bq,0,-3.3403685643,-4.0459004357,-1.325134\Bq,0,-3.2656768531,-3.
 9607308624,-1.325134\Bq,0,-3.202741,-3.8665407019,-1.325134\Bq,0,-3.95
 2741,-2.6401746597,-1.433895429\Bq,0,-4.0562943906,-2.6469619075,-1.43
 3895429\Bq,0,-4.158075954,-2.6672075192,-1.433895429\Bq,0,-4.256344179
 3,-2.7005650869,-1.433895429\Bq,0,-4.3494176701,-2.7464638531,-1.43389
 5429\Bq,0,-4.4357039131,-2.8041184774,-1.433895429\Bq,0,-4.5137265268,
 -2.8725424732,-1.433895429\Bq,0,-4.5821505226,-2.9505650869,-1.4338954
 29\Bq,0,-4.6398051469,-3.0368513299,-1.433895429\Bq,0,-4.6857039131,-3
 .1299248207,-1.433895429\Bq,0,-4.7190614808,-3.228193046,-1.433895429\
 Bq,0,-4.7393070925,-3.3299746094,-1.433895429\Bq,0,-4.7460943403,-3.43
 3528,-1.433895429\Bq,0,-4.7393070925,-3.5370813906,-1.433895429\Bq,0,-
 4.7190614808,-3.638862954,-1.433895429\Bq,0,-4.6857039131,-3.737131179
 3,-1.433895429\Bq,0,-4.6398051469,-3.8302046701,-1.433895429\Bq,0,-4.5
 821505226,-3.9164909131,-1.433895429\Bq,0,-4.5137265268,-3.9945135268,
 -1.433895429\Bq,0,-4.4357039131,-4.0629375226,-1.433895429\Bq,0,-4.349
 4176701,-4.1205921469,-1.433895429\Bq,0,-4.2563441793,-4.1664909131,-1
 .433895429\Bq,0,-4.158075954,-4.1998484808,-1.433895429\Bq,0,-4.056294
 3906,-4.2200940925,-1.433895429\Bq,0,-3.952741,-4.2268813403,-1.433895
 429\Bq,0,-3.8491876094,-4.2200940925,-1.433895429\Bq,0,-3.747406046,-4
 .1998484808,-1.433895429\Bq,0,-3.6491378207,-4.1664909131,-1.433895429
 \Bq,0,-3.5560643299,-4.1205921469,-1.433895429\Bq,0,-3.4697780869,-4.0
 629375226,-1.433895429\Bq,0,-3.3917554732,-3.9945135268,-1.433895429\B
 q,0,-3.3233314774,-3.9164909131,-1.433895429\Bq,0,-3.2656768531,-3.830
 2046701,-1.433895429\Bq,0,-3.7697282981,-2.7505152981,-1.5322407812\Bq
 ,0,-3.8604450444,-2.7324706154,-1.5322407812\Bq,0,-3.952741,-2.7264212
 188,-1.5322407812\Bq,0,-4.0450369556,-2.7324706154,-1.5322407812\Bq,0,
 -4.1357537019,-2.7505152981,-1.5322407812\Bq,0,-4.2233390501,-2.780246
 5176,-1.5322407812\Bq,0,-4.3062943906,-2.8211555643,-1.5322407812\Bq,0
 ,-4.3832003346,-2.8725424732,-1.5322407812\Bq,0,-4.452741,-2.933528,-1
 .5322407812\Bq,0,-4.5137265268,-3.0030686654,-1.5322407812\Bq,0,-4.565
 1134357,-3.0799746094,-1.5322407812\Bq,0,-4.6060224824,-3.1629299499,-
 1.5322407812\Bq,0,-4.6357537019,-3.2505152981,-1.5322407812\Bq,0,-4.65
 37983846,-3.3412320444,-1.5322407812\Bq,0,-4.6598477812,-3.433528,-1.5
 322407812\Bq,0,-4.6537983846,-3.5258239556,-1.5322407812\Bq,0,-4.63575
 37019,-3.6165407019,-1.5322407812\Bq,0,-4.6060224824,-3.7041260501,-1.
 5322407812\Bq,0,-4.5651134357,-3.7870813906,-1.5322407812\Bq,0,-4.5137
 265268,-3.8639873346,-1.5322407812\Bq,0,-4.452741,-3.933528,-1.5322407
 812\Bq,0,-4.3832003346,-3.9945135268,-1.5322407812\Bq,0,-4.3062943906,
 -4.0459004357,-1.5322407812\Bq,0,-4.2233390501,-4.0868094824,-1.532240
 7812\Bq,0,-4.1357537019,-4.1165407019,-1.5322407812\Bq,0,-4.0450369556
 ,-4.1345853846,-1.5322407812\Bq,0,-3.952741,-4.1406347812,-1.532240781
 2\Bq,0,-3.8604450444,-4.1345853846,-1.5322407812\Bq,0,-3.7697282981,-4
 .1165407019,-1.5322407812\Bq,0,-3.6821429499,-4.0868094824,-1.53224078
 12\Bq,0,-3.5991876094,-4.0459004357,-1.5322407812\Bq,0,-3.5222816654,-
 3.9945135268,-1.5322407812\Bq,0,-3.452741,-3.933528,-1.5322407812\Bq,0
 ,-3.3917554732,-3.8639873346,-1.5322407812\Bq,0,-3.3403685643,-3.78708
 13906,-1.5322407812\Bq,0,-3.2994595176,-3.7041260501,-1.5322407812\Bq,
 0,-3.5821505226,-2.9505650869,-1.6184873403\Bq,0,-3.6483602855,-2.9063
 251376,-1.6184873403\Bq,0,-3.7197780869,-2.8711057756,-1.6184873403\Bq
 ,0,-3.7951819482,-2.8455096137,-1.6184873403\Bq,0,-3.8732816887,-2.829
 9746094,-1.6184873403\Bq,0,-3.952741,-2.824766571,-1.6184873403\Bq,0,-
 4.0322003113,-2.8299746094,-1.6184873403\Bq,0,-4.1103000518,-2.8455096
 137,-1.6184873403\Bq,0,-4.1857039131,-2.8711057756,-1.6184873403\Bq,0,
 -4.2571217145,-2.9063251376,-1.6184873403\Bq,0,-4.3233314774,-2.950565
 0869,-1.6184873403\Bq,0,-4.3832003346,-3.0030686654,-1.6184873403\Bq,0
 ,-4.4357039131,-3.0629375226,-1.6184873403\Bq,0,-4.4799438624,-3.12914
 72855,-1.6184873403\Bq,0,-4.5151632244,-3.2005650869,-1.6184873403\Bq,
 0,-4.5407593863,-3.2759689482,-1.6184873403\Bq,0,-4.5562943906,-3.3540
 686887,-1.6184873403\Bq,0,-4.561502429,-3.433528,-1.6184873403\Bq,0,-4
 .5562943906,-3.5129873113,-1.6184873403\Bq,0,-4.5407593863,-3.59108705
 18,-1.6184873403\Bq,0,-4.5151632244,-3.6664909131,-1.6184873403\Bq,0,-
 4.4799438624,-3.7379087145,-1.6184873403\Bq,0,-4.4357039131,-3.8041184
 774,-1.6184873403\Bq,0,-4.3832003346,-3.8639873346,-1.6184873403\Bq,0,
 -4.3233314774,-3.9164909131,-1.6184873403\Bq,0,-4.2571217145,-3.960730
 8624,-1.6184873403\Bq,0,-4.1857039131,-3.9959502244,-1.6184873403\Bq,0
 ,-4.1103000518,-4.0215463863,-1.6184873403\Bq,0,-4.0322003113,-4.03708
 13906,-1.6184873403\Bq,0,-3.952741,-4.042289429,-1.6184873403\Bq,0,-3.
 8732816887,-4.0370813906,-1.6184873403\Bq,0,-3.7951819482,-4.021546386
 3,-1.6184873403\Bq,0,-3.7197780869,-3.9959502244,-1.6184873403\Bq,0,-3
 .6483602855,-3.9607308624,-1.6184873403\Bq,0,-3.5821505226,-3.91649091
 31,-1.6184873403\Bq,0,-3.5222816654,-3.8639873346,-1.6184873403\Bq,0,-
 3.4697780869,-3.8041184774,-1.6184873403\Bq,0,-3.4255381376,-3.7379087
 145,-1.6184873403\Bq,0,-3.3903187756,-3.6664909131,-1.6184873403\Bq,0,
 -3.3647226137,-3.5910870518,-1.6184873403\Bq,0,-3.452741,-3.433528,-1.
 6911594038\Bq,0,-3.4570185693,-3.3682649039,-1.6911594038\Bq,0,-3.4697
 780869,-3.3041184774,-1.6911594038\Bq,0,-3.4908012337,-3.2421862838,-1
 .6911594038\Bq,0,-3.5197282981,-3.183528,-1.6911594038\Bq,0,-3.5560643
 299,-3.1291472855,-1.6911594038\Bq,0,-3.5991876094,-3.0799746094,-1.69
 11594038\Bq,0,-3.6483602855,-3.0368513299,-1.6911594038\Bq,0,-3.702741
 ,-3.0005152981,-1.6911594038\Bq,0,-3.7613992838,-2.9715882337,-1.69115
 94038\Bq,0,-3.8233314774,-2.9505650869,-1.6911594038\Bq,0,-3.887477903
 9,-2.9378055693,-1.6911594038\Bq,0,-3.952741,-2.933528,-1.6911594038\B
 q,0,-4.0180040961,-2.9378055693,-1.6911594038\Bq,0,-4.0821505226,-2.95
 05650869,-1.6911594038\Bq,0,-4.1440827162,-2.9715882337,-1.6911594038\
 Bq,0,-4.202741,-3.0005152981,-1.6911594038\Bq,0,-4.2571217145,-3.03685
 13299,-1.6911594038\Bq,0,-4.3062943906,-3.0799746094,-1.6911594038\Bq,
 0,-4.3494176701,-3.1291472855,-1.6911594038\Bq,0,-4.3857537019,-3.1835
 28,-1.6911594038\Bq,0,-4.4146807663,-3.2421862838,-1.6911594038\Bq,0,-
 4.4357039131,-3.3041184774,-1.6911594038\Bq,0,-4.4484634307,-3.3682649
 039,-1.6911594038\Bq,0,-4.452741,-3.433528,-1.6911594038\Bq,0,-4.44846
 34307,-3.4987910961,-1.6911594038\Bq,0,-4.4357039131,-3.5629375226,-1.
 6911594038\Bq,0,-4.4146807663,-3.6248697162,-1.6911594038\Bq,0,-4.3857
 537019,-3.683528,-1.6911594038\Bq,0,-4.3494176701,-3.7379087145,-1.691
 1594038\Bq,0,-4.3062943906,-3.7870813906,-1.6911594038\Bq,0,-4.2571217
 145,-3.8302046701,-1.6911594038\Bq,0,-4.202741,-3.8665407019,-1.691159
 4038\Bq,0,-4.1440827162,-3.8954677663,-1.6911594038\Bq,0,-4.0821505226
 ,-3.9164909131,-1.6911594038\Bq,0,-4.0180040961,-3.9292504307,-1.69115
 94038\\Version=ES64L-G09RevD.01\HF=-847.0037387\RMSD=4.062e-09\Dipole=
 0.0000004,0.0287843,0.0000009\Quadrupole=4.8545288,4.8066247,-9.661153
 5,-0.0000047,-3.6219991,-0.000002\PG=C01 [X(C22H14)]\\@


 IF YOU'RE NOT PART OF THE SOLUTION,
 THEN YOU'RE PART OF THE PRECIPITATE.
 Job cpu time:       0 days  1 hours 17 minutes 58.6 seconds.
 File lengths (MBytes):  RWF=    184 Int=      0 D2E=      0 Chk=     21 Scr=      1
 Normal termination of Gaussian 09 at Tue Sep 15 13:09:56 2020.
