 Entering Gaussian System, Link 0=g09
 Input=input_batch_25000.com
 Output=input_batch_25000.log
 Initial command:
 /share/programs/GAUSSIAN/64/g09/l1.exe "/scratch/aartigas.39165/Gau-3311224.inp" -scrdir="/scratch/aartigas.39165/"
 Entering Link 1 = /share/programs/GAUSSIAN/64/g09/l1.exe PID=   3311225.
  
 Copyright (c) 1988,1990,1992,1993,1995,1998,2003,2009,2013,
            Gaussian, Inc.  All Rights Reserved.
  
 This is part of the Gaussian(R) 09 program.  It is based on
 the Gaussian(R) 03 system (copyright 2003, Gaussian, Inc.),
 the Gaussian(R) 98 system (copyright 1998, Gaussian, Inc.),
 the Gaussian(R) 94 system (copyright 1995, Gaussian, Inc.),
 the Gaussian 92(TM) system (copyright 1992, Gaussian, Inc.),
 the Gaussian 90(TM) system (copyright 1990, Gaussian, Inc.),
 the Gaussian 88(TM) system (copyright 1988, Gaussian, Inc.),
 the Gaussian 86(TM) system (copyright 1986, Carnegie Mellon
 University), and the Gaussian 82(TM) system (copyright 1983,
 Carnegie Mellon University). Gaussian is a federally registered
 trademark of Gaussian, Inc.
  
 This software contains proprietary and confidential information,
 including trade secrets, belonging to Gaussian, Inc.
  
 This software is provided under written license and may be
 used, copied, transmitted, or stored only in accord with that
 written license.
  
 The following legend is applicable only to US Government
 contracts under FAR:
  
                    RESTRICTED RIGHTS LEGEND
  
 Use, reproduction and disclosure by the US Government is
 subject to restrictions as set forth in subparagraphs (a)
 and (c) of the Commercial Computer Software - Restricted
 Rights clause in FAR 52.227-19.
  
 Gaussian, Inc.
 340 Quinnipiac St., Bldg. 40, Wallingford CT 06492
  
  
 ---------------------------------------------------------------
 Warning -- This program may not be used in any manner that
 competes with the business of Gaussian, Inc. or will provide
 assistance to any competitor of Gaussian, Inc.  The licensee
 of this program is prohibited from giving any competitor of
 Gaussian, Inc. access to this program.  By using this program,
 the user acknowledges that Gaussian, Inc. is engaged in the
 business of creating and licensing software in the field of
 computational chemistry and represents and warrants to the
 licensee that it is not a competitor of Gaussian, Inc. and that
 it will not use this program in any manner prohibited above.
 ---------------------------------------------------------------
  

 Cite this work as:
 Gaussian 09, Revision D.01,
 M. J. Frisch, G. W. Trucks, H. B. Schlegel, G. E. Scuseria, 
 M. A. Robb, J. R. Cheeseman, G. Scalmani, V. Barone, B. Mennucci, 
 G. A. Petersson, H. Nakatsuji, M. Caricato, X. Li, H. P. Hratchian, 
 A. F. Izmaylov, J. Bloino, G. Zheng, J. L. Sonnenberg, M. Hada, 
 M. Ehara, K. Toyota, R. Fukuda, J. Hasegawa, M. Ishida, T. Nakajima, 
 Y. Honda, O. Kitao, H. Nakai, T. Vreven, J. A. Montgomery, Jr., 
 J. E. Peralta, F. Ogliaro, M. Bearpark, J. J. Heyd, E. Brothers, 
 K. N. Kudin, V. N. Staroverov, T. Keith, R. Kobayashi, J. Normand, 
 K. Raghavachari, A. Rendell, J. C. Burant, S. S. Iyengar, J. Tomasi, 
 M. Cossi, N. Rega, J. M. Millam, M. Klene, J. E. Knox, J. B. Cross, 
 V. Bakken, C. Adamo, J. Jaramillo, R. Gomperts, R. E. Stratmann, 
 O. Yazyev, A. J. Austin, R. Cammi, C. Pomelli, J. W. Ochterski, 
 R. L. Martin, K. Morokuma, V. G. Zakrzewski, G. A. Voth, 
 P. Salvador, J. J. Dannenberg, S. Dapprich, A. D. Daniels, 
 O. Farkas, J. B. Foresman, J. V. Ortiz, J. Cioslowski, 
 and D. J. Fox, Gaussian, Inc., Wallingford CT, 2013.
 
 ******************************************
 Gaussian 09:  ES64L-G09RevD.01 24-Apr-2013
                15-Sep-2020 
 ******************************************
 %OldChk=/home/aartigas/chk/5_helicene_spe.chk
 %nproc=8
 Will use up to    8 processors via shared memory.
 %mem=1000MB
 Copying data from "/home/aartigas/chk/5_helicene_spe.chk" to current chk file "/scratch/aartigas.39165/Gau-3311225.chk".
 ----------------------------------------------------
 #P rb3lyp/6-311+g** NMR Guess=Read geom=connectivity
 ----------------------------------------------------
 1/38=1,57=2/1;
 2/12=2,17=6,18=5,40=1/2;
 3/5=4,6=6,7=111,11=2,16=1,25=1,30=1,74=-5,116=1/1,2,8,3;
 4/5=1/1;
 5/5=2,38=6/2;
 8/6=1,10=90,11=11/1;
 10/13=100,45=16/2;
 6/7=2,8=2,9=2,10=2,28=1/1;
 99/9=1/99;
 Leave Link    1 at Tue Sep 15 13:38:35 2020, MaxMem=   131072000 cpu:         0.5
 (Enter /share/programs/GAUSSIAN/64/g09/l101.exe)
 -----
 Title
 -----
 Symbolic Z-matrix:
 Charge =  0 Multiplicity = 1
 C                     0.65324   3.25786  -0.20251 
 C                    -0.65324   3.25786   0.20251 
 C                     1.3725    2.03296  -0.32081 
 C                    -1.3725    2.03296   0.32081 
 C                     0.72247   0.79567  -0.05039 
 C                    -0.72247   0.79567   0.05039 
 C                     2.76039   2.05393  -0.67427 
 C                     3.50887   0.91392  -0.67136 
 C                     2.95523  -0.30962  -0.17748 
 C                     1.57472  -0.36111   0.19709 
 H                     1.18343   4.19574  -0.3846 
 H                    -1.18343   4.19574   0.3846 
 H                     3.20628   3.01242  -0.95139 
 H                     4.56002   0.93296  -0.96933 
 C                     3.78302  -1.4431    0.02831 
 C                     1.13743  -1.50753   0.91211 
 C                     1.97369  -2.58435   1.13806 
 C                     3.30185  -2.57159   0.66118 
 H                     4.82575  -1.39123  -0.29548 
 H                     0.12465  -1.53279   1.30847 
 H                     1.60359  -3.44568   1.69898 
 H                     3.95274  -3.43353   0.82513 
 C                    -3.50887   0.91392   0.67136 
 C                    -2.76039   2.05393   0.67427 
 C                    -2.95523  -0.30962   0.17748 
 C                    -1.57472  -0.36111  -0.19709 
 C                    -3.78302  -1.4431   -0.02831 
 C                    -3.30185  -2.57159  -0.66118 
 C                    -1.97369  -2.58435  -1.13806 
 C                    -1.13743  -1.50753  -0.91211 
 H                    -4.56002   0.93295   0.96933 
 H                    -3.20628   3.01242   0.95139 
 H                    -4.82575  -1.39123   0.29548 
 H                    -3.95274  -3.43353  -0.82513 
 H                    -1.60359  -3.44568  -1.69898 
 H                    -0.12465  -1.53279  -1.30847 
 Bq                    3.50889   1.72831   0.18341 
 Bq                    3.50889   1.72831   0.18341 
 Bq                    3.50889   1.72831   0.18341 
 Bq                    3.50889   1.72831   0.18341 
 Bq                    3.50889   1.72831   0.18341 
 Bq                    3.50889   1.72831   0.18341 
 Bq                    3.50889   1.72831   0.18341 
 Bq                    3.50889   1.72831   0.18341 
 Bq                    3.50889   1.72831   0.18341 
 Bq                    3.50889   1.72831   0.18341 
 Bq                    3.50889   1.72831   0.18341 
 Bq                    3.50889   1.72831   0.18341 
 Bq                    3.50889   1.72831   0.18341 
 Bq                    3.50889   1.72831   0.18341 
 Bq                    3.50889   1.72831   0.18341 
 Bq                    3.50889   1.72831   0.18341 
 Bq                    3.50889   1.72831   0.18341 
 Bq                    3.50889   1.72831   0.18341 
 Bq                    3.50889   1.72831   0.18341 
 Bq                    3.50889   1.72831   0.18341 
 Bq                    3.50889   1.72831   0.18341 
 Bq                    3.50889   1.72831   0.18341 
 Bq                    3.50889   1.72831   0.18341 
 Bq                    3.50889   1.72831   0.18341 
 Bq                    3.50889   1.72831   0.18341 
 Bq                    3.50889   1.72831   0.18341 
 Bq                    3.50889   1.72831   0.18341 
 Bq                    3.50889   1.72831   0.18341 
 Bq                    3.50889   1.72831   0.18341 
 Bq                    3.50889   1.72831   0.18341 
 Bq                    3.50889   1.72831   0.18341 
 Bq                    3.63942   1.72831   0.17486 
 Bq                    3.6383    1.74534   0.17486 
 Bq                    3.63497   1.76209   0.17486 
 Bq                    3.62948   1.77826   0.17486 
 Bq                    3.62193   1.79357   0.17486 
 Bq                    3.61244   1.80776   0.17486 
 Bq                    3.60119   1.8206    0.17486 
 Bq                    3.58835   1.83186   0.17486 
 Bq                    3.57415   1.84134   0.17486 
 Bq                    3.55884   1.8489    0.17486 
 Bq                    3.54267   1.85438   0.17486 
 Bq                    3.52593   1.85772   0.17486 
 Bq                    3.50889   1.85883   0.17486 
 Bq                    3.49185   1.85772   0.17486 
 Bq                    3.47511   1.85438   0.17486 
 Bq                    3.45894   1.8489    0.17486 
 Bq                    3.44363   1.84134   0.17486 
 Bq                    3.42943   1.83186   0.17486 
 Bq                    3.41659   1.8206    0.17486 
 Bq                    3.40534   1.80776   0.17486 
 Bq                    3.39585   1.79357   0.17486 
 Bq                    3.3883    1.77826   0.17486 
 Bq                    3.38281   1.76209   0.17486 
 Bq                    3.37948   1.74534   0.17486 
 Bq                    3.37836   1.72831   0.17486 
 Bq                    3.37948   1.71127   0.17486 
 Bq                    3.38281   1.69452   0.17486 
 Bq                    3.3883    1.67836   0.17486 
 Bq                    3.39585   1.66304   0.17486 
 Bq                    3.40534   1.64885   0.17486 
 Bq                    3.41659   1.63601   0.17486 
 Bq                    3.42943   1.62475   0.17486 
 Bq                    3.44363   1.61527   0.17486 
 Bq                    3.45894   1.60772   0.17486 
 Bq                    3.47511   1.60223   0.17486 
 Bq                    3.49185   1.5989    0.17486 
 Bq                    3.50889   1.59778   0.17486 
 Bq                    3.52593   1.5989    0.17486 
 Bq                    3.54267   1.60223   0.17486 
 Bq                    3.55884   1.60772   0.17486 
 Bq                    3.57415   1.61527   0.17486 
 Bq                    3.58835   1.62475   0.17486 
 Bq                    3.60119   1.63601   0.17486 
 Bq                    3.61244   1.64885   0.17486 
 Bq                    3.62193   1.66304   0.17486 
 Bq                    3.62948   1.67836   0.17486 
 Bq                    3.63497   1.69452   0.17486 
 Bq                    3.6383    1.71127   0.17486 
 Bq                    3.76771   1.72831   0.14934 
 Bq                    3.76549   1.76209   0.14934 
 Bq                    3.75889   1.79529   0.14934 
 Bq                    3.74801   1.82735   0.14934 
 Bq                    3.73303   1.85772   0.14934 
 Bq                    3.71422   1.88586   0.14934 
 Bq                    3.6919    1.91132   0.14934 
 Bq                    3.66645   1.93364   0.14934 
 Bq                    3.6383    1.95245   0.14934 
 Bq                    3.60794   1.96742   0.14934 
 Bq                    3.57588   1.97831   0.14934 
 Bq                    3.54267   1.98491   0.14934 
 Bq                    3.50889   1.98712   0.14934 
 Bq                    3.47511   1.98491   0.14934 
 Bq                    3.4419    1.97831   0.14934 
 Bq                    3.40984   1.96742   0.14934 
 Bq                    3.37948   1.95245   0.14934 
 Bq                    3.35133   1.93364   0.14934 
 Bq                    3.32588   1.91132   0.14934 
 Bq                    3.30355   1.88586   0.14934 
 Bq                    3.25228   1.76209   0.14934 
 Bq                    3.25007   1.72831   0.14934 
 Bq                    3.25228   1.69452   0.14934 
 Bq                    3.25889   1.66132   0.14934 
 Bq                    3.26977   1.62926   0.14934 
 Bq                    3.28475   1.5989    0.14934 
 Bq                    3.30355   1.57075   0.14934 
 Bq                    3.32588   1.54529   0.14934 
 Bq                    3.35133   1.52297   0.14934 
 Bq                    3.37948   1.50416   0.14934 
 Bq                    3.40984   1.48919   0.14934 
 Bq                    3.60794   1.48919   0.14934 
 Bq                    3.6383    1.50416   0.14934 
 Bq                    3.66645   1.52297   0.14934 
 Bq                    3.6919    1.54529   0.14934 
 Bq                    3.71422   1.57075   0.14934 
 Bq                    3.73303   1.5989    0.14934 
 Bq                    3.74801   1.62926   0.14934 
 Bq                    3.75889   1.66132   0.14934 
 Bq                    3.76549   1.69452   0.14934 
 Bq                    3.89157   1.72831   0.10729 
 Bq                    3.8883    1.77826   0.10729 
 Bq                    3.87853   1.82735   0.10729 
 Bq                    3.86244   1.87475   0.10729 
 Bq                    3.8403    1.91965   0.10729 
 Bq                    3.81249   1.96127   0.10729 
 Bq                    3.77949   1.9989    0.10729 
 Bq                    3.74185   2.03191   0.10729 
 Bq                    3.70023   2.05972   0.10729 
 Bq                    3.65534   2.08186   0.10729 
 Bq                    3.60794   2.09795   0.10729 
 Bq                    3.55884   2.10772   0.10729 
 Bq                    3.50889   2.11099   0.10729 
 Bq                    3.45894   2.10772   0.10729 
 Bq                    3.40984   2.09795   0.10729 
 Bq                    3.17748   1.53696   0.10729 
 Bq                    3.20529   1.49534   0.10729 
 Bq                    3.81249   1.49534   0.10729 
 Bq                    3.8403    1.53696   0.10729 
 Bq                    3.86244   1.58186   0.10729 
 Bq                    3.87853   1.62926   0.10729 
 Bq                    3.8883    1.67836   0.10729 
 Bq                    4.00889   1.72831   0.04944 
 Bq                    4.00461   1.79357   0.04944 
 Bq                    3.99185   1.85772   0.04944 
 Bq                    3.97083   1.91965   0.04944 
 Bq                    3.9419    1.97831   0.04944 
 Bq                    3.90557   2.03269   0.04944 
 Bq                    3.86244   2.08186   0.04944 
 Bq                    3.81327   2.12498   0.04944 
 Bq                    3.75889   2.16132   0.04944 
 Bq                    3.70023   2.19025   0.04944 
 Bq                    3.6383    2.21127   0.04944 
 Bq                    3.57415   2.22403   0.04944 
 Bq                    3.50889   2.22831   0.04944 
 Bq                    3.44363   2.22403   0.04944 
 Bq                    3.9419    1.47831   0.04944 
 Bq                    3.97083   1.53696   0.04944 
 Bq                    3.99185   1.5989    0.04944 
 Bq                    4.00461   1.66304   0.04944 
 Bq                    4.11765   1.72831  -0.02324 
 Bq                    4.11244   1.80776  -0.02324 
 Bq                    4.09691   1.88586  -0.02324 
 Bq                    4.07131   1.96127  -0.02324 
 Bq                    4.03609   2.03269  -0.02324 
 Bq                    3.99185   2.0989   -0.02324 
 Bq                    3.93935   2.15876  -0.02324 
 Bq                    3.87948   2.21127  -0.02324 
 Bq                    3.81327   2.25551  -0.02324 
 Bq                    3.74185   2.29073  -0.02324 
 Bq                    3.66645   2.31632  -0.02324 
 Bq                    3.58835   2.33186  -0.02324 
 Bq                    3.50889   2.33707  -0.02324 
 Bq                    4.07131   1.49534  -0.02324 
 Bq                    4.09691   1.57075  -0.02324 
 Bq                    4.11244   1.64885  -0.02324 
 Bq                    4.216     1.72831  -0.10948 
 Bq                    4.20995   1.8206   -0.10948 
 Bq                    4.1919    1.91132  -0.10948 
 Bq                    4.16217   1.9989   -0.10948 
 Bq                    4.12126   2.08186  -0.10948 
 Bq                    4.06987   2.15876  -0.10948 
 Bq                    4.00889   2.22831  -0.10948 
 Bq                    3.93935   2.28929  -0.10948 
 Bq                    3.86244   2.34068  -0.10948 
 Bq                    3.77949   2.38159  -0.10948 
 Bq                    3.6919    2.41132  -0.10948 
 Bq                    3.60119   2.42936  -0.10948 
 Bq                    3.50889   2.43541  -0.10948 
 Bq                    4.16217   1.45771  -0.10948 
 Bq                    4.1919    1.54529  -0.10948 
 Bq                    4.20995   1.63601  -0.10948 
 Bq                    4.30224   1.72831  -0.20783 
 Bq                    4.29546   1.83186  -0.20783 
 Bq                    4.27521   1.93364  -0.20783 
 Bq                    4.24185   2.03191  -0.20783 
 Bq                    4.19595   2.12498  -0.20783 
 Bq                    4.1383    2.21127  -0.20783 
 Bq                    4.06987   2.28929  -0.20783 
 Bq                    3.99185   2.35772  -0.20783 
 Bq                    3.90557   2.41537  -0.20783 
 
 NAtoms=    236 NQM=      236 NQMF=       0 NMMI=      0 NMMIF=      0
                NMic=       0 NMicF=      0.
                    Isotopes and Nuclear Properties:
 (Nuclear quadrupole moments (NQMom) in fm**2, nuclear magnetic moments (NMagM)
  in nuclear magnetons)

  Atom         1           2           3           4           5           6           7           8           9          10
 IAtWgt=          12          12          12          12          12          12          12          12          12          12
 AtmWgt=  12.0000000  12.0000000  12.0000000  12.0000000  12.0000000  12.0000000  12.0000000  12.0000000  12.0000000  12.0000000
 NucSpn=           0           0           0           0           0           0           0           0           0           0
 AtZEff=   0.0000000   0.0000000   0.0000000   0.0000000   0.0000000   0.0000000   0.0000000   0.0000000   0.0000000   0.0000000
 NQMom=    0.0000000   0.0000000   0.0000000   0.0000000   0.0000000   0.0000000   0.0000000   0.0000000   0.0000000   0.0000000
 NMagM=    0.0000000   0.0000000   0.0000000   0.0000000   0.0000000   0.0000000   0.0000000   0.0000000   0.0000000   0.0000000
 AtZNuc=   6.0000000   6.0000000   6.0000000   6.0000000   6.0000000   6.0000000   6.0000000   6.0000000   6.0000000   6.0000000

  Atom        11          12          13          14          15          16          17          18          19          20
 IAtWgt=           1           1           1           1          12          12          12          12           1           1
 AtmWgt=   1.0078250   1.0078250   1.0078250   1.0078250  12.0000000  12.0000000  12.0000000  12.0000000   1.0078250   1.0078250
 NucSpn=           1           1           1           1           0           0           0           0           1           1
 AtZEff=   0.0000000   0.0000000   0.0000000   0.0000000   0.0000000   0.0000000   0.0000000   0.0000000   0.0000000   0.0000000
 NQMom=    0.0000000   0.0000000   0.0000000   0.0000000   0.0000000   0.0000000   0.0000000   0.0000000   0.0000000   0.0000000
 NMagM=    2.7928460   2.7928460   2.7928460   2.7928460   0.0000000   0.0000000   0.0000000   0.0000000   2.7928460   2.7928460
 AtZNuc=   1.0000000   1.0000000   1.0000000   1.0000000   6.0000000   6.0000000   6.0000000   6.0000000   1.0000000   1.0000000

  Atom        21          22          23          24          25          26          27          28          29          30
 IAtWgt=           1           1          12          12          12          12          12          12          12          12
 AtmWgt=   1.0078250   1.0078250  12.0000000  12.0000000  12.0000000  12.0000000  12.0000000  12.0000000  12.0000000  12.0000000
 NucSpn=           1           1           0           0           0           0           0           0           0           0
 AtZEff=   0.0000000   0.0000000   0.0000000   0.0000000   0.0000000   0.0000000   0.0000000   0.0000000   0.0000000   0.0000000
 NQMom=    0.0000000   0.0000000   0.0000000   0.0000000   0.0000000   0.0000000   0.0000000   0.0000000   0.0000000   0.0000000
 NMagM=    2.7928460   2.7928460   0.0000000   0.0000000   0.0000000   0.0000000   0.0000000   0.0000000   0.0000000   0.0000000
 AtZNuc=   1.0000000   1.0000000   6.0000000   6.0000000   6.0000000   6.0000000   6.0000000   6.0000000   6.0000000   6.0000000

  Atom        31          32          33          34          35          36          37          38          39          40
 IAtWgt=           1           1           1           1           1           1           0           0           0           0
 AtmWgt=   1.0078250   1.0078250   1.0078250   1.0078250   1.0078250   1.0078250   0.0000000   0.0000000   0.0000000   0.0000000
 NucSpn=           1           1           1           1           1           1           0           0           0           0
 AtZEff=   0.0000000   0.0000000   0.0000000   0.0000000   0.0000000   0.0000000   0.0000000   0.0000000   0.0000000   0.0000000
 NQMom=    0.0000000   0.0000000   0.0000000   0.0000000   0.0000000   0.0000000   0.0000000   0.0000000   0.0000000   0.0000000
 NMagM=    2.7928460   2.7928460   2.7928460   2.7928460   2.7928460   2.7928460   0.0000000   0.0000000   0.0000000   0.0000000
 AtZNuc=   1.0000000   1.0000000   1.0000000   1.0000000   1.0000000   1.0000000   0.0000000   0.0000000   0.0000000   0.0000000

  Atom        41          42          43          44          45          46          47          48          49          50
 IAtWgt=           0           0           0           0           0           0           0           0           0           0
 AtmWgt=   0.0000000   0.0000000   0.0000000   0.0000000   0.0000000   0.0000000   0.0000000   0.0000000   0.0000000   0.0000000
 NucSpn=           0           0           0           0           0           0           0           0           0           0
 AtZEff=   0.0000000   0.0000000   0.0000000   0.0000000   0.0000000   0.0000000   0.0000000   0.0000000   0.0000000   0.0000000
 NQMom=    0.0000000   0.0000000   0.0000000   0.0000000   0.0000000   0.0000000   0.0000000   0.0000000   0.0000000   0.0000000
 NMagM=    0.0000000   0.0000000   0.0000000   0.0000000   0.0000000   0.0000000   0.0000000   0.0000000   0.0000000   0.0000000
 AtZNuc=   0.0000000   0.0000000   0.0000000   0.0000000   0.0000000   0.0000000   0.0000000   0.0000000   0.0000000   0.0000000

  Atom        51          52          53          54          55          56          57          58          59          60
 IAtWgt=           0           0           0           0           0           0           0           0           0           0
 AtmWgt=   0.0000000   0.0000000   0.0000000   0.0000000   0.0000000   0.0000000   0.0000000   0.0000000   0.0000000   0.0000000
 NucSpn=           0           0           0           0           0           0           0           0           0           0
 AtZEff=   0.0000000   0.0000000   0.0000000   0.0000000   0.0000000   0.0000000   0.0000000   0.0000000   0.0000000   0.0000000
 NQMom=    0.0000000   0.0000000   0.0000000   0.0000000   0.0000000   0.0000000   0.0000000   0.0000000   0.0000000   0.0000000
 NMagM=    0.0000000   0.0000000   0.0000000   0.0000000   0.0000000   0.0000000   0.0000000   0.0000000   0.0000000   0.0000000
 AtZNuc=   0.0000000   0.0000000   0.0000000   0.0000000   0.0000000   0.0000000   0.0000000   0.0000000   0.0000000   0.0000000

  Atom        61          62          63          64          65          66          67          68          69          70
 IAtWgt=           0           0           0           0           0           0           0           0           0           0
 AtmWgt=   0.0000000   0.0000000   0.0000000   0.0000000   0.0000000   0.0000000   0.0000000   0.0000000   0.0000000   0.0000000
 NucSpn=           0           0           0           0           0           0           0           0           0           0
 AtZEff=   0.0000000   0.0000000   0.0000000   0.0000000   0.0000000   0.0000000   0.0000000   0.0000000   0.0000000   0.0000000
 NQMom=    0.0000000   0.0000000   0.0000000   0.0000000   0.0000000   0.0000000   0.0000000   0.0000000   0.0000000   0.0000000
 NMagM=    0.0000000   0.0000000   0.0000000   0.0000000   0.0000000   0.0000000   0.0000000   0.0000000   0.0000000   0.0000000
 AtZNuc=   0.0000000   0.0000000   0.0000000   0.0000000   0.0000000   0.0000000   0.0000000   0.0000000   0.0000000   0.0000000

  Atom        71          72          73          74          75          76          77          78          79          80
 IAtWgt=           0           0           0           0           0           0           0           0           0           0
 AtmWgt=   0.0000000   0.0000000   0.0000000   0.0000000   0.0000000   0.0000000   0.0000000   0.0000000   0.0000000   0.0000000
 NucSpn=           0           0           0           0           0           0           0           0           0           0
 AtZEff=   0.0000000   0.0000000   0.0000000   0.0000000   0.0000000   0.0000000   0.0000000   0.0000000   0.0000000   0.0000000
 NQMom=    0.0000000   0.0000000   0.0000000   0.0000000   0.0000000   0.0000000   0.0000000   0.0000000   0.0000000   0.0000000
 NMagM=    0.0000000   0.0000000   0.0000000   0.0000000   0.0000000   0.0000000   0.0000000   0.0000000   0.0000000   0.0000000
 AtZNuc=   0.0000000   0.0000000   0.0000000   0.0000000   0.0000000   0.0000000   0.0000000   0.0000000   0.0000000   0.0000000

  Atom        81          82          83          84          85          86          87          88          89          90
 IAtWgt=           0           0           0           0           0           0           0           0           0           0
 AtmWgt=   0.0000000   0.0000000   0.0000000   0.0000000   0.0000000   0.0000000   0.0000000   0.0000000   0.0000000   0.0000000
 NucSpn=           0           0           0           0           0           0           0           0           0           0
 AtZEff=   0.0000000   0.0000000   0.0000000   0.0000000   0.0000000   0.0000000   0.0000000   0.0000000   0.0000000   0.0000000
 NQMom=    0.0000000   0.0000000   0.0000000   0.0000000   0.0000000   0.0000000   0.0000000   0.0000000   0.0000000   0.0000000
 NMagM=    0.0000000   0.0000000   0.0000000   0.0000000   0.0000000   0.0000000   0.0000000   0.0000000   0.0000000   0.0000000
 AtZNuc=   0.0000000   0.0000000   0.0000000   0.0000000   0.0000000   0.0000000   0.0000000   0.0000000   0.0000000   0.0000000

  Atom        91          92          93          94          95          96          97          98          99         100
 IAtWgt=           0           0           0           0           0           0           0           0           0           0
 AtmWgt=   0.0000000   0.0000000   0.0000000   0.0000000   0.0000000   0.0000000   0.0000000   0.0000000   0.0000000   0.0000000
 NucSpn=           0           0           0           0           0           0           0           0           0           0
 AtZEff=   0.0000000   0.0000000   0.0000000   0.0000000   0.0000000   0.0000000   0.0000000   0.0000000   0.0000000   0.0000000
 NQMom=    0.0000000   0.0000000   0.0000000   0.0000000   0.0000000   0.0000000   0.0000000   0.0000000   0.0000000   0.0000000
 NMagM=    0.0000000   0.0000000   0.0000000   0.0000000   0.0000000   0.0000000   0.0000000   0.0000000   0.0000000   0.0000000
 AtZNuc=   0.0000000   0.0000000   0.0000000   0.0000000   0.0000000   0.0000000   0.0000000   0.0000000   0.0000000   0.0000000

  Atom       101         102         103         104         105         106         107         108         109         110
 IAtWgt=           0           0           0           0           0           0           0           0           0           0
 AtmWgt=   0.0000000   0.0000000   0.0000000   0.0000000   0.0000000   0.0000000   0.0000000   0.0000000   0.0000000   0.0000000
 NucSpn=           0           0           0           0           0           0           0           0           0           0
 AtZEff=   0.0000000   0.0000000   0.0000000   0.0000000   0.0000000   0.0000000   0.0000000   0.0000000   0.0000000   0.0000000
 NQMom=    0.0000000   0.0000000   0.0000000   0.0000000   0.0000000   0.0000000   0.0000000   0.0000000   0.0000000   0.0000000
 NMagM=    0.0000000   0.0000000   0.0000000   0.0000000   0.0000000   0.0000000   0.0000000   0.0000000   0.0000000   0.0000000
 AtZNuc=   0.0000000   0.0000000   0.0000000   0.0000000   0.0000000   0.0000000   0.0000000   0.0000000   0.0000000   0.0000000

  Atom       111         112         113         114         115         116         117         118         119         120
 IAtWgt=           0           0           0           0           0           0           0           0           0           0
 AtmWgt=   0.0000000   0.0000000   0.0000000   0.0000000   0.0000000   0.0000000   0.0000000   0.0000000   0.0000000   0.0000000
 NucSpn=           0           0           0           0           0           0           0           0           0           0
 AtZEff=   0.0000000   0.0000000   0.0000000   0.0000000   0.0000000   0.0000000   0.0000000   0.0000000   0.0000000   0.0000000
 NQMom=    0.0000000   0.0000000   0.0000000   0.0000000   0.0000000   0.0000000   0.0000000   0.0000000   0.0000000   0.0000000
 NMagM=    0.0000000   0.0000000   0.0000000   0.0000000   0.0000000   0.0000000   0.0000000   0.0000000   0.0000000   0.0000000
 AtZNuc=   0.0000000   0.0000000   0.0000000   0.0000000   0.0000000   0.0000000   0.0000000   0.0000000   0.0000000   0.0000000

  Atom       121         122         123         124         125         126         127         128         129         130
 IAtWgt=           0           0           0           0           0           0           0           0           0           0
 AtmWgt=   0.0000000   0.0000000   0.0000000   0.0000000   0.0000000   0.0000000   0.0000000   0.0000000   0.0000000   0.0000000
 NucSpn=           0           0           0           0           0           0           0           0           0           0
 AtZEff=   0.0000000   0.0000000   0.0000000   0.0000000   0.0000000   0.0000000   0.0000000   0.0000000   0.0000000   0.0000000
 NQMom=    0.0000000   0.0000000   0.0000000   0.0000000   0.0000000   0.0000000   0.0000000   0.0000000   0.0000000   0.0000000
 NMagM=    0.0000000   0.0000000   0.0000000   0.0000000   0.0000000   0.0000000   0.0000000   0.0000000   0.0000000   0.0000000
 AtZNuc=   0.0000000   0.0000000   0.0000000   0.0000000   0.0000000   0.0000000   0.0000000   0.0000000   0.0000000   0.0000000

  Atom       131         132         133         134         135         136         137         138         139         140
 IAtWgt=           0           0           0           0           0           0           0           0           0           0
 AtmWgt=   0.0000000   0.0000000   0.0000000   0.0000000   0.0000000   0.0000000   0.0000000   0.0000000   0.0000000   0.0000000
 NucSpn=           0           0           0           0           0           0           0           0           0           0
 AtZEff=   0.0000000   0.0000000   0.0000000   0.0000000   0.0000000   0.0000000   0.0000000   0.0000000   0.0000000   0.0000000
 NQMom=    0.0000000   0.0000000   0.0000000   0.0000000   0.0000000   0.0000000   0.0000000   0.0000000   0.0000000   0.0000000
 NMagM=    0.0000000   0.0000000   0.0000000   0.0000000   0.0000000   0.0000000   0.0000000   0.0000000   0.0000000   0.0000000
 AtZNuc=   0.0000000   0.0000000   0.0000000   0.0000000   0.0000000   0.0000000   0.0000000   0.0000000   0.0000000   0.0000000

  Atom       141         142         143         144         145         146         147         148         149         150
 IAtWgt=           0           0           0           0           0           0           0           0           0           0
 AtmWgt=   0.0000000   0.0000000   0.0000000   0.0000000   0.0000000   0.0000000   0.0000000   0.0000000   0.0000000   0.0000000
 NucSpn=           0           0           0           0           0           0           0           0           0           0
 AtZEff=   0.0000000   0.0000000   0.0000000   0.0000000   0.0000000   0.0000000   0.0000000   0.0000000   0.0000000   0.0000000
 NQMom=    0.0000000   0.0000000   0.0000000   0.0000000   0.0000000   0.0000000   0.0000000   0.0000000   0.0000000   0.0000000
 NMagM=    0.0000000   0.0000000   0.0000000   0.0000000   0.0000000   0.0000000   0.0000000   0.0000000   0.0000000   0.0000000
 AtZNuc=   0.0000000   0.0000000   0.0000000   0.0000000   0.0000000   0.0000000   0.0000000   0.0000000   0.0000000   0.0000000

  Atom       151         152         153         154         155         156         157         158         159         160
 IAtWgt=           0           0           0           0           0           0           0           0           0           0
 AtmWgt=   0.0000000   0.0000000   0.0000000   0.0000000   0.0000000   0.0000000   0.0000000   0.0000000   0.0000000   0.0000000
 NucSpn=           0           0           0           0           0           0           0           0           0           0
 AtZEff=   0.0000000   0.0000000   0.0000000   0.0000000   0.0000000   0.0000000   0.0000000   0.0000000   0.0000000   0.0000000
 NQMom=    0.0000000   0.0000000   0.0000000   0.0000000   0.0000000   0.0000000   0.0000000   0.0000000   0.0000000   0.0000000
 NMagM=    0.0000000   0.0000000   0.0000000   0.0000000   0.0000000   0.0000000   0.0000000   0.0000000   0.0000000   0.0000000
 AtZNuc=   0.0000000   0.0000000   0.0000000   0.0000000   0.0000000   0.0000000   0.0000000   0.0000000   0.0000000   0.0000000

  Atom       161         162         163         164         165         166         167         168         169         170
 IAtWgt=           0           0           0           0           0           0           0           0           0           0
 AtmWgt=   0.0000000   0.0000000   0.0000000   0.0000000   0.0000000   0.0000000   0.0000000   0.0000000   0.0000000   0.0000000
 NucSpn=           0           0           0           0           0           0           0           0           0           0
 AtZEff=   0.0000000   0.0000000   0.0000000   0.0000000   0.0000000   0.0000000   0.0000000   0.0000000   0.0000000   0.0000000
 NQMom=    0.0000000   0.0000000   0.0000000   0.0000000   0.0000000   0.0000000   0.0000000   0.0000000   0.0000000   0.0000000
 NMagM=    0.0000000   0.0000000   0.0000000   0.0000000   0.0000000   0.0000000   0.0000000   0.0000000   0.0000000   0.0000000
 AtZNuc=   0.0000000   0.0000000   0.0000000   0.0000000   0.0000000   0.0000000   0.0000000   0.0000000   0.0000000   0.0000000

  Atom       171         172         173         174         175         176         177         178         179         180
 IAtWgt=           0           0           0           0           0           0           0           0           0           0
 AtmWgt=   0.0000000   0.0000000   0.0000000   0.0000000   0.0000000   0.0000000   0.0000000   0.0000000   0.0000000   0.0000000
 NucSpn=           0           0           0           0           0           0           0           0           0           0
 AtZEff=   0.0000000   0.0000000   0.0000000   0.0000000   0.0000000   0.0000000   0.0000000   0.0000000   0.0000000   0.0000000
 NQMom=    0.0000000   0.0000000   0.0000000   0.0000000   0.0000000   0.0000000   0.0000000   0.0000000   0.0000000   0.0000000
 NMagM=    0.0000000   0.0000000   0.0000000   0.0000000   0.0000000   0.0000000   0.0000000   0.0000000   0.0000000   0.0000000
 AtZNuc=   0.0000000   0.0000000   0.0000000   0.0000000   0.0000000   0.0000000   0.0000000   0.0000000   0.0000000   0.0000000

  Atom       181         182         183         184         185         186         187         188         189         190
 IAtWgt=           0           0           0           0           0           0           0           0           0           0
 AtmWgt=   0.0000000   0.0000000   0.0000000   0.0000000   0.0000000   0.0000000   0.0000000   0.0000000   0.0000000   0.0000000
 NucSpn=           0           0           0           0           0           0           0           0           0           0
 AtZEff=   0.0000000   0.0000000   0.0000000   0.0000000   0.0000000   0.0000000   0.0000000   0.0000000   0.0000000   0.0000000
 NQMom=    0.0000000   0.0000000   0.0000000   0.0000000   0.0000000   0.0000000   0.0000000   0.0000000   0.0000000   0.0000000
 NMagM=    0.0000000   0.0000000   0.0000000   0.0000000   0.0000000   0.0000000   0.0000000   0.0000000   0.0000000   0.0000000
 AtZNuc=   0.0000000   0.0000000   0.0000000   0.0000000   0.0000000   0.0000000   0.0000000   0.0000000   0.0000000   0.0000000

  Atom       191         192         193         194         195         196         197         198         199         200
 IAtWgt=           0           0           0           0           0           0           0           0           0           0
 AtmWgt=   0.0000000   0.0000000   0.0000000   0.0000000   0.0000000   0.0000000   0.0000000   0.0000000   0.0000000   0.0000000
 NucSpn=           0           0           0           0           0           0           0           0           0           0
 AtZEff=   0.0000000   0.0000000   0.0000000   0.0000000   0.0000000   0.0000000   0.0000000   0.0000000   0.0000000   0.0000000
 NQMom=    0.0000000   0.0000000   0.0000000   0.0000000   0.0000000   0.0000000   0.0000000   0.0000000   0.0000000   0.0000000
 NMagM=    0.0000000   0.0000000   0.0000000   0.0000000   0.0000000   0.0000000   0.0000000   0.0000000   0.0000000   0.0000000
 AtZNuc=   0.0000000   0.0000000   0.0000000   0.0000000   0.0000000   0.0000000   0.0000000   0.0000000   0.0000000   0.0000000

  Atom       201         202         203         204         205         206         207         208         209         210
 IAtWgt=           0           0           0           0           0           0           0           0           0           0
 AtmWgt=   0.0000000   0.0000000   0.0000000   0.0000000   0.0000000   0.0000000   0.0000000   0.0000000   0.0000000   0.0000000
 NucSpn=           0           0           0           0           0           0           0           0           0           0
 AtZEff=   0.0000000   0.0000000   0.0000000   0.0000000   0.0000000   0.0000000   0.0000000   0.0000000   0.0000000   0.0000000
 NQMom=    0.0000000   0.0000000   0.0000000   0.0000000   0.0000000   0.0000000   0.0000000   0.0000000   0.0000000   0.0000000
 NMagM=    0.0000000   0.0000000   0.0000000   0.0000000   0.0000000   0.0000000   0.0000000   0.0000000   0.0000000   0.0000000
 AtZNuc=   0.0000000   0.0000000   0.0000000   0.0000000   0.0000000   0.0000000   0.0000000   0.0000000   0.0000000   0.0000000

  Atom       211         212         213         214         215         216         217         218         219         220
 IAtWgt=           0           0           0           0           0           0           0           0           0           0
 AtmWgt=   0.0000000   0.0000000   0.0000000   0.0000000   0.0000000   0.0000000   0.0000000   0.0000000   0.0000000   0.0000000
 NucSpn=           0           0           0           0           0           0           0           0           0           0
 AtZEff=   0.0000000   0.0000000   0.0000000   0.0000000   0.0000000   0.0000000   0.0000000   0.0000000   0.0000000   0.0000000
 NQMom=    0.0000000   0.0000000   0.0000000   0.0000000   0.0000000   0.0000000   0.0000000   0.0000000   0.0000000   0.0000000
 NMagM=    0.0000000   0.0000000   0.0000000   0.0000000   0.0000000   0.0000000   0.0000000   0.0000000   0.0000000   0.0000000
 AtZNuc=   0.0000000   0.0000000   0.0000000   0.0000000   0.0000000   0.0000000   0.0000000   0.0000000   0.0000000   0.0000000

  Atom       221         222         223         224         225         226         227         228         229         230
 IAtWgt=           0           0           0           0           0           0           0           0           0           0
 AtmWgt=   0.0000000   0.0000000   0.0000000   0.0000000   0.0000000   0.0000000   0.0000000   0.0000000   0.0000000   0.0000000
 NucSpn=           0           0           0           0           0           0           0           0           0           0
 AtZEff=   0.0000000   0.0000000   0.0000000   0.0000000   0.0000000   0.0000000   0.0000000   0.0000000   0.0000000   0.0000000
 NQMom=    0.0000000   0.0000000   0.0000000   0.0000000   0.0000000   0.0000000   0.0000000   0.0000000   0.0000000   0.0000000
 NMagM=    0.0000000   0.0000000   0.0000000   0.0000000   0.0000000   0.0000000   0.0000000   0.0000000   0.0000000   0.0000000
 AtZNuc=   0.0000000   0.0000000   0.0000000   0.0000000   0.0000000   0.0000000   0.0000000   0.0000000   0.0000000   0.0000000

  Atom       231         232         233         234         235         236
 IAtWgt=           0           0           0           0           0           0
 AtmWgt=   0.0000000   0.0000000   0.0000000   0.0000000   0.0000000   0.0000000
 NucSpn=           0           0           0           0           0           0
 AtZEff=   0.0000000   0.0000000   0.0000000   0.0000000   0.0000000   0.0000000
 NQMom=    0.0000000   0.0000000   0.0000000   0.0000000   0.0000000   0.0000000
 NMagM=    0.0000000   0.0000000   0.0000000   0.0000000   0.0000000   0.0000000
 AtZNuc=   0.0000000   0.0000000   0.0000000   0.0000000   0.0000000   0.0000000
 Leave Link  101 at Tue Sep 15 13:38:36 2020, MaxMem=   131072000 cpu:         3.1
 (Enter /share/programs/GAUSSIAN/64/g09/l202.exe)
 Symmetry turned off:
 Cannot cope with ghost atoms or with translation vectors.
 Stoichiometry    C22H14
 Framework group  C1[X(C22H14)]
 NUMDOF-- NAT=    36 NAtoms=   236
 Deg. of freedom     0
 Full point group                 C1      NOp   1
                          Input orientation:                          
 ---------------------------------------------------------------------
 Center     Atomic      Atomic             Coordinates (Angstroms)
 Number     Number       Type             X           Y           Z
 ---------------------------------------------------------------------
      1          6           0        0.653241    3.257859   -0.202510
      2          6           0       -0.653243    3.257860    0.202510
      3          6           0        1.372495    2.032956   -0.320807
      4          6           0       -1.372495    2.032956    0.320807
      5          6           0        0.722474    0.795666   -0.050388
      6          6           0       -0.722474    0.795667    0.050387
      7          6           0        2.760385    2.053927   -0.674268
      8          6           0        3.508866    0.913916   -0.671362
      9          6           0        2.955226   -0.309622   -0.177479
     10          6           0        1.574722   -0.361114    0.197094
     11          1           0        1.183427    4.195740   -0.384599
     12          1           0       -1.183429    4.195740    0.384599
     13          1           0        3.206283    3.012423   -0.951392
     14          1           0        4.560023    0.932956   -0.969333
     15          6           0        3.783020   -1.443098    0.028309
     16          6           0        1.137427   -1.507533    0.912109
     17          6           0        1.973691   -2.584349    1.138062
     18          6           0        3.301853   -2.571588    0.661177
     19          1           0        4.825754   -1.391230   -0.295484
     20          1           0        0.124652   -1.532788    1.308472
     21          1           0        1.603586   -3.445682    1.698977
     22          1           0        3.952742   -3.433526    0.825134
     23          6           0       -3.508866    0.913915    0.671362
     24          6           0       -2.760386    2.053926    0.674268
     25          6           0       -2.955226   -0.309623    0.177479
     26          6           0       -1.574722   -0.361114   -0.197094
     27          6           0       -3.783020   -1.443099   -0.028309
     28          6           0       -3.301852   -2.571589   -0.661177
     29          6           0       -1.973690   -2.584349   -1.138061
     30          6           0       -1.137426   -1.507534   -0.912109
     31          1           0       -4.560022    0.932954    0.969334
     32          1           0       -3.206283    3.012421    0.951392
     33          1           0       -4.825754   -1.391232    0.295484
     34          1           0       -3.952741   -3.433528   -0.825134
     35          1           0       -1.603585   -3.445682   -1.698976
     36          1           0       -0.124652   -1.532788   -1.308471
     37          0           0        3.508889    1.728306    0.183411
     38          0           0        3.508889    1.728306    0.183411
     39          0           0        3.508889    1.728306    0.183411
     40          0           0        3.508889    1.728306    0.183411
     41          0           0        3.508889    1.728306    0.183411
     42          0           0        3.508889    1.728306    0.183411
     43          0           0        3.508889    1.728306    0.183411
     44          0           0        3.508889    1.728306    0.183411
     45          0           0        3.508889    1.728306    0.183411
     46          0           0        3.508889    1.728306    0.183411
     47          0           0        3.508889    1.728306    0.183411
     48          0           0        3.508889    1.728306    0.183411
     49          0           0        3.508889    1.728306    0.183411
     50          0           0        3.508889    1.728306    0.183411
     51          0           0        3.508889    1.728306    0.183411
     52          0           0        3.508889    1.728306    0.183411
     53          0           0        3.508889    1.728306    0.183411
     54          0           0        3.508889    1.728306    0.183411
     55          0           0        3.508889    1.728306    0.183411
     56          0           0        3.508889    1.728306    0.183411
     57          0           0        3.508889    1.728306    0.183411
     58          0           0        3.508889    1.728306    0.183411
     59          0           0        3.508889    1.728306    0.183411
     60          0           0        3.508889    1.728306    0.183411
     61          0           0        3.508889    1.728306    0.183411
     62          0           0        3.508889    1.728306    0.183411
     63          0           0        3.508889    1.728306    0.183411
     64          0           0        3.508889    1.728306    0.183411
     65          0           0        3.508889    1.728306    0.183411
     66          0           0        3.508889    1.728306    0.183411
     67          0           0        3.508889    1.728306    0.183411
     68          0           0        3.639415    1.728306    0.174856
     69          0           0        3.638299    1.745343    0.174856
     70          0           0        3.634968    1.762088    0.174856
     71          0           0        3.629480    1.778256    0.174856
     72          0           0        3.621928    1.793569    0.174856
     73          0           0        3.612443    1.807765    0.174856
     74          0           0        3.601185    1.820601    0.174856
     75          0           0        3.588349    1.831859    0.174856
     76          0           0        3.574152    1.841344    0.174856
     77          0           0        3.558839    1.848896    0.174856
     78          0           0        3.542672    1.854384    0.174856
     79          0           0        3.525926    1.857715    0.174856
     80          0           0        3.508889    1.858832    0.174856
     81          0           0        3.491852    1.857715    0.174856
     82          0           0        3.475107    1.854384    0.174856
     83          0           0        3.458939    1.848896    0.174856
     84          0           0        3.443626    1.841344    0.174856
     85          0           0        3.429430    1.831859    0.174856
     86          0           0        3.416593    1.820601    0.174856
     87          0           0        3.405336    1.807765    0.174856
     88          0           0        3.395850    1.793569    0.174856
     89          0           0        3.388299    1.778256    0.174856
     90          0           0        3.382811    1.762088    0.174856
     91          0           0        3.379480    1.745343    0.174856
     92          0           0        3.378363    1.728306    0.174856
     93          0           0        3.379480    1.711268    0.174856
     94          0           0        3.382811    1.694523    0.174856
     95          0           0        3.388299    1.678355    0.174856
     96          0           0        3.395850    1.663042    0.174856
     97          0           0        3.405336    1.648846    0.174856
     98          0           0        3.416593    1.636010    0.174856
     99          0           0        3.429430    1.624752    0.174856
    100          0           0        3.443626    1.615267    0.174856
    101          0           0        3.458939    1.607715    0.174856
    102          0           0        3.475107    1.602227    0.174856
    103          0           0        3.491852    1.598896    0.174856
    104          0           0        3.508889    1.597779    0.174856
    105          0           0        3.525926    1.598896    0.174856
    106          0           0        3.542672    1.602227    0.174856
    107          0           0        3.558839    1.607715    0.174856
    108          0           0        3.574152    1.615267    0.174856
    109          0           0        3.588349    1.624752    0.174856
    110          0           0        3.601185    1.636010    0.174856
    111          0           0        3.612443    1.648846    0.174856
    112          0           0        3.621928    1.663042    0.174856
    113          0           0        3.629480    1.678355    0.174856
    114          0           0        3.634968    1.694523    0.174856
    115          0           0        3.638299    1.711268    0.174856
    116          0           0        3.767708    1.728306    0.149337
    117          0           0        3.765494    1.762088    0.149337
    118          0           0        3.758889    1.795293    0.149337
    119          0           0        3.748007    1.827351    0.149337
    120          0           0        3.733033    1.857715    0.149337
    121          0           0        3.714224    1.885865    0.149337
    122          0           0        3.691902    1.911318    0.149337
    123          0           0        3.666448    1.933640    0.149337
    124          0           0        3.638299    1.952449    0.149337
    125          0           0        3.607935    1.967423    0.149337
    126          0           0        3.575877    1.978306    0.149337
    127          0           0        3.542672    1.984910    0.149337
    128          0           0        3.508889    1.987125    0.149337
    129          0           0        3.475107    1.984910    0.149337
    130          0           0        3.441902    1.978306    0.149337
    131          0           0        3.409843    1.967423    0.149337
    132          0           0        3.379480    1.952449    0.149337
    133          0           0        3.351330    1.933640    0.149337
    134          0           0        3.325877    1.911318    0.149337
    135          0           0        3.303554    1.885865    0.149337
    136          0           0        3.252284    1.762088    0.149337
    137          0           0        3.250070    1.728306    0.149337
    138          0           0        3.252284    1.694523    0.149337
    139          0           0        3.258889    1.661318    0.149337
    140          0           0        3.269772    1.629260    0.149337
    141          0           0        3.284745    1.598896    0.149337
    142          0           0        3.303554    1.570746    0.149337
    143          0           0        3.325877    1.545293    0.149337
    144          0           0        3.351330    1.522971    0.149337
    145          0           0        3.379480    1.504162    0.149337
    146          0           0        3.409843    1.489188    0.149337
    147          0           0        3.607935    1.489188    0.149337
    148          0           0        3.638299    1.504162    0.149337
    149          0           0        3.666448    1.522971    0.149337
    150          0           0        3.691902    1.545293    0.149337
    151          0           0        3.714224    1.570746    0.149337
    152          0           0        3.733033    1.598896    0.149337
    153          0           0        3.748007    1.629260    0.149337
    154          0           0        3.758889    1.661318    0.149337
    155          0           0        3.765494    1.694523    0.149337
    156          0           0        3.891573    1.728306    0.107291
    157          0           0        3.888299    1.778256    0.107291
    158          0           0        3.878533    1.827351    0.107291
    159          0           0        3.862443    1.874752    0.107291
    160          0           0        3.840303    1.919647    0.107291
    161          0           0        3.812492    1.961268    0.107291
    162          0           0        3.779487    1.998904    0.107291
    163          0           0        3.741852    2.031909    0.107291
    164          0           0        3.700231    2.059719    0.107291
    165          0           0        3.655336    2.081859    0.107291
    166          0           0        3.607935    2.097949    0.107291
    167          0           0        3.558839    2.107715    0.107291
    168          0           0        3.508889    2.110989    0.107291
    169          0           0        3.458939    2.107715    0.107291
    170          0           0        3.409843    2.097949    0.107291
    171          0           0        3.177476    1.536964    0.107291
    172          0           0        3.205286    1.495343    0.107291
    173          0           0        3.812492    1.495343    0.107291
    174          0           0        3.840303    1.536964    0.107291
    175          0           0        3.862443    1.581859    0.107291
    176          0           0        3.878533    1.629260    0.107291
    177          0           0        3.888299    1.678355    0.107291
    178          0           0        4.008889    1.728306    0.049437
    179          0           0        4.004612    1.793569    0.049437
    180          0           0        3.991852    1.857715    0.049437
    181          0           0        3.970829    1.919647    0.049437
    182          0           0        3.941902    1.978306    0.049437
    183          0           0        3.905566    2.032686    0.049437
    184          0           0        3.862443    2.081859    0.049437
    185          0           0        3.813270    2.124982    0.049437
    186          0           0        3.758889    2.161318    0.049437
    187          0           0        3.700231    2.190245    0.049437
    188          0           0        3.638299    2.211268    0.049437
    189          0           0        3.574152    2.224028    0.049437
    190          0           0        3.508889    2.228306    0.049437
    191          0           0        3.443626    2.224028    0.049437
    192          0           0        3.941902    1.478306    0.049437
    193          0           0        3.970829    1.536964    0.049437
    194          0           0        3.991852    1.598896    0.049437
    195          0           0        4.004612    1.663042    0.049437
    196          0           0        4.117651    1.728306   -0.023235
    197          0           0        4.112443    1.807765   -0.023235
    198          0           0        4.096908    1.885865   -0.023235
    199          0           0        4.071311    1.961268   -0.023235
    200          0           0        4.036092    2.032686   -0.023235
    201          0           0        3.991852    2.098896   -0.023235
    202          0           0        3.939349    2.158765   -0.023235
    203          0           0        3.879480    2.211268   -0.023235
    204          0           0        3.813270    2.255508   -0.023235
    205          0           0        3.741852    2.290728   -0.023235
    206          0           0        3.666448    2.316324   -0.023235
    207          0           0        3.588349    2.331859   -0.023235
    208          0           0        3.508889    2.337067   -0.023235
    209          0           0        4.071311    1.495343   -0.023235
    210          0           0        4.096908    1.570746   -0.023235
    211          0           0        4.112443    1.648846   -0.023235
    212          0           0        4.215996    1.728306   -0.109482
    213          0           0        4.209947    1.820601   -0.109482
    214          0           0        4.191902    1.911318   -0.109482
    215          0           0        4.162171    1.998904   -0.109482
    216          0           0        4.121262    2.081859   -0.109482
    217          0           0        4.069875    2.158765   -0.109482
    218          0           0        4.008889    2.228306   -0.109482
    219          0           0        3.939349    2.289291   -0.109482
    220          0           0        3.862443    2.340678   -0.109482
    221          0           0        3.779487    2.381587   -0.109482
    222          0           0        3.691902    2.411318   -0.109482
    223          0           0        3.601185    2.429363   -0.109482
    224          0           0        3.508889    2.435412   -0.109482
    225          0           0        4.162171    1.457707   -0.109482
    226          0           0        4.191902    1.545293   -0.109482
    227          0           0        4.209947    1.636010   -0.109482
    228          0           0        4.302243    1.728306   -0.207827
    229          0           0        4.295455    1.831859   -0.207827
    230          0           0        4.275210    1.933640   -0.207827
    231          0           0        4.241852    2.031909   -0.207827
    232          0           0        4.195953    2.124982   -0.207827
    233          0           0        4.138299    2.211268   -0.207827
    234          0           0        4.069875    2.289291   -0.207827
    235          0           0        3.991852    2.357715   -0.207827
    236          0           0        3.905566    2.415370   -0.207827
 ---------------------------------------------------------------------
 Rotational constants (GHZ):      0.4454681      0.2811480      0.1854303
 Leave Link  202 at Tue Sep 15 13:38:36 2020, MaxMem=   131072000 cpu:         0.0
 (Enter /share/programs/GAUSSIAN/64/g09/l301.exe)
 Standard basis: 6-311+G(d,p) (5D, 7F)
 Warning:  center  37 has no basis functions!
 Warning:  center  38 has no basis functions!
 Warning:  center  39 has no basis functions!
 Warning:  center  40 has no basis functions!
 Warning:  center  41 has no basis functions!
 Warning:  center  42 has no basis functions!
 Warning:  center  43 has no basis functions!
 Warning:  center  44 has no basis functions!
 Warning:  center  45 has no basis functions!
 Warning:  center  46 has no basis functions!
 Warning:  center  47 has no basis functions!
 Warning:  center  48 has no basis functions!
 Warning:  center  49 has no basis functions!
 Warning:  center  50 has no basis functions!
 Warning:  center  51 has no basis functions!
 Warning:  center  52 has no basis functions!
 Warning:  center  53 has no basis functions!
 Warning:  center  54 has no basis functions!
 Warning:  center  55 has no basis functions!
 Warning:  center  56 has no basis functions!
 Warning:  center  57 has no basis functions!
 Warning:  center  58 has no basis functions!
 Warning:  center  59 has no basis functions!
 Warning:  center  60 has no basis functions!
 Warning:  center  61 has no basis functions!
 Warning:  center  62 has no basis functions!
 Warning:  center  63 has no basis functions!
 Warning:  center  64 has no basis functions!
 Warning:  center  65 has no basis functions!
 Warning:  center  66 has no basis functions!
 Warning:  center  67 has no basis functions!
 Warning:  center  68 has no basis functions!
 Warning:  center  69 has no basis functions!
 Warning:  center  70 has no basis functions!
 Warning:  center  71 has no basis functions!
 Warning:  center  72 has no basis functions!
 Warning:  center  73 has no basis functions!
 Warning:  center  74 has no basis functions!
 Warning:  center  75 has no basis functions!
 Warning:  center  76 has no basis functions!
 Warning:  center  77 has no basis functions!
 Warning:  center  78 has no basis functions!
 Warning:  center  79 has no basis functions!
 Warning:  center  80 has no basis functions!
 Warning:  center  81 has no basis functions!
 Warning:  center  82 has no basis functions!
 Warning:  center  83 has no basis functions!
 Warning:  center  84 has no basis functions!
 Warning:  center  85 has no basis functions!
 Warning:  center  86 has no basis functions!
 Warning:  center  87 has no basis functions!
 Warning:  center  88 has no basis functions!
 Warning:  center  89 has no basis functions!
 Warning:  center  90 has no basis functions!
 Warning:  center  91 has no basis functions!
 Warning:  center  92 has no basis functions!
 Warning:  center  93 has no basis functions!
 Warning:  center  94 has no basis functions!
 Warning:  center  95 has no basis functions!
 Warning:  center  96 has no basis functions!
 Warning:  center  97 has no basis functions!
 Warning:  center  98 has no basis functions!
 Warning:  center  99 has no basis functions!
 Warning:  center 100 has no basis functions!
 Warning:  center 101 has no basis functions!
 Warning:  center 102 has no basis functions!
 Warning:  center 103 has no basis functions!
 Warning:  center 104 has no basis functions!
 Warning:  center 105 has no basis functions!
 Warning:  center 106 has no basis functions!
 Warning:  center 107 has no basis functions!
 Warning:  center 108 has no basis functions!
 Warning:  center 109 has no basis functions!
 Warning:  center 110 has no basis functions!
 Warning:  center 111 has no basis functions!
 Warning:  center 112 has no basis functions!
 Warning:  center 113 has no basis functions!
 Warning:  center 114 has no basis functions!
 Warning:  center 115 has no basis functions!
 Warning:  center 116 has no basis functions!
 Warning:  center 117 has no basis functions!
 Warning:  center 118 has no basis functions!
 Warning:  center 119 has no basis functions!
 Warning:  center 120 has no basis functions!
 Warning:  center 121 has no basis functions!
 Warning:  center 122 has no basis functions!
 Warning:  center 123 has no basis functions!
 Warning:  center 124 has no basis functions!
 Warning:  center 125 has no basis functions!
 Warning:  center 126 has no basis functions!
 Warning:  center 127 has no basis functions!
 Warning:  center 128 has no basis functions!
 Warning:  center 129 has no basis functions!
 Warning:  center 130 has no basis functions!
 Warning:  center 131 has no basis functions!
 Warning:  center 132 has no basis functions!
 Warning:  center 133 has no basis functions!
 Warning:  center 134 has no basis functions!
 Warning:  center 135 has no basis functions!
 Warning:  center 136 has no basis functions!
 Warning:  center 137 has no basis functions!
 Warning:  center 138 has no basis functions!
 Warning:  center 139 has no basis functions!
 Warning:  center 140 has no basis functions!
 Warning:  center 141 has no basis functions!
 Warning:  center 142 has no basis functions!
 Warning:  center 143 has no basis functions!
 Warning:  center 144 has no basis functions!
 Warning:  center 145 has no basis functions!
 Warning:  center 146 has no basis functions!
 Warning:  center 147 has no basis functions!
 Warning:  center 148 has no basis functions!
 Warning:  center 149 has no basis functions!
 Warning:  center 150 has no basis functions!
 Warning:  center 151 has no basis functions!
 Warning:  center 152 has no basis functions!
 Warning:  center 153 has no basis functions!
 Warning:  center 154 has no basis functions!
 Warning:  center 155 has no basis functions!
 Warning:  center 156 has no basis functions!
 Warning:  center 157 has no basis functions!
 Warning:  center 158 has no basis functions!
 Warning:  center 159 has no basis functions!
 Warning:  center 160 has no basis functions!
 Warning:  center 161 has no basis functions!
 Warning:  center 162 has no basis functions!
 Warning:  center 163 has no basis functions!
 Warning:  center 164 has no basis functions!
 Warning:  center 165 has no basis functions!
 Warning:  center 166 has no basis functions!
 Warning:  center 167 has no basis functions!
 Warning:  center 168 has no basis functions!
 Warning:  center 169 has no basis functions!
 Warning:  center 170 has no basis functions!
 Warning:  center 171 has no basis functions!
 Warning:  center 172 has no basis functions!
 Warning:  center 173 has no basis functions!
 Warning:  center 174 has no basis functions!
 Warning:  center 175 has no basis functions!
 Warning:  center 176 has no basis functions!
 Warning:  center 177 has no basis functions!
 Warning:  center 178 has no basis functions!
 Warning:  center 179 has no basis functions!
 Warning:  center 180 has no basis functions!
 Warning:  center 181 has no basis functions!
 Warning:  center 182 has no basis functions!
 Warning:  center 183 has no basis functions!
 Warning:  center 184 has no basis functions!
 Warning:  center 185 has no basis functions!
 Warning:  center 186 has no basis functions!
 Warning:  center 187 has no basis functions!
 Warning:  center 188 has no basis functions!
 Warning:  center 189 has no basis functions!
 Warning:  center 190 has no basis functions!
 Warning:  center 191 has no basis functions!
 Warning:  center 192 has no basis functions!
 Warning:  center 193 has no basis functions!
 Warning:  center 194 has no basis functions!
 Warning:  center 195 has no basis functions!
 Warning:  center 196 has no basis functions!
 Warning:  center 197 has no basis functions!
 Warning:  center 198 has no basis functions!
 Warning:  center 199 has no basis functions!
 Warning:  center 200 has no basis functions!
 Warning:  center 201 has no basis functions!
 Warning:  center 202 has no basis functions!
 Warning:  center 203 has no basis functions!
 Warning:  center 204 has no basis functions!
 Warning:  center 205 has no basis functions!
 Warning:  center 206 has no basis functions!
 Warning:  center 207 has no basis functions!
 Warning:  center 208 has no basis functions!
 Warning:  center 209 has no basis functions!
 Warning:  center 210 has no basis functions!
 Warning:  center 211 has no basis functions!
 Warning:  center 212 has no basis functions!
 Warning:  center 213 has no basis functions!
 Warning:  center 214 has no basis functions!
 Warning:  center 215 has no basis functions!
 Warning:  center 216 has no basis functions!
 Warning:  center 217 has no basis functions!
 Warning:  center 218 has no basis functions!
 Warning:  center 219 has no basis functions!
 Warning:  center 220 has no basis functions!
 Warning:  center 221 has no basis functions!
 Warning:  center 222 has no basis functions!
 Warning:  center 223 has no basis functions!
 Warning:  center 224 has no basis functions!
 Warning:  center 225 has no basis functions!
 Warning:  center 226 has no basis functions!
 Warning:  center 227 has no basis functions!
 Warning:  center 228 has no basis functions!
 Warning:  center 229 has no basis functions!
 Warning:  center 230 has no basis functions!
 Warning:  center 231 has no basis functions!
 Warning:  center 232 has no basis functions!
 Warning:  center 233 has no basis functions!
 Warning:  center 234 has no basis functions!
 Warning:  center 235 has no basis functions!
 Warning:  center 236 has no basis functions!
 Ernie: Thresh=  0.10000D-02 Tol=  0.10000D-05 Strict=F.
   568 basis functions,   904 primitive gaussians,   590 cartesian basis functions
    73 alpha electrons       73 beta electrons
       nuclear repulsion energy      1599.9156270972 Hartrees.
 IExCor=  402 DFT=T Ex+Corr=B3LYP ExCW=0 ScaHFX=  0.200000
 ScaDFX=  0.800000  0.720000  1.000000  0.810000 ScalE2=  1.000000  1.000000
 IRadAn=      0 IRanWt=     -1 IRanGd=            0 ICorTp=0 IEmpDi=  4
 NAtoms=  236 NActive=  236 NUniq=  236 SFac= 1.00D+00 NAtFMM=   60 NAOKFM=T Big=T
 Integral buffers will be    131072 words long.
 Raffenetti 2 integral format.
 Two-electron integral symmetry is turned off.
 Leave Link  301 at Tue Sep 15 13:38:36 2020, MaxMem=   131072000 cpu:         0.5
 (Enter /share/programs/GAUSSIAN/64/g09/l302.exe)
 NPDir=0 NMtPBC=     1 NCelOv=     1 NCel=       1 NClECP=     1 NCelD=      1
         NCelK=      1 NCelE2=     1 NClLst=     1 CellRange=     0.0.
 One-electron integrals computed using PRISM.
 NBasis=   568 RedAO= T EigKep=  1.01D-06  NBF=   568
 NBsUse=   557 1.00D-06 EigRej=  9.19D-07 NBFU=   557
 Precomputing XC quadrature grid using
 IXCGrd= 4 IRadAn=           0 IRanWt=          -1 IRanGd=           0 AccXCQ= 0.00D+00.
 Generated NRdTot=       0 NPtTot=           0 NUsed=           0 NTot=          32
 NSgBfM=   587   588   588   589   589 MxSgAt=   236 MxSgA2=    36.
 Leave Link  302 at Tue Sep 15 13:38:38 2020, MaxMem=   131072000 cpu:        18.7
 (Enter /share/programs/GAUSSIAN/64/g09/l308.exe)
 Leave Link  308 at Tue Sep 15 13:38:38 2020, MaxMem=   131072000 cpu:         1.2
 (Enter /share/programs/GAUSSIAN/64/g09/l303.exe)
 DipDrv:  MaxL=1.
 Leave Link  303 at Tue Sep 15 13:38:38 2020, MaxMem=   131072000 cpu:         0.8
 (Enter /share/programs/GAUSSIAN/64/g09/l401.exe)
 Initial guess from the checkpoint file:  "/scratch/aartigas.39165/Gau-3311225.chk"
 Skipping rotation of guess because NAtoms(RWF)=  236 differs from NAtoms(Chk)=   36.
 Guess basis will be translated and rotated to current coordinates.
 JPrj=2 DoOrth=T DoCkMO=T.
 Leave Link  401 at Tue Sep 15 13:38:43 2020, MaxMem=   131072000 cpu:        23.4
 (Enter /share/programs/GAUSSIAN/64/g09/l502.exe)
 Closed shell SCF:
 Using DIIS extrapolation, IDIIS=  1040.
 Two-electron integral symmetry not used.
 IVT=     1071582 IEndB=     1071582 NGot=   131072000 MDV=   130365749
 LenX=   130365749 LenY=   130017059
 Requested convergence on RMS density matrix=1.00D-08 within 128 cycles.
 Requested convergence on MAX density matrix=1.00D-06.
 Requested convergence on             energy=1.00D-06.
 No special actions if energy rises.
 Fock matrices will be formed incrementally for  20 cycles.

 Cycle   1  Pass 1  IDiag  1:
 FoFJK:  IHMeth= 1 ICntrl=       0 DoSepK=F KAlg= 0 I1Cent=   0 FoldK=F
 IRaf= 940000000 NMat=   1 IRICut=       1 DoRegI=T DoRafI=F ISym2E= 0.
 FoFCou: FMM=T IPFlag=           0 FMFlag=      100000 FMFlg1=        2001
         NFxFlg=           0 DoJE=F BraDBF=F KetDBF=F FulRan=T
         wScrn=  0.000000 ICntrl=       0 IOpCl=  0 I1Cent=           0 NGrid=           0
         NMat0=    1 NMatS0=      1 NMatT0=    0 NMatD0=    1 NMtDS0=    0 NMtDT0=    0
 Symmetry not used in FoFCou.
 FMM levels:  10  Number of levels for PrismC:   9
 E= -847.003738666968    
 DIIS: error= 5.05D-08 at cycle   1 NSaved=   1.
 NSaved= 1 IEnMin= 1 EnMin= -847.003738666968     IErMin= 1 ErrMin= 5.05D-08
 ErrMax= 5.05D-08  0.00D+00 EMaxC= 1.00D-01 BMatC= 3.55D-12 BMatP= 3.55D-12
 IDIUse=1 WtCom= 1.00D+00 WtEn= 0.00D+00
 Coeff-Com:  0.100D+01
 Coeff:      0.100D+01
 Gap=     0.151 Goal=   None    Shift=    0.000
 RMSDP=2.88D-07 MaxDP=1.33D-05              OVMax= 3.94D-07

 Cycle   2  Pass 1  IDiag  1:
 RMSU=  2.85D-07    CP:  1.00D+00
 E= -847.003738666831     Delta-E=        0.000000000137 Rises=F Damp=F
 DIIS: error= 1.42D-08 at cycle   2 NSaved=   2.
 NSaved= 2 IEnMin= 1 EnMin= -847.003738666968     IErMin= 2 ErrMin= 1.42D-08
 ErrMax= 1.42D-08  0.00D+00 EMaxC= 1.00D-01 BMatC= 2.13D-13 BMatP= 3.55D-12
 IDIUse=1 WtCom= 1.00D+00 WtEn= 0.00D+00
 Coeff-Com:  0.627D-01 0.937D+00
 Coeff:      0.627D-01 0.937D+00
 Gap=     0.151 Goal=   None    Shift=    0.000
 RMSDP=1.58D-08 MaxDP=7.82D-07 DE= 1.37D-10 OVMax= 3.02D-07

 Cycle   3  Pass 1  IDiag  1:
 RMSU=  1.33D-08    CP:  1.00D+00  1.02D+00
 E= -847.003738666882     Delta-E=       -0.000000000051 Rises=F Damp=F
 DIIS: error= 2.51D-08 at cycle   3 NSaved=   3.
 NSaved= 3 IEnMin= 1 EnMin= -847.003738666968     IErMin= 2 ErrMin= 1.42D-08
 ErrMax= 2.51D-08  0.00D+00 EMaxC= 1.00D-01 BMatC= 5.05D-13 BMatP= 2.13D-13
 IDIUse=1 WtCom= 1.00D+00 WtEn= 0.00D+00
 Coeff-Com: -0.107D-01 0.616D+00 0.395D+00
 Coeff:     -0.107D-01 0.616D+00 0.395D+00
 Gap=     0.151 Goal=   None    Shift=    0.000
 RMSDP=1.03D-08 MaxDP=4.02D-07 DE=-5.09D-11 OVMax= 2.17D-07

 Cycle   4  Pass 1  IDiag  1:
 RMSU=  5.92D-09    CP:  1.00D+00  1.02D+00  3.99D-01
 E= -847.003738666782     Delta-E=        0.000000000100 Rises=F Damp=F
 DIIS: error= 8.06D-09 at cycle   4 NSaved=   4.
 NSaved= 4 IEnMin= 1 EnMin= -847.003738666968     IErMin= 4 ErrMin= 8.06D-09
 ErrMax= 8.06D-09  0.00D+00 EMaxC= 1.00D-01 BMatC= 2.06D-14 BMatP= 2.13D-13
 IDIUse=1 WtCom= 1.00D+00 WtEn= 0.00D+00
 Coeff-Com: -0.876D-02 0.309D+00 0.241D+00 0.459D+00
 Coeff:     -0.876D-02 0.309D+00 0.241D+00 0.459D+00
 Gap=     0.151 Goal=   None    Shift=    0.000
 RMSDP=4.05D-09 MaxDP=1.48D-07 DE= 1.00D-10 OVMax= 6.88D-08

 SCF Done:  E(RB3LYP) =  -847.003738667     A.U. after    4 cycles
            NFock=  4  Conv=0.40D-08     -V/T= 2.0049
 KE= 8.428349970566D+02 PE=-5.164192584015D+03 EE= 1.874438221195D+03
 Leave Link  502 at Tue Sep 15 13:40:49 2020, MaxMem=   131072000 cpu:       997.6
 (Enter /share/programs/GAUSSIAN/64/g09/l801.exe)
 DoSCS=F DFT=T ScalE2(SS,OS)=  1.000000  1.000000
 Range of M.O.s used for correlation:     1   557
 NBasis=   568 NAE=    73 NBE=    73 NFC=     0 NFV=     0
 NROrb=    557 NOA=    73 NOB=    73 NVA=   484 NVB=   484

 **** Warning!!: The largest alpha MO coefficient is  0.14271945D+03

 Leave Link  801 at Tue Sep 15 13:40:49 2020, MaxMem=   131072000 cpu:         0.2
 (Enter /share/programs/GAUSSIAN/64/g09/l1002.exe)
 Minotr:  Closed shell wavefunction.
          Direct CPHF calculation.
          Differentiating once with respect to magnetic field using GIAOs.
          Electric field/nuclear overlap derivatives assumed to be zero.
          Requested convergence is 1.0D-08 RMS, and 1.0D-07 maximum.
          Secondary convergence is 1.0D-12 RMS, and 1.0D-12 maximum.
          NewPWx=T KeepS1=F KeepF1=F KeepIn=T MapXYZ=F SortEE=F KeepMc=T.
          MDV=     131069551 using IRadAn=       2.
 Generate precomputed XC quadrature information.
          Solving linear equations simultaneously, MaxMat=      72.
 FoFCou: FMM=F IPFlag=           0 FMFlag=      100000 FMFlg1=        2001
         NFxFlg=           0 DoJE=F BraDBF=F KetDBF=T FulRan=T
         wScrn=  0.000000 ICntrl=    6100 IOpCl=  0 I1Cent=           7 NGrid=         236
         NMat0=    1 NMatS0=      1 NMatT0=    0 NMatD0=    1 NMtDS0=    0 NMtDT0=    0
 Symmetry not used in FoFCou.
 FoFJK:  IHMeth= 1 ICntrl=    6127 DoSepK=F KAlg= 0 I1Cent=   0 FoldK=F
 IRaf=         1 NMat=   1 IRICut=       1 DoRegI=T DoRafI=F ISym2E= 0.
          There are     3 degrees of freedom in the 1st order CPHF.  IDoFFX=0 NUNeed=     3.
      3 vectors produced by pass  0 Test12= 1.18D-12 3.33D-08 XBig12= 1.96D+03 8.77D+00.
 AX will form     3 AO Fock derivatives at one time.
      3 vectors produced by pass  1 Test12= 1.18D-12 3.33D-08 XBig12= 3.18D+00 7.58D-01.
      3 vectors produced by pass  2 Test12= 1.18D-12 3.33D-08 XBig12= 1.86D-02 5.85D-02.
      3 vectors produced by pass  3 Test12= 1.18D-12 3.33D-08 XBig12= 4.29D-05 1.35D-03.
      3 vectors produced by pass  4 Test12= 1.18D-12 3.33D-08 XBig12= 9.75D-08 7.22D-05.
      3 vectors produced by pass  5 Test12= 1.18D-12 3.33D-08 XBig12= 3.97D-10 5.92D-06.
      3 vectors produced by pass  6 Test12= 1.18D-12 3.33D-08 XBig12= 1.51D-12 4.40D-07.
 InvSVY:  IOpt=1 It=  1 EMax= 7.11D-15
 Solved reduced A of dimension    21 with     3 vectors.
 Calculating GIAO nuclear magnetic shielding tensors.
 SCF GIAO Magnetic shielding tensor (ppm):
      1  C    Isotropic =    49.6861   Anisotropy =   149.7970
   XX=    46.3088   YX=   -25.0950   ZX=    31.4786
   XY=   -31.1109   YY=   -39.0339   ZY=    13.2621
   XZ=    24.9178   YZ=     8.9888   ZZ=   141.7833
   Eigenvalues:   -49.3507    48.8581   149.5507
      2  C    Isotropic =    49.6861   Anisotropy =   149.7971
   XX=    46.3088   YX=    25.0953   ZX=    31.4786
   XY=    31.1111   YY=   -39.0339   ZY=   -13.2621
   XZ=    24.9177   YZ=    -8.9889   ZZ=   141.7834
   Eigenvalues:   -49.3508    48.8583   149.5509
      3  C    Isotropic =    44.4899   Anisotropy =   204.7372
   XX=   -22.2199   YX=    10.8075   ZX=    51.2710
   XY=     4.9259   YY=   -14.7126   ZY=    14.7921
   XZ=    32.3655   YZ=    21.2392   ZZ=   170.4022
   Eigenvalues:   -31.9593   -15.5523   180.9814
      4  C    Isotropic =    44.4899   Anisotropy =   204.7373
   XX=   -22.2198   YX=   -10.8075   ZX=    51.2710
   XY=    -4.9256   YY=   -14.7126   ZY=   -14.7922
   XZ=    32.3656   YZ=   -21.2393   ZZ=   170.4023
   Eigenvalues:   -31.9592   -15.5524   180.9815
      5  C    Isotropic =    48.5420   Anisotropy =   189.5490
   XX=   -14.6790   YX=     4.7342   ZX=     8.4333
   XY=    20.3759   YY=    -5.5375   ZY=    31.5121
   XZ=    65.1218   YZ=     0.8640   ZZ=   165.8426
   Eigenvalues:   -26.3226    -2.9593   174.9080
      6  C    Isotropic =    48.5421   Anisotropy =   189.5489
   XX=   -14.6789   YX=    -4.7340   ZX=     8.4335
   XY=   -20.3758   YY=    -5.5374   ZY=   -31.5121
   XZ=    65.1218   YZ=    -0.8638   ZZ=   165.8426
   Eigenvalues:   -26.3224    -2.9594   174.9080
      7  C    Isotropic =    50.1907   Anisotropy =   149.2089
   XX=    19.7303   YX=   -44.2755   ZX=    41.2886
   XY=   -38.0437   YY=    -2.7069   ZY=    36.9011
   XZ=    36.5866   YZ=    37.5458   ZZ=   133.5487
   Eigenvalues:   -49.6656    50.5744   149.6633
      8  C    Isotropic =    48.9362   Anisotropy =   152.4339
   XX=   -31.5093   YX=   -11.4921   ZX=    54.7730
   XY=   -19.0468   YY=    46.5898   ZY=    27.5522
   XZ=    42.2451   YZ=    29.8391   ZZ=   131.7282
   Eigenvalues:   -50.1461    46.3960   150.5589
      9  C    Isotropic =    44.4204   Anisotropy =   209.3981
   XX=   -10.1987   YX=    16.7536   ZX=    44.4888
   XY=     8.9342   YY=    -7.7270   ZY=    61.4651
   XZ=    43.3269   YZ=    64.9792   ZZ=   151.1869
   Eigenvalues:   -30.3689   -20.3891   184.0192
     10  C    Isotropic =    45.3894   Anisotropy =   198.3236
   XX=    -5.9706   YX=    23.3819   ZX=    35.6519
   XY=    38.1954   YY=     1.7271   ZY=    73.1370
   XZ=    54.0013   YZ=    45.7045   ZZ=   140.4116
   Eigenvalues:   -33.5315    -7.9055   177.6051
     11  H    Isotropic =    23.8179   Anisotropy =     7.5674
   XX=    27.2191   YX=    -1.9090   ZX=    -2.2602
   XY=    -1.7961   YY=    24.8722   ZY=    -0.1966
   XZ=    -3.3763   YZ=    -0.1950   ZZ=    19.3625
   Eigenvalues:    18.3647    24.2263    28.8628
     12  H    Isotropic =    23.8179   Anisotropy =     7.5674
   XX=    27.2191   YX=     1.9090   ZX=    -2.2602
   XY=     1.7961   YY=    24.8722   ZY=     0.1966
   XZ=    -3.3763   YZ=     0.1950   ZZ=    19.3625
   Eigenvalues:    18.3647    24.2263    28.8628
     13  H    Isotropic =    23.8548   Anisotropy =     7.5124
[...]
   115  Bq   0.000000
   116  Bq   0.000000
   117  Bq   0.000000
   118  Bq   0.000000
   119  Bq   0.000000
   120  Bq   0.000000
   121  Bq   0.000000
   122  Bq   0.000000
   123  Bq   0.000000
   124  Bq   0.000000
   125  Bq   0.000000
   126  Bq   0.000000
   127  Bq   0.000000
   128  Bq   0.000000
   129  Bq   0.000000
   130  Bq   0.000000
   131  Bq   0.000000
   132  Bq   0.000000
   133  Bq   0.000000
   134  Bq   0.000000
   135  Bq   0.000000
   136  Bq   0.000000
   137  Bq   0.000000
   138  Bq   0.000000
   139  Bq   0.000000
   140  Bq   0.000000
   141  Bq   0.000000
   142  Bq   0.000000
   143  Bq   0.000000
   144  Bq   0.000000
   145  Bq   0.000000
   146  Bq   0.000000
   147  Bq   0.000000
   148  Bq   0.000000
   149  Bq   0.000000
   150  Bq   0.000000
   151  Bq   0.000000
   152  Bq   0.000000
   153  Bq   0.000000
   154  Bq   0.000000
   155  Bq   0.000000
   156  Bq   0.000000
   157  Bq   0.000000
   158  Bq   0.000000
   159  Bq   0.000000
   160  Bq   0.000000
   161  Bq   0.000000
   162  Bq   0.000000
   163  Bq   0.000000
   164  Bq   0.000000
   165  Bq   0.000000
   166  Bq   0.000000
   167  Bq   0.000000
   168  Bq   0.000000
   169  Bq   0.000000
   170  Bq   0.000000
   171  Bq   0.000000
   172  Bq   0.000000
   173  Bq   0.000000
   174  Bq   0.000000
   175  Bq   0.000000
   176  Bq   0.000000
   177  Bq   0.000000
   178  Bq   0.000000
   179  Bq   0.000000
   180  Bq   0.000000
   181  Bq   0.000000
   182  Bq   0.000000
   183  Bq   0.000000
   184  Bq   0.000000
   185  Bq   0.000000
   186  Bq   0.000000
   187  Bq   0.000000
   188  Bq   0.000000
   189  Bq   0.000000
   190  Bq   0.000000
   191  Bq   0.000000
   192  Bq   0.000000
   193  Bq   0.000000
   194  Bq   0.000000
   195  Bq   0.000000
   196  Bq   0.000000
   197  Bq   0.000000
   198  Bq   0.000000
   199  Bq   0.000000
   200  Bq   0.000000
   201  Bq   0.000000
   202  Bq   0.000000
   203  Bq   0.000000
   204  Bq   0.000000
   205  Bq   0.000000
   206  Bq   0.000000
   207  Bq   0.000000
   208  Bq   0.000000
   209  Bq   0.000000
   210  Bq   0.000000
   211  Bq   0.000000
   212  Bq   0.000000
   213  Bq   0.000000
   214  Bq   0.000000
   215  Bq   0.000000
   216  Bq   0.000000
   217  Bq   0.000000
   218  Bq   0.000000
   219  Bq   0.000000
   220  Bq   0.000000
   221  Bq   0.000000
   222  Bq   0.000000
   223  Bq   0.000000
   224  Bq   0.000000
   225  Bq   0.000000
   226  Bq   0.000000
   227  Bq   0.000000
   228  Bq   0.000000
   229  Bq   0.000000
   230  Bq   0.000000
   231  Bq   0.000000
   232  Bq   0.000000
   233  Bq   0.000000
   234  Bq   0.000000
   235  Bq   0.000000
   236  Bq   0.000000
 Sum of Mulliken charges =   0.00000
 Mulliken charges with hydrogens summed into heavy atoms:
               1
     1  C   -0.262865
     2  C   -0.262866
     3  C    0.737923
     4  C    0.737922
     5  C   -0.039994
     6  C   -0.040001
     7  C   -0.044808
     8  C   -0.449359
     9  C    0.780501
    10  C   -0.200782
    15  C    0.249272
    16  C   -0.533462
    17  C   -0.189404
    18  C   -0.286191
    23  C   -0.330145
    24  C    0.075154
    25  C    0.780496
    26  C   -0.200782
    27  C    0.249273
    28  C   -0.286192
    29  C   -0.189403
    30  C   -0.533462
    37  Bq   0.000000
    38  Bq   0.000000
    39  Bq   0.000000
    40  Bq   0.000000
    41  Bq   0.000000
    42  Bq   0.000000
    43  Bq   0.000000
    44  Bq   0.000000
    45  Bq   0.000000
    46  Bq   0.000000
    47  Bq   0.000000
    48  Bq   0.000000
    49  Bq   0.000000
    50  Bq   0.000000
    51  Bq   0.000000
    52  Bq   0.000000
    53  Bq   0.000000
    54  Bq   0.000000
    55  Bq   0.000000
    56  Bq   0.000000
    57  Bq   0.000000
    58  Bq   0.000000
    59  Bq   0.000000
    60  Bq   0.000000
    61  Bq   0.000000
    62  Bq   0.000000
    63  Bq   0.000000
    64  Bq   0.000000
    65  Bq   0.000000
    66  Bq   0.000000
    67  Bq   0.000000
    68  Bq   0.000000
    69  Bq   0.000000
    70  Bq   0.000000
    71  Bq   0.000000
    72  Bq   0.000000
    73  Bq   0.000000
    74  Bq   0.000000
    75  Bq   0.000000
    76  Bq   0.000000
    77  Bq   0.000000
    78  Bq   0.000000
    79  Bq   0.000000
    80  Bq   0.000000
    81  Bq   0.000000
    82  Bq   0.000000
    83  Bq   0.000000
    84  Bq   0.000000
    85  Bq   0.000000
    86  Bq   0.000000
    87  Bq   0.000000
    88  Bq   0.000000
    89  Bq   0.000000
    90  Bq   0.000000
    91  Bq   0.000000
    92  Bq   0.000000
    93  Bq   0.000000
    94  Bq   0.000000
    95  Bq   0.000000
    96  Bq   0.000000
    97  Bq   0.000000
    98  Bq   0.000000
    99  Bq   0.000000
   100  Bq   0.000000
   101  Bq   0.000000
   102  Bq   0.000000
   103  Bq   0.000000
   104  Bq   0.000000
   105  Bq   0.000000
   106  Bq   0.000000
   107  Bq   0.000000
   108  Bq   0.000000
   109  Bq   0.000000
   110  Bq   0.000000
   111  Bq   0.000000
   112  Bq   0.000000
   113  Bq   0.000000
   114  Bq   0.000000
   115  Bq   0.000000
   116  Bq   0.000000
   117  Bq   0.000000
   118  Bq   0.000000
   119  Bq   0.000000
   120  Bq   0.000000
   121  Bq   0.000000
   122  Bq   0.000000
   123  Bq   0.000000
   124  Bq   0.000000
   125  Bq   0.000000
   126  Bq   0.000000
   127  Bq   0.000000
   128  Bq   0.000000
   129  Bq   0.000000
   130  Bq   0.000000
   131  Bq   0.000000
   132  Bq   0.000000
   133  Bq   0.000000
   134  Bq   0.000000
   135  Bq   0.000000
   136  Bq   0.000000
   137  Bq   0.000000
   138  Bq   0.000000
   139  Bq   0.000000
   140  Bq   0.000000
   141  Bq   0.000000
   142  Bq   0.000000
   143  Bq   0.000000
   144  Bq   0.000000
   145  Bq   0.000000
   146  Bq   0.000000
   147  Bq   0.000000
   148  Bq   0.000000
   149  Bq   0.000000
   150  Bq   0.000000
   151  Bq   0.000000
   152  Bq   0.000000
   153  Bq   0.000000
   154  Bq   0.000000
   155  Bq   0.000000
   156  Bq   0.000000
   157  Bq   0.000000
   158  Bq   0.000000
   159  Bq   0.000000
   160  Bq   0.000000
   161  Bq   0.000000
   162  Bq   0.000000
   163  Bq   0.000000
   164  Bq   0.000000
   165  Bq   0.000000
   166  Bq   0.000000
   167  Bq   0.000000
   168  Bq   0.000000
   169  Bq   0.000000
   170  Bq   0.000000
   171  Bq   0.000000
   172  Bq   0.000000
   173  Bq   0.000000
   174  Bq   0.000000
   175  Bq   0.000000
   176  Bq   0.000000
   177  Bq   0.000000
   178  Bq   0.000000
   179  Bq   0.000000
   180  Bq   0.000000
   181  Bq   0.000000
   182  Bq   0.000000
   183  Bq   0.000000
   184  Bq   0.000000
   185  Bq   0.000000
   186  Bq   0.000000
   187  Bq   0.000000
   188  Bq   0.000000
   189  Bq   0.000000
   190  Bq   0.000000
   191  Bq   0.000000
   192  Bq   0.000000
   193  Bq   0.000000
   194  Bq   0.000000
   195  Bq   0.000000
   196  Bq   0.000000
   197  Bq   0.000000
   198  Bq   0.000000
   199  Bq   0.000000
   200  Bq   0.000000
   201  Bq   0.000000
   202  Bq   0.000000
   203  Bq   0.000000
   204  Bq   0.000000
   205  Bq   0.000000
   206  Bq   0.000000
   207  Bq   0.000000
   208  Bq   0.000000
   209  Bq   0.000000
   210  Bq   0.000000
   211  Bq   0.000000
   212  Bq   0.000000
   213  Bq   0.000000
   214  Bq   0.000000
   215  Bq   0.000000
   216  Bq   0.000000
   217  Bq   0.000000
   218  Bq   0.000000
   219  Bq   0.000000
   220  Bq   0.000000
   221  Bq   0.000000
   222  Bq   0.000000
   223  Bq   0.000000
   224  Bq   0.119964
   225  Bq   0.119212
   226  Bq   0.000000
   227  Bq   0.000000
   228  Bq   0.000000
   229  Bq   0.000000
   230  Bq   0.000000
   231  Bq   0.000000
   232  Bq   0.000000
   233  Bq   0.000000
   234  Bq   0.000000
   235  Bq   0.000000
   236  Bq   0.000000
 Electronic spatial extent (au):  <R**2>=           5804.3227
 Charge=              0.0000 electrons
 Dipole moment (field-independent basis, Debye):
    X=              0.0000    Y=              0.0732    Z=              0.0000  Tot=              0.0732
 Quadrupole moment (field-independent basis, Debye-Ang):
   XX=           -113.9137   YY=           -113.9781   ZZ=           -133.4378
   XY=              0.0000   XZ=             -4.8717   YZ=              0.0000
 Traceless Quadrupole moment (field-independent basis, Debye-Ang):
   XX=              6.5295   YY=              6.4651   ZZ=            -12.9946
   XY=              0.0000   XZ=             -4.8717   YZ=              0.0000
 Octapole moment (field-independent basis, Debye-Ang**2):
  XXX=              0.0000  YYY=             11.7108  ZZZ=              0.0000  XYY=              0.0000
  XXY=             -6.4067  XXZ=              0.0000  XZZ=              0.0000  YZZ=             -7.8695
  YYZ=              0.0000  XYZ=            -16.2862
 Hexadecapole moment (field-independent basis, Debye-Ang**3):
 XXXX=          -4416.4021 YYYY=          -2784.9756 ZZZZ=           -481.5690 XXXY=              0.0001
 XXXZ=           -124.3517 YYYX=             -0.0003 YYYZ=              0.0001 ZZZX=             -4.4782
 ZZZY=              0.0001 XXYY=          -1189.3576 XXZZ=           -942.9016 YYZZ=           -589.4012
 XXYZ=              0.0000 YYXZ=              7.8297 ZZXY=             -0.0001
 N-N= 1.599915627097D+03 E-N=-5.164192587538D+03  KE= 8.428349970566D+02
 Leave Link  601 at Tue Sep 15 13:49:08 2020, MaxMem=   131072000 cpu:         1.5
 (Enter /share/programs/GAUSSIAN/64/g09/l9999.exe)
 1\1\GINC-PLANA\SP\RB3LYP\6-311+G(d,p)\C22H14\AARTIGAS\15-Sep-2020\0\\#
 P rb3lyp/6-311+g** NMR Guess=Read geom=connectivity\\Title\\0,1\C,0,0.
 653241,3.257859,-0.20251\C,0,-0.653243,3.25786,0.20251\C,0,1.372495,2.
 032956,-0.320807\C,0,-1.372495,2.032956,0.320807\C,0,0.722474,0.795666
 ,-0.050388\C,0,-0.722474,0.795667,0.050387\C,0,2.760385,2.053927,-0.67
 4268\C,0,3.508866,0.913916,-0.671362\C,0,2.955226,-0.309622,-0.177479\
 C,0,1.574722,-0.361114,0.197094\H,0,1.183427,4.19574,-0.384599\H,0,-1.
 183429,4.19574,0.384599\H,0,3.206283,3.012423,-0.951392\H,0,4.560023,0
 .932956,-0.969333\C,0,3.78302,-1.443098,0.028309\C,0,1.137427,-1.50753
 3,0.912109\C,0,1.973691,-2.584349,1.138062\C,0,3.301853,-2.571588,0.66
 1177\H,0,4.825754,-1.39123,-0.295484\H,0,0.124652,-1.532788,1.308472\H
 ,0,1.603586,-3.445682,1.698977\H,0,3.952742,-3.433526,0.825134\C,0,-3.
 508866,0.913915,0.671362\C,0,-2.760386,2.053926,0.674268\C,0,-2.955226
 ,-0.309623,0.177479\C,0,-1.574722,-0.361114,-0.197094\C,0,-3.78302,-1.
 443099,-0.028309\C,0,-3.301852,-2.571589,-0.661177\C,0,-1.97369,-2.584
 349,-1.138061\C,0,-1.137426,-1.507534,-0.912109\H,0,-4.560022,0.932954
 ,0.969334\H,0,-3.206283,3.012421,0.951392\H,0,-4.825754,-1.391232,0.29
 5484\H,0,-3.952741,-3.433528,-0.825134\H,0,-1.603585,-3.445682,-1.6989
 76\H,0,-0.124652,-1.532788,-1.308471\Bq,0,3.50888925,1.7283055,0.18341
 125\Bq,0,3.50888925,1.7283055,0.18341125\Bq,0,3.50888925,1.7283055,0.1
 8341125\Bq,0,3.50888925,1.7283055,0.18341125\Bq,0,3.50888925,1.7283055
 ,0.18341125\Bq,0,3.50888925,1.7283055,0.18341125\Bq,0,3.50888925,1.728
 3055,0.18341125\Bq,0,3.50888925,1.7283055,0.18341125\Bq,0,3.50888925,1
 .7283055,0.18341125\Bq,0,3.50888925,1.7283055,0.18341125\Bq,0,3.508889
 25,1.7283055,0.18341125\Bq,0,3.50888925,1.7283055,0.18341125\Bq,0,3.50
 888925,1.7283055,0.18341125\Bq,0,3.50888925,1.7283055,0.18341125\Bq,0,
 3.50888925,1.7283055,0.18341125\Bq,0,3.50888925,1.7283055,0.18341125\B
 q,0,3.50888925,1.7283055,0.18341125\Bq,0,3.50888925,1.7283055,0.183411
 25\Bq,0,3.50888925,1.7283055,0.18341125\Bq,0,3.50888925,1.7283055,0.18
 341125\Bq,0,3.50888925,1.7283055,0.18341125\Bq,0,3.50888925,1.7283055,
 0.18341125\Bq,0,3.50888925,1.7283055,0.18341125\Bq,0,3.50888925,1.7283
 055,0.18341125\Bq,0,3.50888925,1.7283055,0.18341125\Bq,0,3.50888925,1.
 7283055,0.18341125\Bq,0,3.50888925,1.7283055,0.18341125\Bq,0,3.5088892
 5,1.7283055,0.18341125\Bq,0,3.50888925,1.7283055,0.18341125\Bq,0,3.508
 88925,1.7283055,0.18341125\Bq,0,3.50888925,1.7283055,0.18341125\Bq,0,3
 .6394154422,1.7283055,0.1748561114\Bq,0,3.6382987726,1.7453425869,0.17
 48561114\Bq,0,3.6349678701,1.7620881644,0.1748561114\Bq,0,3.6294797274
 ,1.7782557113,0.1748561114\Bq,0,3.6219282483,1.7935685961,0.1748561114
 \Bq,0,3.6124426406,1.8077648113,0.1748561114\Bq,0,3.6011852056,1.82060
 14556,0.1748561114\Bq,0,3.5883485613,1.8318588906,0.1748561114\Bq,0,3.
 5741523461,1.8413444983,0.1748561114\Bq,0,3.5588394613,1.8488959774,0.
 1748561114\Bq,0,3.5426719144,1.8543841201,0.1748561114\Bq,0,3.52592633
 69,1.8577150226,0.1748561114\Bq,0,3.50888925,1.8588316922,0.1748561114
 \Bq,0,3.4918521631,1.8577150226,0.1748561114\Bq,0,3.4751065856,1.85438
 41201,0.1748561114\Bq,0,3.4589390387,1.8488959774,0.1748561114\Bq,0,3.
 4436261539,1.8413444983,0.1748561114\Bq,0,3.4294299387,1.8318588906,0.
 1748561114\Bq,0,3.4165932944,1.8206014556,0.1748561114\Bq,0,3.40533585
 94,1.8077648113,0.1748561114\Bq,0,3.3958502517,1.7935685961,0.17485611
 14\Bq,0,3.3882987726,1.7782557113,0.1748561114\Bq,0,3.3828106299,1.762
 0881644,0.1748561114\Bq,0,3.3794797274,1.7453425869,0.1748561114\Bq,0,
 3.3783630578,1.7283055,0.1748561114\Bq,0,3.3794797274,1.7112684131,0.1
 748561114\Bq,0,3.3828106299,1.6945228356,0.1748561114\Bq,0,3.388298772
 6,1.6783552887,0.1748561114\Bq,0,3.3958502517,1.6630424039,0.174856111
 4\Bq,0,3.4053358594,1.6488461887,0.1748561114\Bq,0,3.4165932944,1.6360
 095444,0.1748561114\Bq,0,3.4294299387,1.6247521094,0.1748561114\Bq,0,3
 .4436261539,1.6152665017,0.1748561114\Bq,0,3.4589390387,1.6077150226,0
 .1748561114\Bq,0,3.4751065856,1.6022268799,0.1748561114\Bq,0,3.4918521
 631,1.5988959774,0.1748561114\Bq,0,3.50888925,1.5977793078,0.174856111
 4\Bq,0,3.5259263369,1.5988959774,0.1748561114\Bq,0,3.5426719144,1.6022
 268799,0.1748561114\Bq,0,3.5588394613,1.6077150226,0.1748561114\Bq,0,3
 .5741523461,1.6152665017,0.1748561114\Bq,0,3.5883485613,1.6247521094,0
 .1748561114\Bq,0,3.6011852056,1.6360095444,0.1748561114\Bq,0,3.6124426
 406,1.6488461887,0.1748561114\Bq,0,3.6219282483,1.6630424039,0.1748561
 114\Bq,0,3.6294797274,1.6783552887,0.1748561114\Bq,0,3.6349678701,1.69
 45228356,0.1748561114\Bq,0,3.6382987726,1.7112684131,0.1748561114\Bq,0
 ,3.7677082951,1.7283055,0.1493370763\Bq,0,3.7654940623,1.7620881644,0.
 1493370763\Bq,0,3.75888925,1.7952927981,0.1493370763\Bq,0,3.7480068684
 ,1.8273512605,0.1493370763\Bq,0,3.733033118,1.8577150226,0.1493370763\
 Bq,0,3.714224204,1.8858645518,0.1493370763\Bq,0,3.6919019519,1.9113182
 019,0.1493370763\Bq,0,3.6664483018,1.933640454,0.1493370763\Bq,0,3.638
 2987726,1.952449368,0.1493370763\Bq,0,3.6079350105,1.9674231184,0.1493
 370763\Bq,0,3.5758765481,1.9783055,0.1493370763\Bq,0,3.5426719144,1.98
 49103123,0.1493370763\Bq,0,3.50888925,1.9871245451,0.1493370763\Bq,0,3
 .4751065856,1.9849103123,0.1493370763\Bq,0,3.4419019519,1.9783055,0.14
 93370763\Bq,0,3.4098434895,1.9674231184,0.1493370763\Bq,0,3.3794797274
 ,1.952449368,0.1493370763\Bq,0,3.3513301982,1.933640454,0.1493370763\B
 q,0,3.3258765481,1.9113182019,0.1493370763\Bq,0,3.303554296,1.88586455
 18,0.1493370763\Bq,0,3.2522844377,1.7620881644,0.1493370763\Bq,0,3.250
 0702049,1.7283055,0.1493370763\Bq,0,3.2522844377,1.6945228356,0.149337
 0763\Bq,0,3.25888925,1.6613182019,0.1493370763\Bq,0,3.2697716316,1.629
 2597395,0.1493370763\Bq,0,3.284745382,1.5988959774,0.1493370763\Bq,0,3
 .303554296,1.5707464482,0.1493370763\Bq,0,3.3258765481,1.5452927981,0.
 1493370763\Bq,0,3.3513301982,1.522970546,0.1493370763\Bq,0,3.379479727
 4,1.504161632,0.1493370763\Bq,0,3.4098434895,1.4891878816,0.1493370763
 \Bq,0,3.6079350105,1.4891878816,0.1493370763\Bq,0,3.6382987726,1.50416
 1632,0.1493370763\Bq,0,3.6664483018,1.522970546,0.1493370763\Bq,0,3.69
 19019519,1.5452927981,0.1493370763\Bq,0,3.714224204,1.5707464482,0.149
 3370763\Bq,0,3.733033118,1.5988959774,0.1493370763\Bq,0,3.7480068684,1
 .6292597395,0.1493370763\Bq,0,3.75888925,1.6613182019,0.1493370763\Bq,
 0,3.7654940623,1.6945228356,0.1493370763\Bq,0,3.8915726824,1.7283055,0
 .1072907825\Bq,0,3.8882987726,1.7782557113,0.1072907825\Bq,0,3.8785330
 606,1.8273512605,0.1072907825\Bq,0,3.8624426406,1.8747521094,0.1072907
 825\Bq,0,3.840302824,1.9196472162,0.1072907825\Bq,0,3.8124924293,1.961
 2684131,0.1072907825\Bq,0,3.7794873001,1.9989035501,0.1072907825\Bq,0,
 3.7418521631,2.0319086793,0.1072907825\Bq,0,3.7002309662,2.059719074,0
 .1072907825\Bq,0,3.6553358594,2.0818588906,0.1072907825\Bq,0,3.6079350
 105,2.0979493106,0.1072907825\Bq,0,3.5588394613,2.1077150226,0.1072907
 825\Bq,0,3.50888925,2.1109889324,0.1072907825\Bq,0,3.4589390387,2.1077
 150226,0.1072907825\Bq,0,3.4098434895,2.0979493106,0.1072907825\Bq,0,3
 .177475676,1.5369637838,0.1072907825\Bq,0,3.2052860707,1.4953425869,0.
 1072907825\Bq,0,3.8124924293,1.4953425869,0.1072907825\Bq,0,3.84030282
 4,1.5369637838,0.1072907825\Bq,0,3.8624426406,1.5818588906,0.107290782
 5\Bq,0,3.8785330606,1.6292597395,0.1072907825\Bq,0,3.8882987726,1.6783
 552887,0.1072907825\Bq,0,4.00888925,1.7283055,0.0494366538\Bq,0,4.0046
 116807,1.7935685961,0.0494366538\Bq,0,3.9918521631,1.8577150226,0.0494
 366538\Bq,0,3.9708290163,1.9196472162,0.0494366538\Bq,0,3.9419019519,1
 .9783055,0.0494366538\Bq,0,3.9055659201,2.0326862145,0.0494366538\Bq,0
 ,3.8624426406,2.0818588906,0.0494366538\Bq,0,3.8132699645,2.1249821701
 ,0.0494366538\Bq,0,3.75888925,2.1613182019,0.0494366538\Bq,0,3.7002309
 662,2.1902452663,0.0494366538\Bq,0,3.6382987726,2.2112684131,0.0494366
 538\Bq,0,3.5741523461,2.2240279307,0.0494366538\Bq,0,3.50888925,2.2283
 055,0.0494366538\Bq,0,3.4436261539,2.2240279307,0.0494366538\Bq,0,3.94
 19019519,1.4783055,0.0494366538\Bq,0,3.9708290163,1.5369637838,0.04943
 66538\Bq,0,3.9918521631,1.5988959774,0.0494366538\Bq,0,4.0046116807,1.
 6630424039,0.0494366538\Bq,0,4.117650679,1.7283055,-0.0232354097\Bq,0,
 4.1124426406,1.8077648113,-0.0232354097\Bq,0,4.0969076363,1.8858645518
 ,-0.0232354097\Bq,0,4.0713114744,1.9612684131,-0.0232354097\Bq,0,4.036
 0921124,2.0326862145,-0.0232354097\Bq,0,3.9918521631,2.0988959774,-0.0
 232354097\Bq,0,3.9393485846,2.1587648346,-0.0232354097\Bq,0,3.87947972
 74,2.2112684131,-0.0232354097\Bq,0,3.8132699645,2.2555083624,-0.023235
 4097\Bq,0,3.7418521631,2.2907277244,-0.0232354097\Bq,0,3.6664483018,2.
 3163238863,-0.0232354097\Bq,0,3.5883485613,2.3318588906,-0.0232354097\
 Bq,0,3.50888925,2.337066929,-0.0232354097\Bq,0,4.0713114744,1.49534258
 69,-0.0232354097\Bq,0,4.0969076363,1.5707464482,-0.0232354097\Bq,0,4.1
 124426406,1.6488461887,-0.0232354097\Bq,0,4.2159960312,1.7283055,-0.10
 94819688\Bq,0,4.2099466346,1.8206014556,-0.1094819688\Bq,0,4.191901951
 9,1.9113182019,-0.1094819688\Bq,0,4.1621707324,1.9989035501,-0.1094819
 688\Bq,0,4.1212616857,2.0818588906,-0.1094819688\Bq,0,4.0698747768,2.1
 587648346,-0.1094819688\Bq,0,4.00888925,2.2283055,-0.1094819688\Bq,0,3
 .9393485846,2.2892910268,-0.1094819688\Bq,0,3.8624426406,2.3406779357,
 -0.1094819688\Bq,0,3.7794873001,2.3815869824,-0.1094819688\Bq,0,3.6919
 019519,2.4113182019,-0.1094819688\Bq,0,3.6011852056,2.4293628846,-0.10
 94819688\Bq,0,3.50888925,2.4354122812,-0.1094819688\Bq,0,4.1621707324,
 1.4577074499,-0.1094819688\Bq,0,4.1919019519,1.5452927981,-0.109481968
 8\Bq,0,4.2099466346,1.6360095444,-0.1094819688\Bq,0,4.3022425903,1.728
 3055,-0.207827321\Bq,0,4.2954553425,1.8318588906,-0.207827321\Bq,0,4.2
 752097308,1.933640454,-0.207827321\Bq,0,4.2418521631,2.0319086793,-0.2
 07827321\Bq,0,4.1959533969,2.1249821701,-0.207827321\Bq,0,4.1382987726
 ,2.2112684131,-0.207827321\Bq,0,4.0698747768,2.2892910268,-0.207827321
 \Bq,0,3.9918521631,2.3577150226,-0.207827321\Bq,0,3.9055659201,2.41536
 96469,-0.207827321\\Version=ES64L-G09RevD.01\HF=-847.0037387\RMSD=4.05
 0e-09\Dipole=0.0000004,0.0287843,0.0000009\Quadrupole=4.8545288,4.8066
 247,-9.6611535,-0.0000047,-3.6219991,-0.000002\PG=C01 [X(C22H14)]\\@


 THE ONLY DIFFERENCE BETWEEN ECCENTRICS AND JOGGERS
 IS THAT JOGGERS WEAR SWEATBANDS WHEN THEY RUN IN THE RAIN.
 Job cpu time:       0 days  1 hours 21 minutes 57.4 seconds.
 File lengths (MBytes):  RWF=    184 Int=      0 D2E=      0 Chk=     21 Scr=      1
 Normal termination of Gaussian 09 at Tue Sep 15 13:49:08 2020.
