 Entering Gaussian System, Link 0=g09
 Input=input_batch_32000.com
 Output=input_batch_32000.log
 Initial command:
 /share/programs/GAUSSIAN/64/g09/l1.exe "/scratch/aartigas.39219/Gau-3736406.inp" -scrdir="/scratch/aartigas.39219/"
 Entering Link 1 = /share/programs/GAUSSIAN/64/g09/l1.exe PID=   3736407.
  
 Copyright (c) 1988,1990,1992,1993,1995,1998,2003,2009,2013,
            Gaussian, Inc.  All Rights Reserved.
  
 This is part of the Gaussian(R) 09 program.  It is based on
 the Gaussian(R) 03 system (copyright 2003, Gaussian, Inc.),
 the Gaussian(R) 98 system (copyright 1998, Gaussian, Inc.),
 the Gaussian(R) 94 system (copyright 1995, Gaussian, Inc.),
 the Gaussian 92(TM) system (copyright 1992, Gaussian, Inc.),
 the Gaussian 90(TM) system (copyright 1990, Gaussian, Inc.),
 the Gaussian 88(TM) system (copyright 1988, Gaussian, Inc.),
 the Gaussian 86(TM) system (copyright 1986, Carnegie Mellon
 University), and the Gaussian 82(TM) system (copyright 1983,
 Carnegie Mellon University). Gaussian is a federally registered
 trademark of Gaussian, Inc.
  
 This software contains proprietary and confidential information,
 including trade secrets, belonging to Gaussian, Inc.
  
 This software is provided under written license and may be
 used, copied, transmitted, or stored only in accord with that
 written license.
  
 The following legend is applicable only to US Government
 contracts under FAR:
  
                    RESTRICTED RIGHTS LEGEND
  
 Use, reproduction and disclosure by the US Government is
 subject to restrictions as set forth in subparagraphs (a)
 and (c) of the Commercial Computer Software - Restricted
 Rights clause in FAR 52.227-19.
  
 Gaussian, Inc.
 340 Quinnipiac St., Bldg. 40, Wallingford CT 06492
  
  
 ---------------------------------------------------------------
 Warning -- This program may not be used in any manner that
 competes with the business of Gaussian, Inc. or will provide
 assistance to any competitor of Gaussian, Inc.  The licensee
 of this program is prohibited from giving any competitor of
 Gaussian, Inc. access to this program.  By using this program,
 the user acknowledges that Gaussian, Inc. is engaged in the
 business of creating and licensing software in the field of
 computational chemistry and represents and warrants to the
 licensee that it is not a competitor of Gaussian, Inc. and that
 it will not use this program in any manner prohibited above.
 ---------------------------------------------------------------
  

 Cite this work as:
 Gaussian 09, Revision D.01,
 M. J. Frisch, G. W. Trucks, H. B. Schlegel, G. E. Scuseria, 
 M. A. Robb, J. R. Cheeseman, G. Scalmani, V. Barone, B. Mennucci, 
 G. A. Petersson, H. Nakatsuji, M. Caricato, X. Li, H. P. Hratchian, 
 A. F. Izmaylov, J. Bloino, G. Zheng, J. L. Sonnenberg, M. Hada, 
 M. Ehara, K. Toyota, R. Fukuda, J. Hasegawa, M. Ishida, T. Nakajima, 
 Y. Honda, O. Kitao, H. Nakai, T. Vreven, J. A. Montgomery, Jr., 
 J. E. Peralta, F. Ogliaro, M. Bearpark, J. J. Heyd, E. Brothers, 
 K. N. Kudin, V. N. Staroverov, T. Keith, R. Kobayashi, J. Normand, 
 K. Raghavachari, A. Rendell, J. C. Burant, S. S. Iyengar, J. Tomasi, 
 M. Cossi, N. Rega, J. M. Millam, M. Klene, J. E. Knox, J. B. Cross, 
 V. Bakken, C. Adamo, J. Jaramillo, R. Gomperts, R. E. Stratmann, 
 O. Yazyev, A. J. Austin, R. Cammi, C. Pomelli, J. W. Ochterski, 
 R. L. Martin, K. Morokuma, V. G. Zakrzewski, G. A. Voth, 
 P. Salvador, J. J. Dannenberg, S. Dapprich, A. D. Daniels, 
 O. Farkas, J. B. Foresman, J. V. Ortiz, J. Cioslowski, 
 and D. J. Fox, Gaussian, Inc., Wallingford CT, 2013.
 
 ******************************************
 Gaussian 09:  ES64L-G09RevD.01 24-Apr-2013
                15-Sep-2020 
 ******************************************
 %OldChk=/home/aartigas/chk/5_helicene_spe.chk
 %nproc=8
 Will use up to    8 processors via shared memory.
 %mem=1000MB
 Copying data from "/home/aartigas/chk/5_helicene_spe.chk" to current chk file "/scratch/aartigas.39219/Gau-3736407.chk".
 ----------------------------------------------------
 #P rb3lyp/6-311+g** NMR Guess=Read geom=connectivity
 ----------------------------------------------------
 1/38=1,57=2/1;
 2/12=2,17=6,18=5,40=1/2;
 3/5=4,6=6,7=111,11=2,16=1,25=1,30=1,74=-5,116=1/1,2,8,3;
 4/5=1/1;
 5/5=2,38=6/2;
 8/6=1,10=90,11=11/1;
 10/13=100,45=16/2;
 6/7=2,8=2,9=2,10=2,28=1/1;
 99/9=1/99;
 Leave Link    1 at Tue Sep 15 14:28:07 2020, MaxMem=   131072000 cpu:         0.6
 (Enter /share/programs/GAUSSIAN/64/g09/l101.exe)
 -----
 Title
 -----
 Symbolic Z-matrix:
 Charge =  0 Multiplicity = 1
 C                     0.65324   3.25786  -0.20251 
 C                    -0.65324   3.25786   0.20251 
 C                     1.3725    2.03296  -0.32081 
 C                    -1.3725    2.03296   0.32081 
 C                     0.72247   0.79567  -0.05039 
 C                    -0.72247   0.79567   0.05039 
 C                     2.76039   2.05393  -0.67427 
 C                     3.50887   0.91392  -0.67136 
 C                     2.95523  -0.30962  -0.17748 
 C                     1.57472  -0.36111   0.19709 
 H                     1.18343   4.19574  -0.3846 
 H                    -1.18343   4.19574   0.3846 
 H                     3.20628   3.01242  -0.95139 
 H                     4.56002   0.93296  -0.96933 
 C                     3.78302  -1.4431    0.02831 
 C                     1.13743  -1.50753   0.91211 
 C                     1.97369  -2.58435   1.13806 
 C                     3.30185  -2.57159   0.66118 
 H                     4.82575  -1.39123  -0.29548 
 H                     0.12465  -1.53279   1.30847 
 H                     1.60359  -3.44568   1.69898 
 H                     3.95274  -3.43353   0.82513 
 C                    -3.50887   0.91392   0.67136 
 C                    -2.76039   2.05393   0.67427 
 C                    -2.95523  -0.30962   0.17748 
 C                    -1.57472  -0.36111  -0.19709 
 C                    -3.78302  -1.4431   -0.02831 
 C                    -3.30185  -2.57159  -0.66118 
 C                    -1.97369  -2.58435  -1.13806 
 C                    -1.13743  -1.50753  -0.91211 
 H                    -4.56002   0.93295   0.96933 
 H                    -3.20628   3.01242   0.95139 
 H                    -4.82575  -1.39123   0.29548 
 H                    -3.95274  -3.43353  -0.82513 
 H                    -1.60359  -3.44568  -1.69898 
 H                    -0.12465  -1.53279  -1.30847 
 Bq                    0.06526   2.14187  -0.99145 
 Bq                    0.04995   2.14942  -0.99145 
 Bq                    0.03378   2.15491  -0.99145 
 Bq                    0.01704   2.15824  -0.99145 
 Bq                   0.         2.15935  -0.99145 
 Bq                   -0.01704   2.15824  -0.99145 
 Bq                   -0.03378   2.15491  -0.99145 
 Bq                   -0.04995   2.14942  -0.99145 
 Bq                   -0.06526   2.14187  -0.99145 
 Bq                   -0.07946   2.13238  -0.99145 
 Bq                   -0.0923    2.12112  -0.99145 
 Bq                   -0.10355   2.10829  -0.99145 
 Bq                   -0.11304   2.09409  -0.99145 
 Bq                   -0.12059   2.07878  -0.99145 
 Bq                   -0.12608   2.06261  -0.99145 
 Bq                   -0.12941   2.04586  -0.99145 
 Bq                   -0.13053   2.02883  -0.99145 
 Bq                   -0.12941   2.01179  -0.99145 
 Bq                   -0.12608   1.99504  -0.99145 
 Bq                   -0.12059   1.97888  -0.99145 
 Bq                   -0.11304   1.96356  -0.99145 
 Bq                   -0.10355   1.94937  -0.99145 
 Bq                   -0.0923    1.93653  -0.99145 
 Bq                   -0.07946   1.92527  -0.99145 
 Bq                   -0.06526   1.91579  -0.99145 
 Bq                   -0.04995   1.90824  -0.99145 
 Bq                   -0.03378   1.90275  -0.99145 
 Bq                   -0.01704   1.89942  -0.99145 
 Bq                   0.         1.8983   -0.99145 
 Bq                    0.01704   1.89942  -0.99145 
 Bq                    0.03378   1.90275  -0.99145 
 Bq                    0.04995   1.90824  -0.99145 
 Bq                    0.06526   1.91579  -0.99145 
 Bq                    0.07946   1.92527  -0.99145 
 Bq                    0.0923    1.93653  -0.99145 
 Bq                    0.10355   1.94937  -0.99145 
 Bq                    0.11304   1.96356  -0.99145 
 Bq                    0.12059   1.97888  -0.99145 
 Bq                    0.12608   1.99504  -0.99145 
 Bq                    0.12941   2.01179  -0.99145 
 Bq                    2.45432  -1.46288   1.45988 
 Bq                    2.45432  -1.46288   1.45988 
 Bq                    2.45432  -1.46288   1.45988 
 Bq                    2.45432  -1.46288   1.45988 
 Bq                    2.45432  -1.46288   1.45988 
 Bq                    2.45432  -1.46288   1.45988 
 Bq                    2.45432  -1.46288   1.45988 
 Bq                    2.45432  -1.46288   1.45988 
 Bq                    2.45432  -1.46288   1.45988 
 Bq                    2.45432  -1.46288   1.45988 
 Bq                    2.45432  -1.46288   1.45988 
 Bq                    2.45432  -1.46288   1.45988 
 Bq                    2.45432  -1.46288   1.45988 
 Bq                    2.45432  -1.46288   1.45988 
 Bq                    2.45432  -1.46288   1.45988 
 Bq                    2.45432  -1.46288   1.45988 
 Bq                    2.45432  -1.46288   1.45988 
 Bq                    2.45432  -1.46288   1.45988 
 Bq                    2.45432  -1.46288   1.45988 
 Bq                    2.45432  -1.46288   1.45988 
 Bq                    2.45432  -1.46288   1.45988 
 Bq                    2.45432  -1.46288   1.45988 
 Bq                    2.45432  -1.46288   1.45988 
 Bq                    2.45432  -1.46288   1.45988 
 Bq                    2.45432  -1.46288   1.45988 
 Bq                    2.45432  -1.46288   1.45988 
 Bq                    2.45432  -1.46288   1.45988 
 Bq                    2.45432  -1.46288   1.45988 
 Bq                    2.45432  -1.46288   1.45988 
 Bq                    2.45432  -1.46288   1.45988 
 Bq                    2.45432  -1.46288   1.45988 
 Bq                    2.45432  -1.46288   1.45988 
 Bq                    2.45432  -1.46288   1.45988 
 Bq                    2.45432  -1.46288   1.45988 
 Bq                    2.45432  -1.46288   1.45988 
 Bq                    2.45432  -1.46288   1.45988 
 Bq                    2.45432  -1.46288   1.45988 
 Bq                    2.45432  -1.46288   1.45988 
 Bq                    2.45432  -1.46288   1.45988 
 Bq                    2.45432  -1.46288   1.45988 
 Bq                    2.45432  -1.46288   1.45988 
 Bq                    2.45432  -1.46288   1.45988 
 Bq                    2.45432  -1.46288   1.45988 
 Bq                    2.45432  -1.46288   1.45988 
 Bq                    2.45432  -1.46288   1.45988 
 Bq                    2.45432  -1.46288   1.45988 
 Bq                    2.45432  -1.46288   1.45988 
 Bq                    2.45432  -1.46288   1.45988 
 Bq                    2.58485  -1.46288   1.45132 
 Bq                    2.58373  -1.44585   1.45132 
 Bq                    2.5804   -1.4291    1.45132 
 Bq                    2.57491  -1.41293   1.45132 
 Bq                    2.56736  -1.39762   1.45132 
 Bq                    2.55788  -1.38342   1.45132 
 Bq                    2.54662  -1.37059   1.45132 
 Bq                    2.53378  -1.35933   1.45132 
 Bq                    2.51959  -1.34985   1.45132 
 Bq                    2.50427  -1.34229   1.45132 
 Bq                    2.48811  -1.33681   1.45132 
 Bq                    2.47136  -1.33347   1.45132 
 Bq                    2.45432  -1.33236   1.45132 
 Bq                    2.43729  -1.33347   1.45132 
 Bq                    2.42054  -1.33681   1.45132 
 Bq                    2.40437  -1.34229   1.45132 
 Bq                    2.38906  -1.34985   1.45132 
 Bq                    2.37486  -1.35933   1.45132 
 Bq                    2.36203  -1.37059   1.45132 
 Bq                    2.35077  -1.38342   1.45132 
 Bq                    2.34128  -1.39762   1.45132 
 Bq                    2.33373  -1.41293   1.45132 
 Bq                    2.32824  -1.4291    1.45132 
 Bq                    2.32491  -1.44585   1.45132 
 Bq                    2.3238   -1.46288   1.45132 
 Bq                    2.32491  -1.47992   1.45132 
 Bq                    2.32824  -1.49667   1.45132 
 Bq                    2.33373  -1.51283   1.45132 
 Bq                    2.34128  -1.52815   1.45132 
 Bq                    2.35077  -1.54234   1.45132 
 Bq                    2.36203  -1.55518   1.45132 
 Bq                    2.37486  -1.56644   1.45132 
 Bq                    2.38906  -1.57592   1.45132 
 Bq                    2.40437  -1.58347   1.45132 
 Bq                    2.42054  -1.58896   1.45132 
 Bq                    2.43729  -1.59229   1.45132 
 Bq                    2.45432  -1.59341   1.45132 
 Bq                    2.47136  -1.59229   1.45132 
 Bq                    2.48811  -1.58896   1.45132 
 Bq                    2.50427  -1.58347   1.45132 
 Bq                    2.51959  -1.57592   1.45132 
 Bq                    2.53378  -1.56644   1.45132 
 Bq                    2.54662  -1.55518   1.45132 
 Bq                    2.55788  -1.54234   1.45132 
 Bq                    2.56736  -1.52815   1.45132 
 Bq                    2.57491  -1.51283   1.45132 
 Bq                    2.5804   -1.49667   1.45132 
 Bq                    2.58373  -1.47992   1.45132 
 Bq                    2.71314  -1.46288   1.4258 
 Bq                    2.71093  -1.4291    1.4258 
 Bq                    2.70432  -1.3959    1.4258 
 Bq                    2.69344  -1.36384   1.4258 
 Bq                    2.67847  -1.33347   1.4258 
 Bq                    2.65966  -1.30532   1.4258 
 Bq                    2.63734  -1.27987   1.4258 
 Bq                    2.61188  -1.25755   1.4258 
 Bq                    2.58373  -1.23874   1.4258 
 Bq                    2.55337  -1.22377   1.4258 
 Bq                    2.52131  -1.21288   1.4258 
 Bq                    2.48811  -1.20628   1.4258 
 Bq                    2.45432  -1.20406   1.4258 
 Bq                    2.42054  -1.20628   1.4258 
 Bq                    2.38734  -1.21288   1.4258 
 Bq                    2.35528  -1.22377   1.4258 
 Bq                    2.32491  -1.23874   1.4258 
 Bq                    2.29676  -1.25755   1.4258 
 Bq                    2.27131  -1.27987   1.4258 
 Bq                    2.24899  -1.30532   1.4258 
 Bq                    2.23018  -1.33347   1.4258 
 Bq                    2.21521  -1.36384   1.4258 
 Bq                    2.20432  -1.3959    1.4258 
 Bq                    2.19772  -1.4291    1.4258 
 Bq                    2.1955   -1.46288   1.4258 
 Bq                    2.19772  -1.49667   1.4258 
 Bq                    2.20432  -1.52987   1.4258 
 Bq                    2.21521  -1.56193   1.4258 
 Bq                    2.23018  -1.59229   1.4258 
 Bq                    2.24899  -1.62044   1.4258 
 Bq                    2.27131  -1.6459    1.4258 
 Bq                    2.29676  -1.66822   1.4258 
 Bq                    2.32491  -1.68703   1.4258 
 Bq                    2.35528  -1.702     1.4258 
 Bq                    2.38734  -1.71288   1.4258 
 Bq                    2.42054  -1.71949   1.4258 
 Bq                    2.45432  -1.7217    1.4258 
 Bq                    2.48811  -1.71949   1.4258 
 Bq                    2.52131  -1.71288   1.4258 
 Bq                    2.55337  -1.702     1.4258 
 Bq                    2.58373  -1.68703   1.4258 
 Bq                    2.61188  -1.66822   1.4258 
 Bq                    2.63734  -1.6459    1.4258 
 Bq                    2.65966  -1.62044   1.4258 
 Bq                    2.67847  -1.59229   1.4258 
 Bq                    2.69344  -1.56193   1.4258 
 Bq                    2.70432  -1.52987   1.4258 
 Bq                    2.71093  -1.49667   1.4258 
 Bq                    2.83701  -1.46288   1.38376 
 Bq                    2.83373  -1.41293   1.38376 
 Bq                    2.82397  -1.36384   1.38376 
 Bq                    2.80788  -1.31644   1.38376 
 Bq                    2.78574  -1.27154   1.38376 
 Bq                    2.75793  -1.22992   1.38376 
 Bq                    2.72492  -1.19229   1.38376 
 Bq                    2.68729  -1.15928   1.38376 
 Bq                    2.64566  -1.13147   1.38376 
 Bq                    2.60077  -1.10933   1.38376 
 Bq                    2.55337  -1.09324   1.38376 
 Bq                    2.50427  -1.08347   1.38376 
 Bq                    2.45432  -1.0802    1.38376 
 Bq                    2.40437  -1.08347   1.38376 
 Bq                    2.35528  -1.09324   1.38376 
 Bq                    2.30788  -1.10933   1.38376 
 
 NAtoms=    236 NQM=      236 NQMF=       0 NMMI=      0 NMMIF=      0
                NMic=       0 NMicF=      0.
                    Isotopes and Nuclear Properties:
 (Nuclear quadrupole moments (NQMom) in fm**2, nuclear magnetic moments (NMagM)
  in nuclear magnetons)

  Atom         1           2           3           4           5           6           7           8           9          10
 IAtWgt=          12          12          12          12          12          12          12          12          12          12
 AtmWgt=  12.0000000  12.0000000  12.0000000  12.0000000  12.0000000  12.0000000  12.0000000  12.0000000  12.0000000  12.0000000
 NucSpn=           0           0           0           0           0           0           0           0           0           0
 AtZEff=   0.0000000   0.0000000   0.0000000   0.0000000   0.0000000   0.0000000   0.0000000   0.0000000   0.0000000   0.0000000
 NQMom=    0.0000000   0.0000000   0.0000000   0.0000000   0.0000000   0.0000000   0.0000000   0.0000000   0.0000000   0.0000000
 NMagM=    0.0000000   0.0000000   0.0000000   0.0000000   0.0000000   0.0000000   0.0000000   0.0000000   0.0000000   0.0000000
 AtZNuc=   6.0000000   6.0000000   6.0000000   6.0000000   6.0000000   6.0000000   6.0000000   6.0000000   6.0000000   6.0000000

  Atom        11          12          13          14          15          16          17          18          19          20
 IAtWgt=           1           1           1           1          12          12          12          12           1           1
 AtmWgt=   1.0078250   1.0078250   1.0078250   1.0078250  12.0000000  12.0000000  12.0000000  12.0000000   1.0078250   1.0078250
 NucSpn=           1           1           1           1           0           0           0           0           1           1
 AtZEff=   0.0000000   0.0000000   0.0000000   0.0000000   0.0000000   0.0000000   0.0000000   0.0000000   0.0000000   0.0000000
 NQMom=    0.0000000   0.0000000   0.0000000   0.0000000   0.0000000   0.0000000   0.0000000   0.0000000   0.0000000   0.0000000
 NMagM=    2.7928460   2.7928460   2.7928460   2.7928460   0.0000000   0.0000000   0.0000000   0.0000000   2.7928460   2.7928460
 AtZNuc=   1.0000000   1.0000000   1.0000000   1.0000000   6.0000000   6.0000000   6.0000000   6.0000000   1.0000000   1.0000000

  Atom        21          22          23          24          25          26          27          28          29          30
 IAtWgt=           1           1          12          12          12          12          12          12          12          12
 AtmWgt=   1.0078250   1.0078250  12.0000000  12.0000000  12.0000000  12.0000000  12.0000000  12.0000000  12.0000000  12.0000000
 NucSpn=           1           1           0           0           0           0           0           0           0           0
 AtZEff=   0.0000000   0.0000000   0.0000000   0.0000000   0.0000000   0.0000000   0.0000000   0.0000000   0.0000000   0.0000000
 NQMom=    0.0000000   0.0000000   0.0000000   0.0000000   0.0000000   0.0000000   0.0000000   0.0000000   0.0000000   0.0000000
 NMagM=    2.7928460   2.7928460   0.0000000   0.0000000   0.0000000   0.0000000   0.0000000   0.0000000   0.0000000   0.0000000
 AtZNuc=   1.0000000   1.0000000   6.0000000   6.0000000   6.0000000   6.0000000   6.0000000   6.0000000   6.0000000   6.0000000

  Atom        31          32          33          34          35          36          37          38          39          40
 IAtWgt=           1           1           1           1           1           1           0           0           0           0
 AtmWgt=   1.0078250   1.0078250   1.0078250   1.0078250   1.0078250   1.0078250   0.0000000   0.0000000   0.0000000   0.0000000
 NucSpn=           1           1           1           1           1           1           0           0           0           0
 AtZEff=   0.0000000   0.0000000   0.0000000   0.0000000   0.0000000   0.0000000   0.0000000   0.0000000   0.0000000   0.0000000
 NQMom=    0.0000000   0.0000000   0.0000000   0.0000000   0.0000000   0.0000000   0.0000000   0.0000000   0.0000000   0.0000000
 NMagM=    2.7928460   2.7928460   2.7928460   2.7928460   2.7928460   2.7928460   0.0000000   0.0000000   0.0000000   0.0000000
 AtZNuc=   1.0000000   1.0000000   1.0000000   1.0000000   1.0000000   1.0000000   0.0000000   0.0000000   0.0000000   0.0000000

  Atom        41          42          43          44          45          46          47          48          49          50
 IAtWgt=           0           0           0           0           0           0           0           0           0           0
 AtmWgt=   0.0000000   0.0000000   0.0000000   0.0000000   0.0000000   0.0000000   0.0000000   0.0000000   0.0000000   0.0000000
 NucSpn=           0           0           0           0           0           0           0           0           0           0
 AtZEff=   0.0000000   0.0000000   0.0000000   0.0000000   0.0000000   0.0000000   0.0000000   0.0000000   0.0000000   0.0000000
 NQMom=    0.0000000   0.0000000   0.0000000   0.0000000   0.0000000   0.0000000   0.0000000   0.0000000   0.0000000   0.0000000
 NMagM=    0.0000000   0.0000000   0.0000000   0.0000000   0.0000000   0.0000000   0.0000000   0.0000000   0.0000000   0.0000000
 AtZNuc=   0.0000000   0.0000000   0.0000000   0.0000000   0.0000000   0.0000000   0.0000000   0.0000000   0.0000000   0.0000000

  Atom        51          52          53          54          55          56          57          58          59          60
 IAtWgt=           0           0           0           0           0           0           0           0           0           0
 AtmWgt=   0.0000000   0.0000000   0.0000000   0.0000000   0.0000000   0.0000000   0.0000000   0.0000000   0.0000000   0.0000000
 NucSpn=           0           0           0           0           0           0           0           0           0           0
 AtZEff=   0.0000000   0.0000000   0.0000000   0.0000000   0.0000000   0.0000000   0.0000000   0.0000000   0.0000000   0.0000000
 NQMom=    0.0000000   0.0000000   0.0000000   0.0000000   0.0000000   0.0000000   0.0000000   0.0000000   0.0000000   0.0000000
 NMagM=    0.0000000   0.0000000   0.0000000   0.0000000   0.0000000   0.0000000   0.0000000   0.0000000   0.0000000   0.0000000
 AtZNuc=   0.0000000   0.0000000   0.0000000   0.0000000   0.0000000   0.0000000   0.0000000   0.0000000   0.0000000   0.0000000

  Atom        61          62          63          64          65          66          67          68          69          70
 IAtWgt=           0           0           0           0           0           0           0           0           0           0
 AtmWgt=   0.0000000   0.0000000   0.0000000   0.0000000   0.0000000   0.0000000   0.0000000   0.0000000   0.0000000   0.0000000
 NucSpn=           0           0           0           0           0           0           0           0           0           0
 AtZEff=   0.0000000   0.0000000   0.0000000   0.0000000   0.0000000   0.0000000   0.0000000   0.0000000   0.0000000   0.0000000
 NQMom=    0.0000000   0.0000000   0.0000000   0.0000000   0.0000000   0.0000000   0.0000000   0.0000000   0.0000000   0.0000000
 NMagM=    0.0000000   0.0000000   0.0000000   0.0000000   0.0000000   0.0000000   0.0000000   0.0000000   0.0000000   0.0000000
 AtZNuc=   0.0000000   0.0000000   0.0000000   0.0000000   0.0000000   0.0000000   0.0000000   0.0000000   0.0000000   0.0000000

  Atom        71          72          73          74          75          76          77          78          79          80
 IAtWgt=           0           0           0           0           0           0           0           0           0           0
 AtmWgt=   0.0000000   0.0000000   0.0000000   0.0000000   0.0000000   0.0000000   0.0000000   0.0000000   0.0000000   0.0000000
 NucSpn=           0           0           0           0           0           0           0           0           0           0
 AtZEff=   0.0000000   0.0000000   0.0000000   0.0000000   0.0000000   0.0000000   0.0000000   0.0000000   0.0000000   0.0000000
 NQMom=    0.0000000   0.0000000   0.0000000   0.0000000   0.0000000   0.0000000   0.0000000   0.0000000   0.0000000   0.0000000
 NMagM=    0.0000000   0.0000000   0.0000000   0.0000000   0.0000000   0.0000000   0.0000000   0.0000000   0.0000000   0.0000000
 AtZNuc=   0.0000000   0.0000000   0.0000000   0.0000000   0.0000000   0.0000000   0.0000000   0.0000000   0.0000000   0.0000000

  Atom        81          82          83          84          85          86          87          88          89          90
 IAtWgt=           0           0           0           0           0           0           0           0           0           0
 AtmWgt=   0.0000000   0.0000000   0.0000000   0.0000000   0.0000000   0.0000000   0.0000000   0.0000000   0.0000000   0.0000000
 NucSpn=           0           0           0           0           0           0           0           0           0           0
 AtZEff=   0.0000000   0.0000000   0.0000000   0.0000000   0.0000000   0.0000000   0.0000000   0.0000000   0.0000000   0.0000000
 NQMom=    0.0000000   0.0000000   0.0000000   0.0000000   0.0000000   0.0000000   0.0000000   0.0000000   0.0000000   0.0000000
 NMagM=    0.0000000   0.0000000   0.0000000   0.0000000   0.0000000   0.0000000   0.0000000   0.0000000   0.0000000   0.0000000
 AtZNuc=   0.0000000   0.0000000   0.0000000   0.0000000   0.0000000   0.0000000   0.0000000   0.0000000   0.0000000   0.0000000

  Atom        91          92          93          94          95          96          97          98          99         100
 IAtWgt=           0           0           0           0           0           0           0           0           0           0
 AtmWgt=   0.0000000   0.0000000   0.0000000   0.0000000   0.0000000   0.0000000   0.0000000   0.0000000   0.0000000   0.0000000
 NucSpn=           0           0           0           0           0           0           0           0           0           0
 AtZEff=   0.0000000   0.0000000   0.0000000   0.0000000   0.0000000   0.0000000   0.0000000   0.0000000   0.0000000   0.0000000
 NQMom=    0.0000000   0.0000000   0.0000000   0.0000000   0.0000000   0.0000000   0.0000000   0.0000000   0.0000000   0.0000000
 NMagM=    0.0000000   0.0000000   0.0000000   0.0000000   0.0000000   0.0000000   0.0000000   0.0000000   0.0000000   0.0000000
 AtZNuc=   0.0000000   0.0000000   0.0000000   0.0000000   0.0000000   0.0000000   0.0000000   0.0000000   0.0000000   0.0000000

  Atom       101         102         103         104         105         106         107         108         109         110
 IAtWgt=           0           0           0           0           0           0           0           0           0           0
 AtmWgt=   0.0000000   0.0000000   0.0000000   0.0000000   0.0000000   0.0000000   0.0000000   0.0000000   0.0000000   0.0000000
 NucSpn=           0           0           0           0           0           0           0           0           0           0
 AtZEff=   0.0000000   0.0000000   0.0000000   0.0000000   0.0000000   0.0000000   0.0000000   0.0000000   0.0000000   0.0000000
 NQMom=    0.0000000   0.0000000   0.0000000   0.0000000   0.0000000   0.0000000   0.0000000   0.0000000   0.0000000   0.0000000
 NMagM=    0.0000000   0.0000000   0.0000000   0.0000000   0.0000000   0.0000000   0.0000000   0.0000000   0.0000000   0.0000000
 AtZNuc=   0.0000000   0.0000000   0.0000000   0.0000000   0.0000000   0.0000000   0.0000000   0.0000000   0.0000000   0.0000000

  Atom       111         112         113         114         115         116         117         118         119         120
 IAtWgt=           0           0           0           0           0           0           0           0           0           0
 AtmWgt=   0.0000000   0.0000000   0.0000000   0.0000000   0.0000000   0.0000000   0.0000000   0.0000000   0.0000000   0.0000000
 NucSpn=           0           0           0           0           0           0           0           0           0           0
 AtZEff=   0.0000000   0.0000000   0.0000000   0.0000000   0.0000000   0.0000000   0.0000000   0.0000000   0.0000000   0.0000000
 NQMom=    0.0000000   0.0000000   0.0000000   0.0000000   0.0000000   0.0000000   0.0000000   0.0000000   0.0000000   0.0000000
 NMagM=    0.0000000   0.0000000   0.0000000   0.0000000   0.0000000   0.0000000   0.0000000   0.0000000   0.0000000   0.0000000
 AtZNuc=   0.0000000   0.0000000   0.0000000   0.0000000   0.0000000   0.0000000   0.0000000   0.0000000   0.0000000   0.0000000

  Atom       121         122         123         124         125         126         127         128         129         130
 IAtWgt=           0           0           0           0           0           0           0           0           0           0
 AtmWgt=   0.0000000   0.0000000   0.0000000   0.0000000   0.0000000   0.0000000   0.0000000   0.0000000   0.0000000   0.0000000
 NucSpn=           0           0           0           0           0           0           0           0           0           0
 AtZEff=   0.0000000   0.0000000   0.0000000   0.0000000   0.0000000   0.0000000   0.0000000   0.0000000   0.0000000   0.0000000
 NQMom=    0.0000000   0.0000000   0.0000000   0.0000000   0.0000000   0.0000000   0.0000000   0.0000000   0.0000000   0.0000000
 NMagM=    0.0000000   0.0000000   0.0000000   0.0000000   0.0000000   0.0000000   0.0000000   0.0000000   0.0000000   0.0000000
 AtZNuc=   0.0000000   0.0000000   0.0000000   0.0000000   0.0000000   0.0000000   0.0000000   0.0000000   0.0000000   0.0000000

  Atom       131         132         133         134         135         136         137         138         139         140
 IAtWgt=           0           0           0           0           0           0           0           0           0           0
 AtmWgt=   0.0000000   0.0000000   0.0000000   0.0000000   0.0000000   0.0000000   0.0000000   0.0000000   0.0000000   0.0000000
 NucSpn=           0           0           0           0           0           0           0           0           0           0
 AtZEff=   0.0000000   0.0000000   0.0000000   0.0000000   0.0000000   0.0000000   0.0000000   0.0000000   0.0000000   0.0000000
 NQMom=    0.0000000   0.0000000   0.0000000   0.0000000   0.0000000   0.0000000   0.0000000   0.0000000   0.0000000   0.0000000
 NMagM=    0.0000000   0.0000000   0.0000000   0.0000000   0.0000000   0.0000000   0.0000000   0.0000000   0.0000000   0.0000000
 AtZNuc=   0.0000000   0.0000000   0.0000000   0.0000000   0.0000000   0.0000000   0.0000000   0.0000000   0.0000000   0.0000000

  Atom       141         142         143         144         145         146         147         148         149         150
 IAtWgt=           0           0           0           0           0           0           0           0           0           0
 AtmWgt=   0.0000000   0.0000000   0.0000000   0.0000000   0.0000000   0.0000000   0.0000000   0.0000000   0.0000000   0.0000000
 NucSpn=           0           0           0           0           0           0           0           0           0           0
 AtZEff=   0.0000000   0.0000000   0.0000000   0.0000000   0.0000000   0.0000000   0.0000000   0.0000000   0.0000000   0.0000000
 NQMom=    0.0000000   0.0000000   0.0000000   0.0000000   0.0000000   0.0000000   0.0000000   0.0000000   0.0000000   0.0000000
 NMagM=    0.0000000   0.0000000   0.0000000   0.0000000   0.0000000   0.0000000   0.0000000   0.0000000   0.0000000   0.0000000
 AtZNuc=   0.0000000   0.0000000   0.0000000   0.0000000   0.0000000   0.0000000   0.0000000   0.0000000   0.0000000   0.0000000

  Atom       151         152         153         154         155         156         157         158         159         160
 IAtWgt=           0           0           0           0           0           0           0           0           0           0
 AtmWgt=   0.0000000   0.0000000   0.0000000   0.0000000   0.0000000   0.0000000   0.0000000   0.0000000   0.0000000   0.0000000
 NucSpn=           0           0           0           0           0           0           0           0           0           0
 AtZEff=   0.0000000   0.0000000   0.0000000   0.0000000   0.0000000   0.0000000   0.0000000   0.0000000   0.0000000   0.0000000
 NQMom=    0.0000000   0.0000000   0.0000000   0.0000000   0.0000000   0.0000000   0.0000000   0.0000000   0.0000000   0.0000000
 NMagM=    0.0000000   0.0000000   0.0000000   0.0000000   0.0000000   0.0000000   0.0000000   0.0000000   0.0000000   0.0000000
 AtZNuc=   0.0000000   0.0000000   0.0000000   0.0000000   0.0000000   0.0000000   0.0000000   0.0000000   0.0000000   0.0000000

  Atom       161         162         163         164         165         166         167         168         169         170
 IAtWgt=           0           0           0           0           0           0           0           0           0           0
 AtmWgt=   0.0000000   0.0000000   0.0000000   0.0000000   0.0000000   0.0000000   0.0000000   0.0000000   0.0000000   0.0000000
 NucSpn=           0           0           0           0           0           0           0           0           0           0
 AtZEff=   0.0000000   0.0000000   0.0000000   0.0000000   0.0000000   0.0000000   0.0000000   0.0000000   0.0000000   0.0000000
 NQMom=    0.0000000   0.0000000   0.0000000   0.0000000   0.0000000   0.0000000   0.0000000   0.0000000   0.0000000   0.0000000
 NMagM=    0.0000000   0.0000000   0.0000000   0.0000000   0.0000000   0.0000000   0.0000000   0.0000000   0.0000000   0.0000000
 AtZNuc=   0.0000000   0.0000000   0.0000000   0.0000000   0.0000000   0.0000000   0.0000000   0.0000000   0.0000000   0.0000000

  Atom       171         172         173         174         175         176         177         178         179         180
 IAtWgt=           0           0           0           0           0           0           0           0           0           0
 AtmWgt=   0.0000000   0.0000000   0.0000000   0.0000000   0.0000000   0.0000000   0.0000000   0.0000000   0.0000000   0.0000000
 NucSpn=           0           0           0           0           0           0           0           0           0           0
 AtZEff=   0.0000000   0.0000000   0.0000000   0.0000000   0.0000000   0.0000000   0.0000000   0.0000000   0.0000000   0.0000000
 NQMom=    0.0000000   0.0000000   0.0000000   0.0000000   0.0000000   0.0000000   0.0000000   0.0000000   0.0000000   0.0000000
 NMagM=    0.0000000   0.0000000   0.0000000   0.0000000   0.0000000   0.0000000   0.0000000   0.0000000   0.0000000   0.0000000
 AtZNuc=   0.0000000   0.0000000   0.0000000   0.0000000   0.0000000   0.0000000   0.0000000   0.0000000   0.0000000   0.0000000

  Atom       181         182         183         184         185         186         187         188         189         190
 IAtWgt=           0           0           0           0           0           0           0           0           0           0
 AtmWgt=   0.0000000   0.0000000   0.0000000   0.0000000   0.0000000   0.0000000   0.0000000   0.0000000   0.0000000   0.0000000
 NucSpn=           0           0           0           0           0           0           0           0           0           0
 AtZEff=   0.0000000   0.0000000   0.0000000   0.0000000   0.0000000   0.0000000   0.0000000   0.0000000   0.0000000   0.0000000
 NQMom=    0.0000000   0.0000000   0.0000000   0.0000000   0.0000000   0.0000000   0.0000000   0.0000000   0.0000000   0.0000000
 NMagM=    0.0000000   0.0000000   0.0000000   0.0000000   0.0000000   0.0000000   0.0000000   0.0000000   0.0000000   0.0000000
 AtZNuc=   0.0000000   0.0000000   0.0000000   0.0000000   0.0000000   0.0000000   0.0000000   0.0000000   0.0000000   0.0000000

  Atom       191         192         193         194         195         196         197         198         199         200
 IAtWgt=           0           0           0           0           0           0           0           0           0           0
 AtmWgt=   0.0000000   0.0000000   0.0000000   0.0000000   0.0000000   0.0000000   0.0000000   0.0000000   0.0000000   0.0000000
 NucSpn=           0           0           0           0           0           0           0           0           0           0
 AtZEff=   0.0000000   0.0000000   0.0000000   0.0000000   0.0000000   0.0000000   0.0000000   0.0000000   0.0000000   0.0000000
 NQMom=    0.0000000   0.0000000   0.0000000   0.0000000   0.0000000   0.0000000   0.0000000   0.0000000   0.0000000   0.0000000
 NMagM=    0.0000000   0.0000000   0.0000000   0.0000000   0.0000000   0.0000000   0.0000000   0.0000000   0.0000000   0.0000000
 AtZNuc=   0.0000000   0.0000000   0.0000000   0.0000000   0.0000000   0.0000000   0.0000000   0.0000000   0.0000000   0.0000000

  Atom       201         202         203         204         205         206         207         208         209         210
 IAtWgt=           0           0           0           0           0           0           0           0           0           0
 AtmWgt=   0.0000000   0.0000000   0.0000000   0.0000000   0.0000000   0.0000000   0.0000000   0.0000000   0.0000000   0.0000000
 NucSpn=           0           0           0           0           0           0           0           0           0           0
 AtZEff=   0.0000000   0.0000000   0.0000000   0.0000000   0.0000000   0.0000000   0.0000000   0.0000000   0.0000000   0.0000000
 NQMom=    0.0000000   0.0000000   0.0000000   0.0000000   0.0000000   0.0000000   0.0000000   0.0000000   0.0000000   0.0000000
 NMagM=    0.0000000   0.0000000   0.0000000   0.0000000   0.0000000   0.0000000   0.0000000   0.0000000   0.0000000   0.0000000
 AtZNuc=   0.0000000   0.0000000   0.0000000   0.0000000   0.0000000   0.0000000   0.0000000   0.0000000   0.0000000   0.0000000

  Atom       211         212         213         214         215         216         217         218         219         220
 IAtWgt=           0           0           0           0           0           0           0           0           0           0
 AtmWgt=   0.0000000   0.0000000   0.0000000   0.0000000   0.0000000   0.0000000   0.0000000   0.0000000   0.0000000   0.0000000
 NucSpn=           0           0           0           0           0           0           0           0           0           0
 AtZEff=   0.0000000   0.0000000   0.0000000   0.0000000   0.0000000   0.0000000   0.0000000   0.0000000   0.0000000   0.0000000
 NQMom=    0.0000000   0.0000000   0.0000000   0.0000000   0.0000000   0.0000000   0.0000000   0.0000000   0.0000000   0.0000000
 NMagM=    0.0000000   0.0000000   0.0000000   0.0000000   0.0000000   0.0000000   0.0000000   0.0000000   0.0000000   0.0000000
 AtZNuc=   0.0000000   0.0000000   0.0000000   0.0000000   0.0000000   0.0000000   0.0000000   0.0000000   0.0000000   0.0000000

  Atom       221         222         223         224         225         226         227         228         229         230
 IAtWgt=           0           0           0           0           0           0           0           0           0           0
 AtmWgt=   0.0000000   0.0000000   0.0000000   0.0000000   0.0000000   0.0000000   0.0000000   0.0000000   0.0000000   0.0000000
 NucSpn=           0           0           0           0           0           0           0           0           0           0
 AtZEff=   0.0000000   0.0000000   0.0000000   0.0000000   0.0000000   0.0000000   0.0000000   0.0000000   0.0000000   0.0000000
 NQMom=    0.0000000   0.0000000   0.0000000   0.0000000   0.0000000   0.0000000   0.0000000   0.0000000   0.0000000   0.0000000
 NMagM=    0.0000000   0.0000000   0.0000000   0.0000000   0.0000000   0.0000000   0.0000000   0.0000000   0.0000000   0.0000000
 AtZNuc=   0.0000000   0.0000000   0.0000000   0.0000000   0.0000000   0.0000000   0.0000000   0.0000000   0.0000000   0.0000000

  Atom       231         232         233         234         235         236
 IAtWgt=           0           0           0           0           0           0
 AtmWgt=   0.0000000   0.0000000   0.0000000   0.0000000   0.0000000   0.0000000
 NucSpn=           0           0           0           0           0           0
 AtZEff=   0.0000000   0.0000000   0.0000000   0.0000000   0.0000000   0.0000000
 NQMom=    0.0000000   0.0000000   0.0000000   0.0000000   0.0000000   0.0000000
 NMagM=    0.0000000   0.0000000   0.0000000   0.0000000   0.0000000   0.0000000
 AtZNuc=   0.0000000   0.0000000   0.0000000   0.0000000   0.0000000   0.0000000
 Leave Link  101 at Tue Sep 15 14:28:07 2020, MaxMem=   131072000 cpu:         4.2
 (Enter /share/programs/GAUSSIAN/64/g09/l202.exe)
 Symmetry turned off:
 Cannot cope with ghost atoms or with translation vectors.
 Stoichiometry    C22H14
 Framework group  C1[X(C22H14)]
 NUMDOF-- NAT=    36 NAtoms=   236
 Deg. of freedom     0
 Full point group                 C1      NOp   1
                          Input orientation:                          
 ---------------------------------------------------------------------
 Center     Atomic      Atomic             Coordinates (Angstroms)
 Number     Number       Type             X           Y           Z
 ---------------------------------------------------------------------
      1          6           0        0.653241    3.257859   -0.202510
      2          6           0       -0.653243    3.257860    0.202510
      3          6           0        1.372495    2.032956   -0.320807
      4          6           0       -1.372495    2.032956    0.320807
      5          6           0        0.722474    0.795666   -0.050388
      6          6           0       -0.722474    0.795667    0.050387
      7          6           0        2.760385    2.053927   -0.674268
      8          6           0        3.508866    0.913916   -0.671362
      9          6           0        2.955226   -0.309622   -0.177479
     10          6           0        1.574722   -0.361114    0.197094
     11          1           0        1.183427    4.195740   -0.384599
     12          1           0       -1.183429    4.195740    0.384599
     13          1           0        3.206283    3.012423   -0.951392
     14          1           0        4.560023    0.932956   -0.969333
     15          6           0        3.783020   -1.443098    0.028309
     16          6           0        1.137427   -1.507533    0.912109
     17          6           0        1.973691   -2.584349    1.138062
     18          6           0        3.301853   -2.571588    0.661177
     19          1           0        4.825754   -1.391230   -0.295484
     20          1           0        0.124652   -1.532788    1.308472
     21          1           0        1.603586   -3.445682    1.698977
     22          1           0        3.952742   -3.433526    0.825134
     23          6           0       -3.508866    0.913915    0.671362
     24          6           0       -2.760386    2.053926    0.674268
     25          6           0       -2.955226   -0.309623    0.177479
     26          6           0       -1.574722   -0.361114   -0.197094
     27          6           0       -3.783020   -1.443099   -0.028309
     28          6           0       -3.301852   -2.571589   -0.661177
     29          6           0       -1.973690   -2.584349   -1.138061
     30          6           0       -1.137426   -1.507534   -0.912109
     31          1           0       -4.560022    0.932954    0.969334
     32          1           0       -3.206283    3.012421    0.951392
     33          1           0       -4.825754   -1.391232    0.295484
     34          1           0       -3.952741   -3.433528   -0.825134
     35          1           0       -1.603585   -3.445682   -1.698976
     36          1           0       -0.124652   -1.532788   -1.308471
     37          0           0        0.065263    2.141866   -0.991445
     38          0           0        0.049950    2.149418   -0.991445
     39          0           0        0.033782    2.154906   -0.991445
     40          0           0        0.017037    2.158237   -0.991445
     41          0           0        0.000000    2.159354   -0.991445
     42          0           0       -0.017037    2.158237   -0.991445
     43          0           0       -0.033783    2.154906   -0.991445
     44          0           0       -0.049951    2.149418   -0.991445
     45          0           0       -0.065263    2.141866   -0.991445
     46          0           0       -0.079460    2.132381   -0.991445
     47          0           0       -0.092296    2.121123   -0.991445
     48          0           0       -0.103554    2.108287   -0.991445
     49          0           0       -0.113039    2.094090   -0.991445
     50          0           0       -0.120591    2.078778   -0.991445
     51          0           0       -0.126079    2.062610   -0.991445
     52          0           0       -0.129410    2.045864   -0.991445
     53          0           0       -0.130527    2.028827   -0.991445
     54          0           0       -0.129410    2.011790   -0.991445
     55          0           0       -0.126079    1.995045   -0.991445
     56          0           0       -0.120591    1.978877   -0.991445
     57          0           0       -0.113039    1.963564   -0.991445
     58          0           0       -0.103554    1.949368   -0.991445
     59          0           0       -0.092296    1.936531   -0.991445
     60          0           0       -0.079460    1.925274   -0.991445
     61          0           0       -0.065263    1.915788   -0.991445
     62          0           0       -0.049951    1.908237   -0.991445
     63          0           0       -0.033783    1.902749   -0.991445
     64          0           0       -0.017037    1.899418   -0.991445
     65          0           0        0.000000    1.898301   -0.991445
     66          0           0        0.017037    1.899418   -0.991445
     67          0           0        0.033782    1.902749   -0.991445
     68          0           0        0.049950    1.908237   -0.991445
     69          0           0        0.065263    1.915788   -0.991445
     70          0           0        0.079459    1.925274   -0.991445
     71          0           0        0.092296    1.936531   -0.991445
     72          0           0        0.103553    1.949368   -0.991445
     73          0           0        0.113039    1.963564   -0.991445
     74          0           0        0.120590    1.978877   -0.991445
     75          0           0        0.126078    1.995045   -0.991445
     76          0           0        0.129409    2.011790   -0.991445
     77          0           0        2.454323   -1.462884    1.459879
     78          0           0        2.454323   -1.462884    1.459879
     79          0           0        2.454323   -1.462884    1.459879
     80          0           0        2.454323   -1.462884    1.459879
     81          0           0        2.454323   -1.462884    1.459879
     82          0           0        2.454323   -1.462884    1.459879
     83          0           0        2.454323   -1.462884    1.459879
     84          0           0        2.454323   -1.462884    1.459879
     85          0           0        2.454323   -1.462884    1.459879
     86          0           0        2.454323   -1.462884    1.459879
     87          0           0        2.454323   -1.462884    1.459879
     88          0           0        2.454323   -1.462884    1.459879
     89          0           0        2.454323   -1.462884    1.459879
     90          0           0        2.454323   -1.462884    1.459879
     91          0           0        2.454323   -1.462884    1.459879
     92          0           0        2.454323   -1.462884    1.459879
     93          0           0        2.454323   -1.462884    1.459879
     94          0           0        2.454323   -1.462884    1.459879
     95          0           0        2.454323   -1.462884    1.459879
     96          0           0        2.454323   -1.462884    1.459879
     97          0           0        2.454323   -1.462884    1.459879
     98          0           0        2.454323   -1.462884    1.459879
     99          0           0        2.454323   -1.462884    1.459879
    100          0           0        2.454323   -1.462884    1.459879
    101          0           0        2.454323   -1.462884    1.459879
    102          0           0        2.454323   -1.462884    1.459879
    103          0           0        2.454323   -1.462884    1.459879
    104          0           0        2.454323   -1.462884    1.459879
    105          0           0        2.454323   -1.462884    1.459879
    106          0           0        2.454323   -1.462884    1.459879
    107          0           0        2.454323   -1.462884    1.459879
    108          0           0        2.454323   -1.462884    1.459879
    109          0           0        2.454323   -1.462884    1.459879
    110          0           0        2.454323   -1.462884    1.459879
    111          0           0        2.454323   -1.462884    1.459879
    112          0           0        2.454323   -1.462884    1.459879
    113          0           0        2.454323   -1.462884    1.459879
    114          0           0        2.454323   -1.462884    1.459879
    115          0           0        2.454323   -1.462884    1.459879
    116          0           0        2.454323   -1.462884    1.459879
    117          0           0        2.454323   -1.462884    1.459879
    118          0           0        2.454323   -1.462884    1.459879
    119          0           0        2.454323   -1.462884    1.459879
    120          0           0        2.454323   -1.462884    1.459879
    121          0           0        2.454323   -1.462884    1.459879
    122          0           0        2.454323   -1.462884    1.459879
    123          0           0        2.454323   -1.462884    1.459879
    124          0           0        2.454323   -1.462884    1.459879
    125          0           0        2.584849   -1.462884    1.451324
    126          0           0        2.583733   -1.445847    1.451324
    127          0           0        2.580402   -1.429101    1.451324
    128          0           0        2.574914   -1.412934    1.451324
    129          0           0        2.567362   -1.397621    1.451324
    130          0           0        2.557877   -1.383425    1.451324
    131          0           0        2.546619   -1.370588    1.451324
    132          0           0        2.533782   -1.359331    1.451324
    133          0           0        2.519586   -1.349845    1.451324
    134          0           0        2.504273   -1.342294    1.451324
    135          0           0        2.488106   -1.336805    1.451324
    136          0           0        2.471360   -1.333474    1.451324
    137          0           0        2.454323   -1.332358    1.451324
    138          0           0        2.437286   -1.333474    1.451324
    139          0           0        2.420541   -1.336805    1.451324
    140          0           0        2.404373   -1.342294    1.451324
    141          0           0        2.389060   -1.349845    1.451324
    142          0           0        2.374864   -1.359331    1.451324
    143          0           0        2.362027   -1.370588    1.451324
    144          0           0        2.350770   -1.383425    1.451324
    145          0           0        2.341284   -1.397621    1.451324
    146          0           0        2.333733   -1.412934    1.451324
    147          0           0        2.328245   -1.429101    1.451324
    148          0           0        2.324914   -1.445847    1.451324
    149          0           0        2.323797   -1.462884    1.451324
    150          0           0        2.324914   -1.479921    1.451324
    151          0           0        2.328245   -1.496667    1.451324
    152          0           0        2.333733   -1.512834    1.451324
    153          0           0        2.341284   -1.528147    1.451324
    154          0           0        2.350770   -1.542343    1.451324
    155          0           0        2.362027   -1.555180    1.451324
    156          0           0        2.374864   -1.566437    1.451324
    157          0           0        2.389060   -1.575923    1.451324
    158          0           0        2.404373   -1.583474    1.451324
    159          0           0        2.420541   -1.588963    1.451324
    160          0           0        2.437286   -1.592294    1.451324
    161          0           0        2.454323   -1.593410    1.451324
    162          0           0        2.471360   -1.592294    1.451324
    163          0           0        2.488106   -1.588963    1.451324
    164          0           0        2.504273   -1.583474    1.451324
    165          0           0        2.519586   -1.575923    1.451324
    166          0           0        2.533782   -1.566437    1.451324
    167          0           0        2.546619   -1.555180    1.451324
    168          0           0        2.557877   -1.542343    1.451324
    169          0           0        2.567362   -1.528147    1.451324
    170          0           0        2.574914   -1.512834    1.451324
    171          0           0        2.580402   -1.496667    1.451324
    172          0           0        2.583733   -1.479921    1.451324
    173          0           0        2.713142   -1.462884    1.425804
    174          0           0        2.710928   -1.429101    1.425804
    175          0           0        2.704323   -1.395897    1.425804
    176          0           0        2.693441   -1.363838    1.425804
    177          0           0        2.678467   -1.333474    1.425804
    178          0           0        2.659658   -1.305325    1.425804
    179          0           0        2.637336   -1.279871    1.425804
    180          0           0        2.611882   -1.257549    1.425804
    181          0           0        2.583733   -1.238740    1.425804
    182          0           0        2.553369   -1.223766    1.425804
    183          0           0        2.521310   -1.212884    1.425804
    184          0           0        2.488106   -1.206279    1.425804
    185          0           0        2.454323   -1.204065    1.425804
    186          0           0        2.420541   -1.206279    1.425804
    187          0           0        2.387336   -1.212884    1.425804
    188          0           0        2.355277   -1.223766    1.425804
    189          0           0        2.324914   -1.238740    1.425804
    190          0           0        2.296764   -1.257549    1.425804
    191          0           0        2.271310   -1.279871    1.425804
    192          0           0        2.248988   -1.305325    1.425804
    193          0           0        2.230179   -1.333474    1.425804
    194          0           0        2.215206   -1.363838    1.425804
    195          0           0        2.204323   -1.395897    1.425804
    196          0           0        2.197718   -1.429101    1.425804
    197          0           0        2.195504   -1.462884    1.425804
    198          0           0        2.197718   -1.496667    1.425804
    199          0           0        2.204323   -1.529871    1.425804
    200          0           0        2.215206   -1.561930    1.425804
    201          0           0        2.230179   -1.592294    1.425804
    202          0           0        2.248988   -1.620443    1.425804
    203          0           0        2.271310   -1.645897    1.425804
    204          0           0        2.296764   -1.668219    1.425804
    205          0           0        2.324914   -1.687028    1.425804
    206          0           0        2.355277   -1.702002    1.425804
    207          0           0        2.387336   -1.712884    1.425804
    208          0           0        2.420541   -1.719489    1.425804
    209          0           0        2.454323   -1.721703    1.425804
    210          0           0        2.488106   -1.719489    1.425804
    211          0           0        2.521310   -1.712884    1.425804
    212          0           0        2.553369   -1.702002    1.425804
    213          0           0        2.583733   -1.687028    1.425804
    214          0           0        2.611882   -1.668219    1.425804
    215          0           0        2.637336   -1.645897    1.425804
    216          0           0        2.659658   -1.620443    1.425804
    217          0           0        2.678467   -1.592294    1.425804
    218          0           0        2.693441   -1.561930    1.425804
    219          0           0        2.704323   -1.529871    1.425804
    220          0           0        2.710928   -1.496667    1.425804
    221          0           0        2.837007   -1.462884    1.383758
    222          0           0        2.833733   -1.412934    1.383758
    223          0           0        2.823967   -1.363838    1.383758
    224          0           0        2.807877   -1.316437    1.383758
    225          0           0        2.785737   -1.271542    1.383758
    226          0           0        2.757926   -1.229921    1.383758
    227          0           0        2.724921   -1.192286    1.383758
    228          0           0        2.687286   -1.159281    1.383758
    229          0           0        2.645665   -1.131470    1.383758
    230          0           0        2.600770   -1.109331    1.383758
    231          0           0        2.553369   -1.093240    1.383758
    232          0           0        2.504273   -1.083474    1.383758
    233          0           0        2.454323   -1.080201    1.383758
    234          0           0        2.404373   -1.083474    1.383758
    235          0           0        2.355277   -1.093240    1.383758
    236          0           0        2.307877   -1.109331    1.383758
 ---------------------------------------------------------------------
 Rotational constants (GHZ):      0.4454681      0.2811480      0.1854303
 Leave Link  202 at Tue Sep 15 14:28:07 2020, MaxMem=   131072000 cpu:         0.0
 (Enter /share/programs/GAUSSIAN/64/g09/l301.exe)
 Standard basis: 6-311+G(d,p) (5D, 7F)
 Warning:  center  37 has no basis functions!
 Warning:  center  38 has no basis functions!
 Warning:  center  39 has no basis functions!
 Warning:  center  40 has no basis functions!
 Warning:  center  41 has no basis functions!
 Warning:  center  42 has no basis functions!
 Warning:  center  43 has no basis functions!
 Warning:  center  44 has no basis functions!
 Warning:  center  45 has no basis functions!
 Warning:  center  46 has no basis functions!
 Warning:  center  47 has no basis functions!
 Warning:  center  48 has no basis functions!
 Warning:  center  49 has no basis functions!
 Warning:  center  50 has no basis functions!
 Warning:  center  51 has no basis functions!
 Warning:  center  52 has no basis functions!
 Warning:  center  53 has no basis functions!
 Warning:  center  54 has no basis functions!
 Warning:  center  55 has no basis functions!
 Warning:  center  56 has no basis functions!
 Warning:  center  57 has no basis functions!
 Warning:  center  58 has no basis functions!
 Warning:  center  59 has no basis functions!
 Warning:  center  60 has no basis functions!
 Warning:  center  61 has no basis functions!
 Warning:  center  62 has no basis functions!
 Warning:  center  63 has no basis functions!
 Warning:  center  64 has no basis functions!
 Warning:  center  65 has no basis functions!
 Warning:  center  66 has no basis functions!
 Warning:  center  67 has no basis functions!
 Warning:  center  68 has no basis functions!
 Warning:  center  69 has no basis functions!
 Warning:  center  70 has no basis functions!
 Warning:  center  71 has no basis functions!
 Warning:  center  72 has no basis functions!
 Warning:  center  73 has no basis functions!
 Warning:  center  74 has no basis functions!
 Warning:  center  75 has no basis functions!
 Warning:  center  76 has no basis functions!
 Warning:  center  77 has no basis functions!
 Warning:  center  78 has no basis functions!
 Warning:  center  79 has no basis functions!
 Warning:  center  80 has no basis functions!
 Warning:  center  81 has no basis functions!
 Warning:  center  82 has no basis functions!
 Warning:  center  83 has no basis functions!
 Warning:  center  84 has no basis functions!
 Warning:  center  85 has no basis functions!
 Warning:  center  86 has no basis functions!
 Warning:  center  87 has no basis functions!
 Warning:  center  88 has no basis functions!
 Warning:  center  89 has no basis functions!
 Warning:  center  90 has no basis functions!
 Warning:  center  91 has no basis functions!
 Warning:  center  92 has no basis functions!
 Warning:  center  93 has no basis functions!
 Warning:  center  94 has no basis functions!
 Warning:  center  95 has no basis functions!
 Warning:  center  96 has no basis functions!
 Warning:  center  97 has no basis functions!
 Warning:  center  98 has no basis functions!
 Warning:  center  99 has no basis functions!
 Warning:  center 100 has no basis functions!
 Warning:  center 101 has no basis functions!
 Warning:  center 102 has no basis functions!
 Warning:  center 103 has no basis functions!
 Warning:  center 104 has no basis functions!
 Warning:  center 105 has no basis functions!
 Warning:  center 106 has no basis functions!
 Warning:  center 107 has no basis functions!
 Warning:  center 108 has no basis functions!
 Warning:  center 109 has no basis functions!
 Warning:  center 110 has no basis functions!
 Warning:  center 111 has no basis functions!
 Warning:  center 112 has no basis functions!
 Warning:  center 113 has no basis functions!
 Warning:  center 114 has no basis functions!
 Warning:  center 115 has no basis functions!
 Warning:  center 116 has no basis functions!
 Warning:  center 117 has no basis functions!
 Warning:  center 118 has no basis functions!
 Warning:  center 119 has no basis functions!
 Warning:  center 120 has no basis functions!
 Warning:  center 121 has no basis functions!
 Warning:  center 122 has no basis functions!
 Warning:  center 123 has no basis functions!
 Warning:  center 124 has no basis functions!
 Warning:  center 125 has no basis functions!
 Warning:  center 126 has no basis functions!
 Warning:  center 127 has no basis functions!
 Warning:  center 128 has no basis functions!
 Warning:  center 129 has no basis functions!
 Warning:  center 130 has no basis functions!
 Warning:  center 131 has no basis functions!
 Warning:  center 132 has no basis functions!
 Warning:  center 133 has no basis functions!
 Warning:  center 134 has no basis functions!
 Warning:  center 135 has no basis functions!
 Warning:  center 136 has no basis functions!
 Warning:  center 137 has no basis functions!
 Warning:  center 138 has no basis functions!
 Warning:  center 139 has no basis functions!
 Warning:  center 140 has no basis functions!
 Warning:  center 141 has no basis functions!
 Warning:  center 142 has no basis functions!
 Warning:  center 143 has no basis functions!
 Warning:  center 144 has no basis functions!
 Warning:  center 145 has no basis functions!
 Warning:  center 146 has no basis functions!
 Warning:  center 147 has no basis functions!
 Warning:  center 148 has no basis functions!
 Warning:  center 149 has no basis functions!
 Warning:  center 150 has no basis functions!
 Warning:  center 151 has no basis functions!
 Warning:  center 152 has no basis functions!
 Warning:  center 153 has no basis functions!
 Warning:  center 154 has no basis functions!
 Warning:  center 155 has no basis functions!
 Warning:  center 156 has no basis functions!
 Warning:  center 157 has no basis functions!
 Warning:  center 158 has no basis functions!
 Warning:  center 159 has no basis functions!
 Warning:  center 160 has no basis functions!
 Warning:  center 161 has no basis functions!
 Warning:  center 162 has no basis functions!
 Warning:  center 163 has no basis functions!
 Warning:  center 164 has no basis functions!
 Warning:  center 165 has no basis functions!
 Warning:  center 166 has no basis functions!
 Warning:  center 167 has no basis functions!
 Warning:  center 168 has no basis functions!
 Warning:  center 169 has no basis functions!
 Warning:  center 170 has no basis functions!
 Warning:  center 171 has no basis functions!
 Warning:  center 172 has no basis functions!
 Warning:  center 173 has no basis functions!
 Warning:  center 174 has no basis functions!
 Warning:  center 175 has no basis functions!
 Warning:  center 176 has no basis functions!
 Warning:  center 177 has no basis functions!
 Warning:  center 178 has no basis functions!
 Warning:  center 179 has no basis functions!
 Warning:  center 180 has no basis functions!
 Warning:  center 181 has no basis functions!
 Warning:  center 182 has no basis functions!
 Warning:  center 183 has no basis functions!
 Warning:  center 184 has no basis functions!
 Warning:  center 185 has no basis functions!
 Warning:  center 186 has no basis functions!
 Warning:  center 187 has no basis functions!
 Warning:  center 188 has no basis functions!
 Warning:  center 189 has no basis functions!
 Warning:  center 190 has no basis functions!
 Warning:  center 191 has no basis functions!
 Warning:  center 192 has no basis functions!
 Warning:  center 193 has no basis functions!
 Warning:  center 194 has no basis functions!
 Warning:  center 195 has no basis functions!
 Warning:  center 196 has no basis functions!
 Warning:  center 197 has no basis functions!
 Warning:  center 198 has no basis functions!
 Warning:  center 199 has no basis functions!
 Warning:  center 200 has no basis functions!
 Warning:  center 201 has no basis functions!
 Warning:  center 202 has no basis functions!
 Warning:  center 203 has no basis functions!
 Warning:  center 204 has no basis functions!
 Warning:  center 205 has no basis functions!
 Warning:  center 206 has no basis functions!
 Warning:  center 207 has no basis functions!
 Warning:  center 208 has no basis functions!
 Warning:  center 209 has no basis functions!
 Warning:  center 210 has no basis functions!
 Warning:  center 211 has no basis functions!
 Warning:  center 212 has no basis functions!
 Warning:  center 213 has no basis functions!
 Warning:  center 214 has no basis functions!
 Warning:  center 215 has no basis functions!
 Warning:  center 216 has no basis functions!
 Warning:  center 217 has no basis functions!
 Warning:  center 218 has no basis functions!
 Warning:  center 219 has no basis functions!
 Warning:  center 220 has no basis functions!
 Warning:  center 221 has no basis functions!
 Warning:  center 222 has no basis functions!
 Warning:  center 223 has no basis functions!
 Warning:  center 224 has no basis functions!
 Warning:  center 225 has no basis functions!
 Warning:  center 226 has no basis functions!
 Warning:  center 227 has no basis functions!
 Warning:  center 228 has no basis functions!
 Warning:  center 229 has no basis functions!
 Warning:  center 230 has no basis functions!
 Warning:  center 231 has no basis functions!
 Warning:  center 232 has no basis functions!
 Warning:  center 233 has no basis functions!
 Warning:  center 234 has no basis functions!
 Warning:  center 235 has no basis functions!
 Warning:  center 236 has no basis functions!
 Ernie: Thresh=  0.10000D-02 Tol=  0.10000D-05 Strict=F.
   568 basis functions,   904 primitive gaussians,   590 cartesian basis functions
    73 alpha electrons       73 beta electrons
       nuclear repulsion energy      1599.9156270972 Hartrees.
 IExCor=  402 DFT=T Ex+Corr=B3LYP ExCW=0 ScaHFX=  0.200000
 ScaDFX=  0.800000  0.720000  1.000000  0.810000 ScalE2=  1.000000  1.000000
 IRadAn=      0 IRanWt=     -1 IRanGd=            0 ICorTp=0 IEmpDi=  4
 NAtoms=  236 NActive=  236 NUniq=  236 SFac= 1.00D+00 NAtFMM=   60 NAOKFM=T Big=T
 Integral buffers will be    131072 words long.
 Raffenetti 2 integral format.
 Two-electron integral symmetry is turned off.
 Leave Link  301 at Tue Sep 15 14:28:07 2020, MaxMem=   131072000 cpu:         0.5
 (Enter /share/programs/GAUSSIAN/64/g09/l302.exe)
 NPDir=0 NMtPBC=     1 NCelOv=     1 NCel=       1 NClECP=     1 NCelD=      1
         NCelK=      1 NCelE2=     1 NClLst=     1 CellRange=     0.0.
 One-electron integrals computed using PRISM.
 NBasis=   568 RedAO= T EigKep=  1.01D-06  NBF=   568
 NBsUse=   557 1.00D-06 EigRej=  9.19D-07 NBFU=   557
 Precomputing XC quadrature grid using
 IXCGrd= 4 IRadAn=           0 IRanWt=          -1 IRanGd=           0 AccXCQ= 0.00D+00.
 Generated NRdTot=       0 NPtTot=           0 NUsed=           0 NTot=          32
 NSgBfM=   587   588   588   589   589 MxSgAt=   236 MxSgA2=    36.
 Leave Link  302 at Tue Sep 15 14:28:10 2020, MaxMem=   131072000 cpu:        20.2
 (Enter /share/programs/GAUSSIAN/64/g09/l308.exe)
 Leave Link  308 at Tue Sep 15 14:28:10 2020, MaxMem=   131072000 cpu:         1.1
 (Enter /share/programs/GAUSSIAN/64/g09/l303.exe)
 DipDrv:  MaxL=1.
 Leave Link  303 at Tue Sep 15 14:28:10 2020, MaxMem=   131072000 cpu:         0.6
 (Enter /share/programs/GAUSSIAN/64/g09/l401.exe)
 Initial guess from the checkpoint file:  "/scratch/aartigas.39219/Gau-3736407.chk"
 Skipping rotation of guess because NAtoms(RWF)=  236 differs from NAtoms(Chk)=   36.
 Guess basis will be translated and rotated to current coordinates.
 JPrj=2 DoOrth=T DoCkMO=T.
 Leave Link  401 at Tue Sep 15 14:28:12 2020, MaxMem=   131072000 cpu:        11.4
 (Enter /share/programs/GAUSSIAN/64/g09/l502.exe)
 Closed shell SCF:
 Using DIIS extrapolation, IDIIS=  1040.
 Two-electron integral symmetry not used.
 IVT=     1071582 IEndB=     1071582 NGot=   131072000 MDV=   130365749
 LenX=   130365749 LenY=   130017059
 Requested convergence on RMS density matrix=1.00D-08 within 128 cycles.
 Requested convergence on MAX density matrix=1.00D-06.
 Requested convergence on             energy=1.00D-06.
 No special actions if energy rises.
 Fock matrices will be formed incrementally for  20 cycles.

 Cycle   1  Pass 1  IDiag  1:
 FoFJK:  IHMeth= 1 ICntrl=       0 DoSepK=F KAlg= 0 I1Cent=   0 FoldK=F
 IRaf= 940000000 NMat=   1 IRICut=       1 DoRegI=T DoRafI=F ISym2E= 0.
 FoFCou: FMM=T IPFlag=           0 FMFlag=      100000 FMFlg1=        2001
         NFxFlg=           0 DoJE=F BraDBF=F KetDBF=F FulRan=T
         wScrn=  0.000000 ICntrl=       0 IOpCl=  0 I1Cent=           0 NGrid=           0
         NMat0=    1 NMatS0=      1 NMatT0=    0 NMatD0=    1 NMtDS0=    0 NMtDT0=    0
 Symmetry not used in FoFCou.
 FMM levels:  10  Number of levels for PrismC:   9
 E= -847.003738666968    
 DIIS: error= 5.05D-08 at cycle   1 NSaved=   1.
 NSaved= 1 IEnMin= 1 EnMin= -847.003738666968     IErMin= 1 ErrMin= 5.05D-08
 ErrMax= 5.05D-08  0.00D+00 EMaxC= 1.00D-01 BMatC= 3.55D-12 BMatP= 3.55D-12
 IDIUse=1 WtCom= 1.00D+00 WtEn= 0.00D+00
 Coeff-Com:  0.100D+01
 Coeff:      0.100D+01
 Gap=     0.151 Goal=   None    Shift=    0.000
 RMSDP=2.88D-07 MaxDP=1.33D-05              OVMax= 3.94D-07

 Cycle   2  Pass 1  IDiag  1:
 RMSU=  2.85D-07    CP:  1.00D+00
 E= -847.003738666927     Delta-E=        0.000000000041 Rises=F Damp=F
 DIIS: error= 1.42D-08 at cycle   2 NSaved=   2.
 NSaved= 2 IEnMin= 1 EnMin= -847.003738666968     IErMin= 2 ErrMin= 1.42D-08
 ErrMax= 1.42D-08  0.00D+00 EMaxC= 1.00D-01 BMatC= 2.13D-13 BMatP= 3.55D-12
 IDIUse=1 WtCom= 1.00D+00 WtEn= 0.00D+00
 Coeff-Com:  0.627D-01 0.937D+00
 Coeff:      0.627D-01 0.937D+00
 Gap=     0.151 Goal=   None    Shift=    0.000
 RMSDP=1.57D-08 MaxDP=7.76D-07 DE= 4.09D-11 OVMax= 3.02D-07

 Cycle   3  Pass 1  IDiag  1:
 RMSU=  1.32D-08    CP:  1.00D+00  1.02D+00
 E= -847.003738666876     Delta-E=        0.000000000051 Rises=F Damp=F
 DIIS: error= 2.51D-08 at cycle   3 NSaved=   3.
 NSaved= 3 IEnMin= 1 EnMin= -847.003738666968     IErMin= 2 ErrMin= 1.42D-08
 ErrMax= 2.51D-08  0.00D+00 EMaxC= 1.00D-01 BMatC= 5.05D-13 BMatP= 2.13D-13
 IDIUse=1 WtCom= 1.00D+00 WtEn= 0.00D+00
 Coeff-Com: -0.107D-01 0.616D+00 0.395D+00
 Coeff:     -0.107D-01 0.616D+00 0.395D+00
 Gap=     0.151 Goal=   None    Shift=    0.000
 RMSDP=1.03D-08 MaxDP=4.13D-07 DE= 5.09D-11 OVMax= 2.17D-07

 Cycle   4  Pass 1  IDiag  1:
 RMSU=  5.91D-09    CP:  1.00D+00  1.02D+00  3.93D-01
 E= -847.003738666824     Delta-E=        0.000000000053 Rises=F Damp=F
 DIIS: error= 8.06D-09 at cycle   4 NSaved=   4.
 NSaved= 4 IEnMin= 1 EnMin= -847.003738666968     IErMin= 4 ErrMin= 8.06D-09
 ErrMax= 8.06D-09  0.00D+00 EMaxC= 1.00D-01 BMatC= 2.06D-14 BMatP= 2.13D-13
 IDIUse=1 WtCom= 1.00D+00 WtEn= 0.00D+00
 Coeff-Com: -0.876D-02 0.309D+00 0.241D+00 0.460D+00
 Coeff:     -0.876D-02 0.309D+00 0.241D+00 0.460D+00
 Gap=     0.151 Goal=   None    Shift=    0.000
 RMSDP=4.13D-09 MaxDP=1.55D-07 DE= 5.28D-11 OVMax= 6.88D-08

 SCF Done:  E(RB3LYP) =  -847.003738667     A.U. after    4 cycles
            NFock=  4  Conv=0.41D-08     -V/T= 2.0049
 KE= 8.428349970567D+02 PE=-5.164192584015D+03 EE= 1.874438221195D+03
 Leave Link  502 at Tue Sep 15 14:29:57 2020, MaxMem=   131072000 cpu:       831.0
 (Enter /share/programs/GAUSSIAN/64/g09/l801.exe)
 DoSCS=F DFT=T ScalE2(SS,OS)=  1.000000  1.000000
 Range of M.O.s used for correlation:     1   557
 NBasis=   568 NAE=    73 NBE=    73 NFC=     0 NFV=     0
 NROrb=    557 NOA=    73 NOB=    73 NVA=   484 NVB=   484

 **** Warning!!: The largest alpha MO coefficient is  0.14271947D+03

 Leave Link  801 at Tue Sep 15 14:29:57 2020, MaxMem=   131072000 cpu:         0.2
 (Enter /share/programs/GAUSSIAN/64/g09/l1002.exe)
 Minotr:  Closed shell wavefunction.
          Direct CPHF calculation.
          Differentiating once with respect to magnetic field using GIAOs.
          Electric field/nuclear overlap derivatives assumed to be zero.
          Requested convergence is 1.0D-08 RMS, and 1.0D-07 maximum.
          Secondary convergence is 1.0D-12 RMS, and 1.0D-12 maximum.
          NewPWx=T KeepS1=F KeepF1=F KeepIn=T MapXYZ=F SortEE=F KeepMc=T.
          MDV=     131069551 using IRadAn=       2.
 Generate precomputed XC quadrature information.
          Solving linear equations simultaneously, MaxMat=      72.
 FoFCou: FMM=F IPFlag=           0 FMFlag=      100000 FMFlg1=        2001
         NFxFlg=           0 DoJE=F BraDBF=F KetDBF=T FulRan=T
         wScrn=  0.000000 ICntrl=    6100 IOpCl=  0 I1Cent=           7 NGrid=         236
         NMat0=    1 NMatS0=      1 NMatT0=    0 NMatD0=    1 NMtDS0=    0 NMtDT0=    0
 Symmetry not used in FoFCou.
 FoFJK:  IHMeth= 1 ICntrl=    6127 DoSepK=F KAlg= 0 I1Cent=   0 FoldK=F
 IRaf=         1 NMat=   1 IRICut=       1 DoRegI=T DoRafI=F ISym2E= 0.
          There are     3 degrees of freedom in the 1st order CPHF.  IDoFFX=0 NUNeed=     3.
      3 vectors produced by pass  0 Test12= 1.18D-12 3.33D-08 XBig12= 1.96D+03 8.77D+00.
 AX will form     3 AO Fock derivatives at one time.
      3 vectors produced by pass  1 Test12= 1.18D-12 3.33D-08 XBig12= 3.18D+00 7.58D-01.
      3 vectors produced by pass  2 Test12= 1.18D-12 3.33D-08 XBig12= 1.86D-02 5.85D-02.
      3 vectors produced by pass  3 Test12= 1.18D-12 3.33D-08 XBig12= 4.29D-05 1.35D-03.
      3 vectors produced by pass  4 Test12= 1.18D-12 3.33D-08 XBig12= 9.75D-08 7.22D-05.
      3 vectors produced by pass  5 Test12= 1.18D-12 3.33D-08 XBig12= 3.97D-10 5.92D-06.
      3 vectors produced by pass  6 Test12= 1.18D-12 3.33D-08 XBig12= 1.51D-12 4.40D-07.
 InvSVY:  IOpt=1 It=  1 EMax= 3.55D-15
 Solved reduced A of dimension    21 with     3 vectors.
 Calculating GIAO nuclear magnetic shielding tensors.
 SCF GIAO Magnetic shielding tensor (ppm):
      1  C    Isotropic =    49.6861   Anisotropy =   149.7970
   XX=    46.3088   YX=   -25.0950   ZX=    31.4786
   XY=   -31.1109   YY=   -39.0339   ZY=    13.2621
   XZ=    24.9178   YZ=     8.9888   ZZ=   141.7833
   Eigenvalues:   -49.3507    48.8581   149.5507
      2  C    Isotropic =    49.6861   Anisotropy =   149.7971
   XX=    46.3088   YX=    25.0953   ZX=    31.4786
   XY=    31.1111   YY=   -39.0339   ZY=   -13.2621
   XZ=    24.9177   YZ=    -8.9889   ZZ=   141.7834
   Eigenvalues:   -49.3508    48.8583   149.5509
      3  C    Isotropic =    44.4899   Anisotropy =   204.7372
   XX=   -22.2199   YX=    10.8075   ZX=    51.2710
   XY=     4.9259   YY=   -14.7126   ZY=    14.7921
   XZ=    32.3655   YZ=    21.2392   ZZ=   170.4022
   Eigenvalues:   -31.9593   -15.5523   180.9814
      4  C    Isotropic =    44.4899   Anisotropy =   204.7373
   XX=   -22.2198   YX=   -10.8075   ZX=    51.2710
   XY=    -4.9256   YY=   -14.7126   ZY=   -14.7922
   XZ=    32.3656   YZ=   -21.2393   ZZ=   170.4023
   Eigenvalues:   -31.9592   -15.5524   180.9815
      5  C    Isotropic =    48.5420   Anisotropy =   189.5490
   XX=   -14.6790   YX=     4.7342   ZX=     8.4333
   XY=    20.3759   YY=    -5.5375   ZY=    31.5121
   XZ=    65.1218   YZ=     0.8640   ZZ=   165.8426
   Eigenvalues:   -26.3226    -2.9593   174.9080
      6  C    Isotropic =    48.5421   Anisotropy =   189.5489
   XX=   -14.6789   YX=    -4.7340   ZX=     8.4335
   XY=   -20.3758   YY=    -5.5374   ZY=   -31.5121
   XZ=    65.1218   YZ=    -0.8638   ZZ=   165.8426
   Eigenvalues:   -26.3224    -2.9594   174.9080
      7  C    Isotropic =    50.1907   Anisotropy =   149.2089
   XX=    19.7303   YX=   -44.2755   ZX=    41.2886
   XY=   -38.0437   YY=    -2.7069   ZY=    36.9011
   XZ=    36.5866   YZ=    37.5458   ZZ=   133.5487
   Eigenvalues:   -49.6656    50.5744   149.6633
      8  C    Isotropic =    48.9362   Anisotropy =   152.4339
   XX=   -31.5093   YX=   -11.4921   ZX=    54.7730
   XY=   -19.0468   YY=    46.5898   ZY=    27.5522
   XZ=    42.2451   YZ=    29.8391   ZZ=   131.7282
   Eigenvalues:   -50.1461    46.3960   150.5589
      9  C    Isotropic =    44.4204   Anisotropy =   209.3981
   XX=   -10.1987   YX=    16.7536   ZX=    44.4888
   XY=     8.9342   YY=    -7.7270   ZY=    61.4651
   XZ=    43.3269   YZ=    64.9792   ZZ=   151.1869
   Eigenvalues:   -30.3689   -20.3891   184.0192
     10  C    Isotropic =    45.3894   Anisotropy =   198.3236
   XX=    -5.9706   YX=    23.3819   ZX=    35.6519
   XY=    38.1954   YY=     1.7271   ZY=    73.1370
   XZ=    54.0013   YZ=    45.7045   ZZ=   140.4116
   Eigenvalues:   -33.5315    -7.9055   177.6051
     11  H    Isotropic =    23.8179   Anisotropy =     7.5674
   XX=    27.2191   YX=    -1.9090   ZX=    -2.2602
   XY=    -1.7961   YY=    24.8722   ZY=    -0.1966
   XZ=    -3.3763   YZ=    -0.1950   ZZ=    19.3625
   Eigenvalues:    18.3647    24.2263    28.8628
     12  H    Isotropic =    23.8179   Anisotropy =     7.5674
   XX=    27.2191   YX=     1.9090   ZX=    -2.2602
   XY=     1.7961   YY=    24.8722   ZY=     0.1966
   XZ=    -3.3763   YZ=     0.1950   ZZ=    19.3625
   Eigenvalues:    18.3647    24.2263    28.8628
     13  H    Isotropic =    23.8548   Anisotropy =     7.5124
   XX=    26.7195   YX=    -2.1358   ZX=    -2.0755
[...]
   159  Bq   0.000000
   160  Bq   0.000000
   161  Bq   0.000000
   162  Bq   0.000000
   163  Bq   0.000000
   164  Bq   0.000000
   165  Bq   0.000000
   166  Bq   0.000000
   167  Bq   0.000000
   168  Bq   0.000000
   169  Bq   0.000000
   170  Bq   0.000000
   171  Bq   0.000000
   172  Bq   0.000000
   173  Bq   0.000000
   174  Bq   0.000000
   175  Bq   0.000000
   176  Bq   0.000000
   177  Bq   0.000000
   178  Bq   0.000000
   179  Bq   0.000000
   180  Bq   0.000000
   181  Bq   0.000000
   182  Bq   0.000000
   183  Bq   0.000000
   184  Bq   0.000000
   185  Bq   0.000000
   186  Bq   0.000000
   187  Bq   0.000000
   188  Bq   0.000000
   189  Bq   0.000000
   190  Bq   0.000000
   191  Bq   0.000000
   192  Bq   0.000000
   193  Bq   0.000000
   194  Bq   0.000000
   195  Bq   0.000000
   196  Bq   0.000000
   197  Bq   0.000000
   198  Bq   0.000000
   199  Bq   0.000000
   200  Bq   0.000000
   201  Bq   0.000000
   202  Bq   0.000000
   203  Bq   0.000000
   204  Bq   0.000000
   205  Bq   0.000000
   206  Bq   0.000000
   207  Bq   0.000000
   208  Bq   0.000000
   209  Bq   0.000000
   210  Bq   0.000000
   211  Bq   0.000000
   212  Bq   0.000000
   213  Bq   0.000000
   214  Bq   0.000000
   215  Bq   0.000000
   216  Bq   0.000000
   217  Bq   0.000000
   218  Bq   0.000000
   219  Bq   0.000000
   220  Bq   0.000000
   221  Bq   0.000000
   222  Bq   0.000000
   223  Bq   0.000000
   224  Bq   0.000000
   225  Bq   0.000000
   226  Bq   0.000000
   227  Bq   0.000000
   228  Bq   0.000000
   229  Bq   0.000000
   230  Bq   0.000000
   231  Bq   0.000000
   232  Bq   0.000000
   233  Bq   0.000000
   234  Bq   0.000000
   235  Bq   0.000000
   236  Bq   0.000000
 Sum of Mulliken charges =   0.00000
 Mulliken charges with hydrogens summed into heavy atoms:
               1
     1  C   -0.262865
     2  C   -0.262866
     3  C    0.737923
     4  C    0.737922
     5  C   -0.039994
     6  C   -0.040001
     7  C    0.075155
     8  C   -0.330147
     9  C    0.780501
    10  C   -0.200782
    15  C    0.249272
    16  C   -0.533462
    17  C   -0.189405
    18  C   -0.286191
    23  C   -0.330145
    24  C    0.075154
    25  C    0.780496
    26  C   -0.200782
    27  C    0.249273
    28  C   -0.286192
    29  C   -0.189403
    30  C   -0.533462
    37  Bq   0.000000
    38  Bq   0.000000
    39  Bq   0.000000
    40  Bq   0.000000
    41  Bq   0.000000
    42  Bq   0.000000
    43  Bq   0.000000
    44  Bq   0.000000
    45  Bq   0.000000
    46  Bq   0.000000
    47  Bq   0.000000
    48  Bq   0.000000
    49  Bq   0.000000
    50  Bq   0.000000
    51  Bq   0.000000
    52  Bq   0.000000
    53  Bq   0.000000
    54  Bq   0.000000
    55  Bq   0.000000
    56  Bq   0.000000
    57  Bq   0.000000
    58  Bq   0.000000
    59  Bq   0.000000
    60  Bq   0.000000
    61  Bq   0.000000
    62  Bq   0.000000
    63  Bq   0.000000
    64  Bq   0.000000
    65  Bq   0.000000
    66  Bq   0.000000
    67  Bq   0.000000
    68  Bq   0.000000
    69  Bq   0.000000
    70  Bq   0.000000
    71  Bq   0.000000
    72  Bq   0.000000
    73  Bq   0.000000
    74  Bq   0.000000
    75  Bq   0.000000
    76  Bq   0.000000
    77  Bq   0.000000
    78  Bq   0.000000
    79  Bq   0.000000
    80  Bq   0.000000
    81  Bq   0.000000
    82  Bq   0.000000
    83  Bq   0.000000
    84  Bq   0.000000
    85  Bq   0.000000
    86  Bq   0.000000
    87  Bq   0.000000
    88  Bq   0.000000
    89  Bq   0.000000
    90  Bq   0.000000
    91  Bq   0.000000
    92  Bq   0.000000
    93  Bq   0.000000
    94  Bq   0.000000
    95  Bq   0.000000
    96  Bq   0.000000
    97  Bq   0.000000
    98  Bq   0.000000
    99  Bq   0.000000
   100  Bq   0.000000
   101  Bq   0.000000
   102  Bq   0.000000
   103  Bq   0.000000
   104  Bq   0.000000
   105  Bq   0.000000
   106  Bq   0.000000
   107  Bq   0.000000
   108  Bq   0.000000
   109  Bq   0.000000
   110  Bq   0.000000
   111  Bq   0.000000
   112  Bq   0.000000
   113  Bq   0.000000
   114  Bq   0.000000
   115  Bq   0.000000
   116  Bq   0.000000
   117  Bq   0.000000
   118  Bq   0.000000
   119  Bq   0.000000
   120  Bq   0.000000
   121  Bq   0.000000
   122  Bq   0.000000
   123  Bq   0.000000
   124  Bq   0.000000
   125  Bq   0.000000
   126  Bq   0.000000
   127  Bq   0.000000
   128  Bq   0.000000
   129  Bq   0.000000
   130  Bq   0.000000
   131  Bq   0.000000
   132  Bq   0.000000
   133  Bq   0.000000
   134  Bq   0.000000
   135  Bq   0.000000
   136  Bq   0.000000
   137  Bq   0.000000
   138  Bq   0.000000
   139  Bq   0.000000
   140  Bq   0.000000
   141  Bq   0.000000
   142  Bq   0.000000
   143  Bq   0.000000
   144  Bq   0.000000
   145  Bq   0.000000
   146  Bq   0.000000
   147  Bq   0.000000
   148  Bq   0.000000
   149  Bq   0.000000
   150  Bq   0.000000
   151  Bq   0.000000
   152  Bq   0.000000
   153  Bq   0.000000
   154  Bq   0.000000
   155  Bq   0.000000
   156  Bq   0.000000
   157  Bq   0.000000
   158  Bq   0.000000
   159  Bq   0.000000
   160  Bq   0.000000
   161  Bq   0.000000
   162  Bq   0.000000
   163  Bq   0.000000
   164  Bq   0.000000
   165  Bq   0.000000
   166  Bq   0.000000
   167  Bq   0.000000
   168  Bq   0.000000
   169  Bq   0.000000
   170  Bq   0.000000
   171  Bq   0.000000
   172  Bq   0.000000
   173  Bq   0.000000
   174  Bq   0.000000
   175  Bq   0.000000
   176  Bq   0.000000
   177  Bq   0.000000
   178  Bq   0.000000
   179  Bq   0.000000
   180  Bq   0.000000
   181  Bq   0.000000
   182  Bq   0.000000
   183  Bq   0.000000
   184  Bq   0.000000
   185  Bq   0.000000
   186  Bq   0.000000
   187  Bq   0.000000
   188  Bq   0.000000
   189  Bq   0.000000
   190  Bq   0.000000
   191  Bq   0.000000
   192  Bq   0.000000
   193  Bq   0.000000
   194  Bq   0.000000
   195  Bq   0.000000
   196  Bq   0.000000
   197  Bq   0.000000
   198  Bq   0.000000
   199  Bq   0.000000
   200  Bq   0.000000
   201  Bq   0.000000
   202  Bq   0.000000
   203  Bq   0.000000
   204  Bq   0.000000
   205  Bq   0.000000
   206  Bq   0.000000
   207  Bq   0.000000
   208  Bq   0.000000
   209  Bq   0.000000
   210  Bq   0.000000
   211  Bq   0.000000
   212  Bq   0.000000
   213  Bq   0.000000
   214  Bq   0.000000
   215  Bq   0.000000
   216  Bq   0.000000
   217  Bq   0.000000
   218  Bq   0.000000
   219  Bq   0.000000
   220  Bq   0.000000
   221  Bq   0.000000
   222  Bq   0.000000
   223  Bq   0.000000
   224  Bq   0.000000
   225  Bq   0.000000
   226  Bq   0.000000
   227  Bq   0.000000
   228  Bq   0.000000
   229  Bq   0.000000
   230  Bq   0.000000
   231  Bq   0.000000
   232  Bq   0.000000
   233  Bq   0.000000
   234  Bq   0.000000
   235  Bq   0.000000
   236  Bq   0.000000
 Electronic spatial extent (au):  <R**2>=           5804.3227
 Charge=              0.0000 electrons
 Dipole moment (field-independent basis, Debye):
    X=              0.0000    Y=              0.0732    Z=              0.0000  Tot=              0.0732
 Quadrupole moment (field-independent basis, Debye-Ang):
   XX=           -113.9137   YY=           -113.9781   ZZ=           -133.4378
   XY=              0.0000   XZ=             -4.8717   YZ=              0.0000
 Traceless Quadrupole moment (field-independent basis, Debye-Ang):
   XX=              6.5295   YY=              6.4651   ZZ=            -12.9946
   XY=              0.0000   XZ=             -4.8717   YZ=              0.0000
 Octapole moment (field-independent basis, Debye-Ang**2):
  XXX=              0.0000  YYY=             11.7108  ZZZ=              0.0000  XYY=              0.0000
  XXY=             -6.4067  XXZ=              0.0000  XZZ=              0.0000  YZZ=             -7.8695
  YYZ=              0.0000  XYZ=            -16.2862
 Hexadecapole moment (field-independent basis, Debye-Ang**3):
 XXXX=          -4416.4021 YYYY=          -2784.9756 ZZZZ=           -481.5690 XXXY=              0.0001
 XXXZ=           -124.3517 YYYX=             -0.0003 YYYZ=              0.0001 ZZZX=             -4.4782
 ZZZY=              0.0001 XXYY=          -1189.3576 XXZZ=           -942.9016 YYZZ=           -589.4012
 XXYZ=              0.0000 YYXZ=              7.8297 ZZXY=             -0.0001
 N-N= 1.599915627097D+03 E-N=-5.164192587538D+03  KE= 8.428349970567D+02
 Leave Link  601 at Tue Sep 15 14:38:29 2020, MaxMem=   131072000 cpu:         0.8
 (Enter /share/programs/GAUSSIAN/64/g09/l9999.exe)
 1\1\GINC-MUHKA\SP\RB3LYP\6-311+G(d,p)\C22H14\AARTIGAS\15-Sep-2020\0\\#
 P rb3lyp/6-311+g** NMR Guess=Read geom=connectivity\\Title\\0,1\C,0,0.
 653241,3.257859,-0.20251\C,0,-0.653243,3.25786,0.20251\C,0,1.372495,2.
 032956,-0.320807\C,0,-1.372495,2.032956,0.320807\C,0,0.722474,0.795666
 ,-0.050388\C,0,-0.722474,0.795667,0.050387\C,0,2.760385,2.053927,-0.67
 4268\C,0,3.508866,0.913916,-0.671362\C,0,2.955226,-0.309622,-0.177479\
 C,0,1.574722,-0.361114,0.197094\H,0,1.183427,4.19574,-0.384599\H,0,-1.
 183429,4.19574,0.384599\H,0,3.206283,3.012423,-0.951392\H,0,4.560023,0
 .932956,-0.969333\C,0,3.78302,-1.443098,0.028309\C,0,1.137427,-1.50753
 3,0.912109\C,0,1.973691,-2.584349,1.138062\C,0,3.301853,-2.571588,0.66
 1177\H,0,4.825754,-1.39123,-0.295484\H,0,0.124652,-1.532788,1.308472\H
 ,0,1.603586,-3.445682,1.698977\H,0,3.952742,-3.433526,0.825134\C,0,-3.
 508866,0.913915,0.671362\C,0,-2.760386,2.053926,0.674268\C,0,-2.955226
 ,-0.309623,0.177479\C,0,-1.574722,-0.361114,-0.197094\C,0,-3.78302,-1.
 443099,-0.028309\C,0,-3.301852,-2.571589,-0.661177\C,0,-1.97369,-2.584
 349,-1.138061\C,0,-1.137426,-1.507534,-0.912109\H,0,-4.560022,0.932954
 ,0.969334\H,0,-3.206283,3.012421,0.951392\H,0,-4.825754,-1.391232,0.29
 5484\H,0,-3.952741,-3.433528,-0.825134\H,0,-1.603585,-3.445682,-1.6989
 76\H,0,-0.124652,-1.532788,-1.308471\Bq,0,0.0652627628,2.1418663317,-0
 .991445028\Bq,0,0.0499498779,2.1494178108,-0.991445028\Bq,0,0.03378233
 11,2.1549059534,-0.991445028\Bq,0,0.0170367535,2.1582368559,-0.9914450
 28\Bq,0,-0.0000003333,2.1593535256,-0.991445028\Bq,0,-0.0170374202,2.1
 582368559,-0.991445028\Bq,0,-0.0337829978,2.1549059534,-0.991445028\Bq
 ,0,-0.0499505446,2.1494178108,-0.991445028\Bq,0,-0.0652634294,2.141866
 3317,-0.991445028\Bq,0,-0.0794596446,2.1323807239,-0.991445028\Bq,0,-0
 .092296289,2.121123289,-0.991445028\Bq,0,-0.1035537239,2.1082866446,-0
 .991445028\Bq,0,-0.1130393317,2.0940904294,-0.991445028\Bq,0,-0.120590
 8108,2.0787775446,-0.991445028\Bq,0,-0.1260789534,2.0626099978,-0.9914
 45028\Bq,0,-0.1294098559,2.0458644202,-0.991445028\Bq,0,-0.1305265256,
 2.0288273333,-0.991445028\Bq,0,-0.1294098559,2.0117902465,-0.991445028
 \Bq,0,-0.1260789534,1.9950446689,-0.991445028\Bq,0,-0.1205908108,1.978
 8771221,-0.991445028\Bq,0,-0.1130393317,1.9635642372,-0.991445028\Bq,0
 ,-0.1035537239,1.949368022,-0.991445028\Bq,0,-0.092296289,1.9365313777
 ,-0.991445028\Bq,0,-0.0794596446,1.9252739427,-0.991445028\Bq,0,-0.065
 2634294,1.915788335,-0.991445028\Bq,0,-0.0499505446,1.9082368559,-0.99
 1445028\Bq,0,-0.0337829978,1.9027487133,-0.991445028\Bq,0,-0.017037420
 2,1.8994178108,-0.991445028\Bq,0,-0.0000003333,1.8983011411,-0.9914450
 28\Bq,0,0.0170367535,1.8994178108,-0.991445028\Bq,0,0.0337823311,1.902
 7487133,-0.991445028\Bq,0,0.0499498779,1.9082368559,-0.991445028\Bq,0,
 0.0652627628,1.915788335,-0.991445028\Bq,0,0.079458978,1.9252739427,-0
 .991445028\Bq,0,0.0922956223,1.9365313777,-0.991445028\Bq,0,0.10355305
 73,1.949368022,-0.991445028\Bq,0,0.113038665,1.9635642372,-0.991445028
 \Bq,0,0.1205901441,1.9788771221,-0.991445028\Bq,0,0.1260782867,1.99504
 46689,-0.991445028\Bq,0,0.1294091892,2.0117902465,-0.991445028\Bq,0,2.
 4543231667,-1.462884,1.4598786667\Bq,0,2.4543231667,-1.462884,1.459878
 6667\Bq,0,2.4543231667,-1.462884,1.4598786667\Bq,0,2.4543231667,-1.462
 884,1.4598786667\Bq,0,2.4543231667,-1.462884,1.4598786667\Bq,0,2.45432
 31667,-1.462884,1.4598786667\Bq,0,2.4543231667,-1.462884,1.4598786667\
 Bq,0,2.4543231667,-1.462884,1.4598786667\Bq,0,2.4543231667,-1.462884,1
 .4598786667\Bq,0,2.4543231667,-1.462884,1.4598786667\Bq,0,2.4543231667
 ,-1.462884,1.4598786667\Bq,0,2.4543231667,-1.462884,1.4598786667\Bq,0,
 2.4543231667,-1.462884,1.4598786667\Bq,0,2.4543231667,-1.462884,1.4598
 786667\Bq,0,2.4543231667,-1.462884,1.4598786667\Bq,0,2.4543231667,-1.4
 62884,1.4598786667\Bq,0,2.4543231667,-1.462884,1.4598786667\Bq,0,2.454
 3231667,-1.462884,1.4598786667\Bq,0,2.4543231667,-1.462884,1.459878666
 7\Bq,0,2.4543231667,-1.462884,1.4598786667\Bq,0,2.4543231667,-1.462884
 ,1.4598786667\Bq,0,2.4543231667,-1.462884,1.4598786667\Bq,0,2.45432316
 67,-1.462884,1.4598786667\Bq,0,2.4543231667,-1.462884,1.4598786667\Bq,
 0,2.4543231667,-1.462884,1.4598786667\Bq,0,2.4543231667,-1.462884,1.45
 98786667\Bq,0,2.4543231667,-1.462884,1.4598786667\Bq,0,2.4543231667,-1
 .462884,1.4598786667\Bq,0,2.4543231667,-1.462884,1.4598786667\Bq,0,2.4
 543231667,-1.462884,1.4598786667\Bq,0,2.4543231667,-1.462884,1.4598786
 667\Bq,0,2.4543231667,-1.462884,1.4598786667\Bq,0,2.4543231667,-1.4628
 84,1.4598786667\Bq,0,2.4543231667,-1.462884,1.4598786667\Bq,0,2.454323
 1667,-1.462884,1.4598786667\Bq,0,2.4543231667,-1.462884,1.4598786667\B
 q,0,2.4543231667,-1.462884,1.4598786667\Bq,0,2.4543231667,-1.462884,1.
 4598786667\Bq,0,2.4543231667,-1.462884,1.4598786667\Bq,0,2.4543231667,
 -1.462884,1.4598786667\Bq,0,2.4543231667,-1.462884,1.4598786667\Bq,0,2
 .4543231667,-1.462884,1.4598786667\Bq,0,2.4543231667,-1.462884,1.45987
 86667\Bq,0,2.4543231667,-1.462884,1.4598786667\Bq,0,2.4543231667,-1.46
 2884,1.4598786667\Bq,0,2.4543231667,-1.462884,1.4598786667\Bq,0,2.4543
 231667,-1.462884,1.4598786667\Bq,0,2.4543231667,-1.462884,1.4598786667
 \Bq,0,2.5848493589,-1.462884,1.451323528\Bq,0,2.5837326892,-1.44584691
 31,1.451323528\Bq,0,2.5804017867,-1.4291013356,1.451323528\Bq,0,2.5749
 136441,-1.4129337887,1.451323528\Bq,0,2.567362165,-1.3976209039,1.4513
 23528\Bq,0,2.5578765573,-1.3834246887,1.451323528\Bq,0,2.5466191223,-1
 .3705880444,1.451323528\Bq,0,2.533782478,-1.3593306094,1.451323528\Bq,
 0,2.5195862628,-1.3498450017,1.451323528\Bq,0,2.5042733779,-1.34229352
 26,1.451323528\Bq,0,2.4881058311,-1.3368053799,1.451323528\Bq,0,2.4713
 602535,-1.3334744774,1.451323528\Bq,0,2.4543231667,-1.3323578078,1.451
 323528\Bq,0,2.4372860798,-1.3334744774,1.451323528\Bq,0,2.4205405022,-
 1.3368053799,1.451323528\Bq,0,2.4043729554,-1.3422935226,1.451323528\B
 q,0,2.3890600706,-1.3498450017,1.451323528\Bq,0,2.3748638554,-1.359330
 6094,1.451323528\Bq,0,2.362027211,-1.3705880444,1.451323528\Bq,0,2.350
 7697761,-1.3834246887,1.451323528\Bq,0,2.3412841683,-1.3976209039,1.45
 1323528\Bq,0,2.3337326892,-1.4129337887,1.451323528\Bq,0,2.3282445466,
 -1.4291013356,1.451323528\Bq,0,2.3249136441,-1.4458469131,1.451323528\
 Bq,0,2.3237969744,-1.462884,1.451323528\Bq,0,2.3249136441,-1.479921086
 9,1.451323528\Bq,0,2.3282445466,-1.4966666644,1.451323528\Bq,0,2.33373
 26892,-1.5128342113,1.451323528\Bq,0,2.3412841683,-1.5281470961,1.4513
 23528\Bq,0,2.3507697761,-1.5423433113,1.451323528\Bq,0,2.362027211,-1.
 5551799556,1.451323528\Bq,0,2.3748638554,-1.5664373906,1.451323528\Bq,
 0,2.3890600706,-1.5759229983,1.451323528\Bq,0,2.4043729554,-1.58347447
 74,1.451323528\Bq,0,2.4205405022,-1.5889626201,1.451323528\Bq,0,2.4372
 860798,-1.5922935226,1.451323528\Bq,0,2.4543231667,-1.5934101922,1.451
 323528\Bq,0,2.4713602535,-1.5922935226,1.451323528\Bq,0,2.4881058311,-
 1.5889626201,1.451323528\Bq,0,2.5042733779,-1.5834744774,1.451323528\B
 q,0,2.5195862628,-1.5759229983,1.451323528\Bq,0,2.533782478,-1.5664373
 906,1.451323528\Bq,0,2.5466191223,-1.5551799556,1.451323528\Bq,0,2.557
 8765573,-1.5423433113,1.451323528\Bq,0,2.567362165,-1.5281470961,1.451
 323528\Bq,0,2.5749136441,-1.5128342113,1.451323528\Bq,0,2.5804017867,-
 1.4966666644,1.451323528\Bq,0,2.5837326892,-1.4799210869,1.451323528\B
 q,0,2.7131422118,-1.462884,1.425804493\Bq,0,2.710927979,-1.4291013356,
 1.425804493\Bq,0,2.7043231667,-1.3958967019,1.425804493\Bq,0,2.6934407
 851,-1.3638382395,1.425804493\Bq,0,2.6784670347,-1.3334744774,1.425804
 493\Bq,0,2.6596581206,-1.3053249482,1.425804493\Bq,0,2.6373358686,-1.2
 798712981,1.425804493\Bq,0,2.6118822184,-1.257549046,1.425804493\Bq,0,
 2.5837326892,-1.238740132,1.425804493\Bq,0,2.5533689272,-1.2237663816,
 1.425804493\Bq,0,2.5213104648,-1.212884,1.425804493\Bq,0,2.4881058311,
 -1.2062791877,1.425804493\Bq,0,2.4543231667,-1.2040649549,1.425804493\
 Bq,0,2.4205405022,-1.2062791877,1.425804493\Bq,0,2.3873358686,-1.21288
 4,1.425804493\Bq,0,2.3552774061,-1.2237663816,1.425804493\Bq,0,2.32491
 36441,-1.238740132,1.425804493\Bq,0,2.2967641149,-1.257549046,1.425804
 493\Bq,0,2.2713104648,-1.2798712981,1.425804493\Bq,0,2.2489882127,-1.3
 053249482,1.425804493\Bq,0,2.2301792986,-1.3334744774,1.425804493\Bq,0
 ,2.2152055483,-1.3638382395,1.425804493\Bq,0,2.2043231667,-1.395896701
 9,1.425804493\Bq,0,2.1977183544,-1.4291013356,1.425804493\Bq,0,2.19550
 41216,-1.462884,1.425804493\Bq,0,2.1977183544,-1.4966666644,1.42580449
 3\Bq,0,2.2043231667,-1.5298712981,1.425804493\Bq,0,2.2152055483,-1.561
 9297605,1.425804493\Bq,0,2.2301792986,-1.5922935226,1.425804493\Bq,0,2
 .2489882127,-1.6204430518,1.425804493\Bq,0,2.2713104648,-1.6458967019,
 1.425804493\Bq,0,2.2967641149,-1.668218954,1.425804493\Bq,0,2.32491364
 41,-1.687027868,1.425804493\Bq,0,2.3552774061,-1.7020016184,1.42580449
 3\Bq,0,2.3873358686,-1.712884,1.425804493\Bq,0,2.4205405022,-1.7194888
 123,1.425804493\Bq,0,2.4543231667,-1.7217030451,1.425804493\Bq,0,2.488
 1058311,-1.7194888123,1.425804493\Bq,0,2.5213104648,-1.712884,1.425804
 493\Bq,0,2.5533689272,-1.7020016184,1.425804493\Bq,0,2.5837326892,-1.6
 87027868,1.425804493\Bq,0,2.6118822184,-1.668218954,1.425804493\Bq,0,2
 .6373358686,-1.6458967019,1.425804493\Bq,0,2.6596581206,-1.6204430518,
 1.425804493\Bq,0,2.6784670347,-1.5922935226,1.425804493\Bq,0,2.6934407
 851,-1.5619297605,1.425804493\Bq,0,2.7043231667,-1.5298712981,1.425804
 493\Bq,0,2.710927979,-1.4966666644,1.425804493\Bq,0,2.837006599,-1.462
 884,1.3837581992\Bq,0,2.8337326892,-1.4129337887,1.3837581992\Bq,0,2.8
 239669773,-1.3638382395,1.3837581992\Bq,0,2.8078765573,-1.3164373906,1
 .3837581992\Bq,0,2.7857367407,-1.2715422838,1.3837581992\Bq,0,2.757926
 346,-1.2299210869,1.3837581992\Bq,0,2.7249212167,-1.1922859499,1.38375
 81992\Bq,0,2.6872860798,-1.1592808207,1.3837581992\Bq,0,2.6456648828,-
 1.131470426,1.3837581992\Bq,0,2.6007697761,-1.1093306094,1.3837581992\
 Bq,0,2.5533689272,-1.0932401894,1.3837581992\Bq,0,2.5042733779,-1.0834
 744774,1.3837581992\Bq,0,2.4543231667,-1.0802005676,1.3837581992\Bq,0,
 2.4043729554,-1.0834744774,1.3837581992\Bq,0,2.3552774061,-1.093240189
 4,1.3837581992\Bq,0,2.3078765573,-1.1093306094,1.3837581992\\Version=E
 S64L-G09RevD.01\HF=-847.0037387\RMSD=4.126e-09\Dipole=0.0000004,0.0287
 843,0.0000009\Quadrupole=4.8545288,4.8066247,-9.6611535,-0.0000047,-3.
 6219991,-0.000002\PG=C01 [X(C22H14)]\\@


 I WOULD TAKE COUNSEL OF MYSELF.
 I WOULD STOP AND LOOK WITHIN
 AND LOOKING WITHIN, LOOK BACK, ALSO
 THAT I MAY LOOK AHEAD WITH CLEARER UNDERSTANDING
 OF THE WAY I HAVE BEEN MOVING, AND IN WHAT DIRECTION.
 I NEED TO KNOW IF I AM GOING FORWARD OR RETREATING,
 WHETHER I HAVE BEEN WASTING, OR ENJOYING
 THE PRECIOUS MOMENTS OF LIFE.  THERE HAVE BEEN FRICTIONS,
 ANNOYANCES AND SOMETIMES WRATH,
 BUT WERE THEY BECAUSE I WAS RIGHT AND OTHERS WRONG.....
 HAVE I HAD MY THOUGHTS TOO SHARPLY FOCUSED
 ON THAT WHICH PLEASED ME, SERVED MY SELF-ESTEEM,
 UNDERGIRDED MY SECURITY,
 OF WHICH I DID NOT INQUIRE WHETHER IT SERVED OR HAMPERED OTHERS.....
 HAVE I BEEN TRYING TO STOP THE CLOCK
 TO HOLD THE WORLD
 IN PERPETUATION OF WHAT WAS AN IS ALREADY SLIPPING AWAY.....
 HAVE I BEEN CRITICAL OF OTHERS FOR WHAT REALLY NEEDED CHANGING IN ME...
 LET ME INDEED TAKE COUNSEL OF MYSELF
 AND SET MY DIRECTIONS STRAIGHT.

                          R.T. WESTON AS ADAPTED BY D. OSBORN 1967
 Job cpu time:       0 days  1 hours 20 minutes 37.5 seconds.
 File lengths (MBytes):  RWF=    184 Int=      0 D2E=      0 Chk=     21 Scr=      1
 Normal termination of Gaussian 09 at Tue Sep 15 14:38:29 2020.
