 Entering Gaussian System, Link 0=g09
 Input=input_batch_10600.com
 Output=input_batch_10600.log
 Initial command:
 /share/programs/GAUSSIAN/64/g09/l1.exe "/scratch/aartigas.38942/Gau-32098.inp" -scrdir="/scratch/aartigas.38942/"
 Entering Link 1 = /share/programs/GAUSSIAN/64/g09/l1.exe PID=     32099.
  
 Copyright (c) 1988,1990,1992,1993,1995,1998,2003,2009,2013,
            Gaussian, Inc.  All Rights Reserved.
  
 This is part of the Gaussian(R) 09 program.  It is based on
 the Gaussian(R) 03 system (copyright 2003, Gaussian, Inc.),
 the Gaussian(R) 98 system (copyright 1998, Gaussian, Inc.),
 the Gaussian(R) 94 system (copyright 1995, Gaussian, Inc.),
 the Gaussian 92(TM) system (copyright 1992, Gaussian, Inc.),
 the Gaussian 90(TM) system (copyright 1990, Gaussian, Inc.),
 the Gaussian 88(TM) system (copyright 1988, Gaussian, Inc.),
 the Gaussian 86(TM) system (copyright 1986, Carnegie Mellon
 University), and the Gaussian 82(TM) system (copyright 1983,
 Carnegie Mellon University). Gaussian is a federally registered
 trademark of Gaussian, Inc.
  
 This software contains proprietary and confidential information,
 including trade secrets, belonging to Gaussian, Inc.
  
 This software is provided under written license and may be
 used, copied, transmitted, or stored only in accord with that
 written license.
  
 The following legend is applicable only to US Government
 contracts under FAR:
  
                    RESTRICTED RIGHTS LEGEND
  
 Use, reproduction and disclosure by the US Government is
 subject to restrictions as set forth in subparagraphs (a)
 and (c) of the Commercial Computer Software - Restricted
 Rights clause in FAR 52.227-19.
  
 Gaussian, Inc.
 340 Quinnipiac St., Bldg. 40, Wallingford CT 06492
  
  
 ---------------------------------------------------------------
 Warning -- This program may not be used in any manner that
 competes with the business of Gaussian, Inc. or will provide
 assistance to any competitor of Gaussian, Inc.  The licensee
 of this program is prohibited from giving any competitor of
 Gaussian, Inc. access to this program.  By using this program,
 the user acknowledges that Gaussian, Inc. is engaged in the
 business of creating and licensing software in the field of
 computational chemistry and represents and warrants to the
 licensee that it is not a competitor of Gaussian, Inc. and that
 it will not use this program in any manner prohibited above.
 ---------------------------------------------------------------
  

 Cite this work as:
 Gaussian 09, Revision D.01,
 M. J. Frisch, G. W. Trucks, H. B. Schlegel, G. E. Scuseria, 
 M. A. Robb, J. R. Cheeseman, G. Scalmani, V. Barone, B. Mennucci, 
 G. A. Petersson, H. Nakatsuji, M. Caricato, X. Li, H. P. Hratchian, 
 A. F. Izmaylov, J. Bloino, G. Zheng, J. L. Sonnenberg, M. Hada, 
 M. Ehara, K. Toyota, R. Fukuda, J. Hasegawa, M. Ishida, T. Nakajima, 
 Y. Honda, O. Kitao, H. Nakai, T. Vreven, J. A. Montgomery, Jr., 
 J. E. Peralta, F. Ogliaro, M. Bearpark, J. J. Heyd, E. Brothers, 
 K. N. Kudin, V. N. Staroverov, T. Keith, R. Kobayashi, J. Normand, 
 K. Raghavachari, A. Rendell, J. C. Burant, S. S. Iyengar, J. Tomasi, 
 M. Cossi, N. Rega, J. M. Millam, M. Klene, J. E. Knox, J. B. Cross, 
 V. Bakken, C. Adamo, J. Jaramillo, R. Gomperts, R. E. Stratmann, 
 O. Yazyev, A. J. Austin, R. Cammi, C. Pomelli, J. W. Ochterski, 
 R. L. Martin, K. Morokuma, V. G. Zakrzewski, G. A. Voth, 
 P. Salvador, J. J. Dannenberg, S. Dapprich, A. D. Daniels, 
 O. Farkas, J. B. Foresman, J. V. Ortiz, J. Cioslowski, 
 and D. J. Fox, Gaussian, Inc., Wallingford CT, 2013.
 
 ******************************************
 Gaussian 09:  ES64L-G09RevD.01 24-Apr-2013
                15-Sep-2020 
 ******************************************
 %OldChk=/home/aartigas/chk/5_helicene_spe.chk
 %nproc=8
 Will use up to    8 processors via shared memory.
 %mem=1000MB
 Copying data from "/home/aartigas/chk/5_helicene_spe.chk" to current chk file "/scratch/aartigas.38942/Gau-32099.chk".
 ----------------------------------------------------
 #P rb3lyp/6-311+g** NMR Guess=Read geom=connectivity
 ----------------------------------------------------
 1/38=1,57=2/1;
 2/12=2,17=6,18=5,40=1/2;
 3/5=4,6=6,7=111,11=2,16=1,25=1,30=1,74=-5,116=1/1,2,8,3;
 4/5=1/1;
 5/5=2,38=6/2;
 8/6=1,10=90,11=11/1;
 10/13=100,45=16/2;
 6/7=2,8=2,9=2,10=2,28=1/1;
 99/9=1/99;
 Leave Link    1 at Tue Sep 15 11:35:07 2020, MaxMem=   131072000 cpu:         0.4
 (Enter /share/programs/GAUSSIAN/64/g09/l101.exe)
 -----
 Title
 -----
 Symbolic Z-matrix:
 Charge =  0 Multiplicity = 1
 C                     0.65324   3.25786  -0.20251 
 C                    -0.65324   3.25786   0.20251 
 C                     1.3725    2.03296  -0.32081 
 C                    -1.3725    2.03296   0.32081 
 C                     0.72247   0.79567  -0.05039 
 C                    -0.72247   0.79567   0.05039 
 C                     2.76039   2.05393  -0.67427 
 C                     3.50887   0.91392  -0.67136 
 C                     2.95523  -0.30962  -0.17748 
 C                     1.57472  -0.36111   0.19709 
 H                     1.18343   4.19574  -0.3846 
 H                    -1.18343   4.19574   0.3846 
 H                     3.20628   3.01242  -0.95139 
 H                     4.56002   0.93296  -0.96933 
 C                     3.78302  -1.4431    0.02831 
 C                     1.13743  -1.50753   0.91211 
 C                     1.97369  -2.58435   1.13806 
 C                     3.30185  -2.57159   0.66118 
 H                     4.82575  -1.39123  -0.29548 
 H                     0.12465  -1.53279   1.30847 
 H                     1.60359  -3.44568   1.69898 
 H                     3.95274  -3.43353   0.82513 
 C                    -3.50887   0.91392   0.67136 
 C                    -2.76039   2.05393   0.67427 
 C                    -2.95523  -0.30962   0.17748 
 C                    -1.57472  -0.36111  -0.19709 
 C                    -3.78302  -1.4431   -0.02831 
 C                    -3.30185  -2.57159  -0.66118 
 C                    -1.97369  -2.58435  -1.13806 
 C                    -1.13743  -1.50753  -0.91211 
 H                    -4.56002   0.93295   0.96933 
 H                    -3.20628   3.01242   0.95139 
 H                    -4.82575  -1.39123   0.29548 
 H                    -3.95274  -3.43353  -0.82513 
 H                    -1.60359  -3.44568  -1.69898 
 H                    -0.12465  -1.53279  -1.30847 
 Bq                    4.71272  -2.24985  -0.79548 
 Bq                    4.82575  -2.25726  -0.79548 
 Bq                    4.93879  -2.24985  -0.79548 
 Bq                    5.0499   -2.22775  -0.79548 
 Bq                    5.15717  -2.19133  -0.79548 
 Bq                    5.25877  -2.14123  -0.79548 
 Bq                    5.35296  -2.07829  -0.79548 
 Bq                    5.43813  -2.0036   -0.79548 
 Bq                    5.51282  -1.91843  -0.79548 
 Bq                    5.57575  -1.82424  -0.79548 
 Bq                    5.62586  -1.72264  -0.79548 
 Bq                    5.66227  -1.61537  -0.79548 
 Bq                    5.68437  -1.50427  -0.79548 
 Bq                    5.61911  -1.39123  -0.90425 
 Bq                    5.61232  -1.28768  -0.90425 
 Bq                    5.59207  -1.1859   -0.90425 
 Bq                    5.55872  -1.08763  -0.90425 
 Bq                    5.51282  -0.99455  -0.90425 
 Bq                    5.45516  -0.90827  -0.90425 
 Bq                    5.38674  -0.83024  -0.90425 
 Bq                    5.30872  -0.76182  -0.90425 
 Bq                    5.22243  -0.70417  -0.90425 
 Bq                    5.12936  -0.65827  -0.90425 
 Bq                    5.03109  -0.62491  -0.90425 
 Bq                    4.92931  -0.60466  -0.90425 
 Bq                    4.82575  -0.59788  -0.90425 
 Bq                    4.05943  -1.1859   -0.90425 
 Bq                    4.09279  -1.69483  -0.90425 
 Bq                    4.13869  -1.78791  -0.90425 
 Bq                    4.19634  -1.87419  -0.90425 
 Bq                    4.26477  -1.95222  -0.90425 
 Bq                    4.34279  -2.02064  -0.90425 
 Bq                    4.42908  -2.07829  -0.90425 
 Bq                    4.52215  -2.12419  -0.90425 
 Bq                    4.62042  -2.15755  -0.90425 
 Bq                    4.7222   -2.1778   -0.90425 
 Bq                    4.82575  -2.18458  -0.90425 
 Bq                    4.92931  -2.1778   -0.90425 
 Bq                    5.03109  -2.15755  -0.90425 
 Bq                    5.12936  -2.12419  -0.90425 
 Bq                    5.22243  -2.07829  -0.90425 
 Bq                    5.30872  -2.02064  -0.90425 
 Bq                    5.38674  -1.95222  -0.90425 
 Bq                    5.45516  -1.87419  -0.90425 
 Bq                    5.51282  -1.78791  -0.90425 
 Bq                    5.55872  -1.69483  -0.90425 
 Bq                    5.59207  -1.59656  -0.90425 
 Bq                    5.61232  -1.49478  -0.90425 
 Bq                    5.53286  -1.39123  -1.00259 
 Bq                    5.52681  -1.29893  -1.00259 
 Bq                    5.50877  -1.20822  -1.00259 
 Bq                    5.47904  -1.12063  -1.00259 
 Bq                    5.43813  -1.03768  -1.00259 
 Bq                    5.38674  -0.96077  -1.00259 
 Bq                    5.32575  -0.89123  -1.00259 
 Bq                    5.25621  -0.83024  -1.00259 
 Bq                    5.17931  -0.77886  -1.00259 
 Bq                    5.09635  -0.73795  -1.00259 
 Bq                    5.00877  -0.70822  -1.00259 
 Bq                    4.91805  -0.69017  -1.00259 
 Bq                    4.82575  -0.68412  -1.00259 
 Bq                    4.73346  -0.69017  -1.00259 
 Bq                    4.64274  -0.70822  -1.00259 
 Bq                    4.21338  -1.03768  -1.00259 
 Bq                    4.17247  -1.12063  -1.00259 
 Bq                    4.14274  -1.20822  -1.00259 
 Bq                    4.1247   -1.29893  -1.00259 
 Bq                    4.11865  -1.39123  -1.00259 
 Bq                    4.1247   -1.48353  -1.00259 
 Bq                    4.14274  -1.57424  -1.00259 
 Bq                    4.17247  -1.66183  -1.00259 
 Bq                    4.21338  -1.74478  -1.00259 
 Bq                    4.26477  -1.82169  -1.00259 
 Bq                    4.32575  -1.89123  -1.00259 
 Bq                    4.39529  -1.95222  -1.00259 
 Bq                    4.4722   -2.0036   -1.00259 
 Bq                    4.55516  -2.04451  -1.00259 
 Bq                    4.64274  -2.07424  -1.00259 
 Bq                    4.73346  -2.09229  -1.00259 
 Bq                    4.82575  -2.09834  -1.00259 
 Bq                    4.91805  -2.09229  -1.00259 
 Bq                    5.00877  -2.07424  -1.00259 
 Bq                    5.09635  -2.04451  -1.00259 
 Bq                    5.17931  -2.0036   -1.00259 
 Bq                    5.25621  -1.95222  -1.00259 
 Bq                    5.32575  -1.89123  -1.00259 
 Bq                    5.38674  -1.82169  -1.00259 
 Bq                    5.43813  -1.74478  -1.00259 
 Bq                    5.47904  -1.66183  -1.00259 
 Bq                    5.50877  -1.57424  -1.00259 
 Bq                    5.52681  -1.48353  -1.00259 
 Bq                    5.43452  -1.39123  -1.08884 
 Bq                    5.42931  -1.31177  -1.08884 
 Bq                    5.41377  -1.23367  -1.08884 
 Bq                    5.38818  -1.15827  -1.08884 
 Bq                    5.35296  -1.08685  -1.08884 
 Bq                    5.30872  -1.02064  -1.08884 
 Bq                    5.25621  -0.96077  -1.08884 
 Bq                    5.19634  -0.90827  -1.08884 
 Bq                    5.13013  -0.86403  -1.08884 
 Bq                    5.05872  -0.82881  -1.08884 
 Bq                    4.98331  -0.80321  -1.08884 
 Bq                    4.90521  -0.78768  -1.08884 
 Bq                    4.82575  -0.78247  -1.08884 
 Bq                    4.74629  -0.78768  -1.08884 
 Bq                    4.66819  -0.80321  -1.08884 
 Bq                    4.59279  -0.82881  -1.08884 
 Bq                    4.52137  -0.86403  -1.08884 
 Bq                    4.45516  -0.90827  -1.08884 
 Bq                    4.39529  -0.96077  -1.08884 
 Bq                    4.34279  -1.02064  -1.08884 
 Bq                    4.29855  -1.08685  -1.08884 
 Bq                    4.26333  -1.15827  -1.08884 
 Bq                    4.23774  -1.23367  -1.08884 
 Bq                    4.2222   -1.31177  -1.08884 
 Bq                    4.21699  -1.39123  -1.08884 
 Bq                    4.2222   -1.47069  -1.08884 
 Bq                    4.23774  -1.54879  -1.08884 
 Bq                    4.26333  -1.62419  -1.08884 
 Bq                    4.29855  -1.69561  -1.08884 
 Bq                    4.34279  -1.76182  -1.08884 
 Bq                    4.39529  -1.82169  -1.08884 
 Bq                    4.45516  -1.87419  -1.08884 
 Bq                    4.52137  -1.91843  -1.08884 
 Bq                    4.59279  -1.95365  -1.08884 
 Bq                    4.66819  -1.97925  -1.08884 
 Bq                    4.74629  -1.99478  -1.08884 
 Bq                    4.82575  -1.99999  -1.08884 
 Bq                    4.90521  -1.99478  -1.08884 
 Bq                    4.98331  -1.97925  -1.08884 
 Bq                    5.05872  -1.95365  -1.08884 
 Bq                    5.13013  -1.91843  -1.08884 
 Bq                    5.19634  -1.87419  -1.08884 
 Bq                    5.25621  -1.82169  -1.08884 
 Bq                    5.30872  -1.76182  -1.08884 
 Bq                    5.35296  -1.69561  -1.08884 
 Bq                    5.38818  -1.62419  -1.08884 
 Bq                    5.41377  -1.54879  -1.08884 
 Bq                    5.42931  -1.47069  -1.08884 
 Bq                    5.32575  -1.39123  -1.16151 
 Bq                    5.32148  -1.32597  -1.16151 
 Bq                    5.30872  -1.26182  -1.16151 
 Bq                    5.28769  -1.19989  -1.16151 
 Bq                    5.25877  -1.14123  -1.16151 
 Bq                    5.22243  -1.08685  -1.16151 
 Bq                    5.17931  -1.03768  -1.16151 
 Bq                    5.13013  -0.99455  -1.16151 
 Bq                    5.07575  -0.95822  -1.16151 
 Bq                    5.0171   -0.92929  -1.16151 
 Bq                    4.95516  -0.90827  -1.16151 
 Bq                    4.89102  -0.89551  -1.16151 
 Bq                    4.82575  -0.89123  -1.16151 
 Bq                    4.76049  -0.89551  -1.16151 
 Bq                    4.69634  -0.90827  -1.16151 
 Bq                    4.63441  -0.92929  -1.16151 
 Bq                    4.57575  -0.95822  -1.16151 
 Bq                    4.52137  -0.99455  -1.16151 
 Bq                    4.4722   -1.03768  -1.16151 
 Bq                    4.42908  -1.08685  -1.16151 
 Bq                    4.39274  -1.14123  -1.16151 
 Bq                    4.36381  -1.19989  -1.16151 
 Bq                    4.34279  -1.26182  -1.16151 
 Bq                    4.33003  -1.32597  -1.16151 
 Bq                    4.32575  -1.39123  -1.16151 
 Bq                    4.33003  -1.45649  -1.16151 
 Bq                    4.34279  -1.52064  -1.16151 
 Bq                    4.36381  -1.58257  -1.16151 
 Bq                    4.39274  -1.64123  -1.16151 
 Bq                    4.42908  -1.69561  -1.16151 
 Bq                    4.4722   -1.74478  -1.16151 
 Bq                    4.52137  -1.78791  -1.16151 
 Bq                    4.57575  -1.82424  -1.16151 
 Bq                    4.63441  -1.85317  -1.16151 
 Bq                    4.69634  -1.87419  -1.16151 
 Bq                    4.76049  -1.88695  -1.16151 
 Bq                    4.82575  -1.89123  -1.16151 
 Bq                    4.89102  -1.88695  -1.16151 
 Bq                    4.95516  -1.87419  -1.16151 
 Bq                    5.0171   -1.85317  -1.16151 
 Bq                    5.07575  -1.82424  -1.16151 
 Bq                    5.13013  -1.78791  -1.16151 
 Bq                    5.17931  -1.74478  -1.16151 
 Bq                    5.22243  -1.69561  -1.16151 
 Bq                    5.25877  -1.64123  -1.16151 
 Bq                    5.28769  -1.58257  -1.16151 
 Bq                    5.30872  -1.52064  -1.16151 
 Bq                    5.32148  -1.45649  -1.16151 
 Bq                    5.20844  -1.39123  -1.21936 
 Bq                    5.20516  -1.34128  -1.21936 
 Bq                    5.1954   -1.29218  -1.21936 
 Bq                    5.17931  -1.24478  -1.21936 
 Bq                    5.15717  -1.19989  -1.21936 
 Bq                    5.12936  -1.15827  -1.21936 
 Bq                    5.09635  -1.12063  -1.21936 
 Bq                    5.05872  -1.08763  -1.21936 
 Bq                    5.0171   -1.05982  -1.21936 
 Bq                    4.9722   -1.03768  -1.21936 
 Bq                    4.9248   -1.02159  -1.21936 
 Bq                    4.8757   -1.01182  -1.21936 
 Bq                    4.82575  -1.00855  -1.21936 
 
 NAtoms=    236 NQM=      236 NQMF=       0 NMMI=      0 NMMIF=      0
                NMic=       0 NMicF=      0.
                    Isotopes and Nuclear Properties:
 (Nuclear quadrupole moments (NQMom) in fm**2, nuclear magnetic moments (NMagM)
  in nuclear magnetons)

  Atom         1           2           3           4           5           6           7           8           9          10
 IAtWgt=          12          12          12          12          12          12          12          12          12          12
 AtmWgt=  12.0000000  12.0000000  12.0000000  12.0000000  12.0000000  12.0000000  12.0000000  12.0000000  12.0000000  12.0000000
 NucSpn=           0           0           0           0           0           0           0           0           0           0
 AtZEff=   0.0000000   0.0000000   0.0000000   0.0000000   0.0000000   0.0000000   0.0000000   0.0000000   0.0000000   0.0000000
 NQMom=    0.0000000   0.0000000   0.0000000   0.0000000   0.0000000   0.0000000   0.0000000   0.0000000   0.0000000   0.0000000
 NMagM=    0.0000000   0.0000000   0.0000000   0.0000000   0.0000000   0.0000000   0.0000000   0.0000000   0.0000000   0.0000000
 AtZNuc=   6.0000000   6.0000000   6.0000000   6.0000000   6.0000000   6.0000000   6.0000000   6.0000000   6.0000000   6.0000000

  Atom        11          12          13          14          15          16          17          18          19          20
 IAtWgt=           1           1           1           1          12          12          12          12           1           1
 AtmWgt=   1.0078250   1.0078250   1.0078250   1.0078250  12.0000000  12.0000000  12.0000000  12.0000000   1.0078250   1.0078250
 NucSpn=           1           1           1           1           0           0           0           0           1           1
 AtZEff=   0.0000000   0.0000000   0.0000000   0.0000000   0.0000000   0.0000000   0.0000000   0.0000000   0.0000000   0.0000000
 NQMom=    0.0000000   0.0000000   0.0000000   0.0000000   0.0000000   0.0000000   0.0000000   0.0000000   0.0000000   0.0000000
 NMagM=    2.7928460   2.7928460   2.7928460   2.7928460   0.0000000   0.0000000   0.0000000   0.0000000   2.7928460   2.7928460
 AtZNuc=   1.0000000   1.0000000   1.0000000   1.0000000   6.0000000   6.0000000   6.0000000   6.0000000   1.0000000   1.0000000

  Atom        21          22          23          24          25          26          27          28          29          30
 IAtWgt=           1           1          12          12          12          12          12          12          12          12
 AtmWgt=   1.0078250   1.0078250  12.0000000  12.0000000  12.0000000  12.0000000  12.0000000  12.0000000  12.0000000  12.0000000
 NucSpn=           1           1           0           0           0           0           0           0           0           0
 AtZEff=   0.0000000   0.0000000   0.0000000   0.0000000   0.0000000   0.0000000   0.0000000   0.0000000   0.0000000   0.0000000
 NQMom=    0.0000000   0.0000000   0.0000000   0.0000000   0.0000000   0.0000000   0.0000000   0.0000000   0.0000000   0.0000000
 NMagM=    2.7928460   2.7928460   0.0000000   0.0000000   0.0000000   0.0000000   0.0000000   0.0000000   0.0000000   0.0000000
 AtZNuc=   1.0000000   1.0000000   6.0000000   6.0000000   6.0000000   6.0000000   6.0000000   6.0000000   6.0000000   6.0000000

  Atom        31          32          33          34          35          36          37          38          39          40
 IAtWgt=           1           1           1           1           1           1           0           0           0           0
 AtmWgt=   1.0078250   1.0078250   1.0078250   1.0078250   1.0078250   1.0078250   0.0000000   0.0000000   0.0000000   0.0000000
 NucSpn=           1           1           1           1           1           1           0           0           0           0
 AtZEff=   0.0000000   0.0000000   0.0000000   0.0000000   0.0000000   0.0000000   0.0000000   0.0000000   0.0000000   0.0000000
 NQMom=    0.0000000   0.0000000   0.0000000   0.0000000   0.0000000   0.0000000   0.0000000   0.0000000   0.0000000   0.0000000
 NMagM=    2.7928460   2.7928460   2.7928460   2.7928460   2.7928460   2.7928460   0.0000000   0.0000000   0.0000000   0.0000000
 AtZNuc=   1.0000000   1.0000000   1.0000000   1.0000000   1.0000000   1.0000000   0.0000000   0.0000000   0.0000000   0.0000000

  Atom        41          42          43          44          45          46          47          48          49          50
 IAtWgt=           0           0           0           0           0           0           0           0           0           0
 AtmWgt=   0.0000000   0.0000000   0.0000000   0.0000000   0.0000000   0.0000000   0.0000000   0.0000000   0.0000000   0.0000000
 NucSpn=           0           0           0           0           0           0           0           0           0           0
 AtZEff=   0.0000000   0.0000000   0.0000000   0.0000000   0.0000000   0.0000000   0.0000000   0.0000000   0.0000000   0.0000000
 NQMom=    0.0000000   0.0000000   0.0000000   0.0000000   0.0000000   0.0000000   0.0000000   0.0000000   0.0000000   0.0000000
 NMagM=    0.0000000   0.0000000   0.0000000   0.0000000   0.0000000   0.0000000   0.0000000   0.0000000   0.0000000   0.0000000
 AtZNuc=   0.0000000   0.0000000   0.0000000   0.0000000   0.0000000   0.0000000   0.0000000   0.0000000   0.0000000   0.0000000

  Atom        51          52          53          54          55          56          57          58          59          60
 IAtWgt=           0           0           0           0           0           0           0           0           0           0
 AtmWgt=   0.0000000   0.0000000   0.0000000   0.0000000   0.0000000   0.0000000   0.0000000   0.0000000   0.0000000   0.0000000
 NucSpn=           0           0           0           0           0           0           0           0           0           0
 AtZEff=   0.0000000   0.0000000   0.0000000   0.0000000   0.0000000   0.0000000   0.0000000   0.0000000   0.0000000   0.0000000
 NQMom=    0.0000000   0.0000000   0.0000000   0.0000000   0.0000000   0.0000000   0.0000000   0.0000000   0.0000000   0.0000000
 NMagM=    0.0000000   0.0000000   0.0000000   0.0000000   0.0000000   0.0000000   0.0000000   0.0000000   0.0000000   0.0000000
 AtZNuc=   0.0000000   0.0000000   0.0000000   0.0000000   0.0000000   0.0000000   0.0000000   0.0000000   0.0000000   0.0000000

  Atom        61          62          63          64          65          66          67          68          69          70
 IAtWgt=           0           0           0           0           0           0           0           0           0           0
 AtmWgt=   0.0000000   0.0000000   0.0000000   0.0000000   0.0000000   0.0000000   0.0000000   0.0000000   0.0000000   0.0000000
 NucSpn=           0           0           0           0           0           0           0           0           0           0
 AtZEff=   0.0000000   0.0000000   0.0000000   0.0000000   0.0000000   0.0000000   0.0000000   0.0000000   0.0000000   0.0000000
 NQMom=    0.0000000   0.0000000   0.0000000   0.0000000   0.0000000   0.0000000   0.0000000   0.0000000   0.0000000   0.0000000
 NMagM=    0.0000000   0.0000000   0.0000000   0.0000000   0.0000000   0.0000000   0.0000000   0.0000000   0.0000000   0.0000000
 AtZNuc=   0.0000000   0.0000000   0.0000000   0.0000000   0.0000000   0.0000000   0.0000000   0.0000000   0.0000000   0.0000000

  Atom        71          72          73          74          75          76          77          78          79          80
 IAtWgt=           0           0           0           0           0           0           0           0           0           0
 AtmWgt=   0.0000000   0.0000000   0.0000000   0.0000000   0.0000000   0.0000000   0.0000000   0.0000000   0.0000000   0.0000000
 NucSpn=           0           0           0           0           0           0           0           0           0           0
 AtZEff=   0.0000000   0.0000000   0.0000000   0.0000000   0.0000000   0.0000000   0.0000000   0.0000000   0.0000000   0.0000000
 NQMom=    0.0000000   0.0000000   0.0000000   0.0000000   0.0000000   0.0000000   0.0000000   0.0000000   0.0000000   0.0000000
 NMagM=    0.0000000   0.0000000   0.0000000   0.0000000   0.0000000   0.0000000   0.0000000   0.0000000   0.0000000   0.0000000
 AtZNuc=   0.0000000   0.0000000   0.0000000   0.0000000   0.0000000   0.0000000   0.0000000   0.0000000   0.0000000   0.0000000

  Atom        81          82          83          84          85          86          87          88          89          90
 IAtWgt=           0           0           0           0           0           0           0           0           0           0
 AtmWgt=   0.0000000   0.0000000   0.0000000   0.0000000   0.0000000   0.0000000   0.0000000   0.0000000   0.0000000   0.0000000
 NucSpn=           0           0           0           0           0           0           0           0           0           0
 AtZEff=   0.0000000   0.0000000   0.0000000   0.0000000   0.0000000   0.0000000   0.0000000   0.0000000   0.0000000   0.0000000
 NQMom=    0.0000000   0.0000000   0.0000000   0.0000000   0.0000000   0.0000000   0.0000000   0.0000000   0.0000000   0.0000000
 NMagM=    0.0000000   0.0000000   0.0000000   0.0000000   0.0000000   0.0000000   0.0000000   0.0000000   0.0000000   0.0000000
 AtZNuc=   0.0000000   0.0000000   0.0000000   0.0000000   0.0000000   0.0000000   0.0000000   0.0000000   0.0000000   0.0000000

  Atom        91          92          93          94          95          96          97          98          99         100
 IAtWgt=           0           0           0           0           0           0           0           0           0           0
 AtmWgt=   0.0000000   0.0000000   0.0000000   0.0000000   0.0000000   0.0000000   0.0000000   0.0000000   0.0000000   0.0000000
 NucSpn=           0           0           0           0           0           0           0           0           0           0
 AtZEff=   0.0000000   0.0000000   0.0000000   0.0000000   0.0000000   0.0000000   0.0000000   0.0000000   0.0000000   0.0000000
 NQMom=    0.0000000   0.0000000   0.0000000   0.0000000   0.0000000   0.0000000   0.0000000   0.0000000   0.0000000   0.0000000
 NMagM=    0.0000000   0.0000000   0.0000000   0.0000000   0.0000000   0.0000000   0.0000000   0.0000000   0.0000000   0.0000000
 AtZNuc=   0.0000000   0.0000000   0.0000000   0.0000000   0.0000000   0.0000000   0.0000000   0.0000000   0.0000000   0.0000000

  Atom       101         102         103         104         105         106         107         108         109         110
 IAtWgt=           0           0           0           0           0           0           0           0           0           0
 AtmWgt=   0.0000000   0.0000000   0.0000000   0.0000000   0.0000000   0.0000000   0.0000000   0.0000000   0.0000000   0.0000000
 NucSpn=           0           0           0           0           0           0           0           0           0           0
 AtZEff=   0.0000000   0.0000000   0.0000000   0.0000000   0.0000000   0.0000000   0.0000000   0.0000000   0.0000000   0.0000000
 NQMom=    0.0000000   0.0000000   0.0000000   0.0000000   0.0000000   0.0000000   0.0000000   0.0000000   0.0000000   0.0000000
 NMagM=    0.0000000   0.0000000   0.0000000   0.0000000   0.0000000   0.0000000   0.0000000   0.0000000   0.0000000   0.0000000
 AtZNuc=   0.0000000   0.0000000   0.0000000   0.0000000   0.0000000   0.0000000   0.0000000   0.0000000   0.0000000   0.0000000

  Atom       111         112         113         114         115         116         117         118         119         120
 IAtWgt=           0           0           0           0           0           0           0           0           0           0
 AtmWgt=   0.0000000   0.0000000   0.0000000   0.0000000   0.0000000   0.0000000   0.0000000   0.0000000   0.0000000   0.0000000
 NucSpn=           0           0           0           0           0           0           0           0           0           0
 AtZEff=   0.0000000   0.0000000   0.0000000   0.0000000   0.0000000   0.0000000   0.0000000   0.0000000   0.0000000   0.0000000
 NQMom=    0.0000000   0.0000000   0.0000000   0.0000000   0.0000000   0.0000000   0.0000000   0.0000000   0.0000000   0.0000000
 NMagM=    0.0000000   0.0000000   0.0000000   0.0000000   0.0000000   0.0000000   0.0000000   0.0000000   0.0000000   0.0000000
 AtZNuc=   0.0000000   0.0000000   0.0000000   0.0000000   0.0000000   0.0000000   0.0000000   0.0000000   0.0000000   0.0000000

  Atom       121         122         123         124         125         126         127         128         129         130
 IAtWgt=           0           0           0           0           0           0           0           0           0           0
 AtmWgt=   0.0000000   0.0000000   0.0000000   0.0000000   0.0000000   0.0000000   0.0000000   0.0000000   0.0000000   0.0000000
 NucSpn=           0           0           0           0           0           0           0           0           0           0
 AtZEff=   0.0000000   0.0000000   0.0000000   0.0000000   0.0000000   0.0000000   0.0000000   0.0000000   0.0000000   0.0000000
 NQMom=    0.0000000   0.0000000   0.0000000   0.0000000   0.0000000   0.0000000   0.0000000   0.0000000   0.0000000   0.0000000
 NMagM=    0.0000000   0.0000000   0.0000000   0.0000000   0.0000000   0.0000000   0.0000000   0.0000000   0.0000000   0.0000000
 AtZNuc=   0.0000000   0.0000000   0.0000000   0.0000000   0.0000000   0.0000000   0.0000000   0.0000000   0.0000000   0.0000000

  Atom       131         132         133         134         135         136         137         138         139         140
 IAtWgt=           0           0           0           0           0           0           0           0           0           0
 AtmWgt=   0.0000000   0.0000000   0.0000000   0.0000000   0.0000000   0.0000000   0.0000000   0.0000000   0.0000000   0.0000000
 NucSpn=           0           0           0           0           0           0           0           0           0           0
 AtZEff=   0.0000000   0.0000000   0.0000000   0.0000000   0.0000000   0.0000000   0.0000000   0.0000000   0.0000000   0.0000000
 NQMom=    0.0000000   0.0000000   0.0000000   0.0000000   0.0000000   0.0000000   0.0000000   0.0000000   0.0000000   0.0000000
 NMagM=    0.0000000   0.0000000   0.0000000   0.0000000   0.0000000   0.0000000   0.0000000   0.0000000   0.0000000   0.0000000
 AtZNuc=   0.0000000   0.0000000   0.0000000   0.0000000   0.0000000   0.0000000   0.0000000   0.0000000   0.0000000   0.0000000

  Atom       141         142         143         144         145         146         147         148         149         150
 IAtWgt=           0           0           0           0           0           0           0           0           0           0
 AtmWgt=   0.0000000   0.0000000   0.0000000   0.0000000   0.0000000   0.0000000   0.0000000   0.0000000   0.0000000   0.0000000
 NucSpn=           0           0           0           0           0           0           0           0           0           0
 AtZEff=   0.0000000   0.0000000   0.0000000   0.0000000   0.0000000   0.0000000   0.0000000   0.0000000   0.0000000   0.0000000
 NQMom=    0.0000000   0.0000000   0.0000000   0.0000000   0.0000000   0.0000000   0.0000000   0.0000000   0.0000000   0.0000000
 NMagM=    0.0000000   0.0000000   0.0000000   0.0000000   0.0000000   0.0000000   0.0000000   0.0000000   0.0000000   0.0000000
 AtZNuc=   0.0000000   0.0000000   0.0000000   0.0000000   0.0000000   0.0000000   0.0000000   0.0000000   0.0000000   0.0000000

  Atom       151         152         153         154         155         156         157         158         159         160
 IAtWgt=           0           0           0           0           0           0           0           0           0           0
 AtmWgt=   0.0000000   0.0000000   0.0000000   0.0000000   0.0000000   0.0000000   0.0000000   0.0000000   0.0000000   0.0000000
 NucSpn=           0           0           0           0           0           0           0           0           0           0
 AtZEff=   0.0000000   0.0000000   0.0000000   0.0000000   0.0000000   0.0000000   0.0000000   0.0000000   0.0000000   0.0000000
 NQMom=    0.0000000   0.0000000   0.0000000   0.0000000   0.0000000   0.0000000   0.0000000   0.0000000   0.0000000   0.0000000
 NMagM=    0.0000000   0.0000000   0.0000000   0.0000000   0.0000000   0.0000000   0.0000000   0.0000000   0.0000000   0.0000000
 AtZNuc=   0.0000000   0.0000000   0.0000000   0.0000000   0.0000000   0.0000000   0.0000000   0.0000000   0.0000000   0.0000000

  Atom       161         162         163         164         165         166         167         168         169         170
 IAtWgt=           0           0           0           0           0           0           0           0           0           0
 AtmWgt=   0.0000000   0.0000000   0.0000000   0.0000000   0.0000000   0.0000000   0.0000000   0.0000000   0.0000000   0.0000000
 NucSpn=           0           0           0           0           0           0           0           0           0           0
 AtZEff=   0.0000000   0.0000000   0.0000000   0.0000000   0.0000000   0.0000000   0.0000000   0.0000000   0.0000000   0.0000000
 NQMom=    0.0000000   0.0000000   0.0000000   0.0000000   0.0000000   0.0000000   0.0000000   0.0000000   0.0000000   0.0000000
 NMagM=    0.0000000   0.0000000   0.0000000   0.0000000   0.0000000   0.0000000   0.0000000   0.0000000   0.0000000   0.0000000
 AtZNuc=   0.0000000   0.0000000   0.0000000   0.0000000   0.0000000   0.0000000   0.0000000   0.0000000   0.0000000   0.0000000

  Atom       171         172         173         174         175         176         177         178         179         180
 IAtWgt=           0           0           0           0           0           0           0           0           0           0
 AtmWgt=   0.0000000   0.0000000   0.0000000   0.0000000   0.0000000   0.0000000   0.0000000   0.0000000   0.0000000   0.0000000
 NucSpn=           0           0           0           0           0           0           0           0           0           0
 AtZEff=   0.0000000   0.0000000   0.0000000   0.0000000   0.0000000   0.0000000   0.0000000   0.0000000   0.0000000   0.0000000
 NQMom=    0.0000000   0.0000000   0.0000000   0.0000000   0.0000000   0.0000000   0.0000000   0.0000000   0.0000000   0.0000000
 NMagM=    0.0000000   0.0000000   0.0000000   0.0000000   0.0000000   0.0000000   0.0000000   0.0000000   0.0000000   0.0000000
 AtZNuc=   0.0000000   0.0000000   0.0000000   0.0000000   0.0000000   0.0000000   0.0000000   0.0000000   0.0000000   0.0000000

  Atom       181         182         183         184         185         186         187         188         189         190
 IAtWgt=           0           0           0           0           0           0           0           0           0           0
 AtmWgt=   0.0000000   0.0000000   0.0000000   0.0000000   0.0000000   0.0000000   0.0000000   0.0000000   0.0000000   0.0000000
 NucSpn=           0           0           0           0           0           0           0           0           0           0
 AtZEff=   0.0000000   0.0000000   0.0000000   0.0000000   0.0000000   0.0000000   0.0000000   0.0000000   0.0000000   0.0000000
 NQMom=    0.0000000   0.0000000   0.0000000   0.0000000   0.0000000   0.0000000   0.0000000   0.0000000   0.0000000   0.0000000
 NMagM=    0.0000000   0.0000000   0.0000000   0.0000000   0.0000000   0.0000000   0.0000000   0.0000000   0.0000000   0.0000000
 AtZNuc=   0.0000000   0.0000000   0.0000000   0.0000000   0.0000000   0.0000000   0.0000000   0.0000000   0.0000000   0.0000000

  Atom       191         192         193         194         195         196         197         198         199         200
 IAtWgt=           0           0           0           0           0           0           0           0           0           0
 AtmWgt=   0.0000000   0.0000000   0.0000000   0.0000000   0.0000000   0.0000000   0.0000000   0.0000000   0.0000000   0.0000000
 NucSpn=           0           0           0           0           0           0           0           0           0           0
 AtZEff=   0.0000000   0.0000000   0.0000000   0.0000000   0.0000000   0.0000000   0.0000000   0.0000000   0.0000000   0.0000000
 NQMom=    0.0000000   0.0000000   0.0000000   0.0000000   0.0000000   0.0000000   0.0000000   0.0000000   0.0000000   0.0000000
 NMagM=    0.0000000   0.0000000   0.0000000   0.0000000   0.0000000   0.0000000   0.0000000   0.0000000   0.0000000   0.0000000
 AtZNuc=   0.0000000   0.0000000   0.0000000   0.0000000   0.0000000   0.0000000   0.0000000   0.0000000   0.0000000   0.0000000

  Atom       201         202         203         204         205         206         207         208         209         210
 IAtWgt=           0           0           0           0           0           0           0           0           0           0
 AtmWgt=   0.0000000   0.0000000   0.0000000   0.0000000   0.0000000   0.0000000   0.0000000   0.0000000   0.0000000   0.0000000
 NucSpn=           0           0           0           0           0           0           0           0           0           0
 AtZEff=   0.0000000   0.0000000   0.0000000   0.0000000   0.0000000   0.0000000   0.0000000   0.0000000   0.0000000   0.0000000
 NQMom=    0.0000000   0.0000000   0.0000000   0.0000000   0.0000000   0.0000000   0.0000000   0.0000000   0.0000000   0.0000000
 NMagM=    0.0000000   0.0000000   0.0000000   0.0000000   0.0000000   0.0000000   0.0000000   0.0000000   0.0000000   0.0000000
 AtZNuc=   0.0000000   0.0000000   0.0000000   0.0000000   0.0000000   0.0000000   0.0000000   0.0000000   0.0000000   0.0000000

  Atom       211         212         213         214         215         216         217         218         219         220
 IAtWgt=           0           0           0           0           0           0           0           0           0           0
 AtmWgt=   0.0000000   0.0000000   0.0000000   0.0000000   0.0000000   0.0000000   0.0000000   0.0000000   0.0000000   0.0000000
 NucSpn=           0           0           0           0           0           0           0           0           0           0
 AtZEff=   0.0000000   0.0000000   0.0000000   0.0000000   0.0000000   0.0000000   0.0000000   0.0000000   0.0000000   0.0000000
 NQMom=    0.0000000   0.0000000   0.0000000   0.0000000   0.0000000   0.0000000   0.0000000   0.0000000   0.0000000   0.0000000
 NMagM=    0.0000000   0.0000000   0.0000000   0.0000000   0.0000000   0.0000000   0.0000000   0.0000000   0.0000000   0.0000000
 AtZNuc=   0.0000000   0.0000000   0.0000000   0.0000000   0.0000000   0.0000000   0.0000000   0.0000000   0.0000000   0.0000000

  Atom       221         222         223         224         225         226         227         228         229         230
 IAtWgt=           0           0           0           0           0           0           0           0           0           0
 AtmWgt=   0.0000000   0.0000000   0.0000000   0.0000000   0.0000000   0.0000000   0.0000000   0.0000000   0.0000000   0.0000000
 NucSpn=           0           0           0           0           0           0           0           0           0           0
 AtZEff=   0.0000000   0.0000000   0.0000000   0.0000000   0.0000000   0.0000000   0.0000000   0.0000000   0.0000000   0.0000000
 NQMom=    0.0000000   0.0000000   0.0000000   0.0000000   0.0000000   0.0000000   0.0000000   0.0000000   0.0000000   0.0000000
 NMagM=    0.0000000   0.0000000   0.0000000   0.0000000   0.0000000   0.0000000   0.0000000   0.0000000   0.0000000   0.0000000
 AtZNuc=   0.0000000   0.0000000   0.0000000   0.0000000   0.0000000   0.0000000   0.0000000   0.0000000   0.0000000   0.0000000

  Atom       231         232         233         234         235         236
 IAtWgt=           0           0           0           0           0           0
 AtmWgt=   0.0000000   0.0000000   0.0000000   0.0000000   0.0000000   0.0000000
 NucSpn=           0           0           0           0           0           0
 AtZEff=   0.0000000   0.0000000   0.0000000   0.0000000   0.0000000   0.0000000
 NQMom=    0.0000000   0.0000000   0.0000000   0.0000000   0.0000000   0.0000000
 NMagM=    0.0000000   0.0000000   0.0000000   0.0000000   0.0000000   0.0000000
 AtZNuc=   0.0000000   0.0000000   0.0000000   0.0000000   0.0000000   0.0000000
 Leave Link  101 at Tue Sep 15 11:35:07 2020, MaxMem=   131072000 cpu:         3.1
 (Enter /share/programs/GAUSSIAN/64/g09/l202.exe)
 Symmetry turned off:
 Cannot cope with ghost atoms or with translation vectors.
 Stoichiometry    C22H14
 Framework group  C1[X(C22H14)]
 NUMDOF-- NAT=    36 NAtoms=   236
 Deg. of freedom     0
 Full point group                 C1      NOp   1
                          Input orientation:                          
 ---------------------------------------------------------------------
 Center     Atomic      Atomic             Coordinates (Angstroms)
 Number     Number       Type             X           Y           Z
 ---------------------------------------------------------------------
      1          6           0        0.653241    3.257859   -0.202510
      2          6           0       -0.653243    3.257860    0.202510
      3          6           0        1.372495    2.032956   -0.320807
      4          6           0       -1.372495    2.032956    0.320807
      5          6           0        0.722474    0.795666   -0.050388
      6          6           0       -0.722474    0.795667    0.050387
      7          6           0        2.760385    2.053927   -0.674268
      8          6           0        3.508866    0.913916   -0.671362
      9          6           0        2.955226   -0.309622   -0.177479
     10          6           0        1.574722   -0.361114    0.197094
     11          1           0        1.183427    4.195740   -0.384599
     12          1           0       -1.183429    4.195740    0.384599
     13          1           0        3.206283    3.012423   -0.951392
     14          1           0        4.560023    0.932956   -0.969333
     15          6           0        3.783020   -1.443098    0.028309
     16          6           0        1.137427   -1.507533    0.912109
     17          6           0        1.973691   -2.584349    1.138062
     18          6           0        3.301853   -2.571588    0.661177
     19          1           0        4.825754   -1.391230   -0.295484
     20          1           0        0.124652   -1.532788    1.308472
     21          1           0        1.603586   -3.445682    1.698977
     22          1           0        3.952742   -3.433526    0.825134
     23          6           0       -3.508866    0.913915    0.671362
     24          6           0       -2.760386    2.053926    0.674268
     25          6           0       -2.955226   -0.309623    0.177479
     26          6           0       -1.574722   -0.361114   -0.197094
     27          6           0       -3.783020   -1.443099   -0.028309
     28          6           0       -3.301852   -2.571589   -0.661177
     29          6           0       -1.973690   -2.584349   -1.138061
     30          6           0       -1.137426   -1.507534   -0.912109
     31          1           0       -4.560022    0.932954    0.969334
     32          1           0       -3.206283    3.012421    0.951392
     33          1           0       -4.825754   -1.391232    0.295484
     34          1           0       -3.952741   -3.433528   -0.825134
     35          1           0       -1.603585   -3.445682   -1.698976
     36          1           0       -0.124652   -1.532788   -1.308471
     37          0           0        4.712715   -2.249846   -0.795484
     38          0           0        4.825754   -2.257255   -0.795484
     39          0           0        4.938793   -2.249846   -0.795484
     40          0           0        5.049898   -2.227746   -0.795484
     41          0           0        5.157168   -2.191333   -0.795484
     42          0           0        5.258767   -2.141230   -0.795484
     43          0           0        5.352957   -2.078294   -0.795484
     44          0           0        5.438126   -2.003602   -0.795484
     45          0           0        5.512818   -1.918433   -0.795484
     46          0           0        5.575754   -1.824243   -0.795484
     47          0           0        5.625857   -1.722644   -0.795484
     48          0           0        5.662270   -1.615374   -0.795484
     49          0           0        5.684370   -1.504269   -0.795484
     50          0           0        5.619107   -1.391230   -0.904245
     51          0           0        5.612320   -1.287677   -0.904245
     52          0           0        5.592074   -1.185895   -0.904245
     53          0           0        5.558717   -1.087627   -0.904245
     54          0           0        5.512818   -0.994553   -0.904245
     55          0           0        5.455164   -0.908267   -0.904245
     56          0           0        5.386740   -0.830244   -0.904245
     57          0           0        5.308717   -0.761820   -0.904245
     58          0           0        5.222431   -0.704166   -0.904245
     59          0           0        5.129357   -0.658267   -0.904245
     60          0           0        5.031089   -0.624910   -0.904245
     61          0           0        4.929307   -0.604664   -0.904245
     62          0           0        4.825754   -0.597877   -0.904245
     63          0           0        4.059434   -1.185895   -0.904245
     64          0           0        4.092791   -1.694833   -0.904245
     65          0           0        4.138690   -1.787907   -0.904245
     66          0           0        4.196344   -1.874193   -0.904245
     67          0           0        4.264768   -1.952216   -0.904245
     68          0           0        4.342791   -2.020640   -0.904245
     69          0           0        4.429077   -2.078294   -0.904245
     70          0           0        4.522151   -2.124193   -0.904245
     71          0           0        4.620419   -2.157550   -0.904245
     72          0           0        4.722201   -2.177796   -0.904245
     73          0           0        4.825754   -2.184583   -0.904245
     74          0           0        4.929307   -2.177796   -0.904245
     75          0           0        5.031089   -2.157550   -0.904245
     76          0           0        5.129357   -2.124193   -0.904245
     77          0           0        5.222431   -2.078294   -0.904245
     78          0           0        5.308717   -2.020640   -0.904245
     79          0           0        5.386740   -1.952216   -0.904245
     80          0           0        5.455164   -1.874193   -0.904245
     81          0           0        5.512818   -1.787907   -0.904245
     82          0           0        5.558717   -1.694833   -0.904245
     83          0           0        5.592074   -1.596565   -0.904245
     84          0           0        5.612320   -1.494783   -0.904245
     85          0           0        5.532861   -1.391230   -1.002591
     86          0           0        5.526811   -1.298934   -1.002591
     87          0           0        5.508767   -1.208217   -1.002591
     88          0           0        5.479035   -1.120632   -1.002591
     89          0           0        5.438126   -1.037677   -1.002591
     90          0           0        5.386740   -0.960771   -1.002591
     91          0           0        5.325754   -0.891230   -1.002591
     92          0           0        5.256213   -0.830244   -1.002591
     93          0           0        5.179307   -0.778858   -1.002591
     94          0           0        5.096352   -0.737949   -1.002591
     95          0           0        5.008767   -0.708217   -1.002591
     96          0           0        4.918050   -0.690173   -1.002591
     97          0           0        4.825754   -0.684123   -1.002591
     98          0           0        4.733458   -0.690173   -1.002591
     99          0           0        4.642741   -0.708217   -1.002591
    100          0           0        4.213382   -1.037677   -1.002591
    101          0           0        4.172473   -1.120632   -1.002591
    102          0           0        4.142741   -1.208217   -1.002591
    103          0           0        4.124697   -1.298934   -1.002591
    104          0           0        4.118647   -1.391230   -1.002591
    105          0           0        4.124697   -1.483526   -1.002591
    106          0           0        4.142741   -1.574243   -1.002591
    107          0           0        4.172473   -1.661828   -1.002591
    108          0           0        4.213382   -1.744783   -1.002591
    109          0           0        4.264768   -1.821689   -1.002591
    110          0           0        4.325754   -1.891230   -1.002591
    111          0           0        4.395295   -1.952216   -1.002591
    112          0           0        4.472201   -2.003602   -1.002591
    113          0           0        4.555156   -2.044511   -1.002591
    114          0           0        4.642741   -2.074243   -1.002591
    115          0           0        4.733458   -2.092287   -1.002591
    116          0           0        4.825754   -2.098337   -1.002591
    117          0           0        4.918050   -2.092287   -1.002591
    118          0           0        5.008767   -2.074243   -1.002591
    119          0           0        5.096352   -2.044511   -1.002591
    120          0           0        5.179307   -2.003602   -1.002591
    121          0           0        5.256213   -1.952216   -1.002591
    122          0           0        5.325754   -1.891230   -1.002591
    123          0           0        5.386740   -1.821689   -1.002591
    124          0           0        5.438126   -1.744783   -1.002591
    125          0           0        5.479035   -1.661828   -1.002591
    126          0           0        5.508767   -1.574243   -1.002591
    127          0           0        5.526811   -1.483526   -1.002591
    128          0           0        5.434515   -1.391230   -1.088837
    129          0           0        5.429307   -1.311771   -1.088837
    130          0           0        5.413772   -1.233671   -1.088837
    131          0           0        5.388176   -1.158267   -1.088837
    132          0           0        5.352957   -1.086849   -1.088837
    133          0           0        5.308717   -1.020640   -1.088837
    134          0           0        5.256213   -0.960771   -1.088837
    135          0           0        5.196344   -0.908267   -1.088837
    136          0           0        5.130135   -0.864027   -1.088837
    137          0           0        5.058717   -0.828808   -1.088837
    138          0           0        4.983313   -0.803212   -1.088837
    139          0           0        4.905213   -0.787677   -1.088837
    140          0           0        4.825754   -0.782469   -1.088837
    141          0           0        4.746295   -0.787677   -1.088837
    142          0           0        4.668195   -0.803212   -1.088837
    143          0           0        4.592791   -0.828808   -1.088837
    144          0           0        4.521373   -0.864027   -1.088837
    145          0           0        4.455164   -0.908267   -1.088837
    146          0           0        4.395295   -0.960771   -1.088837
    147          0           0        4.342791   -1.020640   -1.088837
    148          0           0        4.298551   -1.086849   -1.088837
    149          0           0        4.263332   -1.158267   -1.088837
    150          0           0        4.237736   -1.233671   -1.088837
    151          0           0        4.222201   -1.311771   -1.088837
    152          0           0        4.216993   -1.391230   -1.088837
    153          0           0        4.222201   -1.470689   -1.088837
    154          0           0        4.237736   -1.548789   -1.088837
    155          0           0        4.263332   -1.624193   -1.088837
    156          0           0        4.298551   -1.695611   -1.088837
    157          0           0        4.342791   -1.761820   -1.088837
    158          0           0        4.395295   -1.821689   -1.088837
    159          0           0        4.455164   -1.874193   -1.088837
    160          0           0        4.521373   -1.918433   -1.088837
    161          0           0        4.592791   -1.953652   -1.088837
    162          0           0        4.668195   -1.979248   -1.088837
    163          0           0        4.746295   -1.994783   -1.088837
    164          0           0        4.825754   -1.999991   -1.088837
    165          0           0        4.905213   -1.994783   -1.088837
    166          0           0        4.983313   -1.979248   -1.088837
    167          0           0        5.058717   -1.953652   -1.088837
    168          0           0        5.130135   -1.918433   -1.088837
    169          0           0        5.196344   -1.874193   -1.088837
    170          0           0        5.256213   -1.821689   -1.088837
    171          0           0        5.308717   -1.761820   -1.088837
    172          0           0        5.352957   -1.695611   -1.088837
    173          0           0        5.388176   -1.624193   -1.088837
    174          0           0        5.413772   -1.548789   -1.088837
    175          0           0        5.429307   -1.470689   -1.088837
    176          0           0        5.325754   -1.391230   -1.161509
    177          0           0        5.321476   -1.325967   -1.161509
    178          0           0        5.308717   -1.261820   -1.161509
    179          0           0        5.287694   -1.199888   -1.161509
    180          0           0        5.258767   -1.141230   -1.161509
    181          0           0        5.222431   -1.086849   -1.161509
    182          0           0        5.179307   -1.037677   -1.161509
    183          0           0        5.130135   -0.994553   -1.161509
    184          0           0        5.075754   -0.958217   -1.161509
    185          0           0        5.017096   -0.929290   -1.161509
    186          0           0        4.955164   -0.908267   -1.161509
    187          0           0        4.891017   -0.895508   -1.161509
    188          0           0        4.825754   -0.891230   -1.161509
    189          0           0        4.760491   -0.895508   -1.161509
    190          0           0        4.696344   -0.908267   -1.161509
    191          0           0        4.634412   -0.929290   -1.161509
    192          0           0        4.575754   -0.958217   -1.161509
    193          0           0        4.521373   -0.994553   -1.161509
    194          0           0        4.472201   -1.037677   -1.161509
    195          0           0        4.429077   -1.086849   -1.161509
    196          0           0        4.392741   -1.141230   -1.161509
    197          0           0        4.363814   -1.199888   -1.161509
    198          0           0        4.342791   -1.261820   -1.161509
    199          0           0        4.330032   -1.325967   -1.161509
    200          0           0        4.325754   -1.391230   -1.161509
    201          0           0        4.330032   -1.456493   -1.161509
    202          0           0        4.342791   -1.520640   -1.161509
    203          0           0        4.363814   -1.582572   -1.161509
    204          0           0        4.392741   -1.641230   -1.161509
    205          0           0        4.429077   -1.695611   -1.161509
    206          0           0        4.472201   -1.744783   -1.161509
    207          0           0        4.521373   -1.787907   -1.161509
    208          0           0        4.575754   -1.824243   -1.161509
    209          0           0        4.634412   -1.853170   -1.161509
    210          0           0        4.696344   -1.874193   -1.161509
    211          0           0        4.760491   -1.886952   -1.161509
    212          0           0        4.825754   -1.891230   -1.161509
    213          0           0        4.891017   -1.886952   -1.161509
    214          0           0        4.955164   -1.874193   -1.161509
    215          0           0        5.017096   -1.853170   -1.161509
    216          0           0        5.075754   -1.824243   -1.161509
    217          0           0        5.130135   -1.787907   -1.161509
    218          0           0        5.179307   -1.744783   -1.161509
    219          0           0        5.222431   -1.695611   -1.161509
    220          0           0        5.258767   -1.641230   -1.161509
    221          0           0        5.287694   -1.582572   -1.161509
    222          0           0        5.308717   -1.520640   -1.161509
    223          0           0        5.321476   -1.456493   -1.161509
    224          0           0        5.208437   -1.391230   -1.219364
    225          0           0        5.205164   -1.341280   -1.219364
    226          0           0        5.195398   -1.292184   -1.219364
    227          0           0        5.179307   -1.244783   -1.219364
    228          0           0        5.157168   -1.199888   -1.219364
    229          0           0        5.129357   -1.158267   -1.219364
    230          0           0        5.096352   -1.120632   -1.219364
    231          0           0        5.058717   -1.087627   -1.219364
    232          0           0        5.017096   -1.059816   -1.219364
    233          0           0        4.972201   -1.037677   -1.219364
    234          0           0        4.924800   -1.021586   -1.219364
    235          0           0        4.875704   -1.011820   -1.219364
    236          0           0        4.825754   -1.008547   -1.219364
 ---------------------------------------------------------------------
 Rotational constants (GHZ):      0.4454681      0.2811480      0.1854303
 Leave Link  202 at Tue Sep 15 11:35:07 2020, MaxMem=   131072000 cpu:         0.0
 (Enter /share/programs/GAUSSIAN/64/g09/l301.exe)
 Standard basis: 6-311+G(d,p) (5D, 7F)
 Warning:  center  37 has no basis functions!
 Warning:  center  38 has no basis functions!
 Warning:  center  39 has no basis functions!
 Warning:  center  40 has no basis functions!
 Warning:  center  41 has no basis functions!
 Warning:  center  42 has no basis functions!
 Warning:  center  43 has no basis functions!
 Warning:  center  44 has no basis functions!
 Warning:  center  45 has no basis functions!
 Warning:  center  46 has no basis functions!
 Warning:  center  47 has no basis functions!
 Warning:  center  48 has no basis functions!
 Warning:  center  49 has no basis functions!
 Warning:  center  50 has no basis functions!
 Warning:  center  51 has no basis functions!
 Warning:  center  52 has no basis functions!
 Warning:  center  53 has no basis functions!
 Warning:  center  54 has no basis functions!
 Warning:  center  55 has no basis functions!
 Warning:  center  56 has no basis functions!
 Warning:  center  57 has no basis functions!
 Warning:  center  58 has no basis functions!
 Warning:  center  59 has no basis functions!
 Warning:  center  60 has no basis functions!
 Warning:  center  61 has no basis functions!
 Warning:  center  62 has no basis functions!
 Warning:  center  63 has no basis functions!
 Warning:  center  64 has no basis functions!
 Warning:  center  65 has no basis functions!
 Warning:  center  66 has no basis functions!
 Warning:  center  67 has no basis functions!
 Warning:  center  68 has no basis functions!
 Warning:  center  69 has no basis functions!
 Warning:  center  70 has no basis functions!
 Warning:  center  71 has no basis functions!
 Warning:  center  72 has no basis functions!
 Warning:  center  73 has no basis functions!
 Warning:  center  74 has no basis functions!
 Warning:  center  75 has no basis functions!
 Warning:  center  76 has no basis functions!
 Warning:  center  77 has no basis functions!
 Warning:  center  78 has no basis functions!
 Warning:  center  79 has no basis functions!
 Warning:  center  80 has no basis functions!
 Warning:  center  81 has no basis functions!
 Warning:  center  82 has no basis functions!
 Warning:  center  83 has no basis functions!
 Warning:  center  84 has no basis functions!
 Warning:  center  85 has no basis functions!
 Warning:  center  86 has no basis functions!
 Warning:  center  87 has no basis functions!
 Warning:  center  88 has no basis functions!
 Warning:  center  89 has no basis functions!
 Warning:  center  90 has no basis functions!
 Warning:  center  91 has no basis functions!
 Warning:  center  92 has no basis functions!
 Warning:  center  93 has no basis functions!
 Warning:  center  94 has no basis functions!
 Warning:  center  95 has no basis functions!
 Warning:  center  96 has no basis functions!
 Warning:  center  97 has no basis functions!
 Warning:  center  98 has no basis functions!
 Warning:  center  99 has no basis functions!
 Warning:  center 100 has no basis functions!
 Warning:  center 101 has no basis functions!
 Warning:  center 102 has no basis functions!
 Warning:  center 103 has no basis functions!
 Warning:  center 104 has no basis functions!
 Warning:  center 105 has no basis functions!
 Warning:  center 106 has no basis functions!
 Warning:  center 107 has no basis functions!
 Warning:  center 108 has no basis functions!
 Warning:  center 109 has no basis functions!
 Warning:  center 110 has no basis functions!
 Warning:  center 111 has no basis functions!
 Warning:  center 112 has no basis functions!
 Warning:  center 113 has no basis functions!
 Warning:  center 114 has no basis functions!
 Warning:  center 115 has no basis functions!
 Warning:  center 116 has no basis functions!
 Warning:  center 117 has no basis functions!
 Warning:  center 118 has no basis functions!
 Warning:  center 119 has no basis functions!
 Warning:  center 120 has no basis functions!
 Warning:  center 121 has no basis functions!
 Warning:  center 122 has no basis functions!
 Warning:  center 123 has no basis functions!
 Warning:  center 124 has no basis functions!
 Warning:  center 125 has no basis functions!
 Warning:  center 126 has no basis functions!
 Warning:  center 127 has no basis functions!
 Warning:  center 128 has no basis functions!
 Warning:  center 129 has no basis functions!
 Warning:  center 130 has no basis functions!
 Warning:  center 131 has no basis functions!
 Warning:  center 132 has no basis functions!
 Warning:  center 133 has no basis functions!
 Warning:  center 134 has no basis functions!
 Warning:  center 135 has no basis functions!
 Warning:  center 136 has no basis functions!
 Warning:  center 137 has no basis functions!
 Warning:  center 138 has no basis functions!
 Warning:  center 139 has no basis functions!
 Warning:  center 140 has no basis functions!
 Warning:  center 141 has no basis functions!
 Warning:  center 142 has no basis functions!
 Warning:  center 143 has no basis functions!
 Warning:  center 144 has no basis functions!
 Warning:  center 145 has no basis functions!
 Warning:  center 146 has no basis functions!
 Warning:  center 147 has no basis functions!
 Warning:  center 148 has no basis functions!
 Warning:  center 149 has no basis functions!
 Warning:  center 150 has no basis functions!
 Warning:  center 151 has no basis functions!
 Warning:  center 152 has no basis functions!
 Warning:  center 153 has no basis functions!
 Warning:  center 154 has no basis functions!
 Warning:  center 155 has no basis functions!
 Warning:  center 156 has no basis functions!
 Warning:  center 157 has no basis functions!
 Warning:  center 158 has no basis functions!
 Warning:  center 159 has no basis functions!
 Warning:  center 160 has no basis functions!
 Warning:  center 161 has no basis functions!
 Warning:  center 162 has no basis functions!
 Warning:  center 163 has no basis functions!
 Warning:  center 164 has no basis functions!
 Warning:  center 165 has no basis functions!
 Warning:  center 166 has no basis functions!
 Warning:  center 167 has no basis functions!
 Warning:  center 168 has no basis functions!
 Warning:  center 169 has no basis functions!
 Warning:  center 170 has no basis functions!
 Warning:  center 171 has no basis functions!
 Warning:  center 172 has no basis functions!
 Warning:  center 173 has no basis functions!
 Warning:  center 174 has no basis functions!
 Warning:  center 175 has no basis functions!
 Warning:  center 176 has no basis functions!
 Warning:  center 177 has no basis functions!
 Warning:  center 178 has no basis functions!
 Warning:  center 179 has no basis functions!
 Warning:  center 180 has no basis functions!
 Warning:  center 181 has no basis functions!
 Warning:  center 182 has no basis functions!
 Warning:  center 183 has no basis functions!
 Warning:  center 184 has no basis functions!
 Warning:  center 185 has no basis functions!
 Warning:  center 186 has no basis functions!
 Warning:  center 187 has no basis functions!
 Warning:  center 188 has no basis functions!
 Warning:  center 189 has no basis functions!
 Warning:  center 190 has no basis functions!
 Warning:  center 191 has no basis functions!
 Warning:  center 192 has no basis functions!
 Warning:  center 193 has no basis functions!
 Warning:  center 194 has no basis functions!
 Warning:  center 195 has no basis functions!
 Warning:  center 196 has no basis functions!
 Warning:  center 197 has no basis functions!
 Warning:  center 198 has no basis functions!
 Warning:  center 199 has no basis functions!
 Warning:  center 200 has no basis functions!
 Warning:  center 201 has no basis functions!
 Warning:  center 202 has no basis functions!
 Warning:  center 203 has no basis functions!
 Warning:  center 204 has no basis functions!
 Warning:  center 205 has no basis functions!
 Warning:  center 206 has no basis functions!
 Warning:  center 207 has no basis functions!
 Warning:  center 208 has no basis functions!
 Warning:  center 209 has no basis functions!
 Warning:  center 210 has no basis functions!
 Warning:  center 211 has no basis functions!
 Warning:  center 212 has no basis functions!
 Warning:  center 213 has no basis functions!
 Warning:  center 214 has no basis functions!
 Warning:  center 215 has no basis functions!
 Warning:  center 216 has no basis functions!
 Warning:  center 217 has no basis functions!
 Warning:  center 218 has no basis functions!
 Warning:  center 219 has no basis functions!
 Warning:  center 220 has no basis functions!
 Warning:  center 221 has no basis functions!
 Warning:  center 222 has no basis functions!
 Warning:  center 223 has no basis functions!
 Warning:  center 224 has no basis functions!
 Warning:  center 225 has no basis functions!
 Warning:  center 226 has no basis functions!
 Warning:  center 227 has no basis functions!
 Warning:  center 228 has no basis functions!
 Warning:  center 229 has no basis functions!
 Warning:  center 230 has no basis functions!
 Warning:  center 231 has no basis functions!
 Warning:  center 232 has no basis functions!
 Warning:  center 233 has no basis functions!
 Warning:  center 234 has no basis functions!
 Warning:  center 235 has no basis functions!
 Warning:  center 236 has no basis functions!
 Ernie: Thresh=  0.10000D-02 Tol=  0.10000D-05 Strict=F.
   568 basis functions,   904 primitive gaussians,   590 cartesian basis functions
    73 alpha electrons       73 beta electrons
       nuclear repulsion energy      1599.9156270972 Hartrees.
 IExCor=  402 DFT=T Ex+Corr=B3LYP ExCW=0 ScaHFX=  0.200000
 ScaDFX=  0.800000  0.720000  1.000000  0.810000 ScalE2=  1.000000  1.000000
 IRadAn=      0 IRanWt=     -1 IRanGd=            0 ICorTp=0 IEmpDi=  4
 NAtoms=  236 NActive=  236 NUniq=  236 SFac= 1.00D+00 NAtFMM=   60 NAOKFM=T Big=T
 Integral buffers will be    131072 words long.
 Raffenetti 2 integral format.
 Two-electron integral symmetry is turned off.
 Leave Link  301 at Tue Sep 15 11:35:08 2020, MaxMem=   131072000 cpu:         0.5
 (Enter /share/programs/GAUSSIAN/64/g09/l302.exe)
 NPDir=0 NMtPBC=     1 NCelOv=     1 NCel=       1 NClECP=     1 NCelD=      1
         NCelK=      1 NCelE2=     1 NClLst=     1 CellRange=     0.0.
 One-electron integrals computed using PRISM.
 NBasis=   568 RedAO= T EigKep=  1.01D-06  NBF=   568
 NBsUse=   557 1.00D-06 EigRej=  9.19D-07 NBFU=   557
 Precomputing XC quadrature grid using
 IXCGrd= 4 IRadAn=           0 IRanWt=          -1 IRanGd=           0 AccXCQ= 0.00D+00.
 Generated NRdTot=       0 NPtTot=           0 NUsed=           0 NTot=          32
 NSgBfM=   587   588   588   589   589 MxSgAt=   236 MxSgA2=    36.
 Leave Link  302 at Tue Sep 15 11:35:09 2020, MaxMem=   131072000 cpu:        15.0
 (Enter /share/programs/GAUSSIAN/64/g09/l308.exe)
 Leave Link  308 at Tue Sep 15 11:35:10 2020, MaxMem=   131072000 cpu:         1.1
 (Enter /share/programs/GAUSSIAN/64/g09/l303.exe)
 DipDrv:  MaxL=1.
 Leave Link  303 at Tue Sep 15 11:35:10 2020, MaxMem=   131072000 cpu:         0.8
 (Enter /share/programs/GAUSSIAN/64/g09/l401.exe)
 Initial guess from the checkpoint file:  "/scratch/aartigas.38942/Gau-32099.chk"
 Skipping rotation of guess because NAtoms(RWF)=  236 differs from NAtoms(Chk)=   36.
 Guess basis will be translated and rotated to current coordinates.
 JPrj=2 DoOrth=T DoCkMO=T.
 Leave Link  401 at Tue Sep 15 11:35:12 2020, MaxMem=   131072000 cpu:        10.2
 (Enter /share/programs/GAUSSIAN/64/g09/l502.exe)
 Closed shell SCF:
 Using DIIS extrapolation, IDIIS=  1040.
 Two-electron integral symmetry not used.
 IVT=     1071582 IEndB=     1071582 NGot=   131072000 MDV=   130365749
 LenX=   130365749 LenY=   130017059
 Requested convergence on RMS density matrix=1.00D-08 within 128 cycles.
 Requested convergence on MAX density matrix=1.00D-06.
 Requested convergence on             energy=1.00D-06.
 No special actions if energy rises.
 Fock matrices will be formed incrementally for  20 cycles.

 Cycle   1  Pass 1  IDiag  1:
 FoFJK:  IHMeth= 1 ICntrl=       0 DoSepK=F KAlg= 0 I1Cent=   0 FoldK=F
 IRaf= 940000000 NMat=   1 IRICut=       1 DoRegI=T DoRafI=F ISym2E= 0.
 FoFCou: FMM=T IPFlag=           0 FMFlag=      100000 FMFlg1=        2001
         NFxFlg=           0 DoJE=F BraDBF=F KetDBF=F FulRan=T
         wScrn=  0.000000 ICntrl=       0 IOpCl=  0 I1Cent=           0 NGrid=           0
         NMat0=    1 NMatS0=      1 NMatT0=    0 NMatD0=    1 NMtDS0=    0 NMtDT0=    0
 Symmetry not used in FoFCou.
 FMM levels:  10  Number of levels for PrismC:   9
 E= -847.003738666969    
 DIIS: error= 5.05D-08 at cycle   1 NSaved=   1.
 NSaved= 1 IEnMin= 1 EnMin= -847.003738666969     IErMin= 1 ErrMin= 5.05D-08
 ErrMax= 5.05D-08  0.00D+00 EMaxC= 1.00D-01 BMatC= 3.55D-12 BMatP= 3.55D-12
 IDIUse=1 WtCom= 1.00D+00 WtEn= 0.00D+00
 Coeff-Com:  0.100D+01
 Coeff:      0.100D+01
 Gap=     0.151 Goal=   None    Shift=    0.000
 RMSDP=2.89D-07 MaxDP=1.34D-05              OVMax= 3.94D-07

 Cycle   2  Pass 1  IDiag  1:
 RMSU=  2.85D-07    CP:  1.00D+00
 E= -847.003738666787     Delta-E=        0.000000000182 Rises=F Damp=F
 DIIS: error= 1.42D-08 at cycle   2 NSaved=   2.
 NSaved= 2 IEnMin= 1 EnMin= -847.003738666969     IErMin= 2 ErrMin= 1.42D-08
 ErrMax= 1.42D-08  0.00D+00 EMaxC= 1.00D-01 BMatC= 2.13D-13 BMatP= 3.55D-12
 IDIUse=1 WtCom= 1.00D+00 WtEn= 0.00D+00
 Coeff-Com:  0.627D-01 0.937D+00
 Coeff:      0.627D-01 0.937D+00
 Gap=     0.151 Goal=   None    Shift=    0.000
 RMSDP=1.58D-08 MaxDP=7.92D-07 DE= 1.82D-10 OVMax= 3.02D-07

 Cycle   3  Pass 1  IDiag  1:
 RMSU=  1.33D-08    CP:  1.00D+00  1.02D+00
 E= -847.003738666779     Delta-E=        0.000000000008 Rises=F Damp=F
 DIIS: error= 2.51D-08 at cycle   3 NSaved=   3.
 NSaved= 3 IEnMin= 1 EnMin= -847.003738666969     IErMin= 2 ErrMin= 1.42D-08
 ErrMax= 2.51D-08  0.00D+00 EMaxC= 1.00D-01 BMatC= 5.05D-13 BMatP= 2.13D-13
 IDIUse=1 WtCom= 1.00D+00 WtEn= 0.00D+00
 Coeff-Com: -0.107D-01 0.616D+00 0.395D+00
 Coeff:     -0.107D-01 0.616D+00 0.395D+00
 Gap=     0.151 Goal=   None    Shift=    0.000
 RMSDP=1.03D-08 MaxDP=4.24D-07 DE= 7.73D-12 OVMax= 2.17D-07

 Cycle   4  Pass 1  IDiag  1:
 RMSU=  5.82D-09    CP:  1.00D+00  1.02D+00  3.87D-01
 E= -847.003738666792     Delta-E=       -0.000000000013 Rises=F Damp=F
 DIIS: error= 8.06D-09 at cycle   4 NSaved=   4.
 NSaved= 4 IEnMin= 1 EnMin= -847.003738666969     IErMin= 4 ErrMin= 8.06D-09
 ErrMax= 8.06D-09  0.00D+00 EMaxC= 1.00D-01 BMatC= 2.06D-14 BMatP= 2.13D-13
 IDIUse=1 WtCom= 1.00D+00 WtEn= 0.00D+00
 Coeff-Com: -0.876D-02 0.309D+00 0.241D+00 0.459D+00
 Coeff:     -0.876D-02 0.309D+00 0.241D+00 0.459D+00
 Gap=     0.151 Goal=   None    Shift=    0.000
 RMSDP=4.11D-09 MaxDP=1.51D-07 DE=-1.27D-11 OVMax= 6.88D-08

 SCF Done:  E(RB3LYP) =  -847.003738667     A.U. after    4 cycles
            NFock=  4  Conv=0.41D-08     -V/T= 2.0049
 KE= 8.428349970567D+02 PE=-5.164192584015D+03 EE= 1.874438221195D+03
 Leave Link  502 at Tue Sep 15 11:37:22 2020, MaxMem=   131072000 cpu:      1040.0
 (Enter /share/programs/GAUSSIAN/64/g09/l801.exe)
 DoSCS=F DFT=T ScalE2(SS,OS)=  1.000000  1.000000
 Range of M.O.s used for correlation:     1   557
 NBasis=   568 NAE=    73 NBE=    73 NFC=     0 NFV=     0
 NROrb=    557 NOA=    73 NOB=    73 NVA=   484 NVB=   484

 **** Warning!!: The largest alpha MO coefficient is  0.14271947D+03

 Leave Link  801 at Tue Sep 15 11:37:23 2020, MaxMem=   131072000 cpu:         0.3
 (Enter /share/programs/GAUSSIAN/64/g09/l1002.exe)
 Minotr:  Closed shell wavefunction.
          Direct CPHF calculation.
          Differentiating once with respect to magnetic field using GIAOs.
          Electric field/nuclear overlap derivatives assumed to be zero.
          Requested convergence is 1.0D-08 RMS, and 1.0D-07 maximum.
          Secondary convergence is 1.0D-12 RMS, and 1.0D-12 maximum.
          NewPWx=T KeepS1=F KeepF1=F KeepIn=T MapXYZ=F SortEE=F KeepMc=T.
          MDV=     131069551 using IRadAn=       2.
 Generate precomputed XC quadrature information.
          Solving linear equations simultaneously, MaxMat=      72.
 FoFCou: FMM=F IPFlag=           0 FMFlag=      100000 FMFlg1=        2001
         NFxFlg=           0 DoJE=F BraDBF=F KetDBF=T FulRan=T
         wScrn=  0.000000 ICntrl=    6100 IOpCl=  0 I1Cent=           7 NGrid=         236
         NMat0=    1 NMatS0=      1 NMatT0=    0 NMatD0=    1 NMtDS0=    0 NMtDT0=    0
 Symmetry not used in FoFCou.
 FoFJK:  IHMeth= 1 ICntrl=    6127 DoSepK=F KAlg= 0 I1Cent=   0 FoldK=F
 IRaf=         1 NMat=   1 IRICut=       1 DoRegI=T DoRafI=F ISym2E= 0.
          There are     3 degrees of freedom in the 1st order CPHF.  IDoFFX=0 NUNeed=     3.
      3 vectors produced by pass  0 Test12= 1.18D-12 3.33D-08 XBig12= 1.96D+03 8.77D+00.
 AX will form     3 AO Fock derivatives at one time.
      3 vectors produced by pass  1 Test12= 1.18D-12 3.33D-08 XBig12= 3.18D+00 7.58D-01.
      3 vectors produced by pass  2 Test12= 1.18D-12 3.33D-08 XBig12= 1.86D-02 5.85D-02.
      3 vectors produced by pass  3 Test12= 1.18D-12 3.33D-08 XBig12= 4.29D-05 1.35D-03.
      3 vectors produced by pass  4 Test12= 1.18D-12 3.33D-08 XBig12= 9.75D-08 7.22D-05.
      3 vectors produced by pass  5 Test12= 1.18D-12 3.33D-08 XBig12= 3.97D-10 5.92D-06.
      3 vectors produced by pass  6 Test12= 1.18D-12 3.33D-08 XBig12= 1.51D-12 4.40D-07.
 InvSVY:  IOpt=1 It=  1 EMax= 1.42D-14
 Solved reduced A of dimension    21 with     3 vectors.
 Calculating GIAO nuclear magnetic shielding tensors.
 SCF GIAO Magnetic shielding tensor (ppm):
      1  C    Isotropic =    49.6861   Anisotropy =   149.7970
   XX=    46.3088   YX=   -25.0950   ZX=    31.4786
   XY=   -31.1109   YY=   -39.0339   ZY=    13.2621
   XZ=    24.9178   YZ=     8.9888   ZZ=   141.7833
   Eigenvalues:   -49.3507    48.8581   149.5507
      2  C    Isotropic =    49.6861   Anisotropy =   149.7971
   XX=    46.3088   YX=    25.0953   ZX=    31.4786
   XY=    31.1111   YY=   -39.0339   ZY=   -13.2621
   XZ=    24.9177   YZ=    -8.9889   ZZ=   141.7834
   Eigenvalues:   -49.3508    48.8583   149.5509
      3  C    Isotropic =    44.4899   Anisotropy =   204.7372
   XX=   -22.2199   YX=    10.8075   ZX=    51.2710
   XY=     4.9259   YY=   -14.7126   ZY=    14.7921
   XZ=    32.3655   YZ=    21.2392   ZZ=   170.4022
   Eigenvalues:   -31.9593   -15.5523   180.9814
      4  C    Isotropic =    44.4899   Anisotropy =   204.7373
   XX=   -22.2198   YX=   -10.8075   ZX=    51.2710
   XY=    -4.9256   YY=   -14.7126   ZY=   -14.7922
   XZ=    32.3656   YZ=   -21.2393   ZZ=   170.4023
   Eigenvalues:   -31.9592   -15.5524   180.9815
      5  C    Isotropic =    48.5420   Anisotropy =   189.5490
   XX=   -14.6790   YX=     4.7342   ZX=     8.4333
   XY=    20.3759   YY=    -5.5375   ZY=    31.5121
   XZ=    65.1218   YZ=     0.8640   ZZ=   165.8426
   Eigenvalues:   -26.3226    -2.9593   174.9080
      6  C    Isotropic =    48.5421   Anisotropy =   189.5489
   XX=   -14.6789   YX=    -4.7340   ZX=     8.4335
   XY=   -20.3758   YY=    -5.5374   ZY=   -31.5121
   XZ=    65.1218   YZ=    -0.8638   ZZ=   165.8426
   Eigenvalues:   -26.3224    -2.9594   174.9080
      7  C    Isotropic =    50.1907   Anisotropy =   149.2089
   XX=    19.7303   YX=   -44.2755   ZX=    41.2886
   XY=   -38.0437   YY=    -2.7069   ZY=    36.9011
   XZ=    36.5866   YZ=    37.5458   ZZ=   133.5487
   Eigenvalues:   -49.6656    50.5744   149.6633
      8  C    Isotropic =    48.9362   Anisotropy =   152.4339
   XX=   -31.5093   YX=   -11.4921   ZX=    54.7730
   XY=   -19.0468   YY=    46.5898   ZY=    27.5522
   XZ=    42.2451   YZ=    29.8391   ZZ=   131.7282
   Eigenvalues:   -50.1461    46.3960   150.5589
      9  C    Isotropic =    44.4204   Anisotropy =   209.3981
   XX=   -10.1987   YX=    16.7536   ZX=    44.4888
   XY=     8.9342   YY=    -7.7270   ZY=    61.4651
   XZ=    43.3269   YZ=    64.9792   ZZ=   151.1869
   Eigenvalues:   -30.3689   -20.3891   184.0192
     10  C    Isotropic =    45.3894   Anisotropy =   198.3236
   XX=    -5.9706   YX=    23.3819   ZX=    35.6519
   XY=    38.1954   YY=     1.7271   ZY=    73.1370
   XZ=    54.0013   YZ=    45.7045   ZZ=   140.4116
   Eigenvalues:   -33.5315    -7.9055   177.6051
     11  H    Isotropic =    23.8179   Anisotropy =     7.5674
   XX=    27.2191   YX=    -1.9090   ZX=    -2.2602
   XY=    -1.7961   YY=    24.8722   ZY=    -0.1966
   XZ=    -3.3763   YZ=    -0.1950   ZZ=    19.3625
   Eigenvalues:    18.3647    24.2263    28.8628
     12  H    Isotropic =    23.8179   Anisotropy =     7.5674
   XX=    27.2191   YX=     1.9090   ZX=    -2.2602
   XY=     1.7961   YY=    24.8722   ZY=     0.1966
   XZ=    -3.3763   YZ=     0.1950   ZZ=    19.3625
   Eigenvalues:    18.3647    24.2263    28.8628
     13  H    Isotropic =    23.8548   Anisotropy =     7.5124
[...]
   133  Bq   0.000000
   134  Bq   0.000000
   135  Bq   0.000000
   136  Bq   0.000000
   137  Bq   0.000000
   138  Bq   0.000000
   139  Bq   0.000000
   140  Bq   0.000000
   141  Bq   0.000000
   142  Bq   0.000000
   143  Bq   0.000000
   144  Bq   0.000000
   145  Bq   0.000000
   146  Bq   0.000000
   147  Bq   0.000000
   148  Bq   0.000000
   149  Bq   0.000000
   150  Bq   0.000000
   151  Bq   0.000000
   152  Bq   0.000000
   153  Bq   0.000000
   154  Bq   0.000000
   155  Bq   0.000000
   156  Bq   0.000000
   157  Bq   0.000000
   158  Bq   0.000000
   159  Bq   0.000000
   160  Bq   0.000000
   161  Bq   0.000000
   162  Bq   0.000000
   163  Bq   0.000000
   164  Bq   0.000000
   165  Bq   0.000000
   166  Bq   0.000000
   167  Bq   0.000000
   168  Bq   0.000000
   169  Bq   0.000000
   170  Bq   0.000000
   171  Bq   0.000000
   172  Bq   0.000000
   173  Bq   0.000000
   174  Bq   0.000000
   175  Bq   0.000000
   176  Bq   0.000000
   177  Bq   0.000000
   178  Bq   0.000000
   179  Bq   0.000000
   180  Bq   0.000000
   181  Bq   0.000000
   182  Bq   0.000000
   183  Bq   0.000000
   184  Bq   0.000000
   185  Bq   0.000000
   186  Bq   0.000000
   187  Bq   0.000000
   188  Bq   0.000000
   189  Bq   0.000000
   190  Bq   0.000000
   191  Bq   0.000000
   192  Bq   0.000000
   193  Bq   0.000000
   194  Bq   0.000000
   195  Bq   0.000000
   196  Bq   0.000000
   197  Bq   0.000000
   198  Bq   0.000000
   199  Bq   0.000000
   200  Bq   0.000000
   201  Bq   0.000000
   202  Bq   0.000000
   203  Bq   0.000000
   204  Bq   0.000000
   205  Bq   0.000000
   206  Bq   0.000000
   207  Bq   0.000000
   208  Bq   0.000000
   209  Bq   0.000000
   210  Bq   0.000000
   211  Bq   0.000000
   212  Bq   0.000000
   213  Bq   0.000000
   214  Bq   0.000000
   215  Bq   0.000000
   216  Bq   0.000000
   217  Bq   0.000000
   218  Bq   0.000000
   219  Bq   0.000000
   220  Bq   0.000000
   221  Bq   0.000000
   222  Bq   0.000000
   223  Bq   0.000000
   224  Bq   0.000000
   225  Bq   0.000000
   226  Bq   0.000000
   227  Bq   0.000000
   228  Bq   0.000000
   229  Bq   0.000000
   230  Bq   0.000000
   231  Bq   0.000000
   232  Bq   0.000000
   233  Bq   0.000000
   234  Bq   0.000000
   235  Bq   0.000000
   236  Bq   0.000000
 Sum of Mulliken charges =   0.00000
 Mulliken charges with hydrogens summed into heavy atoms:
               1
     1  C   -0.262865
     2  C   -0.262866
     3  C    0.737923
     4  C    0.737922
     5  C   -0.039994
     6  C   -0.040001
     7  C    0.075155
     8  C   -0.330147
     9  C    0.780501
    10  C   -0.200782
    15  C    0.130592
    16  C   -0.533462
    17  C   -0.189404
    18  C   -0.286191
    23  C   -0.330145
    24  C    0.075154
    25  C    0.780496
    26  C   -0.200782
    27  C    0.249273
    28  C   -0.286192
    29  C   -0.189403
    30  C   -0.533462
    37  Bq   0.000000
    38  Bq   0.000000
    39  Bq   0.000000
    40  Bq   0.000000
    41  Bq   0.000000
    42  Bq   0.000000
    43  Bq   0.000000
    44  Bq   0.000000
    45  Bq   0.000000
    46  Bq   0.000000
    47  Bq   0.000000
    48  Bq   0.000000
    49  Bq   0.000000
    50  Bq   0.000000
    51  Bq   0.000000
    52  Bq   0.000000
    53  Bq   0.118681
    54  Bq   0.000000
    55  Bq   0.000000
    56  Bq   0.000000
    57  Bq   0.000000
    58  Bq   0.000000
    59  Bq   0.000000
    60  Bq   0.000000
    61  Bq   0.000000
    62  Bq   0.000000
    63  Bq   0.000000
    64  Bq   0.000000
    65  Bq   0.000000
    66  Bq   0.000000
    67  Bq   0.000000
    68  Bq   0.000000
    69  Bq   0.000000
    70  Bq   0.000000
    71  Bq   0.000000
    72  Bq   0.000000
    73  Bq   0.000000
    74  Bq   0.000000
    75  Bq   0.000000
    76  Bq   0.000000
    77  Bq   0.000000
    78  Bq   0.000000
    79  Bq   0.000000
    80  Bq   0.000000
    81  Bq   0.000000
    82  Bq   0.000000
    83  Bq   0.000000
    84  Bq   0.000000
    85  Bq   0.000000
    86  Bq   0.000000
    87  Bq   0.000000
    88  Bq   0.000000
    89  Bq   0.000000
    90  Bq   0.000000
    91  Bq   0.000000
    92  Bq   0.000000
    93  Bq   0.000000
    94  Bq   0.000000
    95  Bq   0.000000
    96  Bq   0.000000
    97  Bq   0.000000
    98  Bq   0.000000
    99  Bq   0.000000
   100  Bq   0.000000
   101  Bq   0.000000
   102  Bq   0.000000
   103  Bq   0.000000
   104  Bq   0.000000
   105  Bq   0.000000
   106  Bq   0.000000
   107  Bq   0.000000
   108  Bq   0.000000
   109  Bq   0.000000
   110  Bq   0.000000
   111  Bq   0.000000
   112  Bq   0.000000
   113  Bq   0.000000
   114  Bq   0.000000
   115  Bq   0.000000
   116  Bq   0.000000
   117  Bq   0.000000
   118  Bq   0.000000
   119  Bq   0.000000
   120  Bq   0.000000
   121  Bq   0.000000
   122  Bq   0.000000
   123  Bq   0.000000
   124  Bq   0.000000
   125  Bq   0.000000
   126  Bq   0.000000
   127  Bq   0.000000
   128  Bq   0.000000
   129  Bq   0.000000
   130  Bq   0.000000
   131  Bq   0.000000
   132  Bq   0.000000
   133  Bq   0.000000
   134  Bq   0.000000
   135  Bq   0.000000
   136  Bq   0.000000
   137  Bq   0.000000
   138  Bq   0.000000
   139  Bq   0.000000
   140  Bq   0.000000
   141  Bq   0.000000
   142  Bq   0.000000
   143  Bq   0.000000
   144  Bq   0.000000
   145  Bq   0.000000
   146  Bq   0.000000
   147  Bq   0.000000
   148  Bq   0.000000
   149  Bq   0.000000
   150  Bq   0.000000
   151  Bq   0.000000
   152  Bq   0.000000
   153  Bq   0.000000
   154  Bq   0.000000
   155  Bq   0.000000
   156  Bq   0.000000
   157  Bq   0.000000
   158  Bq   0.000000
   159  Bq   0.000000
   160  Bq   0.000000
   161  Bq   0.000000
   162  Bq   0.000000
   163  Bq   0.000000
   164  Bq   0.000000
   165  Bq   0.000000
   166  Bq   0.000000
   167  Bq   0.000000
   168  Bq   0.000000
   169  Bq   0.000000
   170  Bq   0.000000
   171  Bq   0.000000
   172  Bq   0.000000
   173  Bq   0.000000
   174  Bq   0.000000
   175  Bq   0.000000
   176  Bq   0.000000
   177  Bq   0.000000
   178  Bq   0.000000
   179  Bq   0.000000
   180  Bq   0.000000
   181  Bq   0.000000
   182  Bq   0.000000
   183  Bq   0.000000
   184  Bq   0.000000
   185  Bq   0.000000
   186  Bq   0.000000
   187  Bq   0.000000
   188  Bq   0.000000
   189  Bq   0.000000
   190  Bq   0.000000
   191  Bq   0.000000
   192  Bq   0.000000
   193  Bq   0.000000
   194  Bq   0.000000
   195  Bq   0.000000
   196  Bq   0.000000
   197  Bq   0.000000
   198  Bq   0.000000
   199  Bq   0.000000
   200  Bq   0.000000
   201  Bq   0.000000
   202  Bq   0.000000
   203  Bq   0.000000
   204  Bq   0.000000
   205  Bq   0.000000
   206  Bq   0.000000
   207  Bq   0.000000
   208  Bq   0.000000
   209  Bq   0.000000
   210  Bq   0.000000
   211  Bq   0.000000
   212  Bq   0.000000
   213  Bq   0.000000
   214  Bq   0.000000
   215  Bq   0.000000
   216  Bq   0.000000
   217  Bq   0.000000
   218  Bq   0.000000
   219  Bq   0.000000
   220  Bq   0.000000
   221  Bq   0.000000
   222  Bq   0.000000
   223  Bq   0.000000
   224  Bq   0.000000
   225  Bq   0.000000
   226  Bq   0.000000
   227  Bq   0.000000
   228  Bq   0.000000
   229  Bq   0.000000
   230  Bq   0.000000
   231  Bq   0.000000
   232  Bq   0.000000
   233  Bq   0.000000
   234  Bq   0.000000
   235  Bq   0.000000
   236  Bq   0.000000
 Electronic spatial extent (au):  <R**2>=           5804.3227
 Charge=              0.0000 electrons
 Dipole moment (field-independent basis, Debye):
    X=              0.0000    Y=              0.0732    Z=              0.0000  Tot=              0.0732
 Quadrupole moment (field-independent basis, Debye-Ang):
   XX=           -113.9137   YY=           -113.9781   ZZ=           -133.4378
   XY=              0.0000   XZ=             -4.8717   YZ=              0.0000
 Traceless Quadrupole moment (field-independent basis, Debye-Ang):
   XX=              6.5295   YY=              6.4651   ZZ=            -12.9946
   XY=              0.0000   XZ=             -4.8717   YZ=              0.0000
 Octapole moment (field-independent basis, Debye-Ang**2):
  XXX=              0.0000  YYY=             11.7108  ZZZ=              0.0000  XYY=              0.0000
  XXY=             -6.4067  XXZ=              0.0000  XZZ=              0.0000  YZZ=             -7.8695
  YYZ=              0.0000  XYZ=            -16.2862
 Hexadecapole moment (field-independent basis, Debye-Ang**3):
 XXXX=          -4416.4021 YYYY=          -2784.9756 ZZZZ=           -481.5690 XXXY=              0.0001
 XXXZ=           -124.3517 YYYX=             -0.0003 YYYZ=              0.0001 ZZZX=             -4.4782
 ZZZY=              0.0001 XXYY=          -1189.3576 XXZZ=           -942.9016 YYZZ=           -589.4012
 XXYZ=              0.0000 YYXZ=              7.8297 ZZXY=             -0.0001
 N-N= 1.599915627097D+03 E-N=-5.164192587538D+03  KE= 8.428349970567D+02
 Leave Link  601 at Tue Sep 15 11:47:58 2020, MaxMem=   131072000 cpu:         0.8
 (Enter /share/programs/GAUSSIAN/64/g09/l9999.exe)
 1\1\GINC-XHYSTOS\SP\RB3LYP\6-311+G(d,p)\C22H14\AARTIGAS\15-Sep-2020\0\
 \#P rb3lyp/6-311+g** NMR Guess=Read geom=connectivity\\Title\\0,1\C,0,
 0.653241,3.257859,-0.20251\C,0,-0.653243,3.25786,0.20251\C,0,1.372495,
 2.032956,-0.320807\C,0,-1.372495,2.032956,0.320807\C,0,0.722474,0.7956
 66,-0.050388\C,0,-0.722474,0.795667,0.050387\C,0,2.760385,2.053927,-0.
 674268\C,0,3.508866,0.913916,-0.671362\C,0,2.955226,-0.309622,-0.17747
 9\C,0,1.574722,-0.361114,0.197094\H,0,1.183427,4.19574,-0.384599\H,0,-
 1.183429,4.19574,0.384599\H,0,3.206283,3.012423,-0.951392\H,0,4.560023
 ,0.932956,-0.969333\C,0,3.78302,-1.443098,0.028309\C,0,1.137427,-1.507
 533,0.912109\C,0,1.973691,-2.584349,1.138062\C,0,3.301853,-2.571588,0.
 661177\H,0,4.825754,-1.39123,-0.295484\H,0,0.124652,-1.532788,1.308472
 \H,0,1.603586,-3.445682,1.698977\H,0,3.952742,-3.433526,0.825134\C,0,-
 3.508866,0.913915,0.671362\C,0,-2.760386,2.053926,0.674268\C,0,-2.9552
 26,-0.309623,0.177479\C,0,-1.574722,-0.361114,-0.197094\C,0,-3.78302,-
 1.443099,-0.028309\C,0,-3.301852,-2.571589,-0.661177\C,0,-1.97369,-2.5
 84349,-1.138061\C,0,-1.137426,-1.507534,-0.912109\H,0,-4.560022,0.9329
 54,0.969334\H,0,-3.206283,3.012421,0.951392\H,0,-4.825754,-1.391232,0.
 295484\H,0,-3.952741,-3.433528,-0.825134\H,0,-1.603585,-3.445682,-1.69
 8976\H,0,-0.124652,-1.532788,-1.308471\Bq,0,4.7127150017,-2.2498464364
 ,-0.795484\Bq,0,4.825754,-2.2572554038,-0.795484\Bq,0,4.9387929983,-2.
 2498464364,-0.795484\Bq,0,5.049897868,-2.2277463037,-0.795484\Bq,0,5.1
 57167574,-2.1913331452,-0.795484\Bq,0,5.2587667019,-2.14123,-0.795484\
 Bq,0,5.3529568624,-2.0782941469,-0.795484\Bq,0,5.4381264357,-2.0036024
 357,-0.795484\Bq,0,5.5128181469,-1.9184328624,-0.795484\Bq,0,5.575754,
 -1.8242427019,-0.795484\Bq,0,5.6258571452,-1.722643574,-0.795484\Bq,0,
 5.6622703037,-1.615373868,-0.795484\Bq,0,5.6843704364,-1.5042689983,-0
 .795484\Bq,0,5.6191073403,-1.39123,-0.904245429\Bq,0,5.6123200925,-1.2
 876766094,-0.904245429\Bq,0,5.5920744808,-1.185895046,-0.904245429\Bq,
 0,5.5587169131,-1.0876268207,-0.904245429\Bq,0,5.5128181469,-0.9945533
 299,-0.904245429\Bq,0,5.4551635226,-0.9082670869,-0.904245429\Bq,0,5.3
 867395268,-0.8302444732,-0.904245429\Bq,0,5.3087169131,-0.7618204774,-
 0.904245429\Bq,0,5.2224306701,-0.7041658531,-0.904245429\Bq,0,5.129357
 1793,-0.6582670869,-0.904245429\Bq,0,5.031088954,-0.6249095192,-0.9042
 45429\Bq,0,4.9293073906,-0.6046639075,-0.904245429\Bq,0,4.825754,-0.59
 78766597,-0.904245429\Bq,0,4.0594335192,-1.185895046,-0.904245429\Bq,0
 ,4.0927910869,-1.6948331793,-0.904245429\Bq,0,4.1386898531,-1.78790667
 01,-0.904245429\Bq,0,4.1963444774,-1.8741929131,-0.904245429\Bq,0,4.26
 47684732,-1.9522155268,-0.904245429\Bq,0,4.3427910869,-2.0206395226,-0
 .904245429\Bq,0,4.4290773299,-2.0782941469,-0.904245429\Bq,0,4.5221508
 207,-2.1241929131,-0.904245429\Bq,0,4.620419046,-2.1575504808,-0.90424
 5429\Bq,0,4.7222006094,-2.1777960925,-0.904245429\Bq,0,4.825754,-2.184
 5833403,-0.904245429\Bq,0,4.9293073906,-2.1777960925,-0.904245429\Bq,0
 ,5.031088954,-2.1575504808,-0.904245429\Bq,0,5.1293571793,-2.124192913
 1,-0.904245429\Bq,0,5.2224306701,-2.0782941469,-0.904245429\Bq,0,5.308
 7169131,-2.0206395226,-0.904245429\Bq,0,5.3867395268,-1.9522155268,-0.
 904245429\Bq,0,5.4551635226,-1.8741929131,-0.904245429\Bq,0,5.51281814
 69,-1.7879066701,-0.904245429\Bq,0,5.5587169131,-1.6948331793,-0.90424
 5429\Bq,0,5.5920744808,-1.596564954,-0.904245429\Bq,0,5.6123200925,-1.
 4947833906,-0.904245429\Bq,0,5.5328607812,-1.39123,-1.0025907812\Bq,0,
 5.5268113846,-1.2989340444,-1.0025907812\Bq,0,5.5087667019,-1.20821729
 81,-1.0025907812\Bq,0,5.4790354824,-1.1206319499,-1.0025907812\Bq,0,5.
 4381264357,-1.0376766094,-1.0025907812\Bq,0,5.3867395268,-0.9607706654
 ,-1.0025907812\Bq,0,5.325754,-0.89123,-1.0025907812\Bq,0,5.2562133346,
 -0.8302444732,-1.0025907812\Bq,0,5.1793073906,-0.7788575643,-1.0025907
 812\Bq,0,5.0963520501,-0.7379485176,-1.0025907812\Bq,0,5.0087667019,-0
 .7082172981,-1.0025907812\Bq,0,4.9180499556,-0.6901726154,-1.002590781
 2\Bq,0,4.825754,-0.6841232188,-1.0025907812\Bq,0,4.7334580444,-0.69017
 26154,-1.0025907812\Bq,0,4.6427412981,-0.7082172981,-1.0025907812\Bq,0
 ,4.2133815643,-1.0376766094,-1.0025907812\Bq,0,4.1724725176,-1.1206319
 499,-1.0025907812\Bq,0,4.1427412981,-1.2082172981,-1.0025907812\Bq,0,4
 .1246966154,-1.2989340444,-1.0025907812\Bq,0,4.1186472188,-1.39123,-1.
 0025907812\Bq,0,4.1246966154,-1.4835259556,-1.0025907812\Bq,0,4.142741
 2981,-1.5742427019,-1.0025907812\Bq,0,4.1724725176,-1.6618280501,-1.00
 25907812\Bq,0,4.2133815643,-1.7447833906,-1.0025907812\Bq,0,4.26476847
 32,-1.8216893346,-1.0025907812\Bq,0,4.325754,-1.89123,-1.0025907812\Bq
 ,0,4.3952946654,-1.9522155268,-1.0025907812\Bq,0,4.4722006094,-2.00360
 24357,-1.0025907812\Bq,0,4.5551559499,-2.0445114824,-1.0025907812\Bq,0
 ,4.6427412981,-2.0742427019,-1.0025907812\Bq,0,4.7334580444,-2.0922873
 846,-1.0025907812\Bq,0,4.825754,-2.0983367812,-1.0025907812\Bq,0,4.918
 0499556,-2.0922873846,-1.0025907812\Bq,0,5.0087667019,-2.0742427019,-1
 .0025907812\Bq,0,5.0963520501,-2.0445114824,-1.0025907812\Bq,0,5.17930
 73906,-2.0036024357,-1.0025907812\Bq,0,5.2562133346,-1.9522155268,-1.0
 025907812\Bq,0,5.325754,-1.89123,-1.0025907812\Bq,0,5.3867395268,-1.82
 16893346,-1.0025907812\Bq,0,5.4381264357,-1.7447833906,-1.0025907812\B
 q,0,5.4790354824,-1.6618280501,-1.0025907812\Bq,0,5.5087667019,-1.5742
 427019,-1.0025907812\Bq,0,5.5268113846,-1.4835259556,-1.0025907812\Bq,
 0,5.434515429,-1.39123,-1.0888373403\Bq,0,5.4293073906,-1.3117706887,-
 1.0888373403\Bq,0,5.4137723863,-1.2336709482,-1.0888373403\Bq,0,5.3881
 762244,-1.1582670869,-1.0888373403\Bq,0,5.3529568624,-1.0868492855,-1.
 0888373403\Bq,0,5.3087169131,-1.0206395226,-1.0888373403\Bq,0,5.256213
 3346,-0.9607706654,-1.0888373403\Bq,0,5.1963444774,-0.9082670869,-1.08
 88373403\Bq,0,5.1301347145,-0.8640271376,-1.0888373403\Bq,0,5.05871691
 31,-0.8288077756,-1.0888373403\Bq,0,4.9833130518,-0.8032116137,-1.0888
 373403\Bq,0,4.9052133113,-0.7876766094,-1.0888373403\Bq,0,4.825754,-0.
 782468571,-1.0888373403\Bq,0,4.7462946887,-0.7876766094,-1.0888373403\
 Bq,0,4.6681949482,-0.8032116137,-1.0888373403\Bq,0,4.5927910869,-0.828
 8077756,-1.0888373403\Bq,0,4.5213732855,-0.8640271376,-1.0888373403\Bq
 ,0,4.4551635226,-0.9082670869,-1.0888373403\Bq,0,4.3952946654,-0.96077
 06654,-1.0888373403\Bq,0,4.3427910869,-1.0206395226,-1.0888373403\Bq,0
 ,4.2985511376,-1.0868492855,-1.0888373403\Bq,0,4.2633317756,-1.1582670
 869,-1.0888373403\Bq,0,4.2377356137,-1.2336709482,-1.0888373403\Bq,0,4
 .2222006094,-1.3117706887,-1.0888373403\Bq,0,4.216992571,-1.39123,-1.0
 888373403\Bq,0,4.2222006094,-1.4706893113,-1.0888373403\Bq,0,4.2377356
 137,-1.5487890518,-1.0888373403\Bq,0,4.2633317756,-1.6241929131,-1.088
 8373403\Bq,0,4.2985511376,-1.6956107145,-1.0888373403\Bq,0,4.342791086
 9,-1.7618204774,-1.0888373403\Bq,0,4.3952946654,-1.8216893346,-1.08883
 73403\Bq,0,4.4551635226,-1.8741929131,-1.0888373403\Bq,0,4.5213732855,
 -1.9184328624,-1.0888373403\Bq,0,4.5927910869,-1.9536522244,-1.0888373
 403\Bq,0,4.6681949482,-1.9792483863,-1.0888373403\Bq,0,4.7462946887,-1
 .9947833906,-1.0888373403\Bq,0,4.825754,-1.999991429,-1.0888373403\Bq,
 0,4.9052133113,-1.9947833906,-1.0888373403\Bq,0,4.9833130518,-1.979248
 3863,-1.0888373403\Bq,0,5.0587169131,-1.9536522244,-1.0888373403\Bq,0,
 5.1301347145,-1.9184328624,-1.0888373403\Bq,0,5.1963444774,-1.87419291
 31,-1.0888373403\Bq,0,5.2562133346,-1.8216893346,-1.0888373403\Bq,0,5.
 3087169131,-1.7618204774,-1.0888373403\Bq,0,5.3529568624,-1.6956107145
 ,-1.0888373403\Bq,0,5.3881762244,-1.6241929131,-1.0888373403\Bq,0,5.41
 37723863,-1.5487890518,-1.0888373403\Bq,0,5.4293073906,-1.4706893113,-
 1.0888373403\Bq,0,5.325754,-1.39123,-1.1615094038\Bq,0,5.3214764307,-1
 .3259669039,-1.1615094038\Bq,0,5.3087169131,-1.2618204774,-1.161509403
 8\Bq,0,5.2876937663,-1.1998882838,-1.1615094038\Bq,0,5.2587667019,-1.1
 4123,-1.1615094038\Bq,0,5.2224306701,-1.0868492855,-1.1615094038\Bq,0,
 5.1793073906,-1.0376766094,-1.1615094038\Bq,0,5.1301347145,-0.99455332
 99,-1.1615094038\Bq,0,5.075754,-0.9582172981,-1.1615094038\Bq,0,5.0170
 957162,-0.9292902337,-1.1615094038\Bq,0,4.9551635226,-0.9082670869,-1.
 1615094038\Bq,0,4.8910170961,-0.8955075693,-1.1615094038\Bq,0,4.825754
 ,-0.89123,-1.1615094038\Bq,0,4.7604909039,-0.8955075693,-1.1615094038\
 Bq,0,4.6963444774,-0.9082670869,-1.1615094038\Bq,0,4.6344122838,-0.929
 2902337,-1.1615094038\Bq,0,4.575754,-0.9582172981,-1.1615094038\Bq,0,4
 .5213732855,-0.9945533299,-1.1615094038\Bq,0,4.4722006094,-1.037676609
 4,-1.1615094038\Bq,0,4.4290773299,-1.0868492855,-1.1615094038\Bq,0,4.3
 927412981,-1.14123,-1.1615094038\Bq,0,4.3638142337,-1.1998882838,-1.16
 15094038\Bq,0,4.3427910869,-1.2618204774,-1.1615094038\Bq,0,4.33003156
 93,-1.3259669039,-1.1615094038\Bq,0,4.325754,-1.39123,-1.1615094038\Bq
 ,0,4.3300315693,-1.4564930961,-1.1615094038\Bq,0,4.3427910869,-1.52063
 95226,-1.1615094038\Bq,0,4.3638142337,-1.5825717162,-1.1615094038\Bq,0
 ,4.3927412981,-1.64123,-1.1615094038\Bq,0,4.4290773299,-1.6956107145,-
 1.1615094038\Bq,0,4.4722006094,-1.7447833906,-1.1615094038\Bq,0,4.5213
 732855,-1.7879066701,-1.1615094038\Bq,0,4.575754,-1.8242427019,-1.1615
 094038\Bq,0,4.6344122838,-1.8531697663,-1.1615094038\Bq,0,4.6963444774
 ,-1.8741929131,-1.1615094038\Bq,0,4.7604909039,-1.8869524307,-1.161509
 4038\Bq,0,4.825754,-1.89123,-1.1615094038\Bq,0,4.8910170961,-1.8869524
 307,-1.1615094038\Bq,0,4.9551635226,-1.8741929131,-1.1615094038\Bq,0,5
 .0170957162,-1.8531697663,-1.1615094038\Bq,0,5.075754,-1.8242427019,-1
 .1615094038\Bq,0,5.1301347145,-1.7879066701,-1.1615094038\Bq,0,5.17930
 73906,-1.7447833906,-1.1615094038\Bq,0,5.2224306701,-1.6956107145,-1.1
 615094038\Bq,0,5.2587667019,-1.64123,-1.1615094038\Bq,0,5.2876937663,-
 1.5825717162,-1.1615094038\Bq,0,5.3087169131,-1.5206395226,-1.16150940
 38\Bq,0,5.3214764307,-1.4564930961,-1.1615094038\Bq,0,5.2084374324,-1.
 39123,-1.2193635325\Bq,0,5.2051635226,-1.3412797887,-1.2193635325\Bq,0
 ,5.1953978106,-1.2921842395,-1.2193635325\Bq,0,5.1793073906,-1.2447833
 906,-1.2193635325\Bq,0,5.157167574,-1.1998882838,-1.2193635325\Bq,0,5.
 1293571793,-1.1582670869,-1.2193635325\Bq,0,5.0963520501,-1.1206319499
 ,-1.2193635325\Bq,0,5.0587169131,-1.0876268207,-1.2193635325\Bq,0,5.01
 70957162,-1.059816426,-1.2193635325\Bq,0,4.9722006094,-1.0376766094,-1
 .2193635325\Bq,0,4.9247997605,-1.0215861894,-1.2193635325\Bq,0,4.87570
 42113,-1.0118204774,-1.2193635325\Bq,0,4.825754,-1.0085465676,-1.21936
 35325\\Version=ES64L-G09RevD.01\HF=-847.0037387\RMSD=4.110e-09\Dipole=
 0.0000004,0.0287843,0.0000009\Quadrupole=4.8545288,4.8066247,-9.661153
 5,-0.0000047,-3.6219991,-0.000002\PG=C01 [X(C22H14)]\\@


 In the race for quality, there is no finish line.
                               -- David T. Kearns
 Job cpu time:       0 days  1 hours 40 minutes  2.9 seconds.
 File lengths (MBytes):  RWF=    184 Int=      0 D2E=      0 Chk=     21 Scr=      1
 Normal termination of Gaussian 09 at Tue Sep 15 11:47:58 2020.
