 Entering Gaussian System, Link 0=g09
 Input=input_batch_16800.com
 Output=input_batch_16800.log
 Initial command:
 /share/programs/GAUSSIAN/64/g09/l1.exe "/scratch/aartigas.39067/Gau-3626949.inp" -scrdir="/scratch/aartigas.39067/"
 Entering Link 1 = /share/programs/GAUSSIAN/64/g09/l1.exe PID=   3626950.
  
 Copyright (c) 1988,1990,1992,1993,1995,1998,2003,2009,2013,
            Gaussian, Inc.  All Rights Reserved.
  
 This is part of the Gaussian(R) 09 program.  It is based on
 the Gaussian(R) 03 system (copyright 2003, Gaussian, Inc.),
 the Gaussian(R) 98 system (copyright 1998, Gaussian, Inc.),
 the Gaussian(R) 94 system (copyright 1995, Gaussian, Inc.),
 the Gaussian 92(TM) system (copyright 1992, Gaussian, Inc.),
 the Gaussian 90(TM) system (copyright 1990, Gaussian, Inc.),
 the Gaussian 88(TM) system (copyright 1988, Gaussian, Inc.),
 the Gaussian 86(TM) system (copyright 1986, Carnegie Mellon
 University), and the Gaussian 82(TM) system (copyright 1983,
 Carnegie Mellon University). Gaussian is a federally registered
 trademark of Gaussian, Inc.
  
 This software contains proprietary and confidential information,
 including trade secrets, belonging to Gaussian, Inc.
  
 This software is provided under written license and may be
 used, copied, transmitted, or stored only in accord with that
 written license.
  
 The following legend is applicable only to US Government
 contracts under FAR:
  
                    RESTRICTED RIGHTS LEGEND
  
 Use, reproduction and disclosure by the US Government is
 subject to restrictions as set forth in subparagraphs (a)
 and (c) of the Commercial Computer Software - Restricted
 Rights clause in FAR 52.227-19.
  
 Gaussian, Inc.
 340 Quinnipiac St., Bldg. 40, Wallingford CT 06492
  
  
 ---------------------------------------------------------------
 Warning -- This program may not be used in any manner that
 competes with the business of Gaussian, Inc. or will provide
 assistance to any competitor of Gaussian, Inc.  The licensee
 of this program is prohibited from giving any competitor of
 Gaussian, Inc. access to this program.  By using this program,
 the user acknowledges that Gaussian, Inc. is engaged in the
 business of creating and licensing software in the field of
 computational chemistry and represents and warrants to the
 licensee that it is not a competitor of Gaussian, Inc. and that
 it will not use this program in any manner prohibited above.
 ---------------------------------------------------------------
  

 Cite this work as:
 Gaussian 09, Revision D.01,
 M. J. Frisch, G. W. Trucks, H. B. Schlegel, G. E. Scuseria, 
 M. A. Robb, J. R. Cheeseman, G. Scalmani, V. Barone, B. Mennucci, 
 G. A. Petersson, H. Nakatsuji, M. Caricato, X. Li, H. P. Hratchian, 
 A. F. Izmaylov, J. Bloino, G. Zheng, J. L. Sonnenberg, M. Hada, 
 M. Ehara, K. Toyota, R. Fukuda, J. Hasegawa, M. Ishida, T. Nakajima, 
 Y. Honda, O. Kitao, H. Nakai, T. Vreven, J. A. Montgomery, Jr., 
 J. E. Peralta, F. Ogliaro, M. Bearpark, J. J. Heyd, E. Brothers, 
 K. N. Kudin, V. N. Staroverov, T. Keith, R. Kobayashi, J. Normand, 
 K. Raghavachari, A. Rendell, J. C. Burant, S. S. Iyengar, J. Tomasi, 
 M. Cossi, N. Rega, J. M. Millam, M. Klene, J. E. Knox, J. B. Cross, 
 V. Bakken, C. Adamo, J. Jaramillo, R. Gomperts, R. E. Stratmann, 
 O. Yazyev, A. J. Austin, R. Cammi, C. Pomelli, J. W. Ochterski, 
 R. L. Martin, K. Morokuma, V. G. Zakrzewski, G. A. Voth, 
 P. Salvador, J. J. Dannenberg, S. Dapprich, A. D. Daniels, 
 O. Farkas, J. B. Foresman, J. V. Ortiz, J. Cioslowski, 
 and D. J. Fox, Gaussian, Inc., Wallingford CT, 2013.
 
 ******************************************
 Gaussian 09:  ES64L-G09RevD.01 24-Apr-2013
                15-Sep-2020 
 ******************************************
 %OldChk=/home/aartigas/chk/5_helicene_spe.chk
 %nproc=8
 Will use up to    8 processors via shared memory.
 %mem=1000MB
 Copying data from "/home/aartigas/chk/5_helicene_spe.chk" to current chk file "/scratch/aartigas.39067/Gau-3626950.chk".
 ----------------------------------------------------
 #P rb3lyp/6-311+g** NMR Guess=Read geom=connectivity
 ----------------------------------------------------
 1/38=1,57=2/1;
 2/12=2,17=6,18=5,40=1/2;
 3/5=4,6=6,7=111,11=2,16=1,25=1,30=1,74=-5,116=1/1,2,8,3;
 4/5=1/1;
 5/5=2,38=6/2;
 8/6=1,10=90,11=11/1;
 10/13=100,45=16/2;
 6/7=2,8=2,9=2,10=2,28=1/1;
 99/9=1/99;
 Leave Link    1 at Tue Sep 15 12:33:46 2020, MaxMem=   131072000 cpu:         0.7
 (Enter /share/programs/GAUSSIAN/64/g09/l101.exe)
 -----
 Title
 -----
 Symbolic Z-matrix:
 Charge =  0 Multiplicity = 1
 C                     0.65324   3.25786  -0.20251 
 C                    -0.65324   3.25786   0.20251 
 C                     1.3725    2.03296  -0.32081 
 C                    -1.3725    2.03296   0.32081 
 C                     0.72247   0.79567  -0.05039 
 C                    -0.72247   0.79567   0.05039 
 C                     2.76039   2.05393  -0.67427 
 C                     3.50887   0.91392  -0.67136 
 C                     2.95523  -0.30962  -0.17748 
 C                     1.57472  -0.36111   0.19709 
 H                     1.18343   4.19574  -0.3846 
 H                    -1.18343   4.19574   0.3846 
 H                     3.20628   3.01242  -0.95139 
 H                     4.56002   0.93296  -0.96933 
 C                     3.78302  -1.4431    0.02831 
 C                     1.13743  -1.50753   0.91211 
 C                     1.97369  -2.58435   1.13806 
 C                     3.30185  -2.57159   0.66118 
 H                     4.82575  -1.39123  -0.29548 
 H                     0.12465  -1.53279   1.30847 
 H                     1.60359  -3.44568   1.69898 
 H                     3.95274  -3.43353   0.82513 
 C                    -3.50887   0.91392   0.67136 
 C                    -2.76039   2.05393   0.67427 
 C                    -2.95523  -0.30962   0.17748 
 C                    -1.57472  -0.36111  -0.19709 
 C                    -3.78302  -1.4431   -0.02831 
 C                    -3.30185  -2.57159  -0.66118 
 C                    -1.97369  -2.58435  -1.13806 
 C                    -1.13743  -1.50753  -0.91211 
 H                    -4.56002   0.93295   0.96933 
 H                    -3.20628   3.01242   0.95139 
 H                    -4.82575  -1.39123   0.29548 
 H                    -3.95274  -3.43353  -0.82513 
 H                    -1.60359  -3.44568  -1.69898 
 H                    -0.12465  -1.53279  -1.30847 
 Bq                   -1.40802  -2.16082  -0.205 
 Bq                   -1.32044  -2.19055  -0.205 
 Bq                   -1.22972  -2.20859  -0.205 
 Bq                   -1.13743  -2.21464  -0.205 
 Bq                   -1.04513  -2.20859  -0.205 
 Bq                   -0.95441  -2.19055  -0.205 
 Bq                   -0.86683  -2.16082  -0.205 
 Bq                   -0.78387  -2.11991  -0.205 
 Bq                   -0.70697  -2.06852  -0.205 
 Bq                   -0.63743  -2.00753  -0.205 
 Bq                   -0.57644  -1.93799  -0.205 
 Bq                   -0.52505  -1.86109  -0.205 
 Bq                   -0.48414  -1.77813  -0.205 
 Bq                   -0.45441  -1.69055  -0.205 
 Bq                   -0.43637  -1.59983  -0.205 
 Bq                   -0.34407  -1.50753  -0.30335 
 Bq                   -0.35086  -1.40398  -0.30335 
 Bq                   -1.62039  -2.13694  -0.30335 
 Bq                   -1.5341   -2.1946   -0.30335 
 Bq                   -0.93209  -2.27385  -0.30335 
 Bq                   -0.83382  -2.2405   -0.30335 
 Bq                   -0.74075  -2.1946   -0.30335 
 Bq                   -0.65446  -2.13694  -0.30335 
 Bq                   -0.57644  -2.06852  -0.30335 
 Bq                   -0.50802  -1.9905   -0.30335 
 Bq                   -0.45036  -1.90421  -0.30335 
 Bq                   -0.40446  -1.81114  -0.30335 
 Bq                   -0.37111  -1.71287  -0.30335 
 Bq                   -0.35086  -1.61109  -0.30335 
 Bq                   -0.61022  -2.1946   -0.41211 
 Bq                   -0.52505  -2.11991  -0.41211 
 Bq                   -0.45036  -2.03474  -0.41211 
 Bq                   -0.38743  -1.94055  -0.41211 
 Bq                   -0.48414  -2.16082  -0.52943 
 Bq                   -1.38743  -0.57452  -1.17093 
 Bq                   -1.50707  -0.61513  -1.17093 
 Bq                   -1.62039  -0.67102  -1.17093 
 Bq                   -1.72544  -0.74121  -1.17093 
 Bq                   -1.82044  -0.82452  -1.17093 
 Bq                   -1.90375  -0.91952  -1.17093 
 Bq                   -1.13743  -0.58365  -1.29479 
 Bq                   -1.25802  -0.59156  -1.29479 
 Bq                   -1.37654  -0.61513  -1.29479 
 Bq                   -1.49098  -0.65398  -1.29479 
 Bq                   -1.59937  -0.70743  -1.29479 
 Bq                   -1.69985  -0.77457  -1.29479 
 Bq                   -1.79071  -0.85425  -1.29479 
 Bq                   -1.87039  -0.94511  -1.29479 
 Bq                   -1.93753  -1.04559  -1.29479 
 Bq                   -1.99098  -1.15398  -1.29479 
 Bq                   -0.80601  -0.70743  -1.41211 
 Bq                   -0.91328  -0.67102  -1.41211 
 Bq                   -1.02439  -0.64892  -1.41211 
 Bq                   -1.13743  -0.64151  -1.41211 
 Bq                   -1.25046  -0.64892  -1.41211 
 Bq                   -1.36157  -0.67102  -1.41211 
 Bq                   -1.46884  -0.70743  -1.41211 
 Bq                   -1.57044  -0.75753  -1.41211 
 Bq                   -1.66463  -0.82047  -1.41211 
 Bq                   -1.7498   -0.89516  -1.41211 
 Bq                   -1.82449  -0.98033  -1.41211 
 Bq                   -1.88743  -1.07452  -1.41211 
 Bq                   -1.93753  -1.17612  -1.41211 
 Bq                   -1.97394  -1.28339  -1.41211 
 Bq                   -1.99604  -1.3945   -1.41211 
 Bq                   -2.00345  -1.50753  -1.41211 
 Bq                   -1.99604  -1.62057  -1.41211 
 Bq                   -0.83382  -0.77457  -1.52087 
 Bq                   -0.93209  -0.74121  -1.52087 
 Bq                   -1.03387  -0.72097  -1.52087 
 Bq                   -1.13743  -0.71418  -1.52087 
 Bq                   -1.24098  -0.72097  -1.52087 
 Bq                   -1.34276  -0.74121  -1.52087 
 Bq                   -1.44103  -0.77457  -1.52087 
 Bq                   -1.5341   -0.82047  -1.52087 
 Bq                   -1.62039  -0.87812  -1.52087 
 Bq                   -1.69841  -0.94655  -1.52087 
 Bq                   -1.76684  -1.02457  -1.52087 
 Bq                   -1.82449  -1.11086  -1.52087 
 Bq                   -1.87039  -1.20393  -1.52087 
 Bq                   -1.90375  -1.3022   -1.52087 
 Bq                   -1.92399  -1.40398  -1.52087 
 Bq                   -1.93078  -1.50753  -1.52087 
 Bq                   -1.92399  -1.61109  -1.52087 
 Bq                   -0.86683  -0.85425  -1.61922 
 Bq                   -0.95441  -0.82452  -1.61922 
 Bq                   -1.04513  -0.80648  -1.61922 
 Bq                   -1.13743  -0.80043  -1.61922 
 Bq                   -1.22972  -0.80648  -1.61922 
 Bq                   -1.32044  -0.82452  -1.61922 
 Bq                   -1.40802  -0.85425  -1.61922 
 Bq                   -1.49098  -0.89516  -1.61922 
 Bq                   -1.56789  -0.94655  -1.61922 
 Bq                   -1.63743  -1.00753  -1.61922 
 Bq                   -1.69841  -1.07707  -1.61922 
 Bq                   -1.7498   -1.15398  -1.61922 
 Bq                   -1.79071  -1.23694  -1.61922 
 Bq                   -1.82044  -1.32452  -1.61922 
 Bq                   -1.83848  -1.41524  -1.61922 
 Bq                   -1.84453  -1.50753  -1.61922 
 Bq                   -0.90446  -0.94511  -1.70546 
 Bq                   -0.97987  -0.91952  -1.70546 
 Bq                   -1.05797  -0.90398  -1.70546 
 Bq                   -1.13743  -0.89877  -1.70546 
 Bq                   -1.21689  -0.90398  -1.70546 
 Bq                   -1.29499  -0.91952  -1.70546 
 Bq                   -1.37039  -0.94511  -1.70546 
 Bq                   -1.44181  -0.98033  -1.70546 
 Bq                   -1.50802  -1.02457  -1.70546 
 Bq                   -1.56789  -1.07707  -1.70546 
 Bq                   -1.62039  -1.13694  -1.70546 
 Bq                   -1.66463  -1.20315  -1.70546 
 Bq                   -1.69985  -1.27457  -1.70546 
 Bq                   -1.72544  -1.34997  -1.70546 
 Bq                   -1.74098  -1.42807  -1.70546 
 Bq                   -1.74619  -1.50753  -1.70546 
 Bq                   -0.88743  -1.07452  -1.77813 
 Bq                   -0.94608  -1.04559  -1.77813 
 Bq                   -1.00802  -1.02457  -1.77813 
 Bq                   -1.07216  -1.01181  -1.77813 
 Bq                   -1.13743  -1.00753  -1.77813 
 Bq                   -1.20269  -1.01181  -1.77813 
 Bq                   -1.26684  -1.02457  -1.77813 
 Bq                   -1.32877  -1.04559  -1.77813 
 Bq                   -1.38743  -1.07452  -1.77813 
 Bq                   -1.44181  -1.11086  -1.77813 
 Bq                   -1.49098  -1.15398  -1.77813 
 Bq                   -1.5341   -1.20315  -1.77813 
 Bq                   -1.57044  -1.25753  -1.77813 
 Bq                   -1.59937  -1.31619  -1.77813 
 Bq                   -1.62039  -1.37812  -1.77813 
 Bq                   -1.63315  -1.44227  -1.77813 
 Bq                   -1.63743  -1.50753  -1.77813 
 Bq                   -0.94608  -1.17612  -1.83599 
 Bq                   -0.99098  -1.15398  -1.83599 
 Bq                   -1.03838  -1.13789  -1.83599 
 Bq                   -1.08748  -1.12812  -1.83599 
 Bq                   -1.13743  -1.12485  -1.83599 
 Bq                   -1.18738  -1.12812  -1.83599 
 Bq                   -1.23647  -1.13789  -1.83599 
 Bq                   -1.28387  -1.15398  -1.83599 
 Bq                   -1.32877  -1.17612  -1.83599 
 Bq                   -1.37039  -1.20393  -1.83599 
 Bq                   -1.40802  -1.23694  -1.83599 
 Bq                   -1.44103  -1.27457  -1.83599 
 Bq                   -1.46884  -1.31619  -1.83599 
 Bq                   -1.49098  -1.36109  -1.83599 
 Bq                   -1.50707  -1.40849  -1.83599 
 Bq                   -1.51684  -1.45758  -1.83599 
 Bq                   -1.52011  -1.50753  -1.83599 
 Bq                   -0.93209  -1.34997  -1.87803 
 Bq                   -0.95441  -1.32452  -1.87803 
 Bq                   -0.97987  -1.3022   -1.87803 
 Bq                   -1.00802  -1.28339  -1.87803 
 Bq                   -1.03838  -1.26842  -1.87803 
 Bq                   -1.07044  -1.25753  -1.87803 
 Bq                   -1.10364  -1.25093  -1.87803 
 Bq                   -1.13743  -1.24871  -1.87803 
 Bq                   -1.17121  -1.25093  -1.87803 
 Bq                   -1.20441  -1.25753  -1.87803 
 Bq                   -1.23647  -1.26842  -1.87803 
 Bq                   -1.26684  -1.28339  -1.87803 
 Bq                   -1.29499  -1.3022   -1.87803 
 Bq                   -1.32044  -1.32452  -1.87803 
 Bq                   -1.34276  -1.34997  -1.87803 
 Bq                   -1.36157  -1.37812  -1.87803 
 Bq                   -1.37654  -1.40849  -1.87803 
 Bq                   -1.38743  -1.44055  -1.87803 
 Bq                   -1.39403  -1.47375  -1.87803 
 Bq                   -1.0069   -1.50753  -1.90355 
 Bq                   -1.00802  -1.4905   -1.90355 
 Bq                   -1.01135  -1.47375  -1.90355 
 Bq                   -1.01684  -1.45758  -1.90355 
 Bq                   -1.02439  -1.44227  -1.90355 
 Bq                   -1.03387  -1.42807  -1.90355 
 Bq                   -1.04513  -1.41524  -1.90355 
 Bq                   -1.05797  -1.40398  -1.90355 
 Bq                   -1.07216  -1.3945   -1.90355 
 Bq                   -1.08748  -1.38694  -1.90355 
 Bq                   -1.10364  -1.38146  -1.90355 
 Bq                   -1.12039  -1.37812  -1.90355 
 Bq                   -1.13743  -1.37701  -1.90355 
 Bq                   -1.15446  -1.37812  -1.90355 
 Bq                   -1.17121  -1.38146  -1.90355 
 Bq                   -1.18738  -1.38694  -1.90355 
 Bq                   -1.20269  -1.3945   -1.90355 
 Bq                   -1.21689  -1.40398  -1.90355 
 Bq                   -1.22972  -1.41524  -1.90355 
 Bq                   -1.24098  -1.42807  -1.90355 
 Bq                   -1.25046  -1.44227  -1.90355 
 Bq                   -1.25802  -1.45758  -1.90355 
 Bq                   -1.2635   -1.47375  -1.90355 
 Bq                   -1.26684  -1.4905   -1.90355 
 Bq                   -1.00802  -1.52457  -1.90355 
 Bq                   -4.56002   0.93295   1.96933 
 Bq                   -4.56002   0.93295   1.96933 
 Bq                   -4.56002   0.93295   1.96933 
 Bq                   -4.56002   0.93295   1.96933 
 Bq                   -4.56002   0.93295   1.96933 
 Bq                   -4.56002   0.93295   1.96933 
 
 NAtoms=    236 NQM=      236 NQMF=       0 NMMI=      0 NMMIF=      0
                NMic=       0 NMicF=      0.
                    Isotopes and Nuclear Properties:
 (Nuclear quadrupole moments (NQMom) in fm**2, nuclear magnetic moments (NMagM)
  in nuclear magnetons)

  Atom         1           2           3           4           5           6           7           8           9          10
 IAtWgt=          12          12          12          12          12          12          12          12          12          12
 AtmWgt=  12.0000000  12.0000000  12.0000000  12.0000000  12.0000000  12.0000000  12.0000000  12.0000000  12.0000000  12.0000000
 NucSpn=           0           0           0           0           0           0           0           0           0           0
 AtZEff=   0.0000000   0.0000000   0.0000000   0.0000000   0.0000000   0.0000000   0.0000000   0.0000000   0.0000000   0.0000000
 NQMom=    0.0000000   0.0000000   0.0000000   0.0000000   0.0000000   0.0000000   0.0000000   0.0000000   0.0000000   0.0000000
 NMagM=    0.0000000   0.0000000   0.0000000   0.0000000   0.0000000   0.0000000   0.0000000   0.0000000   0.0000000   0.0000000
 AtZNuc=   6.0000000   6.0000000   6.0000000   6.0000000   6.0000000   6.0000000   6.0000000   6.0000000   6.0000000   6.0000000

  Atom        11          12          13          14          15          16          17          18          19          20
 IAtWgt=           1           1           1           1          12          12          12          12           1           1
 AtmWgt=   1.0078250   1.0078250   1.0078250   1.0078250  12.0000000  12.0000000  12.0000000  12.0000000   1.0078250   1.0078250
 NucSpn=           1           1           1           1           0           0           0           0           1           1
 AtZEff=   0.0000000   0.0000000   0.0000000   0.0000000   0.0000000   0.0000000   0.0000000   0.0000000   0.0000000   0.0000000
 NQMom=    0.0000000   0.0000000   0.0000000   0.0000000   0.0000000   0.0000000   0.0000000   0.0000000   0.0000000   0.0000000
 NMagM=    2.7928460   2.7928460   2.7928460   2.7928460   0.0000000   0.0000000   0.0000000   0.0000000   2.7928460   2.7928460
 AtZNuc=   1.0000000   1.0000000   1.0000000   1.0000000   6.0000000   6.0000000   6.0000000   6.0000000   1.0000000   1.0000000

  Atom        21          22          23          24          25          26          27          28          29          30
 IAtWgt=           1           1          12          12          12          12          12          12          12          12
 AtmWgt=   1.0078250   1.0078250  12.0000000  12.0000000  12.0000000  12.0000000  12.0000000  12.0000000  12.0000000  12.0000000
 NucSpn=           1           1           0           0           0           0           0           0           0           0
 AtZEff=   0.0000000   0.0000000   0.0000000   0.0000000   0.0000000   0.0000000   0.0000000   0.0000000   0.0000000   0.0000000
 NQMom=    0.0000000   0.0000000   0.0000000   0.0000000   0.0000000   0.0000000   0.0000000   0.0000000   0.0000000   0.0000000
 NMagM=    2.7928460   2.7928460   0.0000000   0.0000000   0.0000000   0.0000000   0.0000000   0.0000000   0.0000000   0.0000000
 AtZNuc=   1.0000000   1.0000000   6.0000000   6.0000000   6.0000000   6.0000000   6.0000000   6.0000000   6.0000000   6.0000000

  Atom        31          32          33          34          35          36          37          38          39          40
 IAtWgt=           1           1           1           1           1           1           0           0           0           0
 AtmWgt=   1.0078250   1.0078250   1.0078250   1.0078250   1.0078250   1.0078250   0.0000000   0.0000000   0.0000000   0.0000000
 NucSpn=           1           1           1           1           1           1           0           0           0           0
 AtZEff=   0.0000000   0.0000000   0.0000000   0.0000000   0.0000000   0.0000000   0.0000000   0.0000000   0.0000000   0.0000000
 NQMom=    0.0000000   0.0000000   0.0000000   0.0000000   0.0000000   0.0000000   0.0000000   0.0000000   0.0000000   0.0000000
 NMagM=    2.7928460   2.7928460   2.7928460   2.7928460   2.7928460   2.7928460   0.0000000   0.0000000   0.0000000   0.0000000
 AtZNuc=   1.0000000   1.0000000   1.0000000   1.0000000   1.0000000   1.0000000   0.0000000   0.0000000   0.0000000   0.0000000

  Atom        41          42          43          44          45          46          47          48          49          50
 IAtWgt=           0           0           0           0           0           0           0           0           0           0
 AtmWgt=   0.0000000   0.0000000   0.0000000   0.0000000   0.0000000   0.0000000   0.0000000   0.0000000   0.0000000   0.0000000
 NucSpn=           0           0           0           0           0           0           0           0           0           0
 AtZEff=   0.0000000   0.0000000   0.0000000   0.0000000   0.0000000   0.0000000   0.0000000   0.0000000   0.0000000   0.0000000
 NQMom=    0.0000000   0.0000000   0.0000000   0.0000000   0.0000000   0.0000000   0.0000000   0.0000000   0.0000000   0.0000000
 NMagM=    0.0000000   0.0000000   0.0000000   0.0000000   0.0000000   0.0000000   0.0000000   0.0000000   0.0000000   0.0000000
 AtZNuc=   0.0000000   0.0000000   0.0000000   0.0000000   0.0000000   0.0000000   0.0000000   0.0000000   0.0000000   0.0000000

  Atom        51          52          53          54          55          56          57          58          59          60
 IAtWgt=           0           0           0           0           0           0           0           0           0           0
 AtmWgt=   0.0000000   0.0000000   0.0000000   0.0000000   0.0000000   0.0000000   0.0000000   0.0000000   0.0000000   0.0000000
 NucSpn=           0           0           0           0           0           0           0           0           0           0
 AtZEff=   0.0000000   0.0000000   0.0000000   0.0000000   0.0000000   0.0000000   0.0000000   0.0000000   0.0000000   0.0000000
 NQMom=    0.0000000   0.0000000   0.0000000   0.0000000   0.0000000   0.0000000   0.0000000   0.0000000   0.0000000   0.0000000
 NMagM=    0.0000000   0.0000000   0.0000000   0.0000000   0.0000000   0.0000000   0.0000000   0.0000000   0.0000000   0.0000000
 AtZNuc=   0.0000000   0.0000000   0.0000000   0.0000000   0.0000000   0.0000000   0.0000000   0.0000000   0.0000000   0.0000000

  Atom        61          62          63          64          65          66          67          68          69          70
 IAtWgt=           0           0           0           0           0           0           0           0           0           0
 AtmWgt=   0.0000000   0.0000000   0.0000000   0.0000000   0.0000000   0.0000000   0.0000000   0.0000000   0.0000000   0.0000000
 NucSpn=           0           0           0           0           0           0           0           0           0           0
 AtZEff=   0.0000000   0.0000000   0.0000000   0.0000000   0.0000000   0.0000000   0.0000000   0.0000000   0.0000000   0.0000000
 NQMom=    0.0000000   0.0000000   0.0000000   0.0000000   0.0000000   0.0000000   0.0000000   0.0000000   0.0000000   0.0000000
 NMagM=    0.0000000   0.0000000   0.0000000   0.0000000   0.0000000   0.0000000   0.0000000   0.0000000   0.0000000   0.0000000
 AtZNuc=   0.0000000   0.0000000   0.0000000   0.0000000   0.0000000   0.0000000   0.0000000   0.0000000   0.0000000   0.0000000

  Atom        71          72          73          74          75          76          77          78          79          80
 IAtWgt=           0           0           0           0           0           0           0           0           0           0
 AtmWgt=   0.0000000   0.0000000   0.0000000   0.0000000   0.0000000   0.0000000   0.0000000   0.0000000   0.0000000   0.0000000
 NucSpn=           0           0           0           0           0           0           0           0           0           0
 AtZEff=   0.0000000   0.0000000   0.0000000   0.0000000   0.0000000   0.0000000   0.0000000   0.0000000   0.0000000   0.0000000
 NQMom=    0.0000000   0.0000000   0.0000000   0.0000000   0.0000000   0.0000000   0.0000000   0.0000000   0.0000000   0.0000000
 NMagM=    0.0000000   0.0000000   0.0000000   0.0000000   0.0000000   0.0000000   0.0000000   0.0000000   0.0000000   0.0000000
 AtZNuc=   0.0000000   0.0000000   0.0000000   0.0000000   0.0000000   0.0000000   0.0000000   0.0000000   0.0000000   0.0000000

  Atom        81          82          83          84          85          86          87          88          89          90
 IAtWgt=           0           0           0           0           0           0           0           0           0           0
 AtmWgt=   0.0000000   0.0000000   0.0000000   0.0000000   0.0000000   0.0000000   0.0000000   0.0000000   0.0000000   0.0000000
 NucSpn=           0           0           0           0           0           0           0           0           0           0
 AtZEff=   0.0000000   0.0000000   0.0000000   0.0000000   0.0000000   0.0000000   0.0000000   0.0000000   0.0000000   0.0000000
 NQMom=    0.0000000   0.0000000   0.0000000   0.0000000   0.0000000   0.0000000   0.0000000   0.0000000   0.0000000   0.0000000
 NMagM=    0.0000000   0.0000000   0.0000000   0.0000000   0.0000000   0.0000000   0.0000000   0.0000000   0.0000000   0.0000000
 AtZNuc=   0.0000000   0.0000000   0.0000000   0.0000000   0.0000000   0.0000000   0.0000000   0.0000000   0.0000000   0.0000000

  Atom        91          92          93          94          95          96          97          98          99         100
 IAtWgt=           0           0           0           0           0           0           0           0           0           0
 AtmWgt=   0.0000000   0.0000000   0.0000000   0.0000000   0.0000000   0.0000000   0.0000000   0.0000000   0.0000000   0.0000000
 NucSpn=           0           0           0           0           0           0           0           0           0           0
 AtZEff=   0.0000000   0.0000000   0.0000000   0.0000000   0.0000000   0.0000000   0.0000000   0.0000000   0.0000000   0.0000000
 NQMom=    0.0000000   0.0000000   0.0000000   0.0000000   0.0000000   0.0000000   0.0000000   0.0000000   0.0000000   0.0000000
 NMagM=    0.0000000   0.0000000   0.0000000   0.0000000   0.0000000   0.0000000   0.0000000   0.0000000   0.0000000   0.0000000
 AtZNuc=   0.0000000   0.0000000   0.0000000   0.0000000   0.0000000   0.0000000   0.0000000   0.0000000   0.0000000   0.0000000

  Atom       101         102         103         104         105         106         107         108         109         110
 IAtWgt=           0           0           0           0           0           0           0           0           0           0
 AtmWgt=   0.0000000   0.0000000   0.0000000   0.0000000   0.0000000   0.0000000   0.0000000   0.0000000   0.0000000   0.0000000
 NucSpn=           0           0           0           0           0           0           0           0           0           0
 AtZEff=   0.0000000   0.0000000   0.0000000   0.0000000   0.0000000   0.0000000   0.0000000   0.0000000   0.0000000   0.0000000
 NQMom=    0.0000000   0.0000000   0.0000000   0.0000000   0.0000000   0.0000000   0.0000000   0.0000000   0.0000000   0.0000000
 NMagM=    0.0000000   0.0000000   0.0000000   0.0000000   0.0000000   0.0000000   0.0000000   0.0000000   0.0000000   0.0000000
 AtZNuc=   0.0000000   0.0000000   0.0000000   0.0000000   0.0000000   0.0000000   0.0000000   0.0000000   0.0000000   0.0000000

  Atom       111         112         113         114         115         116         117         118         119         120
 IAtWgt=           0           0           0           0           0           0           0           0           0           0
 AtmWgt=   0.0000000   0.0000000   0.0000000   0.0000000   0.0000000   0.0000000   0.0000000   0.0000000   0.0000000   0.0000000
 NucSpn=           0           0           0           0           0           0           0           0           0           0
 AtZEff=   0.0000000   0.0000000   0.0000000   0.0000000   0.0000000   0.0000000   0.0000000   0.0000000   0.0000000   0.0000000
 NQMom=    0.0000000   0.0000000   0.0000000   0.0000000   0.0000000   0.0000000   0.0000000   0.0000000   0.0000000   0.0000000
 NMagM=    0.0000000   0.0000000   0.0000000   0.0000000   0.0000000   0.0000000   0.0000000   0.0000000   0.0000000   0.0000000
 AtZNuc=   0.0000000   0.0000000   0.0000000   0.0000000   0.0000000   0.0000000   0.0000000   0.0000000   0.0000000   0.0000000

  Atom       121         122         123         124         125         126         127         128         129         130
 IAtWgt=           0           0           0           0           0           0           0           0           0           0
 AtmWgt=   0.0000000   0.0000000   0.0000000   0.0000000   0.0000000   0.0000000   0.0000000   0.0000000   0.0000000   0.0000000
 NucSpn=           0           0           0           0           0           0           0           0           0           0
 AtZEff=   0.0000000   0.0000000   0.0000000   0.0000000   0.0000000   0.0000000   0.0000000   0.0000000   0.0000000   0.0000000
 NQMom=    0.0000000   0.0000000   0.0000000   0.0000000   0.0000000   0.0000000   0.0000000   0.0000000   0.0000000   0.0000000
 NMagM=    0.0000000   0.0000000   0.0000000   0.0000000   0.0000000   0.0000000   0.0000000   0.0000000   0.0000000   0.0000000
 AtZNuc=   0.0000000   0.0000000   0.0000000   0.0000000   0.0000000   0.0000000   0.0000000   0.0000000   0.0000000   0.0000000

  Atom       131         132         133         134         135         136         137         138         139         140
 IAtWgt=           0           0           0           0           0           0           0           0           0           0
 AtmWgt=   0.0000000   0.0000000   0.0000000   0.0000000   0.0000000   0.0000000   0.0000000   0.0000000   0.0000000   0.0000000
 NucSpn=           0           0           0           0           0           0           0           0           0           0
 AtZEff=   0.0000000   0.0000000   0.0000000   0.0000000   0.0000000   0.0000000   0.0000000   0.0000000   0.0000000   0.0000000
 NQMom=    0.0000000   0.0000000   0.0000000   0.0000000   0.0000000   0.0000000   0.0000000   0.0000000   0.0000000   0.0000000
 NMagM=    0.0000000   0.0000000   0.0000000   0.0000000   0.0000000   0.0000000   0.0000000   0.0000000   0.0000000   0.0000000
 AtZNuc=   0.0000000   0.0000000   0.0000000   0.0000000   0.0000000   0.0000000   0.0000000   0.0000000   0.0000000   0.0000000

  Atom       141         142         143         144         145         146         147         148         149         150
 IAtWgt=           0           0           0           0           0           0           0           0           0           0
 AtmWgt=   0.0000000   0.0000000   0.0000000   0.0000000   0.0000000   0.0000000   0.0000000   0.0000000   0.0000000   0.0000000
 NucSpn=           0           0           0           0           0           0           0           0           0           0
 AtZEff=   0.0000000   0.0000000   0.0000000   0.0000000   0.0000000   0.0000000   0.0000000   0.0000000   0.0000000   0.0000000
 NQMom=    0.0000000   0.0000000   0.0000000   0.0000000   0.0000000   0.0000000   0.0000000   0.0000000   0.0000000   0.0000000
 NMagM=    0.0000000   0.0000000   0.0000000   0.0000000   0.0000000   0.0000000   0.0000000   0.0000000   0.0000000   0.0000000
 AtZNuc=   0.0000000   0.0000000   0.0000000   0.0000000   0.0000000   0.0000000   0.0000000   0.0000000   0.0000000   0.0000000

  Atom       151         152         153         154         155         156         157         158         159         160
 IAtWgt=           0           0           0           0           0           0           0           0           0           0
 AtmWgt=   0.0000000   0.0000000   0.0000000   0.0000000   0.0000000   0.0000000   0.0000000   0.0000000   0.0000000   0.0000000
 NucSpn=           0           0           0           0           0           0           0           0           0           0
 AtZEff=   0.0000000   0.0000000   0.0000000   0.0000000   0.0000000   0.0000000   0.0000000   0.0000000   0.0000000   0.0000000
 NQMom=    0.0000000   0.0000000   0.0000000   0.0000000   0.0000000   0.0000000   0.0000000   0.0000000   0.0000000   0.0000000
 NMagM=    0.0000000   0.0000000   0.0000000   0.0000000   0.0000000   0.0000000   0.0000000   0.0000000   0.0000000   0.0000000
 AtZNuc=   0.0000000   0.0000000   0.0000000   0.0000000   0.0000000   0.0000000   0.0000000   0.0000000   0.0000000   0.0000000

  Atom       161         162         163         164         165         166         167         168         169         170
 IAtWgt=           0           0           0           0           0           0           0           0           0           0
 AtmWgt=   0.0000000   0.0000000   0.0000000   0.0000000   0.0000000   0.0000000   0.0000000   0.0000000   0.0000000   0.0000000
 NucSpn=           0           0           0           0           0           0           0           0           0           0
 AtZEff=   0.0000000   0.0000000   0.0000000   0.0000000   0.0000000   0.0000000   0.0000000   0.0000000   0.0000000   0.0000000
 NQMom=    0.0000000   0.0000000   0.0000000   0.0000000   0.0000000   0.0000000   0.0000000   0.0000000   0.0000000   0.0000000
 NMagM=    0.0000000   0.0000000   0.0000000   0.0000000   0.0000000   0.0000000   0.0000000   0.0000000   0.0000000   0.0000000
 AtZNuc=   0.0000000   0.0000000   0.0000000   0.0000000   0.0000000   0.0000000   0.0000000   0.0000000   0.0000000   0.0000000

  Atom       171         172         173         174         175         176         177         178         179         180
 IAtWgt=           0           0           0           0           0           0           0           0           0           0
 AtmWgt=   0.0000000   0.0000000   0.0000000   0.0000000   0.0000000   0.0000000   0.0000000   0.0000000   0.0000000   0.0000000
 NucSpn=           0           0           0           0           0           0           0           0           0           0
 AtZEff=   0.0000000   0.0000000   0.0000000   0.0000000   0.0000000   0.0000000   0.0000000   0.0000000   0.0000000   0.0000000
 NQMom=    0.0000000   0.0000000   0.0000000   0.0000000   0.0000000   0.0000000   0.0000000   0.0000000   0.0000000   0.0000000
 NMagM=    0.0000000   0.0000000   0.0000000   0.0000000   0.0000000   0.0000000   0.0000000   0.0000000   0.0000000   0.0000000
 AtZNuc=   0.0000000   0.0000000   0.0000000   0.0000000   0.0000000   0.0000000   0.0000000   0.0000000   0.0000000   0.0000000

  Atom       181         182         183         184         185         186         187         188         189         190
 IAtWgt=           0           0           0           0           0           0           0           0           0           0
 AtmWgt=   0.0000000   0.0000000   0.0000000   0.0000000   0.0000000   0.0000000   0.0000000   0.0000000   0.0000000   0.0000000
 NucSpn=           0           0           0           0           0           0           0           0           0           0
 AtZEff=   0.0000000   0.0000000   0.0000000   0.0000000   0.0000000   0.0000000   0.0000000   0.0000000   0.0000000   0.0000000
 NQMom=    0.0000000   0.0000000   0.0000000   0.0000000   0.0000000   0.0000000   0.0000000   0.0000000   0.0000000   0.0000000
 NMagM=    0.0000000   0.0000000   0.0000000   0.0000000   0.0000000   0.0000000   0.0000000   0.0000000   0.0000000   0.0000000
 AtZNuc=   0.0000000   0.0000000   0.0000000   0.0000000   0.0000000   0.0000000   0.0000000   0.0000000   0.0000000   0.0000000

  Atom       191         192         193         194         195         196         197         198         199         200
 IAtWgt=           0           0           0           0           0           0           0           0           0           0
 AtmWgt=   0.0000000   0.0000000   0.0000000   0.0000000   0.0000000   0.0000000   0.0000000   0.0000000   0.0000000   0.0000000
 NucSpn=           0           0           0           0           0           0           0           0           0           0
 AtZEff=   0.0000000   0.0000000   0.0000000   0.0000000   0.0000000   0.0000000   0.0000000   0.0000000   0.0000000   0.0000000
 NQMom=    0.0000000   0.0000000   0.0000000   0.0000000   0.0000000   0.0000000   0.0000000   0.0000000   0.0000000   0.0000000
 NMagM=    0.0000000   0.0000000   0.0000000   0.0000000   0.0000000   0.0000000   0.0000000   0.0000000   0.0000000   0.0000000
 AtZNuc=   0.0000000   0.0000000   0.0000000   0.0000000   0.0000000   0.0000000   0.0000000   0.0000000   0.0000000   0.0000000

  Atom       201         202         203         204         205         206         207         208         209         210
 IAtWgt=           0           0           0           0           0           0           0           0           0           0
 AtmWgt=   0.0000000   0.0000000   0.0000000   0.0000000   0.0000000   0.0000000   0.0000000   0.0000000   0.0000000   0.0000000
 NucSpn=           0           0           0           0           0           0           0           0           0           0
 AtZEff=   0.0000000   0.0000000   0.0000000   0.0000000   0.0000000   0.0000000   0.0000000   0.0000000   0.0000000   0.0000000
 NQMom=    0.0000000   0.0000000   0.0000000   0.0000000   0.0000000   0.0000000   0.0000000   0.0000000   0.0000000   0.0000000
 NMagM=    0.0000000   0.0000000   0.0000000   0.0000000   0.0000000   0.0000000   0.0000000   0.0000000   0.0000000   0.0000000
 AtZNuc=   0.0000000   0.0000000   0.0000000   0.0000000   0.0000000   0.0000000   0.0000000   0.0000000   0.0000000   0.0000000

  Atom       211         212         213         214         215         216         217         218         219         220
 IAtWgt=           0           0           0           0           0           0           0           0           0           0
 AtmWgt=   0.0000000   0.0000000   0.0000000   0.0000000   0.0000000   0.0000000   0.0000000   0.0000000   0.0000000   0.0000000
 NucSpn=           0           0           0           0           0           0           0           0           0           0
 AtZEff=   0.0000000   0.0000000   0.0000000   0.0000000   0.0000000   0.0000000   0.0000000   0.0000000   0.0000000   0.0000000
 NQMom=    0.0000000   0.0000000   0.0000000   0.0000000   0.0000000   0.0000000   0.0000000   0.0000000   0.0000000   0.0000000
 NMagM=    0.0000000   0.0000000   0.0000000   0.0000000   0.0000000   0.0000000   0.0000000   0.0000000   0.0000000   0.0000000
 AtZNuc=   0.0000000   0.0000000   0.0000000   0.0000000   0.0000000   0.0000000   0.0000000   0.0000000   0.0000000   0.0000000

  Atom       221         222         223         224         225         226         227         228         229         230
 IAtWgt=           0           0           0           0           0           0           0           0           0           0
 AtmWgt=   0.0000000   0.0000000   0.0000000   0.0000000   0.0000000   0.0000000   0.0000000   0.0000000   0.0000000   0.0000000
 NucSpn=           0           0           0           0           0           0           0           0           0           0
 AtZEff=   0.0000000   0.0000000   0.0000000   0.0000000   0.0000000   0.0000000   0.0000000   0.0000000   0.0000000   0.0000000
 NQMom=    0.0000000   0.0000000   0.0000000   0.0000000   0.0000000   0.0000000   0.0000000   0.0000000   0.0000000   0.0000000
 NMagM=    0.0000000   0.0000000   0.0000000   0.0000000   0.0000000   0.0000000   0.0000000   0.0000000   0.0000000   0.0000000
 AtZNuc=   0.0000000   0.0000000   0.0000000   0.0000000   0.0000000   0.0000000   0.0000000   0.0000000   0.0000000   0.0000000

  Atom       231         232         233         234         235         236
 IAtWgt=           0           0           0           0           0           0
 AtmWgt=   0.0000000   0.0000000   0.0000000   0.0000000   0.0000000   0.0000000
 NucSpn=           0           0           0           0           0           0
 AtZEff=   0.0000000   0.0000000   0.0000000   0.0000000   0.0000000   0.0000000
 NQMom=    0.0000000   0.0000000   0.0000000   0.0000000   0.0000000   0.0000000
 NMagM=    0.0000000   0.0000000   0.0000000   0.0000000   0.0000000   0.0000000
 AtZNuc=   0.0000000   0.0000000   0.0000000   0.0000000   0.0000000   0.0000000
 Leave Link  101 at Tue Sep 15 12:33:47 2020, MaxMem=   131072000 cpu:         4.3
 (Enter /share/programs/GAUSSIAN/64/g09/l202.exe)
 Symmetry turned off:
 Cannot cope with ghost atoms or with translation vectors.
 Stoichiometry    C22H14
 Framework group  C1[X(C22H14)]
 NUMDOF-- NAT=    36 NAtoms=   236
 Deg. of freedom     0
 Full point group                 C1      NOp   1
                          Input orientation:                          
 ---------------------------------------------------------------------
 Center     Atomic      Atomic             Coordinates (Angstroms)
 Number     Number       Type             X           Y           Z
 ---------------------------------------------------------------------
      1          6           0        0.653241    3.257859   -0.202510
      2          6           0       -0.653243    3.257860    0.202510
      3          6           0        1.372495    2.032956   -0.320807
      4          6           0       -1.372495    2.032956    0.320807
      5          6           0        0.722474    0.795666   -0.050388
      6          6           0       -0.722474    0.795667    0.050387
      7          6           0        2.760385    2.053927   -0.674268
      8          6           0        3.508866    0.913916   -0.671362
      9          6           0        2.955226   -0.309622   -0.177479
     10          6           0        1.574722   -0.361114    0.197094
     11          1           0        1.183427    4.195740   -0.384599
     12          1           0       -1.183429    4.195740    0.384599
     13          1           0        3.206283    3.012423   -0.951392
     14          1           0        4.560023    0.932956   -0.969333
     15          6           0        3.783020   -1.443098    0.028309
     16          6           0        1.137427   -1.507533    0.912109
     17          6           0        1.973691   -2.584349    1.138062
     18          6           0        3.301853   -2.571588    0.661177
     19          1           0        4.825754   -1.391230   -0.295484
     20          1           0        0.124652   -1.532788    1.308472
     21          1           0        1.603586   -3.445682    1.698977
     22          1           0        3.952742   -3.433526    0.825134
     23          6           0       -3.508866    0.913915    0.671362
     24          6           0       -2.760386    2.053926    0.674268
     25          6           0       -2.955226   -0.309623    0.177479
     26          6           0       -1.574722   -0.361114   -0.197094
     27          6           0       -3.783020   -1.443099   -0.028309
     28          6           0       -3.301852   -2.571589   -0.661177
     29          6           0       -1.973690   -2.584349   -1.138061
     30          6           0       -1.137426   -1.507534   -0.912109
     31          1           0       -4.560022    0.932954    0.969334
     32          1           0       -3.206283    3.012421    0.951392
     33          1           0       -4.825754   -1.391232    0.295484
     34          1           0       -3.952741   -3.433528   -0.825134
     35          1           0       -1.603585   -3.445682   -1.698976
     36          1           0       -0.124652   -1.532788   -1.308471
     37          0           0       -1.408024   -2.160815   -0.205002
     38          0           0       -1.320439   -2.190547   -0.205002
     39          0           0       -1.229722   -2.208591   -0.205002
     40          0           0       -1.137426   -2.214641   -0.205002
     41          0           0       -1.045130   -2.208591   -0.205002
     42          0           0       -0.954413   -2.190547   -0.205002
     43          0           0       -0.866828   -2.160815   -0.205002
     44          0           0       -0.783873   -2.119906   -0.205002
     45          0           0       -0.706967   -2.068520   -0.205002
     46          0           0       -0.637426   -2.007534   -0.205002
     47          0           0       -0.576440   -1.937993   -0.205002
     48          0           0       -0.525054   -1.861087   -0.205002
     49          0           0       -0.484145   -1.778132   -0.205002
     50          0           0       -0.454413   -1.690547   -0.205002
     51          0           0       -0.436369   -1.599830   -0.205002
     52          0           0       -0.344073   -1.507534   -0.303348
     53          0           0       -0.350860   -1.403981   -0.303348
     54          0           0       -1.620389   -2.136944   -0.303348
     55          0           0       -1.534103   -2.194598   -0.303348
     56          0           0       -0.932091   -2.273854   -0.303348
     57          0           0       -0.833823   -2.240497   -0.303348
     58          0           0       -0.740749   -2.194598   -0.303348
     59          0           0       -0.654463   -2.136944   -0.303348
     60          0           0       -0.576440   -2.068520   -0.303348
     61          0           0       -0.508016   -1.990497   -0.303348
     62          0           0       -0.450362   -1.904211   -0.303348
     63          0           0       -0.404463   -1.811137   -0.303348
     64          0           0       -0.371106   -1.712869   -0.303348
     65          0           0       -0.350860   -1.611087   -0.303348
     66          0           0       -0.610223   -2.194598   -0.412109
     67          0           0       -0.525054   -2.119906   -0.412109
     68          0           0       -0.450362   -2.034737   -0.412109
     69          0           0       -0.387426   -1.940547   -0.412109
     70          0           0       -0.484145   -2.160815   -0.529426
     71          0           0       -1.387426   -0.574521   -1.170928
     72          0           0       -1.507070   -0.615135   -1.170928
     73          0           0       -1.620389   -0.671018   -1.170928
     74          0           0       -1.725444   -0.741214   -1.170928
     75          0           0       -1.820439   -0.824521   -1.170928
     76          0           0       -1.903746   -0.919516   -1.170928
     77          0           0       -1.137426   -0.583654   -1.294792
     78          0           0       -1.258016   -0.591558   -1.294792
     79          0           0       -1.376544   -0.615135   -1.294792
     80          0           0       -1.490979   -0.653981   -1.294792
     81          0           0       -1.599366   -0.707431   -1.294792
     82          0           0       -1.699848   -0.774571   -1.294792
     83          0           0       -1.790707   -0.854253   -1.294792
     84          0           0       -1.870389   -0.945112   -1.294792
     85          0           0       -1.937529   -1.045594   -1.294792
     86          0           0       -1.990979   -1.153981   -1.294792
     87          0           0       -0.806012   -0.707431   -1.412109
     88          0           0       -0.913282   -0.671018   -1.412109
     89          0           0       -1.024387   -0.648918   -1.412109
     90          0           0       -1.137426   -0.641509   -1.412109
     91          0           0       -1.250465   -0.648918   -1.412109
     92          0           0       -1.361570   -0.671018   -1.412109
     93          0           0       -1.468840   -0.707431   -1.412109
     94          0           0       -1.570439   -0.757534   -1.412109
     95          0           0       -1.664629   -0.820470   -1.412109
     96          0           0       -1.749798   -0.895162   -1.412109
     97          0           0       -1.824490   -0.980331   -1.412109
     98          0           0       -1.887426   -1.074521   -1.412109
     99          0           0       -1.937529   -1.176120   -1.412109
    100          0           0       -1.973942   -1.283390   -1.412109
    101          0           0       -1.996042   -1.394495   -1.412109
    102          0           0       -2.003451   -1.507534   -1.412109
    103          0           0       -1.996042   -1.620573   -1.412109
    104          0           0       -0.833823   -0.774571   -1.520870
    105          0           0       -0.932091   -0.741214   -1.520870
    106          0           0       -1.033873   -0.720968   -1.520870
    107          0           0       -1.137426   -0.714181   -1.520870
    108          0           0       -1.240979   -0.720968   -1.520870
    109          0           0       -1.342761   -0.741214   -1.520870
    110          0           0       -1.441029   -0.774571   -1.520870
    111          0           0       -1.534103   -0.820470   -1.520870
    112          0           0       -1.620389   -0.878124   -1.520870
    113          0           0       -1.698412   -0.946548   -1.520870
    114          0           0       -1.766836   -1.024571   -1.520870
    115          0           0       -1.824490   -1.110857   -1.520870
    116          0           0       -1.870389   -1.203931   -1.520870
    117          0           0       -1.903746   -1.302199   -1.520870
    118          0           0       -1.923992   -1.403981   -1.520870
    119          0           0       -1.930779   -1.507534   -1.520870
    120          0           0       -1.923992   -1.611087   -1.520870
    121          0           0       -0.866828   -0.854253   -1.619216
    122          0           0       -0.954413   -0.824521   -1.619216
    123          0           0       -1.045130   -0.806477   -1.619216
    124          0           0       -1.137426   -0.800427   -1.619216
    125          0           0       -1.229722   -0.806477   -1.619216
    126          0           0       -1.320439   -0.824521   -1.619216
    127          0           0       -1.408024   -0.854253   -1.619216
    128          0           0       -1.490979   -0.895162   -1.619216
    129          0           0       -1.567885   -0.946548   -1.619216
    130          0           0       -1.637426   -1.007534   -1.619216
    131          0           0       -1.698412   -1.077075   -1.619216
    132          0           0       -1.749798   -1.153981   -1.619216
    133          0           0       -1.790707   -1.236936   -1.619216
    134          0           0       -1.820439   -1.324521   -1.619216
    135          0           0       -1.838483   -1.415238   -1.619216
    136          0           0       -1.844533   -1.507534   -1.619216
    137          0           0       -0.904463   -0.945112   -1.705462
    138          0           0       -0.979867   -0.919516   -1.705462
    139          0           0       -1.057967   -0.903981   -1.705462
    140          0           0       -1.137426   -0.898773   -1.705462
    141          0           0       -1.216885   -0.903981   -1.705462
    142          0           0       -1.294985   -0.919516   -1.705462
    143          0           0       -1.370389   -0.945112   -1.705462
    144          0           0       -1.441807   -0.980331   -1.705462
    145          0           0       -1.508016   -1.024571   -1.705462
    146          0           0       -1.567885   -1.077075   -1.705462
    147          0           0       -1.620389   -1.136944   -1.705462
    148          0           0       -1.664629   -1.203153   -1.705462
    149          0           0       -1.699848   -1.274571   -1.705462
    150          0           0       -1.725444   -1.349975   -1.705462
    151          0           0       -1.740979   -1.428075   -1.705462
    152          0           0       -1.746187   -1.507534   -1.705462
    153          0           0       -0.887426   -1.074521   -1.778134
    154          0           0       -0.946084   -1.045594   -1.778134
    155          0           0       -1.008016   -1.024571   -1.778134
    156          0           0       -1.072163   -1.011812   -1.778134
    157          0           0       -1.137426   -1.007534   -1.778134
    158          0           0       -1.202689   -1.011812   -1.778134
    159          0           0       -1.266836   -1.024571   -1.778134
    160          0           0       -1.328768   -1.045594   -1.778134
    161          0           0       -1.387426   -1.074521   -1.778134
    162          0           0       -1.441807   -1.110857   -1.778134
    163          0           0       -1.490979   -1.153981   -1.778134
    164          0           0       -1.534103   -1.203153   -1.778134
    165          0           0       -1.570439   -1.257534   -1.778134
    166          0           0       -1.599366   -1.316192   -1.778134
    167          0           0       -1.620389   -1.378124   -1.778134
    168          0           0       -1.633148   -1.442271   -1.778134
    169          0           0       -1.637426   -1.507534   -1.778134
    170          0           0       -0.946084   -1.176120   -1.835989
    171          0           0       -0.990979   -1.153981   -1.835989
    172          0           0       -1.038380   -1.137890   -1.835989
    173          0           0       -1.087476   -1.128124   -1.835989
    174          0           0       -1.137426   -1.124851   -1.835989
    175          0           0       -1.187376   -1.128124   -1.835989
    176          0           0       -1.236472   -1.137890   -1.835989
    177          0           0       -1.283873   -1.153981   -1.835989
    178          0           0       -1.328768   -1.176120   -1.835989
    179          0           0       -1.370389   -1.203931   -1.835989
    180          0           0       -1.408024   -1.236936   -1.835989
    181          0           0       -1.441029   -1.274571   -1.835989
    182          0           0       -1.468840   -1.316192   -1.835989
    183          0           0       -1.490979   -1.361087   -1.835989
    184          0           0       -1.507070   -1.408488   -1.835989
    185          0           0       -1.516836   -1.457584   -1.835989
    186          0           0       -1.520109   -1.507534   -1.835989
    187          0           0       -0.932091   -1.349975   -1.878035
    188          0           0       -0.954413   -1.324521   -1.878035
    189          0           0       -0.979867   -1.302199   -1.878035
    190          0           0       -1.008016   -1.283390   -1.878035
    191          0           0       -1.038380   -1.268416   -1.878035
    192          0           0       -1.070439   -1.257534   -1.878035
    193          0           0       -1.103643   -1.250929   -1.878035
    194          0           0       -1.137426   -1.248715   -1.878035
    195          0           0       -1.171209   -1.250929   -1.878035
    196          0           0       -1.204413   -1.257534   -1.878035
    197          0           0       -1.236472   -1.268416   -1.878035
    198          0           0       -1.266836   -1.283390   -1.878035
    199          0           0       -1.294985   -1.302199   -1.878035
    200          0           0       -1.320439   -1.324521   -1.878035
    201          0           0       -1.342761   -1.349975   -1.878035
    202          0           0       -1.361570   -1.378124   -1.878035
    203          0           0       -1.376544   -1.408488   -1.878035
    204          0           0       -1.387426   -1.440547   -1.878035
    205          0           0       -1.394031   -1.473751   -1.878035
    206          0           0       -1.006900   -1.507534   -1.903554
    207          0           0       -1.008016   -1.490497   -1.903554
    208          0           0       -1.011347   -1.473751   -1.903554
    209          0           0       -1.016836   -1.457584   -1.903554
    210          0           0       -1.024387   -1.442271   -1.903554
    211          0           0       -1.033873   -1.428075   -1.903554
    212          0           0       -1.045130   -1.415238   -1.903554
    213          0           0       -1.057967   -1.403981   -1.903554
    214          0           0       -1.072163   -1.394495   -1.903554
    215          0           0       -1.087476   -1.386944   -1.903554
    216          0           0       -1.103643   -1.381455   -1.903554
    217          0           0       -1.120389   -1.378124   -1.903554
    218          0           0       -1.137426   -1.377008   -1.903554
    219          0           0       -1.154463   -1.378124   -1.903554
    220          0           0       -1.171209   -1.381455   -1.903554
    221          0           0       -1.187376   -1.386944   -1.903554
    222          0           0       -1.202689   -1.394495   -1.903554
    223          0           0       -1.216885   -1.403981   -1.903554
    224          0           0       -1.229722   -1.415238   -1.903554
    225          0           0       -1.240979   -1.428075   -1.903554
    226          0           0       -1.250465   -1.442271   -1.903554
    227          0           0       -1.258016   -1.457584   -1.903554
    228          0           0       -1.263505   -1.473751   -1.903554
    229          0           0       -1.266836   -1.490497   -1.903554
    230          0           0       -1.008016   -1.524571   -1.903554
    231          0           0       -4.560022    0.932954    1.969334
    232          0           0       -4.560022    0.932954    1.969334
    233          0           0       -4.560022    0.932954    1.969334
    234          0           0       -4.560022    0.932954    1.969334
    235          0           0       -4.560022    0.932954    1.969334
    236          0           0       -4.560022    0.932954    1.969334
 ---------------------------------------------------------------------
 Rotational constants (GHZ):      0.4454681      0.2811480      0.1854303
 Leave Link  202 at Tue Sep 15 12:33:47 2020, MaxMem=   131072000 cpu:         0.0
 (Enter /share/programs/GAUSSIAN/64/g09/l301.exe)
 Standard basis: 6-311+G(d,p) (5D, 7F)
 Warning:  center  37 has no basis functions!
 Warning:  center  38 has no basis functions!
 Warning:  center  39 has no basis functions!
 Warning:  center  40 has no basis functions!
 Warning:  center  41 has no basis functions!
 Warning:  center  42 has no basis functions!
 Warning:  center  43 has no basis functions!
 Warning:  center  44 has no basis functions!
 Warning:  center  45 has no basis functions!
 Warning:  center  46 has no basis functions!
 Warning:  center  47 has no basis functions!
 Warning:  center  48 has no basis functions!
 Warning:  center  49 has no basis functions!
 Warning:  center  50 has no basis functions!
 Warning:  center  51 has no basis functions!
 Warning:  center  52 has no basis functions!
 Warning:  center  53 has no basis functions!
 Warning:  center  54 has no basis functions!
 Warning:  center  55 has no basis functions!
 Warning:  center  56 has no basis functions!
 Warning:  center  57 has no basis functions!
 Warning:  center  58 has no basis functions!
 Warning:  center  59 has no basis functions!
 Warning:  center  60 has no basis functions!
 Warning:  center  61 has no basis functions!
 Warning:  center  62 has no basis functions!
 Warning:  center  63 has no basis functions!
 Warning:  center  64 has no basis functions!
 Warning:  center  65 has no basis functions!
 Warning:  center  66 has no basis functions!
 Warning:  center  67 has no basis functions!
 Warning:  center  68 has no basis functions!
 Warning:  center  69 has no basis functions!
 Warning:  center  70 has no basis functions!
 Warning:  center  71 has no basis functions!
 Warning:  center  72 has no basis functions!
 Warning:  center  73 has no basis functions!
 Warning:  center  74 has no basis functions!
 Warning:  center  75 has no basis functions!
 Warning:  center  76 has no basis functions!
 Warning:  center  77 has no basis functions!
 Warning:  center  78 has no basis functions!
 Warning:  center  79 has no basis functions!
 Warning:  center  80 has no basis functions!
 Warning:  center  81 has no basis functions!
 Warning:  center  82 has no basis functions!
 Warning:  center  83 has no basis functions!
 Warning:  center  84 has no basis functions!
 Warning:  center  85 has no basis functions!
 Warning:  center  86 has no basis functions!
 Warning:  center  87 has no basis functions!
 Warning:  center  88 has no basis functions!
 Warning:  center  89 has no basis functions!
 Warning:  center  90 has no basis functions!
 Warning:  center  91 has no basis functions!
 Warning:  center  92 has no basis functions!
 Warning:  center  93 has no basis functions!
 Warning:  center  94 has no basis functions!
 Warning:  center  95 has no basis functions!
 Warning:  center  96 has no basis functions!
 Warning:  center  97 has no basis functions!
 Warning:  center  98 has no basis functions!
 Warning:  center  99 has no basis functions!
 Warning:  center 100 has no basis functions!
 Warning:  center 101 has no basis functions!
 Warning:  center 102 has no basis functions!
 Warning:  center 103 has no basis functions!
 Warning:  center 104 has no basis functions!
 Warning:  center 105 has no basis functions!
 Warning:  center 106 has no basis functions!
 Warning:  center 107 has no basis functions!
 Warning:  center 108 has no basis functions!
 Warning:  center 109 has no basis functions!
 Warning:  center 110 has no basis functions!
 Warning:  center 111 has no basis functions!
 Warning:  center 112 has no basis functions!
 Warning:  center 113 has no basis functions!
 Warning:  center 114 has no basis functions!
 Warning:  center 115 has no basis functions!
 Warning:  center 116 has no basis functions!
 Warning:  center 117 has no basis functions!
 Warning:  center 118 has no basis functions!
 Warning:  center 119 has no basis functions!
 Warning:  center 120 has no basis functions!
 Warning:  center 121 has no basis functions!
 Warning:  center 122 has no basis functions!
 Warning:  center 123 has no basis functions!
 Warning:  center 124 has no basis functions!
 Warning:  center 125 has no basis functions!
 Warning:  center 126 has no basis functions!
 Warning:  center 127 has no basis functions!
 Warning:  center 128 has no basis functions!
 Warning:  center 129 has no basis functions!
 Warning:  center 130 has no basis functions!
 Warning:  center 131 has no basis functions!
 Warning:  center 132 has no basis functions!
 Warning:  center 133 has no basis functions!
 Warning:  center 134 has no basis functions!
 Warning:  center 135 has no basis functions!
 Warning:  center 136 has no basis functions!
 Warning:  center 137 has no basis functions!
 Warning:  center 138 has no basis functions!
 Warning:  center 139 has no basis functions!
 Warning:  center 140 has no basis functions!
 Warning:  center 141 has no basis functions!
 Warning:  center 142 has no basis functions!
 Warning:  center 143 has no basis functions!
 Warning:  center 144 has no basis functions!
 Warning:  center 145 has no basis functions!
 Warning:  center 146 has no basis functions!
 Warning:  center 147 has no basis functions!
 Warning:  center 148 has no basis functions!
 Warning:  center 149 has no basis functions!
 Warning:  center 150 has no basis functions!
 Warning:  center 151 has no basis functions!
 Warning:  center 152 has no basis functions!
 Warning:  center 153 has no basis functions!
 Warning:  center 154 has no basis functions!
 Warning:  center 155 has no basis functions!
 Warning:  center 156 has no basis functions!
 Warning:  center 157 has no basis functions!
 Warning:  center 158 has no basis functions!
 Warning:  center 159 has no basis functions!
 Warning:  center 160 has no basis functions!
 Warning:  center 161 has no basis functions!
 Warning:  center 162 has no basis functions!
 Warning:  center 163 has no basis functions!
 Warning:  center 164 has no basis functions!
 Warning:  center 165 has no basis functions!
 Warning:  center 166 has no basis functions!
 Warning:  center 167 has no basis functions!
 Warning:  center 168 has no basis functions!
 Warning:  center 169 has no basis functions!
 Warning:  center 170 has no basis functions!
 Warning:  center 171 has no basis functions!
 Warning:  center 172 has no basis functions!
 Warning:  center 173 has no basis functions!
 Warning:  center 174 has no basis functions!
 Warning:  center 175 has no basis functions!
 Warning:  center 176 has no basis functions!
 Warning:  center 177 has no basis functions!
 Warning:  center 178 has no basis functions!
 Warning:  center 179 has no basis functions!
 Warning:  center 180 has no basis functions!
 Warning:  center 181 has no basis functions!
 Warning:  center 182 has no basis functions!
 Warning:  center 183 has no basis functions!
 Warning:  center 184 has no basis functions!
 Warning:  center 185 has no basis functions!
 Warning:  center 186 has no basis functions!
 Warning:  center 187 has no basis functions!
 Warning:  center 188 has no basis functions!
 Warning:  center 189 has no basis functions!
 Warning:  center 190 has no basis functions!
 Warning:  center 191 has no basis functions!
 Warning:  center 192 has no basis functions!
 Warning:  center 193 has no basis functions!
 Warning:  center 194 has no basis functions!
 Warning:  center 195 has no basis functions!
 Warning:  center 196 has no basis functions!
 Warning:  center 197 has no basis functions!
 Warning:  center 198 has no basis functions!
 Warning:  center 199 has no basis functions!
 Warning:  center 200 has no basis functions!
 Warning:  center 201 has no basis functions!
 Warning:  center 202 has no basis functions!
 Warning:  center 203 has no basis functions!
 Warning:  center 204 has no basis functions!
 Warning:  center 205 has no basis functions!
 Warning:  center 206 has no basis functions!
 Warning:  center 207 has no basis functions!
 Warning:  center 208 has no basis functions!
 Warning:  center 209 has no basis functions!
 Warning:  center 210 has no basis functions!
 Warning:  center 211 has no basis functions!
 Warning:  center 212 has no basis functions!
 Warning:  center 213 has no basis functions!
 Warning:  center 214 has no basis functions!
 Warning:  center 215 has no basis functions!
 Warning:  center 216 has no basis functions!
 Warning:  center 217 has no basis functions!
 Warning:  center 218 has no basis functions!
 Warning:  center 219 has no basis functions!
 Warning:  center 220 has no basis functions!
 Warning:  center 221 has no basis functions!
 Warning:  center 222 has no basis functions!
 Warning:  center 223 has no basis functions!
 Warning:  center 224 has no basis functions!
 Warning:  center 225 has no basis functions!
 Warning:  center 226 has no basis functions!
 Warning:  center 227 has no basis functions!
 Warning:  center 228 has no basis functions!
 Warning:  center 229 has no basis functions!
 Warning:  center 230 has no basis functions!
 Warning:  center 231 has no basis functions!
 Warning:  center 232 has no basis functions!
 Warning:  center 233 has no basis functions!
 Warning:  center 234 has no basis functions!
 Warning:  center 235 has no basis functions!
 Warning:  center 236 has no basis functions!
 Ernie: Thresh=  0.10000D-02 Tol=  0.10000D-05 Strict=F.
   568 basis functions,   904 primitive gaussians,   590 cartesian basis functions
    73 alpha electrons       73 beta electrons
       nuclear repulsion energy      1599.9156270972 Hartrees.
 IExCor=  402 DFT=T Ex+Corr=B3LYP ExCW=0 ScaHFX=  0.200000
 ScaDFX=  0.800000  0.720000  1.000000  0.810000 ScalE2=  1.000000  1.000000
 IRadAn=      0 IRanWt=     -1 IRanGd=            0 ICorTp=0 IEmpDi=  4
 NAtoms=  236 NActive=  236 NUniq=  236 SFac= 1.00D+00 NAtFMM=   60 NAOKFM=T Big=T
 Integral buffers will be    131072 words long.
 Raffenetti 2 integral format.
 Two-electron integral symmetry is turned off.
 Leave Link  301 at Tue Sep 15 12:33:47 2020, MaxMem=   131072000 cpu:         0.6
 (Enter /share/programs/GAUSSIAN/64/g09/l302.exe)
 NPDir=0 NMtPBC=     1 NCelOv=     1 NCel=       1 NClECP=     1 NCelD=      1
         NCelK=      1 NCelE2=     1 NClLst=     1 CellRange=     0.0.
 One-electron integrals computed using PRISM.
 NBasis=   568 RedAO= T EigKep=  1.01D-06  NBF=   568
 NBsUse=   557 1.00D-06 EigRej=  9.19D-07 NBFU=   557
 Precomputing XC quadrature grid using
 IXCGrd= 4 IRadAn=           0 IRanWt=          -1 IRanGd=           0 AccXCQ= 0.00D+00.
 Generated NRdTot=       0 NPtTot=           0 NUsed=           0 NTot=          32
 NSgBfM=   587   588   588   589   589 MxSgAt=   236 MxSgA2=    36.
 Leave Link  302 at Tue Sep 15 12:33:49 2020, MaxMem=   131072000 cpu:        17.3
 (Enter /share/programs/GAUSSIAN/64/g09/l308.exe)
 Leave Link  308 at Tue Sep 15 12:33:49 2020, MaxMem=   131072000 cpu:         1.3
 (Enter /share/programs/GAUSSIAN/64/g09/l303.exe)
 DipDrv:  MaxL=1.
 Leave Link  303 at Tue Sep 15 12:33:49 2020, MaxMem=   131072000 cpu:         1.0
 (Enter /share/programs/GAUSSIAN/64/g09/l401.exe)
 Initial guess from the checkpoint file:  "/scratch/aartigas.39067/Gau-3626950.chk"
 Skipping rotation of guess because NAtoms(RWF)=  236 differs from NAtoms(Chk)=   36.
 Guess basis will be translated and rotated to current coordinates.
 JPrj=2 DoOrth=T DoCkMO=T.
 Leave Link  401 at Tue Sep 15 12:33:55 2020, MaxMem=   131072000 cpu:        22.1
 (Enter /share/programs/GAUSSIAN/64/g09/l502.exe)
 Closed shell SCF:
 Using DIIS extrapolation, IDIIS=  1040.
 Two-electron integral symmetry not used.
 IVT=     1071582 IEndB=     1071582 NGot=   131072000 MDV=   130365749
 LenX=   130365749 LenY=   130017059
 Requested convergence on RMS density matrix=1.00D-08 within 128 cycles.
 Requested convergence on MAX density matrix=1.00D-06.
 Requested convergence on             energy=1.00D-06.
 No special actions if energy rises.
 Fock matrices will be formed incrementally for  20 cycles.

 Cycle   1  Pass 1  IDiag  1:
 FoFJK:  IHMeth= 1 ICntrl=       0 DoSepK=F KAlg= 0 I1Cent=   0 FoldK=F
 IRaf= 940000000 NMat=   1 IRICut=       1 DoRegI=T DoRafI=F ISym2E= 0.
 FoFCou: FMM=T IPFlag=           0 FMFlag=      100000 FMFlg1=        2001
         NFxFlg=           0 DoJE=F BraDBF=F KetDBF=F FulRan=T
         wScrn=  0.000000 ICntrl=       0 IOpCl=  0 I1Cent=           0 NGrid=           0
         NMat0=    1 NMatS0=      1 NMatT0=    0 NMatD0=    1 NMtDS0=    0 NMtDT0=    0
 Symmetry not used in FoFCou.
 FMM levels:  10  Number of levels for PrismC:   9
 E= -847.003738666967    
 DIIS: error= 5.05D-08 at cycle   1 NSaved=   1.
 NSaved= 1 IEnMin= 1 EnMin= -847.003738666967     IErMin= 1 ErrMin= 5.05D-08
 ErrMax= 5.05D-08  0.00D+00 EMaxC= 1.00D-01 BMatC= 3.55D-12 BMatP= 3.55D-12
 IDIUse=1 WtCom= 1.00D+00 WtEn= 0.00D+00
 Coeff-Com:  0.100D+01
 Coeff:      0.100D+01
 Gap=     0.151 Goal=   None    Shift=    0.000
 RMSDP=2.88D-07 MaxDP=1.32D-05              OVMax= 3.94D-07

 Cycle   2  Pass 1  IDiag  1:
 RMSU=  2.85D-07    CP:  1.00D+00
 E= -847.003738666838     Delta-E=        0.000000000129 Rises=F Damp=F
 DIIS: error= 1.42D-08 at cycle   2 NSaved=   2.
 NSaved= 2 IEnMin= 1 EnMin= -847.003738666967     IErMin= 2 ErrMin= 1.42D-08
 ErrMax= 1.42D-08  0.00D+00 EMaxC= 1.00D-01 BMatC= 2.13D-13 BMatP= 3.55D-12
 IDIUse=1 WtCom= 1.00D+00 WtEn= 0.00D+00
 Coeff-Com:  0.627D-01 0.937D+00
 Coeff:      0.627D-01 0.937D+00
 Gap=     0.151 Goal=   None    Shift=    0.000
 RMSDP=1.58D-08 MaxDP=7.85D-07 DE= 1.29D-10 OVMax= 3.02D-07

 Cycle   3  Pass 1  IDiag  1:
 RMSU=  1.33D-08    CP:  1.00D+00  1.02D+00
 E= -847.003738666920     Delta-E=       -0.000000000082 Rises=F Damp=F
 DIIS: error= 2.51D-08 at cycle   3 NSaved=   3.
 NSaved= 3 IEnMin= 1 EnMin= -847.003738666967     IErMin= 2 ErrMin= 1.42D-08
 ErrMax= 2.51D-08  0.00D+00 EMaxC= 1.00D-01 BMatC= 5.05D-13 BMatP= 2.13D-13
 IDIUse=1 WtCom= 1.00D+00 WtEn= 0.00D+00
 Coeff-Com: -0.107D-01 0.616D+00 0.395D+00
 Coeff:     -0.107D-01 0.616D+00 0.395D+00
 Gap=     0.151 Goal=   None    Shift=    0.000
 RMSDP=1.03D-08 MaxDP=4.23D-07 DE=-8.23D-11 OVMax= 2.17D-07

 Cycle   4  Pass 1  IDiag  1:
 RMSU=  5.85D-09    CP:  1.00D+00  1.03D+00  3.90D-01
 E= -847.003738666830     Delta-E=        0.000000000090 Rises=F Damp=F
 DIIS: error= 8.06D-09 at cycle   4 NSaved=   4.
 NSaved= 4 IEnMin= 1 EnMin= -847.003738666967     IErMin= 4 ErrMin= 8.06D-09
 ErrMax= 8.06D-09  0.00D+00 EMaxC= 1.00D-01 BMatC= 2.07D-14 BMatP= 2.13D-13
 IDIUse=1 WtCom= 1.00D+00 WtEn= 0.00D+00
 Coeff-Com: -0.876D-02 0.309D+00 0.241D+00 0.459D+00
 Coeff:     -0.876D-02 0.309D+00 0.241D+00 0.459D+00
 Gap=     0.151 Goal=   None    Shift=    0.000
 RMSDP=4.17D-09 MaxDP=1.79D-07 DE= 9.00D-11 OVMax= 6.88D-08

 SCF Done:  E(RB3LYP) =  -847.003738667     A.U. after    4 cycles
            NFock=  4  Conv=0.42D-08     -V/T= 2.0049
 KE= 8.428349970566D+02 PE=-5.164192584015D+03 EE= 1.874438221195D+03
 Leave Link  502 at Tue Sep 15 12:37:33 2020, MaxMem=   131072000 cpu:      1731.1
 (Enter /share/programs/GAUSSIAN/64/g09/l801.exe)
 DoSCS=F DFT=T ScalE2(SS,OS)=  1.000000  1.000000
 Range of M.O.s used for correlation:     1   557
 NBasis=   568 NAE=    73 NBE=    73 NFC=     0 NFV=     0
 NROrb=    557 NOA=    73 NOB=    73 NVA=   484 NVB=   484

 **** Warning!!: The largest alpha MO coefficient is  0.14271942D+03

 Leave Link  801 at Tue Sep 15 12:37:34 2020, MaxMem=   131072000 cpu:         0.3
 (Enter /share/programs/GAUSSIAN/64/g09/l1002.exe)
 Minotr:  Closed shell wavefunction.
          Direct CPHF calculation.
          Differentiating once with respect to magnetic field using GIAOs.
          Electric field/nuclear overlap derivatives assumed to be zero.
          Requested convergence is 1.0D-08 RMS, and 1.0D-07 maximum.
          Secondary convergence is 1.0D-12 RMS, and 1.0D-12 maximum.
          NewPWx=T KeepS1=F KeepF1=F KeepIn=T MapXYZ=F SortEE=F KeepMc=T.
          MDV=     131069551 using IRadAn=       2.
 Generate precomputed XC quadrature information.
          Solving linear equations simultaneously, MaxMat=      72.
 FoFCou: FMM=F IPFlag=           0 FMFlag=      100000 FMFlg1=        2001
         NFxFlg=           0 DoJE=F BraDBF=F KetDBF=T FulRan=T
         wScrn=  0.000000 ICntrl=    6100 IOpCl=  0 I1Cent=           7 NGrid=         236
         NMat0=    1 NMatS0=      1 NMatT0=    0 NMatD0=    1 NMtDS0=    0 NMtDT0=    0
 Symmetry not used in FoFCou.
 FoFJK:  IHMeth= 1 ICntrl=    6127 DoSepK=F KAlg= 0 I1Cent=   0 FoldK=F
 IRaf=         1 NMat=   1 IRICut=       1 DoRegI=T DoRafI=F ISym2E= 0.
          There are     3 degrees of freedom in the 1st order CPHF.  IDoFFX=0 NUNeed=     3.
      3 vectors produced by pass  0 Test12= 1.18D-12 3.33D-08 XBig12= 1.96D+03 8.77D+00.
 AX will form     3 AO Fock derivatives at one time.
      3 vectors produced by pass  1 Test12= 1.18D-12 3.33D-08 XBig12= 3.18D+00 7.58D-01.
      3 vectors produced by pass  2 Test12= 1.18D-12 3.33D-08 XBig12= 1.86D-02 5.85D-02.
      3 vectors produced by pass  3 Test12= 1.18D-12 3.33D-08 XBig12= 4.29D-05 1.35D-03.
      3 vectors produced by pass  4 Test12= 1.18D-12 3.33D-08 XBig12= 9.75D-08 7.22D-05.
      3 vectors produced by pass  5 Test12= 1.18D-12 3.33D-08 XBig12= 3.97D-10 5.92D-06.
      3 vectors produced by pass  6 Test12= 1.18D-12 3.33D-08 XBig12= 1.51D-12 4.40D-07.
 InvSVY:  IOpt=1 It=  1 EMax= 2.13D-14
 Solved reduced A of dimension    21 with     3 vectors.
 Calculating GIAO nuclear magnetic shielding tensors.
 SCF GIAO Magnetic shielding tensor (ppm):
      1  C    Isotropic =    49.6861   Anisotropy =   149.7970
   XX=    46.3088   YX=   -25.0950   ZX=    31.4786
   XY=   -31.1109   YY=   -39.0339   ZY=    13.2621
   XZ=    24.9178   YZ=     8.9888   ZZ=   141.7833
   Eigenvalues:   -49.3507    48.8581   149.5507
      2  C    Isotropic =    49.6861   Anisotropy =   149.7971
   XX=    46.3088   YX=    25.0953   ZX=    31.4786
   XY=    31.1111   YY=   -39.0339   ZY=   -13.2621
   XZ=    24.9177   YZ=    -8.9889   ZZ=   141.7834
   Eigenvalues:   -49.3508    48.8583   149.5509
      3  C    Isotropic =    44.4899   Anisotropy =   204.7372
   XX=   -22.2199   YX=    10.8075   ZX=    51.2710
   XY=     4.9259   YY=   -14.7126   ZY=    14.7921
   XZ=    32.3655   YZ=    21.2392   ZZ=   170.4022
   Eigenvalues:   -31.9593   -15.5523   180.9814
      4  C    Isotropic =    44.4899   Anisotropy =   204.7373
   XX=   -22.2198   YX=   -10.8075   ZX=    51.2710
   XY=    -4.9256   YY=   -14.7126   ZY=   -14.7922
   XZ=    32.3656   YZ=   -21.2393   ZZ=   170.4023
   Eigenvalues:   -31.9592   -15.5524   180.9815
      5  C    Isotropic =    48.5420   Anisotropy =   189.5490
   XX=   -14.6790   YX=     4.7342   ZX=     8.4333
   XY=    20.3759   YY=    -5.5375   ZY=    31.5121
   XZ=    65.1218   YZ=     0.8640   ZZ=   165.8426
   Eigenvalues:   -26.3226    -2.9593   174.9080
      6  C    Isotropic =    48.5421   Anisotropy =   189.5489
   XX=   -14.6789   YX=    -4.7340   ZX=     8.4335
   XY=   -20.3758   YY=    -5.5374   ZY=   -31.5121
   XZ=    65.1218   YZ=    -0.8638   ZZ=   165.8426
   Eigenvalues:   -26.3224    -2.9594   174.9080
      7  C    Isotropic =    50.1907   Anisotropy =   149.2089
   XX=    19.7303   YX=   -44.2755   ZX=    41.2886
   XY=   -38.0437   YY=    -2.7069   ZY=    36.9011
   XZ=    36.5866   YZ=    37.5458   ZZ=   133.5487
   Eigenvalues:   -49.6656    50.5744   149.6633
      8  C    Isotropic =    48.9362   Anisotropy =   152.4339
   XX=   -31.5093   YX=   -11.4921   ZX=    54.7730
   XY=   -19.0468   YY=    46.5898   ZY=    27.5522
   XZ=    42.2451   YZ=    29.8391   ZZ=   131.7282
   Eigenvalues:   -50.1461    46.3960   150.5589
      9  C    Isotropic =    44.4204   Anisotropy =   209.3981
   XX=   -10.1987   YX=    16.7536   ZX=    44.4888
   XY=     8.9342   YY=    -7.7270   ZY=    61.4651
   XZ=    43.3269   YZ=    64.9792   ZZ=   151.1869
   Eigenvalues:   -30.3689   -20.3891   184.0192
     10  C    Isotropic =    45.3894   Anisotropy =   198.3236
   XX=    -5.9706   YX=    23.3819   ZX=    35.6519
   XY=    38.1954   YY=     1.7271   ZY=    73.1370
   XZ=    54.0013   YZ=    45.7045   ZZ=   140.4116
   Eigenvalues:   -33.5315    -7.9055   177.6051
     11  H    Isotropic =    23.8179   Anisotropy =     7.5674
   XX=    27.2191   YX=    -1.9090   ZX=    -2.2602
   XY=    -1.7961   YY=    24.8722   ZY=    -0.1966
   XZ=    -3.3763   YZ=    -0.1950   ZZ=    19.3625
   Eigenvalues:    18.3647    24.2263    28.8628
     12  H    Isotropic =    23.8179   Anisotropy =     7.5674
   XX=    27.2191   YX=     1.9090   ZX=    -2.2602
   XY=     1.7961   YY=    24.8722   ZY=     0.1966
   XZ=    -3.3763   YZ=     0.1950   ZZ=    19.3625
   Eigenvalues:    18.3647    24.2263    28.8628
     13  H    Isotropic =    23.8548   Anisotropy =     7.5124
   XX=    26.7195   YX=    -2.1358   ZX=    -2.0755
[...]
   137  Bq   0.000000
   138  Bq   0.000000
   139  Bq   0.000000
   140  Bq   0.000000
   141  Bq   0.000000
   142  Bq   0.000000
   143  Bq   0.000000
   144  Bq   0.000000
   145  Bq   0.000000
   146  Bq   0.000000
   147  Bq   0.000000
   148  Bq   0.000000
   149  Bq   0.000000
   150  Bq   0.000000
   151  Bq   0.000000
   152  Bq   0.000000
   153  Bq   0.000000
   154  Bq   0.000000
   155  Bq   0.000000
   156  Bq   0.000000
   157  Bq   0.000000
   158  Bq   0.000000
   159  Bq   0.000000
   160  Bq   0.000000
   161  Bq   0.000000
   162  Bq   0.000000
   163  Bq   0.000000
   164  Bq   0.000000
   165  Bq   0.000000
   166  Bq   0.000000
   167  Bq   0.000000
   168  Bq   0.000000
   169  Bq   0.000000
   170  Bq   0.000000
   171  Bq   0.000000
   172  Bq   0.000000
   173  Bq   0.000000
   174  Bq   0.000000
   175  Bq   0.000000
   176  Bq   0.000000
   177  Bq   0.000000
   178  Bq   0.000000
   179  Bq   0.000000
   180  Bq   0.000000
   181  Bq   0.000000
   182  Bq   0.000000
   183  Bq   0.000000
   184  Bq   0.000000
   185  Bq   0.000000
   186  Bq   0.000000
   187  Bq   0.000000
   188  Bq   0.000000
   189  Bq   0.000000
   190  Bq   0.000000
   191  Bq   0.000000
   192  Bq   0.000000
   193  Bq   0.000000
   194  Bq   0.000000
   195  Bq   0.000000
   196  Bq   0.000000
   197  Bq   0.000000
   198  Bq   0.000000
   199  Bq   0.000000
   200  Bq   0.000000
   201  Bq   0.000000
   202  Bq   0.000000
   203  Bq   0.000000
   204  Bq   0.000000
   205  Bq   0.000000
   206  Bq   0.000000
   207  Bq   0.000000
   208  Bq   0.000000
   209  Bq   0.000000
   210  Bq   0.000000
   211  Bq   0.000000
   212  Bq   0.000000
   213  Bq   0.000000
   214  Bq   0.000000
   215  Bq   0.000000
   216  Bq   0.000000
   217  Bq   0.000000
   218  Bq   0.000000
   219  Bq   0.000000
   220  Bq   0.000000
   221  Bq   0.000000
   222  Bq   0.000000
   223  Bq   0.000000
   224  Bq   0.000000
   225  Bq   0.000000
   226  Bq   0.000000
   227  Bq   0.000000
   228  Bq   0.000000
   229  Bq   0.000000
   230  Bq   0.000000
   231  Bq   0.000000
   232  Bq   0.000000
   233  Bq   0.000000
   234  Bq   0.000000
   235  Bq   0.000000
   236  Bq   0.000000
 Sum of Mulliken charges =   0.00000
 Mulliken charges with hydrogens summed into heavy atoms:
               1
     1  C   -0.262865
     2  C   -0.262866
     3  C    0.737923
     4  C    0.737922
     5  C   -0.039994
     6  C   -0.040001
     7  C    0.075155
     8  C   -0.330147
     9  C    0.780501
    10  C   -0.200782
    15  C    0.249272
    16  C   -0.533462
    17  C   -0.189404
    18  C   -0.286191
    23  C   -0.449357
    24  C    0.075154
    25  C    0.780496
    26  C   -0.200782
    27  C    0.249273
    28  C   -0.286192
    29  C   -0.189403
    30  C   -0.679961
    37  Bq   0.000000
    38  Bq   0.000000
    39  Bq   0.000000
    40  Bq   0.000000
    41  Bq   0.000000
    42  Bq   0.000000
    43  Bq   0.000000
    44  Bq   0.000000
    45  Bq   0.000000
    46  Bq   0.000000
    47  Bq   0.000000
    48  Bq   0.000000
    49  Bq   0.000000
    50  Bq   0.000000
    51  Bq   0.000000
    52  Bq   0.000000
    53  Bq   0.000000
    54  Bq   0.000000
    55  Bq   0.000000
    56  Bq   0.000000
    57  Bq   0.000000
    58  Bq   0.000000
    59  Bq   0.000000
    60  Bq   0.000000
    61  Bq   0.000000
    62  Bq   0.000000
    63  Bq   0.000000
    64  Bq   0.000000
    65  Bq   0.000000
    66  Bq   0.000000
    67  Bq   0.000000
    68  Bq   0.000000
    69  Bq   0.000000
    70  Bq   0.000000
    71  Bq   0.000000
    72  Bq   0.000000
    73  Bq   0.000000
    74  Bq   0.000000
    75  Bq   0.000000
    76  Bq   0.000000
    77  Bq   0.000000
    78  Bq   0.000000
    79  Bq   0.000000
    80  Bq   0.000000
    81  Bq   0.000000
    82  Bq   0.000000
    83  Bq   0.000000
    84  Bq   0.000000
    85  Bq   0.000000
    86  Bq   0.000000
    87  Bq   0.000000
    88  Bq   0.000000
    89  Bq   0.000000
    90  Bq   0.000000
    91  Bq   0.000000
    92  Bq   0.000000
    93  Bq   0.000000
    94  Bq   0.000000
    95  Bq   0.000000
    96  Bq   0.000000
    97  Bq   0.000000
    98  Bq   0.000000
    99  Bq   0.000000
   100  Bq   0.000000
   101  Bq   0.000000
   102  Bq   0.000000
   103  Bq   0.000000
   104  Bq   0.000000
   105  Bq   0.000000
   106  Bq   0.000000
   107  Bq   0.000000
   108  Bq   0.000000
   109  Bq   0.000000
   110  Bq   0.000000
   111  Bq   0.000000
   112  Bq   0.000000
   113  Bq   0.000000
   114  Bq   0.000000
   115  Bq   0.000000
   116  Bq   0.000000
   117  Bq   0.000000
   118  Bq   0.000000
   119  Bq   0.000000
   120  Bq   0.000000
   121  Bq   0.000000
   122  Bq   0.000000
   123  Bq   0.000000
   124  Bq   0.000000
   125  Bq   0.000000
   126  Bq   0.000000
   127  Bq   0.000000
   128  Bq   0.000000
   129  Bq   0.000000
   130  Bq   0.000000
   131  Bq   0.000000
   132  Bq   0.000000
   133  Bq   0.000000
   134  Bq   0.000000
   135  Bq   0.000000
   136  Bq   0.000000
   137  Bq   0.000000
   138  Bq   0.000000
   139  Bq   0.000000
   140  Bq   0.000000
   141  Bq   0.000000
   142  Bq   0.000000
   143  Bq   0.000000
   144  Bq   0.000000
   145  Bq   0.000000
   146  Bq   0.000000
   147  Bq   0.000000
   148  Bq   0.000000
   149  Bq   0.000000
   150  Bq   0.000000
   151  Bq   0.000000
   152  Bq   0.000000
   153  Bq   0.000000
   154  Bq   0.000000
   155  Bq   0.000000
   156  Bq   0.000000
   157  Bq   0.000000
   158  Bq   0.000000
   159  Bq   0.000000
   160  Bq   0.000000
   161  Bq   0.000000
   162  Bq   0.000000
   163  Bq   0.000000
   164  Bq   0.000000
   165  Bq   0.000000
   166  Bq   0.000000
   167  Bq   0.000000
   168  Bq   0.000000
   169  Bq   0.000000
   170  Bq   0.000000
   171  Bq   0.000000
   172  Bq   0.000000
   173  Bq   0.000000
   174  Bq   0.000000
   175  Bq   0.000000
   176  Bq   0.000000
   177  Bq   0.000000
   178  Bq   0.000000
   179  Bq   0.000000
   180  Bq   0.000000
   181  Bq   0.000000
   182  Bq   0.000000
   183  Bq   0.000000
   184  Bq   0.000000
   185  Bq   0.000000
   186  Bq   0.000000
   187  Bq   0.146499
   188  Bq   0.000000
   189  Bq   0.000000
   190  Bq   0.000000
   191  Bq   0.000000
   192  Bq   0.000000
   193  Bq   0.000000
   194  Bq   0.000000
   195  Bq   0.000000
   196  Bq   0.000000
   197  Bq   0.000000
   198  Bq   0.000000
   199  Bq   0.000000
   200  Bq   0.000000
   201  Bq   0.000000
   202  Bq   0.000000
   203  Bq   0.000000
   204  Bq   0.000000
   205  Bq   0.000000
   206  Bq   0.000000
   207  Bq   0.000000
   208  Bq   0.000000
   209  Bq   0.000000
   210  Bq   0.000000
   211  Bq   0.000000
   212  Bq   0.000000
   213  Bq   0.000000
   214  Bq   0.000000
   215  Bq   0.000000
   216  Bq   0.000000
   217  Bq   0.000000
   218  Bq   0.000000
   219  Bq   0.000000
   220  Bq   0.000000
   221  Bq   0.000000
   222  Bq   0.000000
   223  Bq   0.000000
   224  Bq   0.000000
   225  Bq   0.000000
   226  Bq   0.000000
   227  Bq   0.000000
   228  Bq   0.000000
   229  Bq   0.000000
   230  Bq   0.000000
   231  Bq   0.119212
   232  Bq   0.000000
   233  Bq   0.000000
   234  Bq   0.000000
   235  Bq   0.000000
   236  Bq   0.000000
 Electronic spatial extent (au):  <R**2>=           5804.3227
 Charge=              0.0000 electrons
 Dipole moment (field-independent basis, Debye):
    X=              0.0000    Y=              0.0732    Z=              0.0000  Tot=              0.0732
 Quadrupole moment (field-independent basis, Debye-Ang):
   XX=           -113.9137   YY=           -113.9781   ZZ=           -133.4378
   XY=              0.0000   XZ=             -4.8717   YZ=              0.0000
 Traceless Quadrupole moment (field-independent basis, Debye-Ang):
   XX=              6.5295   YY=              6.4651   ZZ=            -12.9946
   XY=              0.0000   XZ=             -4.8717   YZ=              0.0000
 Octapole moment (field-independent basis, Debye-Ang**2):
  XXX=              0.0000  YYY=             11.7108  ZZZ=              0.0000  XYY=              0.0000
  XXY=             -6.4067  XXZ=              0.0000  XZZ=              0.0000  YZZ=             -7.8695
  YYZ=              0.0000  XYZ=            -16.2862
 Hexadecapole moment (field-independent basis, Debye-Ang**3):
 XXXX=          -4416.4021 YYYY=          -2784.9756 ZZZZ=           -481.5690 XXXY=              0.0001
 XXXZ=           -124.3517 YYYX=             -0.0003 YYYZ=              0.0001 ZZZX=             -4.4782
 ZZZY=              0.0001 XXYY=          -1189.3576 XXZZ=           -942.9016 YYZZ=           -589.4012
 XXYZ=              0.0000 YYXZ=              7.8297 ZZXY=             -0.0001
 N-N= 1.599915627097D+03 E-N=-5.164192587538D+03  KE= 8.428349970566D+02
 Leave Link  601 at Tue Sep 15 12:55:28 2020, MaxMem=   131072000 cpu:         1.2
 (Enter /share/programs/GAUSSIAN/64/g09/l9999.exe)
 1\1\GINC-MUHKA\SP\RB3LYP\6-311+G(d,p)\C22H14\AARTIGAS\15-Sep-2020\0\\#
 P rb3lyp/6-311+g** NMR Guess=Read geom=connectivity\\Title\\0,1\C,0,0.
 653241,3.257859,-0.20251\C,0,-0.653243,3.25786,0.20251\C,0,1.372495,2.
 032956,-0.320807\C,0,-1.372495,2.032956,0.320807\C,0,0.722474,0.795666
 ,-0.050388\C,0,-0.722474,0.795667,0.050387\C,0,2.760385,2.053927,-0.67
 4268\C,0,3.508866,0.913916,-0.671362\C,0,2.955226,-0.309622,-0.177479\
 C,0,1.574722,-0.361114,0.197094\H,0,1.183427,4.19574,-0.384599\H,0,-1.
 183429,4.19574,0.384599\H,0,3.206283,3.012423,-0.951392\H,0,4.560023,0
 .932956,-0.969333\C,0,3.78302,-1.443098,0.028309\C,0,1.137427,-1.50753
 3,0.912109\C,0,1.973691,-2.584349,1.138062\C,0,3.301853,-2.571588,0.66
 1177\H,0,4.825754,-1.39123,-0.295484\H,0,0.124652,-1.532788,1.308472\H
 ,0,1.603586,-3.445682,1.698977\H,0,3.952742,-3.433526,0.825134\C,0,-3.
 508866,0.913915,0.671362\C,0,-2.760386,2.053926,0.674268\C,0,-2.955226
 ,-0.309623,0.177479\C,0,-1.574722,-0.361114,-0.197094\C,0,-3.78302,-1.
 443099,-0.028309\C,0,-3.301852,-2.571589,-0.661177\C,0,-1.97369,-2.584
 349,-1.138061\C,0,-1.137426,-1.507534,-0.912109\H,0,-4.560022,0.932954
 ,0.969334\H,0,-3.206283,3.012421,0.951392\H,0,-4.825754,-1.391232,0.29
 5484\H,0,-3.952741,-3.433528,-0.825134\H,0,-1.603585,-3.445682,-1.6989
 76\H,0,-0.124652,-1.532788,-1.308471\Bq,0,-1.4080240501,-2.1608154824,
 -0.2050022188\Bq,0,-1.3204387019,-2.1905467019,-0.2050022188\Bq,0,-1.2
 297219556,-2.2085913846,-0.2050022188\Bq,0,-1.137426,-2.2146407812,-0.
 2050022188\Bq,0,-1.0451300444,-2.2085913846,-0.2050022188\Bq,0,-0.9544
 132981,-2.1905467019,-0.2050022188\Bq,0,-0.8668279499,-2.1608154824,-0
 .2050022188\Bq,0,-0.7838726094,-2.1199064357,-0.2050022188\Bq,0,-0.706
 9666654,-2.0685195268,-0.2050022188\Bq,0,-0.637426,-2.007534,-0.205002
 2188\Bq,0,-0.5764404732,-1.9379933346,-0.2050022188\Bq,0,-0.5250535643
 ,-1.8610873906,-0.2050022188\Bq,0,-0.4841445176,-1.7781320501,-0.20500
 22188\Bq,0,-0.4544132981,-1.6905467019,-0.2050022188\Bq,0,-0.436368615
 4,-1.5998299556,-0.2050022188\Bq,0,-0.3440726597,-1.507534,-0.30334757
 1\Bq,0,-0.3508599075,-1.4039806094,-0.303347571\Bq,0,-1.6203889131,-2.
 1369435226,-0.303347571\Bq,0,-1.5341026701,-2.1945981469,-0.303347571\
 Bq,0,-0.932091046,-2.2738544808,-0.303347571\Bq,0,-0.8338228207,-2.240
 4969131,-0.303347571\Bq,0,-0.7407493299,-2.1945981469,-0.303347571\Bq,
 0,-0.6544630869,-2.1369435226,-0.303347571\Bq,0,-0.5764404732,-2.06851
 95268,-0.303347571\Bq,0,-0.5080164774,-1.9904969131,-0.303347571\Bq,0,
 -0.4503618531,-1.9042106701,-0.303347571\Bq,0,-0.4044630869,-1.8111371
 793,-0.303347571\Bq,0,-0.3711055192,-1.712868954,-0.303347571\Bq,0,-0.
 3508599075,-1.6110873906,-0.303347571\Bq,0,-0.6102231376,-2.1945981469
 ,-0.412109\Bq,0,-0.5250535643,-2.1199064357,-0.412109\Bq,0,-0.45036185
 31,-2.0347368624,-0.412109\Bq,0,-0.387426,-1.9405467019,-0.412109\Bq,0
 ,-0.4841445176,-2.1608154824,-0.5294255676\Bq,0,-1.387426,-0.574521298
 1,-1.1709280451\Bq,0,-1.5070698106,-0.6151348992,-1.1709280451\Bq,0,-1
 .6203889131,-0.6710176963,-1.1709280451\Bq,0,-1.7254443863,-0.74121351
 92,-1.1709280451\Bq,0,-1.8204387019,-0.8245212981,-1.1709280451\Bq,0,-
 1.9037464808,-0.9195156137,-1.1709280451\Bq,0,-1.137426,-0.5836544675,
 -1.2947924324\Bq,0,-1.2580164774,-0.591558385,-1.2947924324\Bq,0,-1.37
 65436184,-0.6151348992,-1.2947924324\Bq,0,-1.4909793906,-0.6539806094,
 -1.2947924324\Bq,0,-1.5993657663,-0.7074308548,-1.2947924324\Bq,0,-1.6
 998482244,-0.7745710869,-1.2947924324\Bq,0,-1.7907074824,-0.8542525176
 ,-1.2947924324\Bq,0,-1.8703889131,-0.9451117756,-1.2947924324\Bq,0,-1.
 9375291452,-1.0455942337,-1.2947924324\Bq,0,-1.9909793906,-1.153980609
 4,-1.2947924324\Bq,0,-0.806012426,-0.7074308548,-1.412109\Bq,0,-0.9132
 82132,-0.6710176963,-1.412109\Bq,0,-1.0243870017,-0.6489175636,-1.4121
 09\Bq,0,-1.137426,-0.6415085962,-1.412109\Bq,0,-1.2504649983,-0.648917
 5636,-1.412109\Bq,0,-1.361569868,-0.6710176963,-1.412109\Bq,0,-1.46883
 9574,-0.7074308548,-1.412109\Bq,0,-1.5704387019,-0.757534,-1.412109\Bq
 ,0,-1.6646288624,-0.8204698531,-1.412109\Bq,0,-1.7497984357,-0.8951615
 643,-1.412109\Bq,0,-1.8244901469,-0.9803311376,-1.412109\Bq,0,-1.88742
 6,-1.0745212981,-1.412109\Bq,0,-1.9375291452,-1.176120426,-1.412109\Bq
 ,0,-1.9739423037,-1.283390132,-1.412109\Bq,0,-1.9960424364,-1.39449500
 17,-1.412109\Bq,0,-2.0034514038,-1.507534,-1.412109\Bq,0,-1.9960424364
 ,-1.6205729983,-1.412109\Bq,0,-0.8338228207,-0.7745710869,-1.520870429
 \Bq,0,-0.932091046,-0.7412135192,-1.520870429\Bq,0,-1.0338726094,-0.72
 09679075,-1.520870429\Bq,0,-1.137426,-0.7141806597,-1.520870429\Bq,0,-
 1.2409793906,-0.7209679075,-1.520870429\Bq,0,-1.342760954,-0.741213519
 2,-1.520870429\Bq,0,-1.4410291793,-0.7745710869,-1.520870429\Bq,0,-1.5
 341026701,-0.8204698531,-1.520870429\Bq,0,-1.6203889131,-0.8781244774,
 -1.520870429\Bq,0,-1.6984115268,-0.9465484732,-1.520870429\Bq,0,-1.766
 8355226,-1.0245710869,-1.520870429\Bq,0,-1.8244901469,-1.1108573299,-1
 .520870429\Bq,0,-1.8703889131,-1.2039308207,-1.520870429\Bq,0,-1.90374
 64808,-1.302199046,-1.520870429\Bq,0,-1.9239920925,-1.4039806094,-1.52
 0870429\Bq,0,-1.9307793403,-1.507534,-1.520870429\Bq,0,-1.9239920925,-
 1.6110873906,-1.520870429\Bq,0,-0.8668279499,-0.8542525176,-1.61921578
 12\Bq,0,-0.9544132981,-0.8245212981,-1.6192157812\Bq,0,-1.0451300444,-
 0.8064766154,-1.6192157812\Bq,0,-1.137426,-0.8004272188,-1.6192157812\
 Bq,0,-1.2297219556,-0.8064766154,-1.6192157812\Bq,0,-1.3204387019,-0.8
 245212981,-1.6192157812\Bq,0,-1.4080240501,-0.8542525176,-1.6192157812
 \Bq,0,-1.4909793906,-0.8951615643,-1.6192157812\Bq,0,-1.5678853346,-0.
 9465484732,-1.6192157812\Bq,0,-1.637426,-1.007534,-1.6192157812\Bq,0,-
 1.6984115268,-1.0770746654,-1.6192157812\Bq,0,-1.7497984357,-1.1539806
 094,-1.6192157812\Bq,0,-1.7907074824,-1.2369359499,-1.6192157812\Bq,0,
 -1.8204387019,-1.3245212981,-1.6192157812\Bq,0,-1.8384833846,-1.415238
 0444,-1.6192157812\Bq,0,-1.8445327812,-1.507534,-1.6192157812\Bq,0,-0.
 9044630869,-0.9451117756,-1.7054623403\Bq,0,-0.9798669482,-0.919515613
 7,-1.7054623403\Bq,0,-1.0579666887,-0.9039806094,-1.7054623403\Bq,0,-1
 .137426,-0.898772571,-1.7054623403\Bq,0,-1.2168853113,-0.9039806094,-1
 .7054623403\Bq,0,-1.2949850518,-0.9195156137,-1.7054623403\Bq,0,-1.370
 3889131,-0.9451117756,-1.7054623403\Bq,0,-1.4418067145,-0.9803311376,-
 1.7054623403\Bq,0,-1.5080164774,-1.0245710869,-1.7054623403\Bq,0,-1.56
 78853346,-1.0770746654,-1.7054623403\Bq,0,-1.6203889131,-1.1369435226,
 -1.7054623403\Bq,0,-1.6646288624,-1.2031532855,-1.7054623403\Bq,0,-1.6
 998482244,-1.2745710869,-1.7054623403\Bq,0,-1.7254443863,-1.3499749482
 ,-1.7054623403\Bq,0,-1.7409793906,-1.4280746887,-1.7054623403\Bq,0,-1.
 746187429,-1.507534,-1.7054623403\Bq,0,-0.887426,-1.0745212981,-1.7781
 344038\Bq,0,-0.9460842838,-1.0455942337,-1.7781344038\Bq,0,-1.00801647
 74,-1.0245710869,-1.7781344038\Bq,0,-1.0721629039,-1.0118115693,-1.778
 1344038\Bq,0,-1.137426,-1.007534,-1.7781344038\Bq,0,-1.2026890961,-1.0
 118115693,-1.7781344038\Bq,0,-1.2668355226,-1.0245710869,-1.7781344038
 \Bq,0,-1.3287677162,-1.0455942337,-1.7781344038\Bq,0,-1.387426,-1.0745
 212981,-1.7781344038\Bq,0,-1.4418067145,-1.1108573299,-1.7781344038\Bq
 ,0,-1.4909793906,-1.1539806094,-1.7781344038\Bq,0,-1.5341026701,-1.203
 1532855,-1.7781344038\Bq,0,-1.5704387019,-1.257534,-1.7781344038\Bq,0,
 -1.5993657663,-1.3161922838,-1.7781344038\Bq,0,-1.6203889131,-1.378124
 4774,-1.7781344038\Bq,0,-1.6331484307,-1.4422709039,-1.7781344038\Bq,0
 ,-1.637426,-1.507534,-1.7781344038\Bq,0,-0.9460842838,-1.176120426,-1.
 8359885325\Bq,0,-0.9909793906,-1.1539806094,-1.8359885325\Bq,0,-1.0383
 802395,-1.1378901894,-1.8359885325\Bq,0,-1.0874757887,-1.1281244774,-1
 .8359885325\Bq,0,-1.137426,-1.1248505676,-1.8359885325\Bq,0,-1.1873762
 113,-1.1281244774,-1.8359885325\Bq,0,-1.2364717605,-1.1378901894,-1.83
 59885325\Bq,0,-1.2838726094,-1.1539806094,-1.8359885325\Bq,0,-1.328767
 7162,-1.176120426,-1.8359885325\Bq,0,-1.3703889131,-1.2039308207,-1.83
 59885325\Bq,0,-1.4080240501,-1.2369359499,-1.8359885325\Bq,0,-1.441029
 1793,-1.2745710869,-1.8359885325\Bq,0,-1.468839574,-1.3161922838,-1.83
 59885325\Bq,0,-1.4909793906,-1.3610873906,-1.8359885325\Bq,0,-1.507069
 8106,-1.4084882395,-1.8359885325\Bq,0,-1.5168355226,-1.4575837887,-1.8
 359885325\Bq,0,-1.5201094324,-1.507534,-1.8359885325\Bq,0,-0.932091046
 ,-1.3499749482,-1.8780348263\Bq,0,-0.9544132981,-1.3245212981,-1.87803
 48263\Bq,0,-0.9798669482,-1.302199046,-1.8780348263\Bq,0,-1.0080164774
 ,-1.283390132,-1.8780348263\Bq,0,-1.0383802395,-1.2684163816,-1.878034
 8263\Bq,0,-1.0704387019,-1.257534,-1.8780348263\Bq,0,-1.1036433356,-1.
 2509291877,-1.8780348263\Bq,0,-1.137426,-1.2487149549,-1.8780348263\Bq
 ,0,-1.1712086644,-1.2509291877,-1.8780348263\Bq,0,-1.2044132981,-1.257
 534,-1.8780348263\Bq,0,-1.2364717605,-1.2684163816,-1.8780348263\Bq,0,
 -1.2668355226,-1.283390132,-1.8780348263\Bq,0,-1.2949850518,-1.3021990
 46,-1.8780348263\Bq,0,-1.3204387019,-1.3245212981,-1.8780348263\Bq,0,-
 1.342760954,-1.3499749482,-1.8780348263\Bq,0,-1.361569868,-1.378124477
 4,-1.8780348263\Bq,0,-1.3765436184,-1.4084882395,-1.8780348263\Bq,0,-1
 .387426,-1.4405467019,-1.8780348263\Bq,0,-1.3940308123,-1.4737513356,-
 1.8780348263\Bq,0,-1.0068998078,-1.507534,-1.9035538614\Bq,0,-1.008016
 4774,-1.4904969131,-1.9035538614\Bq,0,-1.0113473799,-1.4737513356,-1.9
 035538614\Bq,0,-1.0168355226,-1.4575837887,-1.9035538614\Bq,0,-1.02438
 70017,-1.4422709039,-1.9035538614\Bq,0,-1.0338726094,-1.4280746887,-1.
 9035538614\Bq,0,-1.0451300444,-1.4152380444,-1.9035538614\Bq,0,-1.0579
 666887,-1.4039806094,-1.9035538614\Bq,0,-1.0721629039,-1.3944950017,-1
 .9035538614\Bq,0,-1.0874757887,-1.3869435226,-1.9035538614\Bq,0,-1.103
 6433356,-1.3814553799,-1.9035538614\Bq,0,-1.1203889131,-1.3781244774,-
 1.9035538614\Bq,0,-1.137426,-1.3770078078,-1.9035538614\Bq,0,-1.154463
 0869,-1.3781244774,-1.9035538614\Bq,0,-1.1712086644,-1.3814553799,-1.9
 035538614\Bq,0,-1.1873762113,-1.3869435226,-1.9035538614\Bq,0,-1.20268
 90961,-1.3944950017,-1.9035538614\Bq,0,-1.2168853113,-1.4039806094,-1.
 9035538614\Bq,0,-1.2297219556,-1.4152380444,-1.9035538614\Bq,0,-1.2409
 793906,-1.4280746887,-1.9035538614\Bq,0,-1.2504649983,-1.4422709039,-1
 .9035538614\Bq,0,-1.2580164774,-1.4575837887,-1.9035538614\Bq,0,-1.263
 5046201,-1.4737513356,-1.9035538614\Bq,0,-1.2668355226,-1.4904969131,-
 1.9035538614\Bq,0,-1.0080164774,-1.5245710869,-1.9035538614\Bq,0,-4.56
 0022,0.932954,1.969334\Bq,0,-4.560022,0.932954,1.969334\Bq,0,-4.560022
 ,0.932954,1.969334\Bq,0,-4.560022,0.932954,1.969334\Bq,0,-4.560022,0.9
 32954,1.969334\Bq,0,-4.560022,0.932954,1.969334\\Version=ES64L-G09RevD
 .01\HF=-847.0037387\RMSD=4.169e-09\Dipole=0.0000004,0.0287843,0.000000
 9\Quadrupole=4.8545288,4.8066247,-9.6611535,-0.0000047,-3.6219991,-0.0
 00002\PG=C01 [X(C22H14)]\\@


 SUPPORT THE RIGHT TO ARM BEARS!
 (ADD A CLAWS TO THE BILL OF RIGHTS)
 Job cpu time:       0 days  2 hours 48 minutes 55.0 seconds.
 File lengths (MBytes):  RWF=    184 Int=      0 D2E=      0 Chk=     21 Scr=      1
 Normal termination of Gaussian 09 at Tue Sep 15 12:55:29 2020.
