 Entering Gaussian System, Link 0=g09
 Input=input_batch_30400.com
 Output=input_batch_30400.log
 Initial command:
 /share/programs/GAUSSIAN/64/g09/l1.exe "/scratch/aartigas.39205/Gau-3726029.inp" -scrdir="/scratch/aartigas.39205/"
 Entering Link 1 = /share/programs/GAUSSIAN/64/g09/l1.exe PID=   3726030.
  
 Copyright (c) 1988,1990,1992,1993,1995,1998,2003,2009,2013,
            Gaussian, Inc.  All Rights Reserved.
  
 This is part of the Gaussian(R) 09 program.  It is based on
 the Gaussian(R) 03 system (copyright 2003, Gaussian, Inc.),
 the Gaussian(R) 98 system (copyright 1998, Gaussian, Inc.),
 the Gaussian(R) 94 system (copyright 1995, Gaussian, Inc.),
 the Gaussian 92(TM) system (copyright 1992, Gaussian, Inc.),
 the Gaussian 90(TM) system (copyright 1990, Gaussian, Inc.),
 the Gaussian 88(TM) system (copyright 1988, Gaussian, Inc.),
 the Gaussian 86(TM) system (copyright 1986, Carnegie Mellon
 University), and the Gaussian 82(TM) system (copyright 1983,
 Carnegie Mellon University). Gaussian is a federally registered
 trademark of Gaussian, Inc.
  
 This software contains proprietary and confidential information,
 including trade secrets, belonging to Gaussian, Inc.
  
 This software is provided under written license and may be
 used, copied, transmitted, or stored only in accord with that
 written license.
  
 The following legend is applicable only to US Government
 contracts under FAR:
  
                    RESTRICTED RIGHTS LEGEND
  
 Use, reproduction and disclosure by the US Government is
 subject to restrictions as set forth in subparagraphs (a)
 and (c) of the Commercial Computer Software - Restricted
 Rights clause in FAR 52.227-19.
  
 Gaussian, Inc.
 340 Quinnipiac St., Bldg. 40, Wallingford CT 06492
  
  
 ---------------------------------------------------------------
 Warning -- This program may not be used in any manner that
 competes with the business of Gaussian, Inc. or will provide
 assistance to any competitor of Gaussian, Inc.  The licensee
 of this program is prohibited from giving any competitor of
 Gaussian, Inc. access to this program.  By using this program,
 the user acknowledges that Gaussian, Inc. is engaged in the
 business of creating and licensing software in the field of
 computational chemistry and represents and warrants to the
 licensee that it is not a competitor of Gaussian, Inc. and that
 it will not use this program in any manner prohibited above.
 ---------------------------------------------------------------
  

 Cite this work as:
 Gaussian 09, Revision D.01,
 M. J. Frisch, G. W. Trucks, H. B. Schlegel, G. E. Scuseria, 
 M. A. Robb, J. R. Cheeseman, G. Scalmani, V. Barone, B. Mennucci, 
 G. A. Petersson, H. Nakatsuji, M. Caricato, X. Li, H. P. Hratchian, 
 A. F. Izmaylov, J. Bloino, G. Zheng, J. L. Sonnenberg, M. Hada, 
 M. Ehara, K. Toyota, R. Fukuda, J. Hasegawa, M. Ishida, T. Nakajima, 
 Y. Honda, O. Kitao, H. Nakai, T. Vreven, J. A. Montgomery, Jr., 
 J. E. Peralta, F. Ogliaro, M. Bearpark, J. J. Heyd, E. Brothers, 
 K. N. Kudin, V. N. Staroverov, T. Keith, R. Kobayashi, J. Normand, 
 K. Raghavachari, A. Rendell, J. C. Burant, S. S. Iyengar, J. Tomasi, 
 M. Cossi, N. Rega, J. M. Millam, M. Klene, J. E. Knox, J. B. Cross, 
 V. Bakken, C. Adamo, J. Jaramillo, R. Gomperts, R. E. Stratmann, 
 O. Yazyev, A. J. Austin, R. Cammi, C. Pomelli, J. W. Ochterski, 
 R. L. Martin, K. Morokuma, V. G. Zakrzewski, G. A. Voth, 
 P. Salvador, J. J. Dannenberg, S. Dapprich, A. D. Daniels, 
 O. Farkas, J. B. Foresman, J. V. Ortiz, J. Cioslowski, 
 and D. J. Fox, Gaussian, Inc., Wallingford CT, 2013.
 
 ******************************************
 Gaussian 09:  ES64L-G09RevD.01 24-Apr-2013
                15-Sep-2020 
 ******************************************
 %OldChk=/home/aartigas/chk/5_helicene_spe.chk
 %nproc=8
 Will use up to    8 processors via shared memory.
 %mem=1000MB
 Copying data from "/home/aartigas/chk/5_helicene_spe.chk" to current chk file "/scratch/aartigas.39205/Gau-3726030.chk".
 ----------------------------------------------------
 #P rb3lyp/6-311+g** NMR Guess=Read geom=connectivity
 ----------------------------------------------------
 1/38=1,57=2/1;
 2/12=2,17=6,18=5,40=1/2;
 3/5=4,6=6,7=111,11=2,16=1,25=1,30=1,74=-5,116=1/1,2,8,3;
 4/5=1/1;
 5/5=2,38=6/2;
 8/6=1,10=90,11=11/1;
 10/13=100,45=16/2;
 6/7=2,8=2,9=2,10=2,28=1/1;
 99/9=1/99;
 Leave Link    1 at Tue Sep 15 14:18:08 2020, MaxMem=   131072000 cpu:         0.6
 (Enter /share/programs/GAUSSIAN/64/g09/l101.exe)
 -----
 Title
 -----
 Symbolic Z-matrix:
 Charge =  0 Multiplicity = 1
 C                     0.65324   3.25786  -0.20251 
 C                    -0.65324   3.25786   0.20251 
 C                     1.3725    2.03296  -0.32081 
 C                    -1.3725    2.03296   0.32081 
 C                     0.72247   0.79567  -0.05039 
 C                    -0.72247   0.79567   0.05039 
 C                     2.76039   2.05393  -0.67427 
 C                     3.50887   0.91392  -0.67136 
 C                     2.95523  -0.30962  -0.17748 
 C                     1.57472  -0.36111   0.19709 
 H                     1.18343   4.19574  -0.3846 
 H                    -1.18343   4.19574   0.3846 
 H                     3.20628   3.01242  -0.95139 
 H                     4.56002   0.93296  -0.96933 
 C                     3.78302  -1.4431    0.02831 
 C                     1.13743  -1.50753   0.91211 
 C                     1.97369  -2.58435   1.13806 
 C                     3.30185  -2.57159   0.66118 
 H                     4.82575  -1.39123  -0.29548 
 H                     0.12465  -1.53279   1.30847 
 H                     1.60359  -3.44568   1.69898 
 H                     3.95274  -3.43353   0.82513 
 C                    -3.50887   0.91392   0.67136 
 C                    -2.76039   2.05393   0.67427 
 C                    -2.95523  -0.30962   0.17748 
 C                    -1.57472  -0.36111  -0.19709 
 C                    -3.78302  -1.4431   -0.02831 
 C                    -3.30185  -2.57159  -0.66118 
 C                    -1.97369  -2.58435  -1.13806 
 C                    -1.13743  -1.50753  -0.91211 
 H                    -4.56002   0.93295   0.96933 
 H                    -3.20628   3.01242   0.95139 
 H                    -4.82575  -1.39123   0.29548 
 H                    -3.95274  -3.43353  -0.82513 
 H                    -1.60359  -3.44568  -1.69898 
 H                    -0.12465  -1.53279  -1.30847 
 Bq                    1.95769   1.1857    0.64101 
 Bq                    1.91607   1.15789   0.64101 
 Bq                    1.87843   1.12489   0.64101 
 Bq                    1.84542   1.08725   0.64101 
 Bq                    1.81761   1.04563   0.64101 
 Bq                    1.79547   1.00073   0.64101 
 Bq                    1.77938   0.95333   0.64101 
 Bq                    1.76962   0.90424   0.64101 
 Bq                    1.76634   0.85429   0.64101 
 Bq                    1.76962   0.80434   0.64101 
 Bq                    1.77938   0.75524   0.64101 
 Bq                    1.79547   0.70784   0.64101 
 Bq                    1.81761   0.66295   0.64101 
 Bq                    1.84542   0.62133   0.64101 
 Bq                    1.87843   0.58369   0.64101 
 Bq                    1.91607   0.55068   0.64101 
 Bq                    1.95769   0.52287   0.64101 
 Bq                    2.00258   0.50073   0.64101 
 Bq                    2.04998   0.48464   0.64101 
 Bq                    2.09908   0.47488   0.64101 
 Bq                    2.14903   0.4716    0.64101 
 Bq                    2.19898   0.47488   0.64101 
 Bq                    2.24807   0.48464   0.64101 
 Bq                    2.29547   0.50073   0.64101 
 Bq                    2.34037   0.52287   0.64101 
 Bq                    2.38199   0.55068   0.64101 
 Bq                    2.41963   0.58369   0.64101 
 Bq                    2.45263   0.62133   0.64101 
 Bq                    2.48044   0.66295   0.64101 
 Bq                    2.50258   0.70784   0.64101 
 Bq                    2.51867   0.75524   0.64101 
 Bq                    2.52844   0.80434   0.64101 
 Bq                    2.64903   0.85429   0.58316 
 Bq                    2.64475   0.91955   0.58316 
 Bq                    2.63199   0.9837    0.58316 
 Bq                    2.61097   1.04563   0.58316 
 Bq                    2.58204   1.10429   0.58316 
 Bq                    2.5457    1.15867   0.58316 
 Bq                    2.50258   1.20784   0.58316 
 Bq                    2.45341   1.25096   0.58316 
 Bq                    2.39903   1.2873    0.58316 
 Bq                    2.34037   1.31623   0.58316 
 Bq                    2.27844   1.33725   0.58316 
 Bq                    2.21429   1.35001   0.58316 
 Bq                    2.14903   1.35429   0.58316 
 Bq                    2.08376   1.35001   0.58316 
 Bq                    2.01962   1.33725   0.58316 
 Bq                    1.95769   1.31623   0.58316 
 Bq                    1.89903   1.2873    0.58316 
 Bq                    1.84465   1.25096   0.58316 
 Bq                    1.79547   1.20784   0.58316 
 Bq                    1.75235   1.15867   0.58316 
 Bq                    1.71602   1.10429   0.58316 
 Bq                    1.68709   1.04563   0.58316 
 Bq                    1.66607   0.9837    0.58316 
 Bq                    1.65331   0.91955   0.58316 
 Bq                    1.64903   0.85429   0.58316 
 Bq                    1.65331   0.78903   0.58316 
 Bq                    1.66607   0.72488   0.58316 
 Bq                    1.68709   0.66295   0.58316 
 Bq                    1.71602   0.60429   0.58316 
 Bq                    1.75235   0.54991   0.58316 
 Bq                    2.21429   0.35857   0.58316 
 Bq                    2.27844   0.37133   0.58316 
 Bq                    2.34037   0.39235   0.58316 
 Bq                    2.39903   0.42128   0.58316 
 Bq                    2.45341   0.45761   0.58316 
 Bq                    2.50258   0.50073   0.58316 
 Bq                    2.5457    0.54991   0.58316 
 Bq                    2.58204   0.60429   0.58316 
 Bq                    2.61097   0.66295   0.58316 
 Bq                    2.63199   0.72488   0.58316 
 Bq                    2.64475   0.78903   0.58316 
 Bq                    2.75779   0.85429   0.51049 
 Bq                    2.75258   0.93375   0.51049 
 Bq                    2.73705   1.01185   0.51049 
 Bq                    2.71145   1.08725   0.51049 
 Bq                    2.67623   1.15867   0.51049 
 Bq                    2.63199   1.22488   0.51049 
 Bq                    2.57949   1.28475   0.51049 
 Bq                    2.51962   1.33725   0.51049 
 Bq                    2.45341   1.38149   0.51049 
 Bq                    2.38199   1.41671   0.51049 
 Bq                    2.30659   1.44231   0.51049 
 Bq                    2.22849   1.45784   0.51049 
 Bq                    2.14903   1.46305   0.51049 
 Bq                    2.06957   1.45784   0.51049 
 Bq                    1.99147   1.44231   0.51049 
 Bq                    1.91607   1.41671   0.51049 
 Bq                    1.84465   1.38149   0.51049 
 Bq                    1.77844   1.33725   0.51049 
 Bq                    1.71857   1.28475   0.51049 
 Bq                    1.66607   1.22488   0.51049 
 Bq                    1.62183   1.15867   0.51049 
 Bq                    1.58661   1.08725   0.51049 
 Bq                    1.56101   1.01185   0.51049 
 Bq                    1.54547   0.93375   0.51049 
 Bq                    1.56101   0.69673   0.51049 
 Bq                    1.58661   0.62133   0.51049 
 Bq                    2.30659   0.26627   0.51049 
 Bq                    2.38199   0.29187   0.51049 
 Bq                    2.45341   0.32709   0.51049 
 Bq                    2.51962   0.37133   0.51049 
 Bq                    2.57949   0.42383   0.51049 
 Bq                    2.63199   0.4837    0.51049 
 Bq                    2.67623   0.54991   0.51049 
 Bq                    2.71145   0.62133   0.51049 
 Bq                    2.73705   0.69673   0.51049 
 Bq                    2.75258   0.77483   0.51049 
 Bq                    2.85613   0.85429   0.42424 
 Bq                    2.85009   0.94658   0.42424 
 Bq                    2.83204   1.0373    0.42424 
 Bq                    2.80231   1.12489   0.42424 
 Bq                    2.7614    1.20784   0.42424 
 Bq                    2.71001   1.28475   0.42424 
 Bq                    2.64903   1.35429   0.42424 
 Bq                    2.57949   1.41527   0.42424 
 Bq                    2.50258   1.46666   0.42424 
 Bq                    2.41963   1.50757   0.42424 
 Bq                    2.33204   1.5373    0.42424 
 Bq                    2.24132   1.55535   0.42424 
 Bq                    2.14903   1.56139   0.42424 
 Bq                    2.05673   1.55535   0.42424 
 Bq                    1.96602   1.5373    0.42424 
 Bq                    1.87843   1.50757   0.42424 
 Bq                    1.79547   1.46666   0.42424 
 Bq                    1.71857   1.41527   0.42424 
 Bq                    1.64903   1.35429   0.42424 
 Bq                    1.58804   1.28475   0.42424 
 Bq                    1.53666   1.20784   0.42424 
 Bq                    2.7614    0.50073   0.42424 
 Bq                    2.80231   0.58369   0.42424 
 Bq                    2.83204   0.67128   0.42424 
 Bq                    2.85009   0.76199   0.42424 
 Bq                    2.94238   0.85429   0.32589 
 Bq                    2.93559   0.95784   0.32589 
 Bq                    2.91535   1.05962   0.32589 
 Bq                    2.88199   1.15789   0.32589 
 Bq                    2.83609   1.25096   0.32589 
 Bq                    2.77844   1.33725   0.32589 
 Bq                    2.71001   1.41527   0.32589 
 Bq                    2.63199   1.4837    0.32589 
 Bq                    2.5457    1.54135   0.32589 
 Bq                    2.45263   1.58725   0.32589 
 Bq                    2.35436   1.62061   0.32589 
 Bq                    2.25258   1.64085   0.32589 
 Bq                    2.14903   1.64764   0.32589 
 Bq                    2.04547   1.64085   0.32589 
 Bq                    2.91535   0.64895   0.32589 
 Bq                    2.93559   0.75073   0.32589 
 Bq                    3.01505   0.85429   0.21713 
 Bq                    3.00764   0.96733   0.21713 
 Bq                    2.98554   1.07843   0.21713 
 Bq                    2.94913   1.1857    0.21713 
 Bq                    2.89903   1.2873    0.21713 
 Bq                    2.83609   1.38149   0.21713 
 Bq                    2.7614    1.46666   0.21713 
 Bq                    2.67623   1.54135   0.21713 
 Bq                    2.58204   1.60429   0.21713 
 Bq                    2.48044   1.65439   0.21713 
 Bq                    2.37317   1.6908    0.21713 
 Bq                    2.26207   1.7129    0.21713 
 Bq                    2.98554   0.63014   0.21713 
 Bq                    3.00764   0.74125   0.21713 
 Bq                    2.94913   1.31623   0.09982 
 Bq                    2.88199   1.41671   0.09982 
 Bq                    1.41607   0.29187  -0.66555 
 Bq                    1.49575   0.20101  -0.66555 
 Bq                    2.02844  -0.06169  -0.66555 
 Bq                    1.34892   0.52287  -0.78287 
 Bq                    1.39903   0.42128  -0.78287 
 Bq                    1.46196   0.32709  -0.78287 
 Bq                    1.53666   0.24192  -0.78287 
 Bq                    1.62183   0.16722  -0.78287 
 Bq                    1.71602   0.10429  -0.78287 
 Bq                    1.81761   0.05419  -0.78287 
 Bq                    1.92488   0.01777  -0.78287 
 Bq                    2.03599  -0.00433  -0.78287 
 Bq                    2.14903  -0.01174  -0.78287 
 Bq                    1.41607   1.15789  -0.89163 
 Bq                    1.38271   1.05962  -0.89163 
 Bq                    1.36246   0.95784  -0.89163 
 Bq                    1.35567   0.85429  -0.89163 
 Bq                    1.36246   0.75073  -0.89163 
 Bq                    1.38271   0.64895  -0.89163 
 Bq                    1.41607   0.55068  -0.89163 
 Bq                    1.46196   0.45761  -0.89163 
 Bq                    1.51962   0.37133  -0.89163 
 Bq                    1.58804   0.2933   -0.89163 
 Bq                    1.66607   0.22488  -0.89163 
 Bq                    1.75235   0.16722  -0.89163 
 Bq                    1.84542   0.12133  -0.89163 
 Bq                    1.94369   0.08797  -0.89163 
 Bq                    2.04547   0.06772  -0.89163 
 Bq                    2.14903   0.06093  -0.89163 
 Bq                    2.25258   0.06772  -0.89163 
 Bq                    2.35436   0.08797  -0.89163 
 Bq                    1.58804   1.28475  -0.98998 
 Bq                    1.53666   1.20784  -0.98998 
 Bq                    1.49575   1.12489  -0.98998 
 
 NAtoms=    236 NQM=      236 NQMF=       0 NMMI=      0 NMMIF=      0
                NMic=       0 NMicF=      0.
                    Isotopes and Nuclear Properties:
 (Nuclear quadrupole moments (NQMom) in fm**2, nuclear magnetic moments (NMagM)
  in nuclear magnetons)

  Atom         1           2           3           4           5           6           7           8           9          10
 IAtWgt=          12          12          12          12          12          12          12          12          12          12
 AtmWgt=  12.0000000  12.0000000  12.0000000  12.0000000  12.0000000  12.0000000  12.0000000  12.0000000  12.0000000  12.0000000
 NucSpn=           0           0           0           0           0           0           0           0           0           0
 AtZEff=   0.0000000   0.0000000   0.0000000   0.0000000   0.0000000   0.0000000   0.0000000   0.0000000   0.0000000   0.0000000
 NQMom=    0.0000000   0.0000000   0.0000000   0.0000000   0.0000000   0.0000000   0.0000000   0.0000000   0.0000000   0.0000000
 NMagM=    0.0000000   0.0000000   0.0000000   0.0000000   0.0000000   0.0000000   0.0000000   0.0000000   0.0000000   0.0000000
 AtZNuc=   6.0000000   6.0000000   6.0000000   6.0000000   6.0000000   6.0000000   6.0000000   6.0000000   6.0000000   6.0000000

  Atom        11          12          13          14          15          16          17          18          19          20
 IAtWgt=           1           1           1           1          12          12          12          12           1           1
 AtmWgt=   1.0078250   1.0078250   1.0078250   1.0078250  12.0000000  12.0000000  12.0000000  12.0000000   1.0078250   1.0078250
 NucSpn=           1           1           1           1           0           0           0           0           1           1
 AtZEff=   0.0000000   0.0000000   0.0000000   0.0000000   0.0000000   0.0000000   0.0000000   0.0000000   0.0000000   0.0000000
 NQMom=    0.0000000   0.0000000   0.0000000   0.0000000   0.0000000   0.0000000   0.0000000   0.0000000   0.0000000   0.0000000
 NMagM=    2.7928460   2.7928460   2.7928460   2.7928460   0.0000000   0.0000000   0.0000000   0.0000000   2.7928460   2.7928460
 AtZNuc=   1.0000000   1.0000000   1.0000000   1.0000000   6.0000000   6.0000000   6.0000000   6.0000000   1.0000000   1.0000000

  Atom        21          22          23          24          25          26          27          28          29          30
 IAtWgt=           1           1          12          12          12          12          12          12          12          12
 AtmWgt=   1.0078250   1.0078250  12.0000000  12.0000000  12.0000000  12.0000000  12.0000000  12.0000000  12.0000000  12.0000000
 NucSpn=           1           1           0           0           0           0           0           0           0           0
 AtZEff=   0.0000000   0.0000000   0.0000000   0.0000000   0.0000000   0.0000000   0.0000000   0.0000000   0.0000000   0.0000000
 NQMom=    0.0000000   0.0000000   0.0000000   0.0000000   0.0000000   0.0000000   0.0000000   0.0000000   0.0000000   0.0000000
 NMagM=    2.7928460   2.7928460   0.0000000   0.0000000   0.0000000   0.0000000   0.0000000   0.0000000   0.0000000   0.0000000
 AtZNuc=   1.0000000   1.0000000   6.0000000   6.0000000   6.0000000   6.0000000   6.0000000   6.0000000   6.0000000   6.0000000

  Atom        31          32          33          34          35          36          37          38          39          40
 IAtWgt=           1           1           1           1           1           1           0           0           0           0
 AtmWgt=   1.0078250   1.0078250   1.0078250   1.0078250   1.0078250   1.0078250   0.0000000   0.0000000   0.0000000   0.0000000
 NucSpn=           1           1           1           1           1           1           0           0           0           0
 AtZEff=   0.0000000   0.0000000   0.0000000   0.0000000   0.0000000   0.0000000   0.0000000   0.0000000   0.0000000   0.0000000
 NQMom=    0.0000000   0.0000000   0.0000000   0.0000000   0.0000000   0.0000000   0.0000000   0.0000000   0.0000000   0.0000000
 NMagM=    2.7928460   2.7928460   2.7928460   2.7928460   2.7928460   2.7928460   0.0000000   0.0000000   0.0000000   0.0000000
 AtZNuc=   1.0000000   1.0000000   1.0000000   1.0000000   1.0000000   1.0000000   0.0000000   0.0000000   0.0000000   0.0000000

  Atom        41          42          43          44          45          46          47          48          49          50
 IAtWgt=           0           0           0           0           0           0           0           0           0           0
 AtmWgt=   0.0000000   0.0000000   0.0000000   0.0000000   0.0000000   0.0000000   0.0000000   0.0000000   0.0000000   0.0000000
 NucSpn=           0           0           0           0           0           0           0           0           0           0
 AtZEff=   0.0000000   0.0000000   0.0000000   0.0000000   0.0000000   0.0000000   0.0000000   0.0000000   0.0000000   0.0000000
 NQMom=    0.0000000   0.0000000   0.0000000   0.0000000   0.0000000   0.0000000   0.0000000   0.0000000   0.0000000   0.0000000
 NMagM=    0.0000000   0.0000000   0.0000000   0.0000000   0.0000000   0.0000000   0.0000000   0.0000000   0.0000000   0.0000000
 AtZNuc=   0.0000000   0.0000000   0.0000000   0.0000000   0.0000000   0.0000000   0.0000000   0.0000000   0.0000000   0.0000000

  Atom        51          52          53          54          55          56          57          58          59          60
 IAtWgt=           0           0           0           0           0           0           0           0           0           0
 AtmWgt=   0.0000000   0.0000000   0.0000000   0.0000000   0.0000000   0.0000000   0.0000000   0.0000000   0.0000000   0.0000000
 NucSpn=           0           0           0           0           0           0           0           0           0           0
 AtZEff=   0.0000000   0.0000000   0.0000000   0.0000000   0.0000000   0.0000000   0.0000000   0.0000000   0.0000000   0.0000000
 NQMom=    0.0000000   0.0000000   0.0000000   0.0000000   0.0000000   0.0000000   0.0000000   0.0000000   0.0000000   0.0000000
 NMagM=    0.0000000   0.0000000   0.0000000   0.0000000   0.0000000   0.0000000   0.0000000   0.0000000   0.0000000   0.0000000
 AtZNuc=   0.0000000   0.0000000   0.0000000   0.0000000   0.0000000   0.0000000   0.0000000   0.0000000   0.0000000   0.0000000

  Atom        61          62          63          64          65          66          67          68          69          70
 IAtWgt=           0           0           0           0           0           0           0           0           0           0
 AtmWgt=   0.0000000   0.0000000   0.0000000   0.0000000   0.0000000   0.0000000   0.0000000   0.0000000   0.0000000   0.0000000
 NucSpn=           0           0           0           0           0           0           0           0           0           0
 AtZEff=   0.0000000   0.0000000   0.0000000   0.0000000   0.0000000   0.0000000   0.0000000   0.0000000   0.0000000   0.0000000
 NQMom=    0.0000000   0.0000000   0.0000000   0.0000000   0.0000000   0.0000000   0.0000000   0.0000000   0.0000000   0.0000000
 NMagM=    0.0000000   0.0000000   0.0000000   0.0000000   0.0000000   0.0000000   0.0000000   0.0000000   0.0000000   0.0000000
 AtZNuc=   0.0000000   0.0000000   0.0000000   0.0000000   0.0000000   0.0000000   0.0000000   0.0000000   0.0000000   0.0000000

  Atom        71          72          73          74          75          76          77          78          79          80
 IAtWgt=           0           0           0           0           0           0           0           0           0           0
 AtmWgt=   0.0000000   0.0000000   0.0000000   0.0000000   0.0000000   0.0000000   0.0000000   0.0000000   0.0000000   0.0000000
 NucSpn=           0           0           0           0           0           0           0           0           0           0
 AtZEff=   0.0000000   0.0000000   0.0000000   0.0000000   0.0000000   0.0000000   0.0000000   0.0000000   0.0000000   0.0000000
 NQMom=    0.0000000   0.0000000   0.0000000   0.0000000   0.0000000   0.0000000   0.0000000   0.0000000   0.0000000   0.0000000
 NMagM=    0.0000000   0.0000000   0.0000000   0.0000000   0.0000000   0.0000000   0.0000000   0.0000000   0.0000000   0.0000000
 AtZNuc=   0.0000000   0.0000000   0.0000000   0.0000000   0.0000000   0.0000000   0.0000000   0.0000000   0.0000000   0.0000000

  Atom        81          82          83          84          85          86          87          88          89          90
 IAtWgt=           0           0           0           0           0           0           0           0           0           0
 AtmWgt=   0.0000000   0.0000000   0.0000000   0.0000000   0.0000000   0.0000000   0.0000000   0.0000000   0.0000000   0.0000000
 NucSpn=           0           0           0           0           0           0           0           0           0           0
 AtZEff=   0.0000000   0.0000000   0.0000000   0.0000000   0.0000000   0.0000000   0.0000000   0.0000000   0.0000000   0.0000000
 NQMom=    0.0000000   0.0000000   0.0000000   0.0000000   0.0000000   0.0000000   0.0000000   0.0000000   0.0000000   0.0000000
 NMagM=    0.0000000   0.0000000   0.0000000   0.0000000   0.0000000   0.0000000   0.0000000   0.0000000   0.0000000   0.0000000
 AtZNuc=   0.0000000   0.0000000   0.0000000   0.0000000   0.0000000   0.0000000   0.0000000   0.0000000   0.0000000   0.0000000

  Atom        91          92          93          94          95          96          97          98          99         100
 IAtWgt=           0           0           0           0           0           0           0           0           0           0
 AtmWgt=   0.0000000   0.0000000   0.0000000   0.0000000   0.0000000   0.0000000   0.0000000   0.0000000   0.0000000   0.0000000
 NucSpn=           0           0           0           0           0           0           0           0           0           0
 AtZEff=   0.0000000   0.0000000   0.0000000   0.0000000   0.0000000   0.0000000   0.0000000   0.0000000   0.0000000   0.0000000
 NQMom=    0.0000000   0.0000000   0.0000000   0.0000000   0.0000000   0.0000000   0.0000000   0.0000000   0.0000000   0.0000000
 NMagM=    0.0000000   0.0000000   0.0000000   0.0000000   0.0000000   0.0000000   0.0000000   0.0000000   0.0000000   0.0000000
 AtZNuc=   0.0000000   0.0000000   0.0000000   0.0000000   0.0000000   0.0000000   0.0000000   0.0000000   0.0000000   0.0000000

  Atom       101         102         103         104         105         106         107         108         109         110
 IAtWgt=           0           0           0           0           0           0           0           0           0           0
 AtmWgt=   0.0000000   0.0000000   0.0000000   0.0000000   0.0000000   0.0000000   0.0000000   0.0000000   0.0000000   0.0000000
 NucSpn=           0           0           0           0           0           0           0           0           0           0
 AtZEff=   0.0000000   0.0000000   0.0000000   0.0000000   0.0000000   0.0000000   0.0000000   0.0000000   0.0000000   0.0000000
 NQMom=    0.0000000   0.0000000   0.0000000   0.0000000   0.0000000   0.0000000   0.0000000   0.0000000   0.0000000   0.0000000
 NMagM=    0.0000000   0.0000000   0.0000000   0.0000000   0.0000000   0.0000000   0.0000000   0.0000000   0.0000000   0.0000000
 AtZNuc=   0.0000000   0.0000000   0.0000000   0.0000000   0.0000000   0.0000000   0.0000000   0.0000000   0.0000000   0.0000000

  Atom       111         112         113         114         115         116         117         118         119         120
 IAtWgt=           0           0           0           0           0           0           0           0           0           0
 AtmWgt=   0.0000000   0.0000000   0.0000000   0.0000000   0.0000000   0.0000000   0.0000000   0.0000000   0.0000000   0.0000000
 NucSpn=           0           0           0           0           0           0           0           0           0           0
 AtZEff=   0.0000000   0.0000000   0.0000000   0.0000000   0.0000000   0.0000000   0.0000000   0.0000000   0.0000000   0.0000000
 NQMom=    0.0000000   0.0000000   0.0000000   0.0000000   0.0000000   0.0000000   0.0000000   0.0000000   0.0000000   0.0000000
 NMagM=    0.0000000   0.0000000   0.0000000   0.0000000   0.0000000   0.0000000   0.0000000   0.0000000   0.0000000   0.0000000
 AtZNuc=   0.0000000   0.0000000   0.0000000   0.0000000   0.0000000   0.0000000   0.0000000   0.0000000   0.0000000   0.0000000

  Atom       121         122         123         124         125         126         127         128         129         130
 IAtWgt=           0           0           0           0           0           0           0           0           0           0
 AtmWgt=   0.0000000   0.0000000   0.0000000   0.0000000   0.0000000   0.0000000   0.0000000   0.0000000   0.0000000   0.0000000
 NucSpn=           0           0           0           0           0           0           0           0           0           0
 AtZEff=   0.0000000   0.0000000   0.0000000   0.0000000   0.0000000   0.0000000   0.0000000   0.0000000   0.0000000   0.0000000
 NQMom=    0.0000000   0.0000000   0.0000000   0.0000000   0.0000000   0.0000000   0.0000000   0.0000000   0.0000000   0.0000000
 NMagM=    0.0000000   0.0000000   0.0000000   0.0000000   0.0000000   0.0000000   0.0000000   0.0000000   0.0000000   0.0000000
 AtZNuc=   0.0000000   0.0000000   0.0000000   0.0000000   0.0000000   0.0000000   0.0000000   0.0000000   0.0000000   0.0000000

  Atom       131         132         133         134         135         136         137         138         139         140
 IAtWgt=           0           0           0           0           0           0           0           0           0           0
 AtmWgt=   0.0000000   0.0000000   0.0000000   0.0000000   0.0000000   0.0000000   0.0000000   0.0000000   0.0000000   0.0000000
 NucSpn=           0           0           0           0           0           0           0           0           0           0
 AtZEff=   0.0000000   0.0000000   0.0000000   0.0000000   0.0000000   0.0000000   0.0000000   0.0000000   0.0000000   0.0000000
 NQMom=    0.0000000   0.0000000   0.0000000   0.0000000   0.0000000   0.0000000   0.0000000   0.0000000   0.0000000   0.0000000
 NMagM=    0.0000000   0.0000000   0.0000000   0.0000000   0.0000000   0.0000000   0.0000000   0.0000000   0.0000000   0.0000000
 AtZNuc=   0.0000000   0.0000000   0.0000000   0.0000000   0.0000000   0.0000000   0.0000000   0.0000000   0.0000000   0.0000000

  Atom       141         142         143         144         145         146         147         148         149         150
 IAtWgt=           0           0           0           0           0           0           0           0           0           0
 AtmWgt=   0.0000000   0.0000000   0.0000000   0.0000000   0.0000000   0.0000000   0.0000000   0.0000000   0.0000000   0.0000000
 NucSpn=           0           0           0           0           0           0           0           0           0           0
 AtZEff=   0.0000000   0.0000000   0.0000000   0.0000000   0.0000000   0.0000000   0.0000000   0.0000000   0.0000000   0.0000000
 NQMom=    0.0000000   0.0000000   0.0000000   0.0000000   0.0000000   0.0000000   0.0000000   0.0000000   0.0000000   0.0000000
 NMagM=    0.0000000   0.0000000   0.0000000   0.0000000   0.0000000   0.0000000   0.0000000   0.0000000   0.0000000   0.0000000
 AtZNuc=   0.0000000   0.0000000   0.0000000   0.0000000   0.0000000   0.0000000   0.0000000   0.0000000   0.0000000   0.0000000

  Atom       151         152         153         154         155         156         157         158         159         160
 IAtWgt=           0           0           0           0           0           0           0           0           0           0
 AtmWgt=   0.0000000   0.0000000   0.0000000   0.0000000   0.0000000   0.0000000   0.0000000   0.0000000   0.0000000   0.0000000
 NucSpn=           0           0           0           0           0           0           0           0           0           0
 AtZEff=   0.0000000   0.0000000   0.0000000   0.0000000   0.0000000   0.0000000   0.0000000   0.0000000   0.0000000   0.0000000
 NQMom=    0.0000000   0.0000000   0.0000000   0.0000000   0.0000000   0.0000000   0.0000000   0.0000000   0.0000000   0.0000000
 NMagM=    0.0000000   0.0000000   0.0000000   0.0000000   0.0000000   0.0000000   0.0000000   0.0000000   0.0000000   0.0000000
 AtZNuc=   0.0000000   0.0000000   0.0000000   0.0000000   0.0000000   0.0000000   0.0000000   0.0000000   0.0000000   0.0000000

  Atom       161         162         163         164         165         166         167         168         169         170
 IAtWgt=           0           0           0           0           0           0           0           0           0           0
 AtmWgt=   0.0000000   0.0000000   0.0000000   0.0000000   0.0000000   0.0000000   0.0000000   0.0000000   0.0000000   0.0000000
 NucSpn=           0           0           0           0           0           0           0           0           0           0
 AtZEff=   0.0000000   0.0000000   0.0000000   0.0000000   0.0000000   0.0000000   0.0000000   0.0000000   0.0000000   0.0000000
 NQMom=    0.0000000   0.0000000   0.0000000   0.0000000   0.0000000   0.0000000   0.0000000   0.0000000   0.0000000   0.0000000
 NMagM=    0.0000000   0.0000000   0.0000000   0.0000000   0.0000000   0.0000000   0.0000000   0.0000000   0.0000000   0.0000000
 AtZNuc=   0.0000000   0.0000000   0.0000000   0.0000000   0.0000000   0.0000000   0.0000000   0.0000000   0.0000000   0.0000000

  Atom       171         172         173         174         175         176         177         178         179         180
 IAtWgt=           0           0           0           0           0           0           0           0           0           0
 AtmWgt=   0.0000000   0.0000000   0.0000000   0.0000000   0.0000000   0.0000000   0.0000000   0.0000000   0.0000000   0.0000000
 NucSpn=           0           0           0           0           0           0           0           0           0           0
 AtZEff=   0.0000000   0.0000000   0.0000000   0.0000000   0.0000000   0.0000000   0.0000000   0.0000000   0.0000000   0.0000000
 NQMom=    0.0000000   0.0000000   0.0000000   0.0000000   0.0000000   0.0000000   0.0000000   0.0000000   0.0000000   0.0000000
 NMagM=    0.0000000   0.0000000   0.0000000   0.0000000   0.0000000   0.0000000   0.0000000   0.0000000   0.0000000   0.0000000
 AtZNuc=   0.0000000   0.0000000   0.0000000   0.0000000   0.0000000   0.0000000   0.0000000   0.0000000   0.0000000   0.0000000

  Atom       181         182         183         184         185         186         187         188         189         190
 IAtWgt=           0           0           0           0           0           0           0           0           0           0
 AtmWgt=   0.0000000   0.0000000   0.0000000   0.0000000   0.0000000   0.0000000   0.0000000   0.0000000   0.0000000   0.0000000
 NucSpn=           0           0           0           0           0           0           0           0           0           0
 AtZEff=   0.0000000   0.0000000   0.0000000   0.0000000   0.0000000   0.0000000   0.0000000   0.0000000   0.0000000   0.0000000
 NQMom=    0.0000000   0.0000000   0.0000000   0.0000000   0.0000000   0.0000000   0.0000000   0.0000000   0.0000000   0.0000000
 NMagM=    0.0000000   0.0000000   0.0000000   0.0000000   0.0000000   0.0000000   0.0000000   0.0000000   0.0000000   0.0000000
 AtZNuc=   0.0000000   0.0000000   0.0000000   0.0000000   0.0000000   0.0000000   0.0000000   0.0000000   0.0000000   0.0000000

  Atom       191         192         193         194         195         196         197         198         199         200
 IAtWgt=           0           0           0           0           0           0           0           0           0           0
 AtmWgt=   0.0000000   0.0000000   0.0000000   0.0000000   0.0000000   0.0000000   0.0000000   0.0000000   0.0000000   0.0000000
 NucSpn=           0           0           0           0           0           0           0           0           0           0
 AtZEff=   0.0000000   0.0000000   0.0000000   0.0000000   0.0000000   0.0000000   0.0000000   0.0000000   0.0000000   0.0000000
 NQMom=    0.0000000   0.0000000   0.0000000   0.0000000   0.0000000   0.0000000   0.0000000   0.0000000   0.0000000   0.0000000
 NMagM=    0.0000000   0.0000000   0.0000000   0.0000000   0.0000000   0.0000000   0.0000000   0.0000000   0.0000000   0.0000000
 AtZNuc=   0.0000000   0.0000000   0.0000000   0.0000000   0.0000000   0.0000000   0.0000000   0.0000000   0.0000000   0.0000000

  Atom       201         202         203         204         205         206         207         208         209         210
 IAtWgt=           0           0           0           0           0           0           0           0           0           0
 AtmWgt=   0.0000000   0.0000000   0.0000000   0.0000000   0.0000000   0.0000000   0.0000000   0.0000000   0.0000000   0.0000000
 NucSpn=           0           0           0           0           0           0           0           0           0           0
 AtZEff=   0.0000000   0.0000000   0.0000000   0.0000000   0.0000000   0.0000000   0.0000000   0.0000000   0.0000000   0.0000000
 NQMom=    0.0000000   0.0000000   0.0000000   0.0000000   0.0000000   0.0000000   0.0000000   0.0000000   0.0000000   0.0000000
 NMagM=    0.0000000   0.0000000   0.0000000   0.0000000   0.0000000   0.0000000   0.0000000   0.0000000   0.0000000   0.0000000
 AtZNuc=   0.0000000   0.0000000   0.0000000   0.0000000   0.0000000   0.0000000   0.0000000   0.0000000   0.0000000   0.0000000

  Atom       211         212         213         214         215         216         217         218         219         220
 IAtWgt=           0           0           0           0           0           0           0           0           0           0
 AtmWgt=   0.0000000   0.0000000   0.0000000   0.0000000   0.0000000   0.0000000   0.0000000   0.0000000   0.0000000   0.0000000
 NucSpn=           0           0           0           0           0           0           0           0           0           0
 AtZEff=   0.0000000   0.0000000   0.0000000   0.0000000   0.0000000   0.0000000   0.0000000   0.0000000   0.0000000   0.0000000
 NQMom=    0.0000000   0.0000000   0.0000000   0.0000000   0.0000000   0.0000000   0.0000000   0.0000000   0.0000000   0.0000000
 NMagM=    0.0000000   0.0000000   0.0000000   0.0000000   0.0000000   0.0000000   0.0000000   0.0000000   0.0000000   0.0000000
 AtZNuc=   0.0000000   0.0000000   0.0000000   0.0000000   0.0000000   0.0000000   0.0000000   0.0000000   0.0000000   0.0000000

  Atom       221         222         223         224         225         226         227         228         229         230
 IAtWgt=           0           0           0           0           0           0           0           0           0           0
 AtmWgt=   0.0000000   0.0000000   0.0000000   0.0000000   0.0000000   0.0000000   0.0000000   0.0000000   0.0000000   0.0000000
 NucSpn=           0           0           0           0           0           0           0           0           0           0
 AtZEff=   0.0000000   0.0000000   0.0000000   0.0000000   0.0000000   0.0000000   0.0000000   0.0000000   0.0000000   0.0000000
 NQMom=    0.0000000   0.0000000   0.0000000   0.0000000   0.0000000   0.0000000   0.0000000   0.0000000   0.0000000   0.0000000
 NMagM=    0.0000000   0.0000000   0.0000000   0.0000000   0.0000000   0.0000000   0.0000000   0.0000000   0.0000000   0.0000000
 AtZNuc=   0.0000000   0.0000000   0.0000000   0.0000000   0.0000000   0.0000000   0.0000000   0.0000000   0.0000000   0.0000000

  Atom       231         232         233         234         235         236
 IAtWgt=           0           0           0           0           0           0
 AtmWgt=   0.0000000   0.0000000   0.0000000   0.0000000   0.0000000   0.0000000
 NucSpn=           0           0           0           0           0           0
 AtZEff=   0.0000000   0.0000000   0.0000000   0.0000000   0.0000000   0.0000000
 NQMom=    0.0000000   0.0000000   0.0000000   0.0000000   0.0000000   0.0000000
 NMagM=    0.0000000   0.0000000   0.0000000   0.0000000   0.0000000   0.0000000
 AtZNuc=   0.0000000   0.0000000   0.0000000   0.0000000   0.0000000   0.0000000
 Leave Link  101 at Tue Sep 15 14:18:08 2020, MaxMem=   131072000 cpu:         4.1
 (Enter /share/programs/GAUSSIAN/64/g09/l202.exe)
 Symmetry turned off:
 Cannot cope with ghost atoms or with translation vectors.
 Stoichiometry    C22H14
 Framework group  C1[X(C22H14)]
 NUMDOF-- NAT=    36 NAtoms=   236
 Deg. of freedom     0
 Full point group                 C1      NOp   1
                          Input orientation:                          
 ---------------------------------------------------------------------
 Center     Atomic      Atomic             Coordinates (Angstroms)
 Number     Number       Type             X           Y           Z
 ---------------------------------------------------------------------
      1          6           0        0.653241    3.257859   -0.202510
      2          6           0       -0.653243    3.257860    0.202510
      3          6           0        1.372495    2.032956   -0.320807
      4          6           0       -1.372495    2.032956    0.320807
      5          6           0        0.722474    0.795666   -0.050388
      6          6           0       -0.722474    0.795667    0.050387
      7          6           0        2.760385    2.053927   -0.674268
      8          6           0        3.508866    0.913916   -0.671362
      9          6           0        2.955226   -0.309622   -0.177479
     10          6           0        1.574722   -0.361114    0.197094
     11          1           0        1.183427    4.195740   -0.384599
     12          1           0       -1.183429    4.195740    0.384599
     13          1           0        3.206283    3.012423   -0.951392
     14          1           0        4.560023    0.932956   -0.969333
     15          6           0        3.783020   -1.443098    0.028309
     16          6           0        1.137427   -1.507533    0.912109
     17          6           0        1.973691   -2.584349    1.138062
     18          6           0        3.301853   -2.571588    0.661177
     19          1           0        4.825754   -1.391230   -0.295484
     20          1           0        0.124652   -1.532788    1.308472
     21          1           0        1.603586   -3.445682    1.698977
     22          1           0        3.952742   -3.433526    0.825134
     23          6           0       -3.508866    0.913915    0.671362
     24          6           0       -2.760386    2.053926    0.674268
     25          6           0       -2.955226   -0.309623    0.177479
     26          6           0       -1.574722   -0.361114   -0.197094
     27          6           0       -3.783020   -1.443099   -0.028309
     28          6           0       -3.301852   -2.571589   -0.661177
     29          6           0       -1.973690   -2.584349   -1.138061
     30          6           0       -1.137426   -1.507534   -0.912109
     31          1           0       -4.560022    0.932954    0.969334
     32          1           0       -3.206283    3.012421    0.951392
     33          1           0       -4.825754   -1.391232    0.295484
     34          1           0       -3.952741   -3.433528   -0.825134
     35          1           0       -1.603585   -3.445682   -1.698976
     36          1           0       -0.124652   -1.532788   -1.308471
     37          0           0        1.957686    1.185702    0.641011
     38          0           0        1.916065    1.157891    0.641011
     39          0           0        1.878430    1.124886    0.641011
     40          0           0        1.845425    1.087251    0.641011
     41          0           0        1.817614    1.045630    0.641011
     42          0           0        1.795475    1.000735    0.641011
     43          0           0        1.779384    0.953334    0.641011
     44          0           0        1.769618    0.904238    0.641011
     45          0           0        1.766345    0.854288    0.641011
     46          0           0        1.769618    0.804338    0.641011
     47          0           0        1.779384    0.755242    0.641011
     48          0           0        1.795475    0.707842    0.641011
     49          0           0        1.817614    0.662946    0.641011
     50          0           0        1.845425    0.621325    0.641011
     51          0           0        1.878430    0.583690    0.641011
     52          0           0        1.916065    0.550685    0.641011
     53          0           0        1.957686    0.522875    0.641011
     54          0           0        2.002581    0.500735    0.641011
     55          0           0        2.049982    0.484644    0.641011
     56          0           0        2.099078    0.474879    0.641011
     57          0           0        2.149028    0.471605    0.641011
     58          0           0        2.198978    0.474879    0.641011
     59          0           0        2.248074    0.484644    0.641011
     60          0           0        2.295475    0.500735    0.641011
     61          0           0        2.340370    0.522875    0.641011
     62          0           0        2.381991    0.550685    0.641011
     63          0           0        2.419626    0.583690    0.641011
     64          0           0        2.452631    0.621325    0.641011
     65          0           0        2.480442    0.662946    0.641011
     66          0           0        2.502581    0.707842    0.641011
     67          0           0        2.518672    0.755242    0.641011
     68          0           0        2.528438    0.804338    0.641011
     69          0           0        2.649028    0.854288    0.583157
     70          0           0        2.644750    0.919551    0.583157
     71          0           0        2.631991    0.983698    0.583157
     72          0           0        2.610968    1.045630    0.583157
     73          0           0        2.582041    1.104288    0.583157
     74          0           0        2.545705    1.158669    0.583157
     75          0           0        2.502581    1.207842    0.583157
     76          0           0        2.453409    1.250965    0.583157
     77          0           0        2.399028    1.287301    0.583157
     78          0           0        2.340370    1.316228    0.583157
     79          0           0        2.278438    1.337251    0.583157
     80          0           0        2.214291    1.350011    0.583157
     81          0           0        2.149028    1.354288    0.583157
     82          0           0        2.083765    1.350011    0.583157
     83          0           0        2.019618    1.337251    0.583157
     84          0           0        1.957686    1.316228    0.583157
     85          0           0        1.899028    1.287301    0.583157
     86          0           0        1.844647    1.250965    0.583157
     87          0           0        1.795475    1.207842    0.583157
     88          0           0        1.752351    1.158669    0.583157
     89          0           0        1.716015    1.104288    0.583157
     90          0           0        1.687088    1.045630    0.583157
     91          0           0        1.666065    0.983698    0.583157
     92          0           0        1.653306    0.919551    0.583157
     93          0           0        1.649028    0.854288    0.583157
     94          0           0        1.653306    0.789025    0.583157
     95          0           0        1.666065    0.724879    0.583157
     96          0           0        1.687088    0.662946    0.583157
     97          0           0        1.716015    0.604288    0.583157
     98          0           0        1.752351    0.549907    0.583157
     99          0           0        2.214291    0.358566    0.583157
    100          0           0        2.278438    0.371325    0.583157
    101          0           0        2.340370    0.392348    0.583157
    102          0           0        2.399028    0.421275    0.583157
    103          0           0        2.453409    0.457611    0.583157
    104          0           0        2.502581    0.500735    0.583157
    105          0           0        2.545705    0.549907    0.583157
    106          0           0        2.582041    0.604288    0.583157
    107          0           0        2.610968    0.662946    0.583157
    108          0           0        2.631991    0.724879    0.583157
    109          0           0        2.644750    0.789025    0.583157
    110          0           0        2.757789    0.854288    0.510485
    111          0           0        2.752581    0.933747    0.510485
    112          0           0        2.737046    1.011847    0.510485
    113          0           0        2.711450    1.087251    0.510485
    114          0           0        2.676231    1.158669    0.510485
    115          0           0        2.631991    1.224879    0.510485
    116          0           0        2.579487    1.284748    0.510485
    117          0           0        2.519618    1.337251    0.510485
    118          0           0        2.453409    1.381491    0.510485
    119          0           0        2.381991    1.416710    0.510485
    120          0           0        2.306587    1.442307    0.510485
    121          0           0        2.228487    1.457842    0.510485
    122          0           0        2.149028    1.463050    0.510485
    123          0           0        2.069569    1.457842    0.510485
    124          0           0        1.991469    1.442307    0.510485
    125          0           0        1.916065    1.416710    0.510485
    126          0           0        1.844647    1.381491    0.510485
    127          0           0        1.778438    1.337251    0.510485
    128          0           0        1.718569    1.284748    0.510485
    129          0           0        1.666065    1.224879    0.510485
    130          0           0        1.621825    1.158669    0.510485
    131          0           0        1.586606    1.087251    0.510485
    132          0           0        1.561010    1.011847    0.510485
    133          0           0        1.545475    0.933747    0.510485
    134          0           0        1.561010    0.696729    0.510485
    135          0           0        1.586606    0.621325    0.510485
    136          0           0        2.306587    0.266270    0.510485
    137          0           0        2.381991    0.291866    0.510485
    138          0           0        2.453409    0.327085    0.510485
    139          0           0        2.519618    0.371325    0.510485
    140          0           0        2.579487    0.423829    0.510485
    141          0           0        2.631991    0.483698    0.510485
    142          0           0        2.676231    0.549907    0.510485
    143          0           0        2.711450    0.621325    0.510485
    144          0           0        2.737046    0.696729    0.510485
    145          0           0        2.752581    0.774829    0.510485
    146          0           0        2.856135    0.854288    0.424238
    147          0           0        2.850085    0.946584    0.424238
    148          0           0        2.832041    1.037301    0.424238
    149          0           0        2.802309    1.124886    0.424238
    150          0           0        2.761400    1.207842    0.424238
    151          0           0        2.710014    1.284748    0.424238
    152          0           0        2.649028    1.354288    0.424238
    153          0           0        2.579487    1.415274    0.424238
    154          0           0        2.502581    1.466661    0.424238
    155          0           0        2.419626    1.507570    0.424238
    156          0           0        2.332041    1.537301    0.424238
    157          0           0        2.241324    1.555346    0.424238
    158          0           0        2.149028    1.561395    0.424238
    159          0           0        2.056732    1.555346    0.424238
    160          0           0        1.966015    1.537301    0.424238
    161          0           0        1.878430    1.507570    0.424238
    162          0           0        1.795475    1.466661    0.424238
    163          0           0        1.718569    1.415274    0.424238
    164          0           0        1.649028    1.354288    0.424238
    165          0           0        1.588042    1.284748    0.424238
    166          0           0        1.536656    1.207842    0.424238
    167          0           0        2.761400    0.500735    0.424238
    168          0           0        2.802309    0.583690    0.424238
    169          0           0        2.832041    0.671275    0.424238
    170          0           0        2.850085    0.761992    0.424238
    171          0           0        2.942381    0.854288    0.325893
    172          0           0        2.935594    0.957842    0.325893
    173          0           0        2.915348    1.059623    0.325893
    174          0           0        2.881991    1.157891    0.325893
    175          0           0        2.836092    1.250965    0.325893
    176          0           0        2.778438    1.337251    0.325893
    177          0           0        2.710014    1.415274    0.325893
    178          0           0        2.631991    1.483698    0.325893
    179          0           0        2.545705    1.541352    0.325893
    180          0           0        2.452631    1.587251    0.325893
    181          0           0        2.354363    1.620609    0.325893
    182          0           0        2.252581    1.640854    0.325893
    183          0           0        2.149028    1.647642    0.325893
    184          0           0        2.045475    1.640854    0.325893
    185          0           0        2.915348    0.648953    0.325893
    186          0           0        2.935594    0.750735    0.325893
    187          0           0        3.015053    0.854288    0.217132
    188          0           0        3.007644    0.967327    0.217132
    189          0           0        2.985544    1.078432    0.217132
    190          0           0        2.949131    1.185702    0.217132
    191          0           0        2.899028    1.287301    0.217132
    192          0           0        2.836092    1.381491    0.217132
    193          0           0        2.761400    1.466661    0.217132
    194          0           0        2.676231    1.541352    0.217132
    195          0           0        2.582041    1.604288    0.217132
    196          0           0        2.480442    1.654391    0.217132
    197          0           0        2.373172    1.690804    0.217132
    198          0           0        2.262067    1.712905    0.217132
    199          0           0        2.985544    0.630144    0.217132
    200          0           0        3.007644    0.741249    0.217132
    201          0           0        2.949131    1.316228    0.099815
    202          0           0        2.881991    1.416710    0.099815
    203          0           0        1.416065    0.291866   -0.665552
    204          0           0        1.495747    0.201007   -0.665552
    205          0           0        2.028438   -0.061687   -0.665552
    206          0           0        1.348925    0.522875   -0.782868
    207          0           0        1.399028    0.421275   -0.782868
    208          0           0        1.461964    0.327085   -0.782868
    209          0           0        1.536656    0.241916   -0.782868
    210          0           0        1.621825    0.167224   -0.782868
    211          0           0        1.716015    0.104288   -0.782868
    212          0           0        1.817614    0.054185   -0.782868
    213          0           0        1.924884    0.017772   -0.782868
    214          0           0        2.035989   -0.004328   -0.782868
    215          0           0        2.149028   -0.011737   -0.782868
    216          0           0        1.416065    1.157891   -0.891630
    217          0           0        1.382708    1.059623   -0.891630
    218          0           0        1.362462    0.957842   -0.891630
    219          0           0        1.355675    0.854288   -0.891630
    220          0           0        1.362462    0.750735   -0.891630
    221          0           0        1.382708    0.648953   -0.891630
    222          0           0        1.416065    0.550685   -0.891630
    223          0           0        1.461964    0.457611   -0.891630
    224          0           0        1.519618    0.371325   -0.891630
    225          0           0        1.588042    0.293303   -0.891630
    226          0           0        1.666065    0.224879   -0.891630
    227          0           0        1.752351    0.167224   -0.891630
    228          0           0        1.845425    0.121325   -0.891630
    229          0           0        1.943693    0.087968   -0.891630
    230          0           0        2.045475    0.067722   -0.891630
    231          0           0        2.149028    0.060935   -0.891630
    232          0           0        2.252581    0.067722   -0.891630
    233          0           0        2.354363    0.087968   -0.891630
    234          0           0        1.588042    1.284748   -0.989975
    235          0           0        1.536656    1.207842   -0.989975
    236          0           0        1.495747    1.124886   -0.989975
 ---------------------------------------------------------------------
 Rotational constants (GHZ):      0.4454681      0.2811480      0.1854303
 Leave Link  202 at Tue Sep 15 14:18:08 2020, MaxMem=   131072000 cpu:         0.0
 (Enter /share/programs/GAUSSIAN/64/g09/l301.exe)
 Standard basis: 6-311+G(d,p) (5D, 7F)
 Warning:  center  37 has no basis functions!
 Warning:  center  38 has no basis functions!
 Warning:  center  39 has no basis functions!
 Warning:  center  40 has no basis functions!
 Warning:  center  41 has no basis functions!
 Warning:  center  42 has no basis functions!
 Warning:  center  43 has no basis functions!
 Warning:  center  44 has no basis functions!
 Warning:  center  45 has no basis functions!
 Warning:  center  46 has no basis functions!
 Warning:  center  47 has no basis functions!
 Warning:  center  48 has no basis functions!
 Warning:  center  49 has no basis functions!
 Warning:  center  50 has no basis functions!
 Warning:  center  51 has no basis functions!
 Warning:  center  52 has no basis functions!
 Warning:  center  53 has no basis functions!
 Warning:  center  54 has no basis functions!
 Warning:  center  55 has no basis functions!
 Warning:  center  56 has no basis functions!
 Warning:  center  57 has no basis functions!
 Warning:  center  58 has no basis functions!
 Warning:  center  59 has no basis functions!
 Warning:  center  60 has no basis functions!
 Warning:  center  61 has no basis functions!
 Warning:  center  62 has no basis functions!
 Warning:  center  63 has no basis functions!
 Warning:  center  64 has no basis functions!
 Warning:  center  65 has no basis functions!
 Warning:  center  66 has no basis functions!
 Warning:  center  67 has no basis functions!
 Warning:  center  68 has no basis functions!
 Warning:  center  69 has no basis functions!
 Warning:  center  70 has no basis functions!
 Warning:  center  71 has no basis functions!
 Warning:  center  72 has no basis functions!
 Warning:  center  73 has no basis functions!
 Warning:  center  74 has no basis functions!
 Warning:  center  75 has no basis functions!
 Warning:  center  76 has no basis functions!
 Warning:  center  77 has no basis functions!
 Warning:  center  78 has no basis functions!
 Warning:  center  79 has no basis functions!
 Warning:  center  80 has no basis functions!
 Warning:  center  81 has no basis functions!
 Warning:  center  82 has no basis functions!
 Warning:  center  83 has no basis functions!
 Warning:  center  84 has no basis functions!
 Warning:  center  85 has no basis functions!
 Warning:  center  86 has no basis functions!
 Warning:  center  87 has no basis functions!
 Warning:  center  88 has no basis functions!
 Warning:  center  89 has no basis functions!
 Warning:  center  90 has no basis functions!
 Warning:  center  91 has no basis functions!
 Warning:  center  92 has no basis functions!
 Warning:  center  93 has no basis functions!
 Warning:  center  94 has no basis functions!
 Warning:  center  95 has no basis functions!
 Warning:  center  96 has no basis functions!
 Warning:  center  97 has no basis functions!
 Warning:  center  98 has no basis functions!
 Warning:  center  99 has no basis functions!
 Warning:  center 100 has no basis functions!
 Warning:  center 101 has no basis functions!
 Warning:  center 102 has no basis functions!
 Warning:  center 103 has no basis functions!
 Warning:  center 104 has no basis functions!
 Warning:  center 105 has no basis functions!
 Warning:  center 106 has no basis functions!
 Warning:  center 107 has no basis functions!
 Warning:  center 108 has no basis functions!
 Warning:  center 109 has no basis functions!
 Warning:  center 110 has no basis functions!
 Warning:  center 111 has no basis functions!
 Warning:  center 112 has no basis functions!
 Warning:  center 113 has no basis functions!
 Warning:  center 114 has no basis functions!
 Warning:  center 115 has no basis functions!
 Warning:  center 116 has no basis functions!
 Warning:  center 117 has no basis functions!
 Warning:  center 118 has no basis functions!
 Warning:  center 119 has no basis functions!
 Warning:  center 120 has no basis functions!
 Warning:  center 121 has no basis functions!
 Warning:  center 122 has no basis functions!
 Warning:  center 123 has no basis functions!
 Warning:  center 124 has no basis functions!
 Warning:  center 125 has no basis functions!
 Warning:  center 126 has no basis functions!
 Warning:  center 127 has no basis functions!
 Warning:  center 128 has no basis functions!
 Warning:  center 129 has no basis functions!
 Warning:  center 130 has no basis functions!
 Warning:  center 131 has no basis functions!
 Warning:  center 132 has no basis functions!
 Warning:  center 133 has no basis functions!
 Warning:  center 134 has no basis functions!
 Warning:  center 135 has no basis functions!
 Warning:  center 136 has no basis functions!
 Warning:  center 137 has no basis functions!
 Warning:  center 138 has no basis functions!
 Warning:  center 139 has no basis functions!
 Warning:  center 140 has no basis functions!
 Warning:  center 141 has no basis functions!
 Warning:  center 142 has no basis functions!
 Warning:  center 143 has no basis functions!
 Warning:  center 144 has no basis functions!
 Warning:  center 145 has no basis functions!
 Warning:  center 146 has no basis functions!
 Warning:  center 147 has no basis functions!
 Warning:  center 148 has no basis functions!
 Warning:  center 149 has no basis functions!
 Warning:  center 150 has no basis functions!
 Warning:  center 151 has no basis functions!
 Warning:  center 152 has no basis functions!
 Warning:  center 153 has no basis functions!
 Warning:  center 154 has no basis functions!
 Warning:  center 155 has no basis functions!
 Warning:  center 156 has no basis functions!
 Warning:  center 157 has no basis functions!
 Warning:  center 158 has no basis functions!
 Warning:  center 159 has no basis functions!
 Warning:  center 160 has no basis functions!
 Warning:  center 161 has no basis functions!
 Warning:  center 162 has no basis functions!
 Warning:  center 163 has no basis functions!
 Warning:  center 164 has no basis functions!
 Warning:  center 165 has no basis functions!
 Warning:  center 166 has no basis functions!
 Warning:  center 167 has no basis functions!
 Warning:  center 168 has no basis functions!
 Warning:  center 169 has no basis functions!
 Warning:  center 170 has no basis functions!
 Warning:  center 171 has no basis functions!
 Warning:  center 172 has no basis functions!
 Warning:  center 173 has no basis functions!
 Warning:  center 174 has no basis functions!
 Warning:  center 175 has no basis functions!
 Warning:  center 176 has no basis functions!
 Warning:  center 177 has no basis functions!
 Warning:  center 178 has no basis functions!
 Warning:  center 179 has no basis functions!
 Warning:  center 180 has no basis functions!
 Warning:  center 181 has no basis functions!
 Warning:  center 182 has no basis functions!
 Warning:  center 183 has no basis functions!
 Warning:  center 184 has no basis functions!
 Warning:  center 185 has no basis functions!
 Warning:  center 186 has no basis functions!
 Warning:  center 187 has no basis functions!
 Warning:  center 188 has no basis functions!
 Warning:  center 189 has no basis functions!
 Warning:  center 190 has no basis functions!
 Warning:  center 191 has no basis functions!
 Warning:  center 192 has no basis functions!
 Warning:  center 193 has no basis functions!
 Warning:  center 194 has no basis functions!
 Warning:  center 195 has no basis functions!
 Warning:  center 196 has no basis functions!
 Warning:  center 197 has no basis functions!
 Warning:  center 198 has no basis functions!
 Warning:  center 199 has no basis functions!
 Warning:  center 200 has no basis functions!
 Warning:  center 201 has no basis functions!
 Warning:  center 202 has no basis functions!
 Warning:  center 203 has no basis functions!
 Warning:  center 204 has no basis functions!
 Warning:  center 205 has no basis functions!
 Warning:  center 206 has no basis functions!
 Warning:  center 207 has no basis functions!
 Warning:  center 208 has no basis functions!
 Warning:  center 209 has no basis functions!
 Warning:  center 210 has no basis functions!
 Warning:  center 211 has no basis functions!
 Warning:  center 212 has no basis functions!
 Warning:  center 213 has no basis functions!
 Warning:  center 214 has no basis functions!
 Warning:  center 215 has no basis functions!
 Warning:  center 216 has no basis functions!
 Warning:  center 217 has no basis functions!
 Warning:  center 218 has no basis functions!
 Warning:  center 219 has no basis functions!
 Warning:  center 220 has no basis functions!
 Warning:  center 221 has no basis functions!
 Warning:  center 222 has no basis functions!
 Warning:  center 223 has no basis functions!
 Warning:  center 224 has no basis functions!
 Warning:  center 225 has no basis functions!
 Warning:  center 226 has no basis functions!
 Warning:  center 227 has no basis functions!
 Warning:  center 228 has no basis functions!
 Warning:  center 229 has no basis functions!
 Warning:  center 230 has no basis functions!
 Warning:  center 231 has no basis functions!
 Warning:  center 232 has no basis functions!
 Warning:  center 233 has no basis functions!
 Warning:  center 234 has no basis functions!
 Warning:  center 235 has no basis functions!
 Warning:  center 236 has no basis functions!
 Ernie: Thresh=  0.10000D-02 Tol=  0.10000D-05 Strict=F.
   568 basis functions,   904 primitive gaussians,   590 cartesian basis functions
    73 alpha electrons       73 beta electrons
       nuclear repulsion energy      1599.9156270972 Hartrees.
 IExCor=  402 DFT=T Ex+Corr=B3LYP ExCW=0 ScaHFX=  0.200000
 ScaDFX=  0.800000  0.720000  1.000000  0.810000 ScalE2=  1.000000  1.000000
 IRadAn=      0 IRanWt=     -1 IRanGd=            0 ICorTp=0 IEmpDi=  4
 NAtoms=  236 NActive=  236 NUniq=  236 SFac= 1.00D+00 NAtFMM=   60 NAOKFM=T Big=T
 Integral buffers will be    131072 words long.
 Raffenetti 2 integral format.
 Two-electron integral symmetry is turned off.
 Leave Link  301 at Tue Sep 15 14:18:08 2020, MaxMem=   131072000 cpu:         0.4
 (Enter /share/programs/GAUSSIAN/64/g09/l302.exe)
 NPDir=0 NMtPBC=     1 NCelOv=     1 NCel=       1 NClECP=     1 NCelD=      1
         NCelK=      1 NCelE2=     1 NClLst=     1 CellRange=     0.0.
 One-electron integrals computed using PRISM.
 NBasis=   568 RedAO= T EigKep=  1.01D-06  NBF=   568
 NBsUse=   557 1.00D-06 EigRej=  9.19D-07 NBFU=   557
 Precomputing XC quadrature grid using
 IXCGrd= 4 IRadAn=           0 IRanWt=          -1 IRanGd=           0 AccXCQ= 0.00D+00.
 Generated NRdTot=       0 NPtTot=           0 NUsed=           0 NTot=          32
 NSgBfM=   587   588   588   589   589 MxSgAt=   236 MxSgA2=    36.
 Leave Link  302 at Tue Sep 15 14:18:11 2020, MaxMem=   131072000 cpu:        20.1
 (Enter /share/programs/GAUSSIAN/64/g09/l308.exe)
 Leave Link  308 at Tue Sep 15 14:18:11 2020, MaxMem=   131072000 cpu:         1.4
 (Enter /share/programs/GAUSSIAN/64/g09/l303.exe)
 DipDrv:  MaxL=1.
 Leave Link  303 at Tue Sep 15 14:18:12 2020, MaxMem=   131072000 cpu:         1.3
 (Enter /share/programs/GAUSSIAN/64/g09/l401.exe)
 Initial guess from the checkpoint file:  "/scratch/aartigas.39205/Gau-3726030.chk"
 Skipping rotation of guess because NAtoms(RWF)=  236 differs from NAtoms(Chk)=   36.
 Guess basis will be translated and rotated to current coordinates.
 JPrj=2 DoOrth=T DoCkMO=T.
 Leave Link  401 at Tue Sep 15 14:18:13 2020, MaxMem=   131072000 cpu:        11.3
 (Enter /share/programs/GAUSSIAN/64/g09/l502.exe)
 Closed shell SCF:
 Using DIIS extrapolation, IDIIS=  1040.
 Two-electron integral symmetry not used.
 IVT=     1071582 IEndB=     1071582 NGot=   131072000 MDV=   130365749
 LenX=   130365749 LenY=   130017059
 Requested convergence on RMS density matrix=1.00D-08 within 128 cycles.
 Requested convergence on MAX density matrix=1.00D-06.
 Requested convergence on             energy=1.00D-06.
 No special actions if energy rises.
 Fock matrices will be formed incrementally for  20 cycles.

 Cycle   1  Pass 1  IDiag  1:
 FoFJK:  IHMeth= 1 ICntrl=       0 DoSepK=F KAlg= 0 I1Cent=   0 FoldK=F
 IRaf= 940000000 NMat=   1 IRICut=       1 DoRegI=T DoRafI=F ISym2E= 0.
 FoFCou: FMM=T IPFlag=           0 FMFlag=      100000 FMFlg1=        2001
         NFxFlg=           0 DoJE=F BraDBF=F KetDBF=F FulRan=T
         wScrn=  0.000000 ICntrl=       0 IOpCl=  0 I1Cent=           0 NGrid=           0
         NMat0=    1 NMatS0=      1 NMatT0=    0 NMatD0=    1 NMtDS0=    0 NMtDT0=    0
 Symmetry not used in FoFCou.
 FMM levels:  10  Number of levels for PrismC:   9
 E= -847.003738666969    
 DIIS: error= 5.05D-08 at cycle   1 NSaved=   1.
 NSaved= 1 IEnMin= 1 EnMin= -847.003738666969     IErMin= 1 ErrMin= 5.05D-08
 ErrMax= 5.05D-08  0.00D+00 EMaxC= 1.00D-01 BMatC= 3.55D-12 BMatP= 3.55D-12
 IDIUse=1 WtCom= 1.00D+00 WtEn= 0.00D+00
 Coeff-Com:  0.100D+01
 Coeff:      0.100D+01
 Gap=     0.151 Goal=   None    Shift=    0.000
 RMSDP=2.88D-07 MaxDP=1.34D-05              OVMax= 3.94D-07

 Cycle   2  Pass 1  IDiag  1:
 RMSU=  2.85D-07    CP:  1.00D+00
 E= -847.003738666892     Delta-E=        0.000000000077 Rises=F Damp=F
 DIIS: error= 1.42D-08 at cycle   2 NSaved=   2.
 NSaved= 2 IEnMin= 1 EnMin= -847.003738666969     IErMin= 2 ErrMin= 1.42D-08
 ErrMax= 1.42D-08  0.00D+00 EMaxC= 1.00D-01 BMatC= 2.13D-13 BMatP= 3.55D-12
 IDIUse=1 WtCom= 1.00D+00 WtEn= 0.00D+00
 Coeff-Com:  0.627D-01 0.937D+00
 Coeff:      0.627D-01 0.937D+00
 Gap=     0.151 Goal=   None    Shift=    0.000
 RMSDP=1.58D-08 MaxDP=7.95D-07 DE= 7.73D-11 OVMax= 3.02D-07

 Cycle   3  Pass 1  IDiag  1:
 RMSU=  1.33D-08    CP:  1.00D+00  1.02D+00
 E= -847.003738666746     Delta-E=        0.000000000146 Rises=F Damp=F
 DIIS: error= 2.51D-08 at cycle   3 NSaved=   3.
 NSaved= 3 IEnMin= 1 EnMin= -847.003738666969     IErMin= 2 ErrMin= 1.42D-08
 ErrMax= 2.51D-08  0.00D+00 EMaxC= 1.00D-01 BMatC= 5.05D-13 BMatP= 2.13D-13
 IDIUse=1 WtCom= 1.00D+00 WtEn= 0.00D+00
 Coeff-Com: -0.107D-01 0.616D+00 0.395D+00
 Coeff:     -0.107D-01 0.616D+00 0.395D+00
 Gap=     0.151 Goal=   None    Shift=    0.000
 RMSDP=1.03D-08 MaxDP=4.21D-07 DE= 1.46D-10 OVMax= 2.17D-07

 Cycle   4  Pass 1  IDiag  1:
 RMSU=  5.81D-09    CP:  1.00D+00  1.02D+00  3.87D-01
 E= -847.003738666867     Delta-E=       -0.000000000121 Rises=F Damp=F
 DIIS: error= 8.06D-09 at cycle   4 NSaved=   4.
 NSaved= 4 IEnMin= 1 EnMin= -847.003738666969     IErMin= 4 ErrMin= 8.06D-09
 ErrMax= 8.06D-09  0.00D+00 EMaxC= 1.00D-01 BMatC= 2.06D-14 BMatP= 2.13D-13
 IDIUse=1 WtCom= 1.00D+00 WtEn= 0.00D+00
 Coeff-Com: -0.876D-02 0.309D+00 0.241D+00 0.459D+00
 Coeff:     -0.876D-02 0.309D+00 0.241D+00 0.459D+00
 Gap=     0.151 Goal=   None    Shift=    0.000
 RMSDP=4.08D-09 MaxDP=1.55D-07 DE=-1.21D-10 OVMax= 6.88D-08

 SCF Done:  E(RB3LYP) =  -847.003738667     A.U. after    4 cycles
            NFock=  4  Conv=0.41D-08     -V/T= 2.0049
 KE= 8.428349970566D+02 PE=-5.164192584015D+03 EE= 1.874438221195D+03
 Leave Link  502 at Tue Sep 15 14:19:50 2020, MaxMem=   131072000 cpu:       771.5
 (Enter /share/programs/GAUSSIAN/64/g09/l801.exe)
 DoSCS=F DFT=T ScalE2(SS,OS)=  1.000000  1.000000
 Range of M.O.s used for correlation:     1   557
 NBasis=   568 NAE=    73 NBE=    73 NFC=     0 NFV=     0
 NROrb=    557 NOA=    73 NOB=    73 NVA=   484 NVB=   484

 **** Warning!!: The largest alpha MO coefficient is  0.14271945D+03

 Leave Link  801 at Tue Sep 15 14:19:51 2020, MaxMem=   131072000 cpu:         0.2
 (Enter /share/programs/GAUSSIAN/64/g09/l1002.exe)
 Minotr:  Closed shell wavefunction.
          Direct CPHF calculation.
          Differentiating once with respect to magnetic field using GIAOs.
          Electric field/nuclear overlap derivatives assumed to be zero.
          Requested convergence is 1.0D-08 RMS, and 1.0D-07 maximum.
          Secondary convergence is 1.0D-12 RMS, and 1.0D-12 maximum.
          NewPWx=T KeepS1=F KeepF1=F KeepIn=T MapXYZ=F SortEE=F KeepMc=T.
          MDV=     131069551 using IRadAn=       2.
 Generate precomputed XC quadrature information.
          Solving linear equations simultaneously, MaxMat=      72.
 FoFCou: FMM=F IPFlag=           0 FMFlag=      100000 FMFlg1=        2001
         NFxFlg=           0 DoJE=F BraDBF=F KetDBF=T FulRan=T
         wScrn=  0.000000 ICntrl=    6100 IOpCl=  0 I1Cent=           7 NGrid=         236
         NMat0=    1 NMatS0=      1 NMatT0=    0 NMatD0=    1 NMtDS0=    0 NMtDT0=    0
 Symmetry not used in FoFCou.
 FoFJK:  IHMeth= 1 ICntrl=    6127 DoSepK=F KAlg= 0 I1Cent=   0 FoldK=F
 IRaf=         1 NMat=   1 IRICut=       1 DoRegI=T DoRafI=F ISym2E= 0.
          There are     3 degrees of freedom in the 1st order CPHF.  IDoFFX=0 NUNeed=     3.
      3 vectors produced by pass  0 Test12= 1.18D-12 3.33D-08 XBig12= 1.96D+03 8.77D+00.
 AX will form     3 AO Fock derivatives at one time.
      3 vectors produced by pass  1 Test12= 1.18D-12 3.33D-08 XBig12= 3.18D+00 7.58D-01.
      3 vectors produced by pass  2 Test12= 1.18D-12 3.33D-08 XBig12= 1.86D-02 5.85D-02.
      3 vectors produced by pass  3 Test12= 1.18D-12 3.33D-08 XBig12= 4.29D-05 1.35D-03.
      3 vectors produced by pass  4 Test12= 1.18D-12 3.33D-08 XBig12= 9.75D-08 7.22D-05.
      3 vectors produced by pass  5 Test12= 1.18D-12 3.33D-08 XBig12= 3.97D-10 5.92D-06.
      3 vectors produced by pass  6 Test12= 1.18D-12 3.33D-08 XBig12= 1.51D-12 4.40D-07.
 InvSVY:  IOpt=1 It=  1 EMax= 2.13D-14
 Solved reduced A of dimension    21 with     3 vectors.
 Calculating GIAO nuclear magnetic shielding tensors.
 SCF GIAO Magnetic shielding tensor (ppm):
      1  C    Isotropic =    49.6861   Anisotropy =   149.7970
   XX=    46.3088   YX=   -25.0950   ZX=    31.4786
   XY=   -31.1109   YY=   -39.0339   ZY=    13.2621
   XZ=    24.9178   YZ=     8.9888   ZZ=   141.7833
   Eigenvalues:   -49.3507    48.8581   149.5507
      2  C    Isotropic =    49.6861   Anisotropy =   149.7971
   XX=    46.3088   YX=    25.0953   ZX=    31.4786
   XY=    31.1111   YY=   -39.0339   ZY=   -13.2621
   XZ=    24.9177   YZ=    -8.9889   ZZ=   141.7834
   Eigenvalues:   -49.3508    48.8583   149.5509
      3  C    Isotropic =    44.4899   Anisotropy =   204.7372
   XX=   -22.2199   YX=    10.8075   ZX=    51.2710
   XY=     4.9259   YY=   -14.7126   ZY=    14.7921
   XZ=    32.3655   YZ=    21.2392   ZZ=   170.4022
   Eigenvalues:   -31.9593   -15.5523   180.9814
      4  C    Isotropic =    44.4899   Anisotropy =   204.7373
   XX=   -22.2198   YX=   -10.8075   ZX=    51.2710
   XY=    -4.9256   YY=   -14.7126   ZY=   -14.7922
   XZ=    32.3656   YZ=   -21.2393   ZZ=   170.4023
   Eigenvalues:   -31.9592   -15.5524   180.9815
      5  C    Isotropic =    48.5420   Anisotropy =   189.5490
   XX=   -14.6790   YX=     4.7342   ZX=     8.4333
   XY=    20.3759   YY=    -5.5375   ZY=    31.5121
   XZ=    65.1218   YZ=     0.8640   ZZ=   165.8426
   Eigenvalues:   -26.3226    -2.9593   174.9080
      6  C    Isotropic =    48.5421   Anisotropy =   189.5489
   XX=   -14.6789   YX=    -4.7340   ZX=     8.4335
   XY=   -20.3758   YY=    -5.5374   ZY=   -31.5121
   XZ=    65.1218   YZ=    -0.8638   ZZ=   165.8426
   Eigenvalues:   -26.3224    -2.9594   174.9080
      7  C    Isotropic =    50.1907   Anisotropy =   149.2089
   XX=    19.7303   YX=   -44.2755   ZX=    41.2886
   XY=   -38.0437   YY=    -2.7069   ZY=    36.9011
   XZ=    36.5866   YZ=    37.5458   ZZ=   133.5487
   Eigenvalues:   -49.6656    50.5744   149.6633
      8  C    Isotropic =    48.9362   Anisotropy =   152.4339
   XX=   -31.5093   YX=   -11.4921   ZX=    54.7730
   XY=   -19.0468   YY=    46.5898   ZY=    27.5522
   XZ=    42.2451   YZ=    29.8391   ZZ=   131.7282
   Eigenvalues:   -50.1461    46.3960   150.5589
      9  C    Isotropic =    44.4204   Anisotropy =   209.3981
   XX=   -10.1987   YX=    16.7536   ZX=    44.4888
   XY=     8.9342   YY=    -7.7270   ZY=    61.4651
   XZ=    43.3269   YZ=    64.9792   ZZ=   151.1869
   Eigenvalues:   -30.3689   -20.3891   184.0192
     10  C    Isotropic =    45.3894   Anisotropy =   198.3236
   XX=    -5.9706   YX=    23.3819   ZX=    35.6519
   XY=    38.1954   YY=     1.7271   ZY=    73.1370
   XZ=    54.0013   YZ=    45.7045   ZZ=   140.4116
   Eigenvalues:   -33.5315    -7.9055   177.6051
     11  H    Isotropic =    23.8179   Anisotropy =     7.5674
   XX=    27.2191   YX=    -1.9090   ZX=    -2.2602
   XY=    -1.7961   YY=    24.8722   ZY=    -0.1966
   XZ=    -3.3763   YZ=    -0.1950   ZZ=    19.3625
   Eigenvalues:    18.3647    24.2263    28.8628
     12  H    Isotropic =    23.8179   Anisotropy =     7.5674
   XX=    27.2191   YX=     1.9090   ZX=    -2.2602
   XY=     1.7961   YY=    24.8722   ZY=     0.1966
   XZ=    -3.3763   YZ=     0.1950   ZZ=    19.3625
   Eigenvalues:    18.3647    24.2263    28.8628
     13  H    Isotropic =    23.8548   Anisotropy =     7.5124
[...]
   126  Bq   0.000000
   127  Bq   0.000000
   128  Bq   0.000000
   129  Bq   0.000000
   130  Bq   0.000000
   131  Bq   0.000000
   132  Bq   0.000000
   133  Bq   0.000000
   134  Bq   0.000000
   135  Bq   0.000000
   136  Bq   0.000000
   137  Bq   0.000000
   138  Bq   0.000000
   139  Bq   0.000000
   140  Bq   0.000000
   141  Bq   0.000000
   142  Bq   0.000000
   143  Bq   0.000000
   144  Bq   0.000000
   145  Bq   0.000000
   146  Bq   0.000000
   147  Bq   0.000000
   148  Bq   0.000000
   149  Bq   0.000000
   150  Bq   0.000000
   151  Bq   0.000000
   152  Bq   0.000000
   153  Bq   0.000000
   154  Bq   0.000000
   155  Bq   0.000000
   156  Bq   0.000000
   157  Bq   0.000000
   158  Bq   0.000000
   159  Bq   0.000000
   160  Bq   0.000000
   161  Bq   0.000000
   162  Bq   0.000000
   163  Bq   0.000000
   164  Bq   0.000000
   165  Bq   0.000000
   166  Bq   0.000000
   167  Bq   0.000000
   168  Bq   0.000000
   169  Bq   0.000000
   170  Bq   0.000000
   171  Bq   0.000000
   172  Bq   0.000000
   173  Bq   0.000000
   174  Bq   0.000000
   175  Bq   0.000000
   176  Bq   0.000000
   177  Bq   0.000000
   178  Bq   0.000000
   179  Bq   0.000000
   180  Bq   0.000000
   181  Bq   0.000000
   182  Bq   0.000000
   183  Bq   0.000000
   184  Bq   0.000000
   185  Bq   0.000000
   186  Bq   0.000000
   187  Bq   0.000000
   188  Bq   0.000000
   189  Bq   0.000000
   190  Bq   0.000000
   191  Bq   0.000000
   192  Bq   0.000000
   193  Bq   0.000000
   194  Bq   0.000000
   195  Bq   0.000000
   196  Bq   0.000000
   197  Bq   0.000000
   198  Bq   0.000000
   199  Bq   0.000000
   200  Bq   0.000000
   201  Bq   0.000000
   202  Bq   0.000000
   203  Bq   0.000000
   204  Bq   0.000000
   205  Bq   0.000000
   206  Bq   0.000000
   207  Bq   0.000000
   208  Bq   0.000000
   209  Bq   0.000000
   210  Bq   0.000000
   211  Bq   0.000000
   212  Bq   0.000000
   213  Bq   0.000000
   214  Bq   0.000000
   215  Bq   0.000000
   216  Bq   0.000000
   217  Bq   0.000000
   218  Bq   0.000000
   219  Bq   0.000000
   220  Bq   0.000000
   221  Bq   0.000000
   222  Bq   0.000000
   223  Bq   0.000000
   224  Bq   0.000000
   225  Bq   0.000000
   226  Bq   0.000000
   227  Bq   0.000000
   228  Bq   0.000000
   229  Bq   0.000000
   230  Bq   0.000000
   231  Bq   0.000000
   232  Bq   0.000000
   233  Bq   0.000000
   234  Bq   0.000000
   235  Bq   0.000000
   236  Bq   0.000000
 Sum of Mulliken charges =   0.00000
 Mulliken charges with hydrogens summed into heavy atoms:
               1
     1  C   -0.262865
     2  C   -0.262866
     3  C    0.737923
     4  C    0.737922
     5  C   -0.039994
     6  C   -0.040001
     7  C    0.075155
     8  C   -0.330147
     9  C    0.780501
    10  C   -0.200782
    15  C    0.249272
    16  C   -0.533462
    17  C   -0.189404
    18  C   -0.286191
    23  C   -0.330145
    24  C    0.075154
    25  C    0.780496
    26  C   -0.200782
    27  C    0.249273
    28  C   -0.286192
    29  C   -0.189403
    30  C   -0.533462
    37  Bq   0.000000
    38  Bq   0.000000
    39  Bq   0.000000
    40  Bq   0.000000
    41  Bq   0.000000
    42  Bq   0.000000
    43  Bq   0.000000
    44  Bq   0.000000
    45  Bq   0.000000
    46  Bq   0.000000
    47  Bq   0.000000
    48  Bq   0.000000
    49  Bq   0.000000
    50  Bq   0.000000
    51  Bq   0.000000
    52  Bq   0.000000
    53  Bq   0.000000
    54  Bq   0.000000
    55  Bq   0.000000
    56  Bq   0.000000
    57  Bq   0.000000
    58  Bq   0.000000
    59  Bq   0.000000
    60  Bq   0.000000
    61  Bq   0.000000
    62  Bq   0.000000
    63  Bq   0.000000
    64  Bq   0.000000
    65  Bq   0.000000
    66  Bq   0.000000
    67  Bq   0.000000
    68  Bq   0.000000
    69  Bq   0.000000
    70  Bq   0.000000
    71  Bq   0.000000
    72  Bq   0.000000
    73  Bq   0.000000
    74  Bq   0.000000
    75  Bq   0.000000
    76  Bq   0.000000
    77  Bq   0.000000
    78  Bq   0.000000
    79  Bq   0.000000
    80  Bq   0.000000
    81  Bq   0.000000
    82  Bq   0.000000
    83  Bq   0.000000
    84  Bq   0.000000
    85  Bq   0.000000
    86  Bq   0.000000
    87  Bq   0.000000
    88  Bq   0.000000
    89  Bq   0.000000
    90  Bq   0.000000
    91  Bq   0.000000
    92  Bq   0.000000
    93  Bq   0.000000
    94  Bq   0.000000
    95  Bq   0.000000
    96  Bq   0.000000
    97  Bq   0.000000
    98  Bq   0.000000
    99  Bq   0.000000
   100  Bq   0.000000
   101  Bq   0.000000
   102  Bq   0.000000
   103  Bq   0.000000
   104  Bq   0.000000
   105  Bq   0.000000
   106  Bq   0.000000
   107  Bq   0.000000
   108  Bq   0.000000
   109  Bq   0.000000
   110  Bq   0.000000
   111  Bq   0.000000
   112  Bq   0.000000
   113  Bq   0.000000
   114  Bq   0.000000
   115  Bq   0.000000
   116  Bq   0.000000
   117  Bq   0.000000
   118  Bq   0.000000
   119  Bq   0.000000
   120  Bq   0.000000
   121  Bq   0.000000
   122  Bq   0.000000
   123  Bq   0.000000
   124  Bq   0.000000
   125  Bq   0.000000
   126  Bq   0.000000
   127  Bq   0.000000
   128  Bq   0.000000
   129  Bq   0.000000
   130  Bq   0.000000
   131  Bq   0.000000
   132  Bq   0.000000
   133  Bq   0.000000
   134  Bq   0.000000
   135  Bq   0.000000
   136  Bq   0.000000
   137  Bq   0.000000
   138  Bq   0.000000
   139  Bq   0.000000
   140  Bq   0.000000
   141  Bq   0.000000
   142  Bq   0.000000
   143  Bq   0.000000
   144  Bq   0.000000
   145  Bq   0.000000
   146  Bq   0.000000
   147  Bq   0.000000
   148  Bq   0.000000
   149  Bq   0.000000
   150  Bq   0.000000
   151  Bq   0.000000
   152  Bq   0.000000
   153  Bq   0.000000
   154  Bq   0.000000
   155  Bq   0.000000
   156  Bq   0.000000
   157  Bq   0.000000
   158  Bq   0.000000
   159  Bq   0.000000
   160  Bq   0.000000
   161  Bq   0.000000
   162  Bq   0.000000
   163  Bq   0.000000
   164  Bq   0.000000
   165  Bq   0.000000
   166  Bq   0.000000
   167  Bq   0.000000
   168  Bq   0.000000
   169  Bq   0.000000
   170  Bq   0.000000
   171  Bq   0.000000
   172  Bq   0.000000
   173  Bq   0.000000
   174  Bq   0.000000
   175  Bq   0.000000
   176  Bq   0.000000
   177  Bq   0.000000
   178  Bq   0.000000
   179  Bq   0.000000
   180  Bq   0.000000
   181  Bq   0.000000
   182  Bq   0.000000
   183  Bq   0.000000
   184  Bq   0.000000
   185  Bq   0.000000
   186  Bq   0.000000
   187  Bq   0.000000
   188  Bq   0.000000
   189  Bq   0.000000
   190  Bq   0.000000
   191  Bq   0.000000
   192  Bq   0.000000
   193  Bq   0.000000
   194  Bq   0.000000
   195  Bq   0.000000
   196  Bq   0.000000
   197  Bq   0.000000
   198  Bq   0.000000
   199  Bq   0.000000
   200  Bq   0.000000
   201  Bq   0.000000
   202  Bq   0.000000
   203  Bq   0.000000
   204  Bq   0.000000
   205  Bq   0.000000
   206  Bq   0.000000
   207  Bq   0.000000
   208  Bq   0.000000
   209  Bq   0.000000
   210  Bq   0.000000
   211  Bq   0.000000
   212  Bq   0.000000
   213  Bq   0.000000
   214  Bq   0.000000
   215  Bq   0.000000
   216  Bq   0.000000
   217  Bq   0.000000
   218  Bq   0.000000
   219  Bq   0.000000
   220  Bq   0.000000
   221  Bq   0.000000
   222  Bq   0.000000
   223  Bq   0.000000
   224  Bq   0.000000
   225  Bq   0.000000
   226  Bq   0.000000
   227  Bq   0.000000
   228  Bq   0.000000
   229  Bq   0.000000
   230  Bq   0.000000
   231  Bq   0.000000
   232  Bq   0.000000
   233  Bq   0.000000
   234  Bq   0.000000
   235  Bq   0.000000
   236  Bq   0.000000
 Electronic spatial extent (au):  <R**2>=           5804.3227
 Charge=              0.0000 electrons
 Dipole moment (field-independent basis, Debye):
    X=              0.0000    Y=              0.0732    Z=              0.0000  Tot=              0.0732
 Quadrupole moment (field-independent basis, Debye-Ang):
   XX=           -113.9137   YY=           -113.9781   ZZ=           -133.4378
   XY=              0.0000   XZ=             -4.8717   YZ=              0.0000
 Traceless Quadrupole moment (field-independent basis, Debye-Ang):
   XX=              6.5295   YY=              6.4651   ZZ=            -12.9946
   XY=              0.0000   XZ=             -4.8717   YZ=              0.0000
 Octapole moment (field-independent basis, Debye-Ang**2):
  XXX=              0.0000  YYY=             11.7108  ZZZ=              0.0000  XYY=              0.0000
  XXY=             -6.4067  XXZ=              0.0000  XZZ=              0.0000  YZZ=             -7.8695
  YYZ=              0.0000  XYZ=            -16.2862
 Hexadecapole moment (field-independent basis, Debye-Ang**3):
 XXXX=          -4416.4021 YYYY=          -2784.9756 ZZZZ=           -481.5690 XXXY=              0.0001
 XXXZ=           -124.3517 YYYX=             -0.0003 YYYZ=              0.0001 ZZZX=             -4.4782
 ZZZY=              0.0001 XXYY=          -1189.3576 XXZZ=           -942.9016 YYZZ=           -589.4012
 XXYZ=              0.0000 YYXZ=              7.8297 ZZXY=             -0.0001
 N-N= 1.599915627097D+03 E-N=-5.164192587538D+03  KE= 8.428349970566D+02
 Leave Link  601 at Tue Sep 15 14:27:31 2020, MaxMem=   131072000 cpu:         0.6
 (Enter /share/programs/GAUSSIAN/64/g09/l9999.exe)
 1\1\GINC-MUHKA\SP\RB3LYP\6-311+G(d,p)\C22H14\AARTIGAS\15-Sep-2020\0\\#
 P rb3lyp/6-311+g** NMR Guess=Read geom=connectivity\\Title\\0,1\C,0,0.
 653241,3.257859,-0.20251\C,0,-0.653243,3.25786,0.20251\C,0,1.372495,2.
 032956,-0.320807\C,0,-1.372495,2.032956,0.320807\C,0,0.722474,0.795666
 ,-0.050388\C,0,-0.722474,0.795667,0.050387\C,0,2.760385,2.053927,-0.67
 4268\C,0,3.508866,0.913916,-0.671362\C,0,2.955226,-0.309622,-0.177479\
 C,0,1.574722,-0.361114,0.197094\H,0,1.183427,4.19574,-0.384599\H,0,-1.
 183429,4.19574,0.384599\H,0,3.206283,3.012423,-0.951392\H,0,4.560023,0
 .932956,-0.969333\C,0,3.78302,-1.443098,0.028309\C,0,1.137427,-1.50753
 3,0.912109\C,0,1.973691,-2.584349,1.138062\C,0,3.301853,-2.571588,0.66
 1177\H,0,4.825754,-1.39123,-0.295484\H,0,0.124652,-1.532788,1.308472\H
 ,0,1.603586,-3.445682,1.698977\H,0,3.952742,-3.433526,0.825134\C,0,-3.
 508866,0.913915,0.671362\C,0,-2.760386,2.053926,0.674268\C,0,-2.955226
 ,-0.309623,0.177479\C,0,-1.574722,-0.361114,-0.197094\C,0,-3.78302,-1.
 443099,-0.028309\C,0,-3.301852,-2.571589,-0.661177\C,0,-1.97369,-2.584
 349,-1.138061\C,0,-1.137426,-1.507534,-0.912109\H,0,-4.560022,0.932954
 ,0.969334\H,0,-3.206283,3.012421,0.951392\H,0,-4.825754,-1.391232,0.29
 5484\H,0,-3.952741,-3.433528,-0.825134\H,0,-1.603585,-3.445682,-1.6989
 76\H,0,-0.124652,-1.532788,-1.308471\Bq,0,1.9576862838,1.1857017407,0.
 6410111992\Bq,0,1.9160650869,1.157891346,0.6410111992\Bq,0,1.878429949
 9,1.1248862167,0.6410111992\Bq,0,1.8454248207,1.0872510798,0.641011199
 2\Bq,0,1.817614426,1.0456298828,0.6410111992\Bq,0,1.7954746094,1.00073
 47761,0.6410111992\Bq,0,1.7793841894,0.9533339272,0.6410111992\Bq,0,1.
 7696184774,0.9042383779,0.6410111992\Bq,0,1.7663445676,0.8542881667,0.
 6410111992\Bq,0,1.7696184774,0.8043379554,0.6410111992\Bq,0,1.77938418
 94,0.7552424061,0.6410111992\Bq,0,1.7954746094,0.7078415573,0.64101119
 92\Bq,0,1.817614426,0.6629464505,0.6410111992\Bq,0,1.8454248207,0.6213
 252535,0.6410111992\Bq,0,1.8784299499,0.5836901166,0.6410111992\Bq,0,1
 .9160650869,0.5506849873,0.6410111992\Bq,0,1.9576862838,0.5228745926,0
 .6410111992\Bq,0,2.0025813906,0.5007347761,0.6410111992\Bq,0,2.0499822
 395,0.4846443561,0.6410111992\Bq,0,2.0990777887,0.4748786441,0.6410111
 992\Bq,0,2.149028,0.4716047343,0.6410111992\Bq,0,2.1989782113,0.474878
 6441,0.6410111992\Bq,0,2.2480737605,0.4846443561,0.6410111992\Bq,0,2.2
 954746094,0.5007347761,0.6410111992\Bq,0,2.3403697162,0.5228745926,0.6
 410111992\Bq,0,2.3819909131,0.5506849873,0.6410111992\Bq,0,2.419626050
 1,0.5836901166,0.6410111992\Bq,0,2.4526311793,0.6213252535,0.641011199
 2\Bq,0,2.480441574,0.6629464505,0.6410111992\Bq,0,2.5025813906,0.70784
 15573,0.6410111992\Bq,0,2.5186718106,0.7552424061,0.6410111992\Bq,0,2.
 5284375226,0.8043379554,0.6410111992\Bq,0,2.649028,0.8542881667,0.5831
 570705\Bq,0,2.6447504307,0.9195512628,0.5831570705\Bq,0,2.6319909131,0
 .9836976892,0.5831570705\Bq,0,2.6109677663,1.0456298828,0.5831570705\B
 q,0,2.5820407019,1.1042881667,0.5831570705\Bq,0,2.5457046701,1.1586688
 812,0.5831570705\Bq,0,2.5025813906,1.2078415573,0.5831570705\Bq,0,2.45
 34087145,1.2509648368,0.5831570705\Bq,0,2.399028,1.2873008686,0.583157
 0705\Bq,0,2.3403697162,1.3162279329,0.5831570705\Bq,0,2.2784375226,1.3
 372510798,0.5831570705\Bq,0,2.2142910961,1.3500105974,0.5831570705\Bq,
 0,2.149028,1.3542881667,0.5831570705\Bq,0,2.0837649039,1.3500105974,0.
 5831570705\Bq,0,2.0196184774,1.3372510798,0.5831570705\Bq,0,1.95768628
 38,1.3162279329,0.5831570705\Bq,0,1.899028,1.2873008686,0.5831570705\B
 q,0,1.8446472855,1.2509648368,0.5831570705\Bq,0,1.7954746094,1.2078415
 573,0.5831570705\Bq,0,1.7523513299,1.1586688812,0.5831570705\Bq,0,1.71
 60152981,1.1042881667,0.5831570705\Bq,0,1.6870882337,1.0456298828,0.58
 31570705\Bq,0,1.6660650869,0.9836976892,0.5831570705\Bq,0,1.6533055693
 ,0.9195512628,0.5831570705\Bq,0,1.649028,0.8542881667,0.5831570705\Bq,
 0,1.6533055693,0.7890250706,0.5831570705\Bq,0,1.6660650869,0.724878644
 1,0.5831570705\Bq,0,1.6870882337,0.6629464505,0.5831570705\Bq,0,1.7160
 152981,0.6042881667,0.5831570705\Bq,0,1.7523513299,0.5499074522,0.5831
 570705\Bq,0,2.2142910961,0.358565736,0.5831570705\Bq,0,2.2784375226,0.
 3713252535,0.5831570705\Bq,0,2.3403697162,0.3923484004,0.5831570705\Bq
 ,0,2.399028,0.4212754648,0.5831570705\Bq,0,2.4534087145,0.4576114965,0
 .5831570705\Bq,0,2.5025813906,0.5007347761,0.5831570705\Bq,0,2.5457046
 701,0.5499074522,0.5831570705\Bq,0,2.5820407019,0.6042881667,0.5831570
 705\Bq,0,2.6109677663,0.6629464505,0.5831570705\Bq,0,2.6319909131,0.72
 48786441,0.5831570705\Bq,0,2.6447504307,0.7890250706,0.5831570705\Bq,0
 ,2.757789429,0.8542881667,0.510485007\Bq,0,2.7525813906,0.933747478,0.
 510485007\Bq,0,2.7370463863,1.0118472184,0.510485007\Bq,0,2.7114502244
 ,1.0872510798,0.510485007\Bq,0,2.6762308624,1.1586688812,0.510485007\B
 q,0,2.6319909131,1.2248786441,0.510485007\Bq,0,2.5794873346,1.28474750
 12,0.510485007\Bq,0,2.5196184774,1.3372510798,0.510485007\Bq,0,2.45340
 87145,1.381491029,0.510485007\Bq,0,2.3819909131,1.4167103911,0.5104850
 07\Bq,0,2.3065870518,1.442306553,0.510485007\Bq,0,2.2284873113,1.45784
 15573,0.510485007\Bq,0,2.149028,1.4630495957,0.510485007\Bq,0,2.069568
 6887,1.4578415573,0.510485007\Bq,0,1.9914689482,1.442306553,0.51048500
 7\Bq,0,1.9160650869,1.4167103911,0.510485007\Bq,0,1.8446472855,1.38149
 1029,0.510485007\Bq,0,1.7784375226,1.3372510798,0.510485007\Bq,0,1.718
 5686654,1.2847475012,0.510485007\Bq,0,1.6660650869,1.2248786441,0.5104
 85007\Bq,0,1.6218251376,1.1586688812,0.510485007\Bq,0,1.5866057756,1.0
 872510798,0.510485007\Bq,0,1.5610096137,1.0118472184,0.510485007\Bq,0,
 1.5454746094,0.933747478,0.510485007\Bq,0,1.5610096137,0.6967291149,0.
 510485007\Bq,0,1.5866057756,0.6213252535,0.510485007\Bq,0,2.3065870518
 ,0.2662697803,0.510485007\Bq,0,2.3819909131,0.2918659422,0.510485007\B
 q,0,2.4534087145,0.3270853043,0.510485007\Bq,0,2.5196184774,0.37132525
 35,0.510485007\Bq,0,2.5794873346,0.4238288321,0.510485007\Bq,0,2.63199
 09131,0.4836976892,0.510485007\Bq,0,2.6762308624,0.5499074522,0.510485
 007\Bq,0,2.7114502244,0.6213252535,0.510485007\Bq,0,2.7370463863,0.696
 7291149,0.510485007\Bq,0,2.7525813906,0.7748288554,0.510485007\Bq,0,2.
 8561347812,0.8542881667,0.4242384479\Bq,0,2.8500853846,0.9465841223,0.
 4242384479\Bq,0,2.8320407019,1.0373008686,0.4242384479\Bq,0,2.80230948
 24,1.1248862167,0.4242384479\Bq,0,2.7614004357,1.2078415573,0.42423844
 79\Bq,0,2.7100135268,1.2847475012,0.4242384479\Bq,0,2.649028,1.3542881
 667,0.4242384479\Bq,0,2.5794873346,1.4152736935,0.4242384479\Bq,0,2.50
 25813906,1.4666606024,0.4242384479\Bq,0,2.4196260501,1.5075696491,0.42
 42384479\Bq,0,2.3320407019,1.5373008686,0.4242384479\Bq,0,2.2413239556
 ,1.5553455513,0.4242384479\Bq,0,2.149028,1.5613949479,0.4242384479\Bq,
 0,2.0567320444,1.5553455513,0.4242384479\Bq,0,1.9660152981,1.537300868
 6,0.4242384479\Bq,0,1.8784299499,1.5075696491,0.4242384479\Bq,0,1.7954
 746094,1.4666606024,0.4242384479\Bq,0,1.7185686654,1.4152736935,0.4242
 384479\Bq,0,1.649028,1.3542881667,0.4242384479\Bq,0,1.5880424732,1.284
 7475012,0.4242384479\Bq,0,1.5366555643,1.2078415573,0.4242384479\Bq,0,
 2.7614004357,0.5007347761,0.4242384479\Bq,0,2.8023094824,0.5836901166,
 0.4242384479\Bq,0,2.8320407019,0.6712754648,0.4242384479\Bq,0,2.850085
 3846,0.761992211,0.4242384479\Bq,0,2.9423813403,0.8542881667,0.3258930
 957\Bq,0,2.9355940925,0.9578415573,0.3258930957\Bq,0,2.9153484808,1.05
 96231206,0.3258930957\Bq,0,2.8819909131,1.157891346,0.3258930957\Bq,0,
 2.8360921469,1.2509648368,0.3258930957\Bq,0,2.7784375226,1.3372510798,
 0.3258930957\Bq,0,2.7100135268,1.4152736935,0.3258930957\Bq,0,2.631990
 9131,1.4836976892,0.3258930957\Bq,0,2.5457046701,1.5413523135,0.325893
 0957\Bq,0,2.4526311793,1.5872510798,0.3258930957\Bq,0,2.354362954,1.62
 06086474,0.3258930957\Bq,0,2.2525813906,1.6408542592,0.3258930957\Bq,0
 ,2.149028,1.647641507,0.3258930957\Bq,0,2.0454746094,1.6408542592,0.32
 58930957\Bq,0,2.9153484808,0.6489532127,0.3258930957\Bq,0,2.9355940925
 ,0.7507347761,0.3258930957\Bq,0,3.0150534038,0.8542881667,0.2171316667
 \Bq,0,3.0076444364,0.967327165,0.2171316667\Bq,0,2.9855443037,1.078432
 0347,0.2171316667\Bq,0,2.9491311452,1.1857017407,0.2171316667\Bq,0,2.8
 99028,1.2873008686,0.2171316667\Bq,0,2.8360921469,1.381491029,0.217131
 6667\Bq,0,2.7614004357,1.4666606024,0.2171316667\Bq,0,2.6762308624,1.5
 413523135,0.2171316667\Bq,0,2.5820407019,1.6042881667,0.2171316667\Bq,
 0,2.480441574,1.6543913119,0.2171316667\Bq,0,2.373171868,1.6908044704,
 0.2171316667\Bq,0,2.2620669983,1.7129046031,0.2171316667\Bq,0,2.985544
 3037,0.6301442986,0.2171316667\Bq,0,3.0076444364,0.7412491683,0.217131
 6667\Bq,0,2.9491311452,1.3162279329,0.099815099\Bq,0,2.8819909131,1.41
 67103911,0.099815099\Bq,0,1.4160650869,0.2918659422,-0.6655517657\Bq,0
 ,1.4957465176,0.2010066842,-0.6655517657\Bq,0,2.0284375226,-0.06168744
 84,-0.6655517657\Bq,0,1.3489248548,0.5228745926,-0.7828683333\Bq,0,1.3
 99028,0.4212754648,-0.7828683333\Bq,0,1.4619638531,0.3270853043,-0.782
 8683333\Bq,0,1.5366555643,0.241915731,-0.7828683333\Bq,0,1.6218251376,
 0.1672240198,-0.7828683333\Bq,0,1.7160152981,0.1042881667,-0.782868333
 3\Bq,0,1.817614426,0.0541850215,-0.7828683333\Bq,0,1.924884132,0.01777
 18629,-0.7828683333\Bq,0,2.0359890017,-0.0043282697,-0.7828683333\Bq,0
 ,2.149028,-0.0117372371,-0.7828683333\Bq,0,1.4160650869,1.157891346,-0
 .8916297623\Bq,0,1.3827075192,1.0596231206,-0.8916297623\Bq,0,1.362461
 9075,0.9578415573,-0.8916297623\Bq,0,1.3556746597,0.8542881667,-0.8916
 297623\Bq,0,1.3624619075,0.7507347761,-0.8916297623\Bq,0,1.3827075192,
 0.6489532127,-0.8916297623\Bq,0,1.4160650869,0.5506849873,-0.891629762
 3\Bq,0,1.4619638531,0.4576114965,-0.8916297623\Bq,0,1.5196184774,0.371
 3252535,-0.8916297623\Bq,0,1.5880424732,0.2933026399,-0.8916297623\Bq,
 0,1.6660650869,0.2248786441,-0.8916297623\Bq,0,1.7523513299,0.16722401
 98,-0.8916297623\Bq,0,1.8454248207,0.1213252535,-0.8916297623\Bq,0,1.9
 43693046,0.0879676859,-0.8916297623\Bq,0,2.0454746094,0.0677220742,-0.
 8916297623\Bq,0,2.149028,0.0609348264,-0.8916297623\Bq,0,2.2525813906,
 0.0677220742,-0.8916297623\Bq,0,2.354362954,0.0879676859,-0.8916297623
 \Bq,0,1.5880424732,1.2847475012,-0.9899751145\Bq,0,1.5366555643,1.2078
 415573,-0.9899751145\Bq,0,1.4957465176,1.1248862167,-0.9899751145\\Ver
 sion=ES64L-G09RevD.01\HF=-847.0037387\RMSD=4.081e-09\Dipole=0.0000004,
 0.0287843,0.0000009\Quadrupole=4.8545288,4.8066247,-9.6611535,-0.00000
 47,-3.6219991,-0.000002\PG=C01 [X(C22H14)]\\@


 WE STILL HAVE JUDGEMENT HERE,
 THAT WE TEACH BUT BLOODY INSTRUCTIONS,
 WHICH, BEING TAUGHT,
 RETURN TO PLAGUE THE INVENTOR.
           MACBETH ACT I, SCENE VII
 Job cpu time:       0 days  1 hours 12 minutes 51.8 seconds.
 File lengths (MBytes):  RWF=    184 Int=      0 D2E=      0 Chk=     21 Scr=      1
 Normal termination of Gaussian 09 at Tue Sep 15 14:27:31 2020.
