 Entering Gaussian System, Link 0=g09
 Input=input_batch_00400.com
 Output=input_batch_00400.log
 Initial command:
 /share/programs/GAUSSIAN/64/g09/l1.exe "/scratch/aartigas.38763/Gau-24609.inp" -scrdir="/scratch/aartigas.38763/"
 Entering Link 1 = /share/programs/GAUSSIAN/64/g09/l1.exe PID=     24620.
  
 Copyright (c) 1988,1990,1992,1993,1995,1998,2003,2009,2013,
            Gaussian, Inc.  All Rights Reserved.
  
 This is part of the Gaussian(R) 09 program.  It is based on
 the Gaussian(R) 03 system (copyright 2003, Gaussian, Inc.),
 the Gaussian(R) 98 system (copyright 1998, Gaussian, Inc.),
 the Gaussian(R) 94 system (copyright 1995, Gaussian, Inc.),
 the Gaussian 92(TM) system (copyright 1992, Gaussian, Inc.),
 the Gaussian 90(TM) system (copyright 1990, Gaussian, Inc.),
 the Gaussian 88(TM) system (copyright 1988, Gaussian, Inc.),
 the Gaussian 86(TM) system (copyright 1986, Carnegie Mellon
 University), and the Gaussian 82(TM) system (copyright 1983,
 Carnegie Mellon University). Gaussian is a federally registered
 trademark of Gaussian, Inc.
  
 This software contains proprietary and confidential information,
 including trade secrets, belonging to Gaussian, Inc.
  
 This software is provided under written license and may be
 used, copied, transmitted, or stored only in accord with that
 written license.
  
 The following legend is applicable only to US Government
 contracts under FAR:
  
                    RESTRICTED RIGHTS LEGEND
  
 Use, reproduction and disclosure by the US Government is
 subject to restrictions as set forth in subparagraphs (a)
 and (c) of the Commercial Computer Software - Restricted
 Rights clause in FAR 52.227-19.
  
 Gaussian, Inc.
 340 Quinnipiac St., Bldg. 40, Wallingford CT 06492
  
  
 ---------------------------------------------------------------
 Warning -- This program may not be used in any manner that
 competes with the business of Gaussian, Inc. or will provide
 assistance to any competitor of Gaussian, Inc.  The licensee
 of this program is prohibited from giving any competitor of
 Gaussian, Inc. access to this program.  By using this program,
 the user acknowledges that Gaussian, Inc. is engaged in the
 business of creating and licensing software in the field of
 computational chemistry and represents and warrants to the
 licensee that it is not a competitor of Gaussian, Inc. and that
 it will not use this program in any manner prohibited above.
 ---------------------------------------------------------------
  

 Cite this work as:
 Gaussian 09, Revision D.01,
 M. J. Frisch, G. W. Trucks, H. B. Schlegel, G. E. Scuseria, 
 M. A. Robb, J. R. Cheeseman, G. Scalmani, V. Barone, B. Mennucci, 
 G. A. Petersson, H. Nakatsuji, M. Caricato, X. Li, H. P. Hratchian, 
 A. F. Izmaylov, J. Bloino, G. Zheng, J. L. Sonnenberg, M. Hada, 
 M. Ehara, K. Toyota, R. Fukuda, J. Hasegawa, M. Ishida, T. Nakajima, 
 Y. Honda, O. Kitao, H. Nakai, T. Vreven, J. A. Montgomery, Jr., 
 J. E. Peralta, F. Ogliaro, M. Bearpark, J. J. Heyd, E. Brothers, 
 K. N. Kudin, V. N. Staroverov, T. Keith, R. Kobayashi, J. Normand, 
 K. Raghavachari, A. Rendell, J. C. Burant, S. S. Iyengar, J. Tomasi, 
 M. Cossi, N. Rega, J. M. Millam, M. Klene, J. E. Knox, J. B. Cross, 
 V. Bakken, C. Adamo, J. Jaramillo, R. Gomperts, R. E. Stratmann, 
 O. Yazyev, A. J. Austin, R. Cammi, C. Pomelli, J. W. Ochterski, 
 R. L. Martin, K. Morokuma, V. G. Zakrzewski, G. A. Voth, 
 P. Salvador, J. J. Dannenberg, S. Dapprich, A. D. Daniels, 
 O. Farkas, J. B. Foresman, J. V. Ortiz, J. Cioslowski, 
 and D. J. Fox, Gaussian, Inc., Wallingford CT, 2013.
 
 ******************************************
 Gaussian 09:  ES64L-G09RevD.01 24-Apr-2013
                15-Sep-2020 
 ******************************************
 %OldChk=/home/aartigas/chk/5_helicene_spe.chk
 %nproc=8
 Will use up to    8 processors via shared memory.
 %mem=1000MB
 Copying data from "/home/aartigas/chk/5_helicene_spe.chk" to current chk file "/scratch/aartigas.38763/Gau-24620.chk".
 ----------------------------------------------------
 #P rb3lyp/6-311+g** NMR Guess=Read geom=connectivity
 ----------------------------------------------------
 1/38=1,57=2/1;
 2/12=2,17=6,18=5,40=1/2;
 3/5=4,6=6,7=111,11=2,16=1,25=1,30=1,74=-5,116=1/1,2,8,3;
 4/5=1/1;
 5/5=2,38=6/2;
 8/6=1,10=90,11=11/1;
 10/13=100,45=16/2;
 6/7=2,8=2,9=2,10=2,28=1/1;
 99/9=1/99;
 Leave Link    1 at Tue Sep 15 10:30:52 2020, MaxMem=   131072000 cpu:         3.1
 (Enter /share/programs/GAUSSIAN/64/g09/l101.exe)
 -----
 Title
 -----
 Symbolic Z-matrix:
 Charge =  0 Multiplicity = 1
 C                     0.65324   3.25786  -0.20251 
 C                    -0.65324   3.25786   0.20251 
 C                     1.3725    2.03296  -0.32081 
 C                    -1.3725    2.03296   0.32081 
 C                     0.72247   0.79567  -0.05039 
 C                    -0.72247   0.79567   0.05039 
 C                     2.76039   2.05393  -0.67427 
 C                     3.50887   0.91392  -0.67136 
 C                     2.95523  -0.30962  -0.17748 
 C                     1.57472  -0.36111   0.19709 
 H                     1.18343   4.19574  -0.3846 
 H                    -1.18343   4.19574   0.3846 
 H                     3.20628   3.01242  -0.95139 
 H                     4.56002   0.93296  -0.96933 
 C                     3.78302  -1.4431    0.02831 
 C                     1.13743  -1.50753   0.91211 
 C                     1.97369  -2.58435   1.13806 
 C                     3.30185  -2.57159   0.66118 
 H                     4.82575  -1.39123  -0.29548 
 H                     0.12465  -1.53279   1.30847 
 H                     1.60359  -3.44568   1.69898 
 H                     3.95274  -3.43353   0.82513 
 C                    -3.50887   0.91392   0.67136 
 C                    -2.76039   2.05393   0.67427 
 C                    -2.95523  -0.30962   0.17748 
 C                    -1.57472  -0.36111  -0.19709 
 C                    -3.78302  -1.4431   -0.02831 
 C                    -3.30185  -2.57159  -0.66118 
 C                    -1.97369  -2.58435  -1.13806 
 C                    -1.13743  -1.50753  -0.91211 
 H                    -4.56002   0.93295   0.96933 
 H                    -3.20628   3.01242   0.95139 
 H                    -4.82575  -1.39123   0.29548 
 H                    -3.95274  -3.43353  -0.82513 
 H                    -1.60359  -3.44568  -1.69898 
 H                    -0.12465  -1.53279  -1.30847 
 Bq                    0.49568   3.46319  -1.16844 
 Bq                    0.47023   3.44087  -1.16844 
 Bq                    0.44791   3.41542  -1.16844 
 Bq                    0.4291    3.38727  -1.16844 
 Bq                    0.41412   3.3569   -1.16844 
 Bq                    0.40324   3.32485  -1.16844 
 Bq                    0.39664   3.29164  -1.16844 
 Bq                    0.39442   3.25786  -1.16844 
 Bq                    0.39664   3.22408  -1.16844 
 Bq                    0.40324   3.19087  -1.16844 
 Bq                    0.41412   3.15881  -1.16844 
 Bq                    0.4291    3.12845  -1.16844 
 Bq                    0.44791   3.1003   -1.16844 
 Bq                    0.47023   3.07485  -1.16844 
 Bq                    0.49568   3.05252  -1.16844 
 Bq                    0.52383   3.03372  -1.16844 
 Bq                    0.5542    3.01874  -1.16844 
 Bq                    0.58625   3.00786  -1.16844 
 Bq                    0.61946   3.00125  -1.16844 
 Bq                    0.65324   2.99904  -1.16844 
 Bq                    0.68702   3.00125  -1.16844 
 Bq                    0.72023   3.00786  -1.16844 
 Bq                    0.75229   3.01874  -1.16844 
 Bq                    0.78265   3.03372  -1.16844 
 Bq                    0.8108    3.05252  -1.16844 
 Bq                    0.83625   3.07485  -1.16844 
 Bq                    0.85858   3.1003   -1.16844 
 Bq                    0.87738   3.12845  -1.16844 
 Bq                    0.89236   3.15881  -1.16844 
 Bq                    0.90324   3.19087  -1.16844 
 Bq                    0.90985   3.22408  -1.16844 
 Bq                    0.78377   3.25786  -1.19395 
 Bq                    0.78265   3.2749   -1.19395 
 Bq                    0.77932   3.29164  -1.19395 
 Bq                    0.77383   3.30781  -1.19395 
 Bq                    0.76628   3.32312  -1.19395 
 Bq                    0.75679   3.33732  -1.19395 
 Bq                    0.74554   3.35015  -1.19395 
 Bq                    0.7327    3.36141  -1.19395 
 Bq                    0.7185    3.3709   -1.19395 
 Bq                    0.70319   3.37845  -1.19395 
 Bq                    0.68702   3.38394  -1.19395 
 Bq                    0.67028   3.38727  -1.19395 
 Bq                    0.65324   3.38839  -1.19395 
 Bq                    0.6362    3.38727  -1.19395 
 Bq                    0.61946   3.38394  -1.19395 
 Bq                    0.60329   3.37845  -1.19395 
 Bq                    0.58798   3.3709   -1.19395 
 Bq                    0.57378   3.36141  -1.19395 
 Bq                    0.56095   3.35015  -1.19395 
 Bq                    0.54969   3.33732  -1.19395 
 Bq                    0.5402    3.32312  -1.19395 
 Bq                    0.53265   3.30781  -1.19395 
 Bq                    0.52716   3.29164  -1.19395 
 Bq                    0.52383   3.2749   -1.19395 
 Bq                    0.52271   3.25786  -1.19395 
 Bq                    0.52383   3.24082  -1.19395 
 Bq                    0.52716   3.22408  -1.19395 
 Bq                    0.53265   3.20791  -1.19395 
 Bq                    0.5402    3.1926   -1.19395 
 Bq                    0.54969   3.1784   -1.19395 
 Bq                    0.56095   3.16556  -1.19395 
 Bq                    0.57378   3.15431  -1.19395 
 Bq                    0.58798   3.14482  -1.19395 
 Bq                    0.60329   3.13727  -1.19395 
 Bq                    0.61946   3.13178  -1.19395 
 Bq                    0.6362    3.12845  -1.19395 
 Bq                    0.65324   3.12733  -1.19395 
 Bq                    0.67028   3.12845  -1.19395 
 Bq                    0.68702   3.13178  -1.19395 
 Bq                    0.70319   3.13727  -1.19395 
 Bq                    0.7185    3.14482  -1.19395 
 Bq                    0.7327    3.15431  -1.19395 
 Bq                    0.74554   3.16556  -1.19395 
 Bq                    0.75679   3.1784   -1.19395 
 Bq                    0.76628   3.1926   -1.19395 
 Bq                    0.77383   3.20791  -1.19395 
 Bq                    0.77932   3.22408  -1.19395 
 Bq                    0.78265   3.24082  -1.19395 
 Bq                   -0.65324   3.25786   1.20251 
 Bq                   -0.65324   3.25786   1.20251 
 Bq                   -0.65324   3.25786   1.20251 
 Bq                   -0.65324   3.25786   1.20251 
 Bq                   -0.65324   3.25786   1.20251 
 Bq                   -0.65324   3.25786   1.20251 
 Bq                   -0.65324   3.25786   1.20251 
 Bq                   -0.65324   3.25786   1.20251 
 Bq                   -0.65324   3.25786   1.20251 
 Bq                   -0.65324   3.25786   1.20251 
 Bq                   -0.65324   3.25786   1.20251 
 Bq                   -0.65324   3.25786   1.20251 
 Bq                   -0.65324   3.25786   1.20251 
 Bq                   -0.65324   3.25786   1.20251 
 Bq                   -0.65324   3.25786   1.20251 
 Bq                   -0.65324   3.25786   1.20251 
 Bq                   -0.65324   3.25786   1.20251 
 Bq                   -0.65324   3.25786   1.20251 
 Bq                   -0.65324   3.25786   1.20251 
 Bq                   -0.65324   3.25786   1.20251 
 Bq                   -0.65324   3.25786   1.20251 
 Bq                   -0.65324   3.25786   1.20251 
 Bq                   -0.65324   3.25786   1.20251 
 Bq                   -0.65324   3.25786   1.20251 
 Bq                   -0.65324   3.25786   1.20251 
 Bq                   -0.65324   3.25786   1.20251 
 Bq                   -0.65324   3.25786   1.20251 
 Bq                   -0.65324   3.25786   1.20251 
 Bq                   -0.65324   3.25786   1.20251 
 Bq                   -0.65324   3.25786   1.20251 
 Bq                   -0.65324   3.25786   1.20251 
 Bq                   -0.65324   3.25786   1.20251 
 Bq                   -0.65324   3.25786   1.20251 
 Bq                   -0.65324   3.25786   1.20251 
 Bq                   -0.65324   3.25786   1.20251 
 Bq                   -0.65324   3.25786   1.20251 
 Bq                   -0.65324   3.25786   1.20251 
 Bq                   -0.65324   3.25786   1.20251 
 Bq                   -0.65324   3.25786   1.20251 
 Bq                   -0.65324   3.25786   1.20251 
 Bq                   -0.65324   3.25786   1.20251 
 Bq                   -0.65324   3.25786   1.20251 
 Bq                   -0.65324   3.25786   1.20251 
 Bq                   -0.65324   3.25786   1.20251 
 Bq                   -0.65324   3.25786   1.20251 
 Bq                   -0.65324   3.25786   1.20251 
 Bq                   -0.65324   3.25786   1.20251 
 Bq                   -0.65324   3.25786   1.20251 
 Bq                   -0.52272   3.25786   1.19395 
 Bq                   -0.52383   3.2749    1.19395 
 Bq                   -0.52716   3.29164   1.19395 
 Bq                   -0.53265   3.30781   1.19395 
 Bq                   -0.5402    3.32312   1.19395 
 Bq                   -0.54969   3.33732   1.19395 
 Bq                   -0.56095   3.35016   1.19395 
 Bq                   -0.57378   3.36141   1.19395 
 Bq                   -0.58798   3.3709    1.19395 
 Bq                   -0.60329   3.37845   1.19395 
 Bq                   -0.61946   3.38394   1.19395 
 Bq                   -0.63621   3.38727   1.19395 
 Bq                   -0.65324   3.38839   1.19395 
 Bq                   -0.67028   3.38727   1.19395 
 Bq                   -0.68703   3.38394   1.19395 
 Bq                   -0.70319   3.37845   1.19395 
 Bq                   -0.71851   3.3709    1.19395 
 Bq                   -0.7327    3.36141   1.19395 
 Bq                   -0.74554   3.35016   1.19395 
 Bq                   -0.7568    3.33732   1.19395 
 Bq                   -0.76628   3.32312   1.19395 
 Bq                   -0.77383   3.30781   1.19395 
 Bq                   -0.77932   3.29164   1.19395 
 Bq                   -0.78265   3.2749    1.19395 
 Bq                   -0.78377   3.25786   1.19395 
 Bq                   -0.78265   3.24082   1.19395 
 Bq                   -0.77932   3.22408   1.19395 
 Bq                   -0.77383   3.20791   1.19395 
 Bq                   -0.76628   3.1926    1.19395 
 Bq                   -0.7568    3.1784    1.19395 
 Bq                   -0.74554   3.16556   1.19395 
 Bq                   -0.7327    3.15431   1.19395 
 Bq                   -0.71851   3.14482   1.19395 
 Bq                   -0.70319   3.13727   1.19395 
 Bq                   -0.68703   3.13178   1.19395 
 Bq                   -0.67028   3.12845   1.19395 
 Bq                   -0.65324   3.12733   1.19395 
 Bq                   -0.63621   3.12845   1.19395 
 Bq                   -0.61946   3.13178   1.19395 
 Bq                   -0.60329   3.13727   1.19395 
 Bq                   -0.58798   3.14482   1.19395 
 Bq                   -0.57378   3.15431   1.19395 
 Bq                   -0.56095   3.16556   1.19395 
 Bq                   -0.54969   3.1784    1.19395 
 Bq                   -0.5402    3.1926    1.19395 
 Bq                   -0.53265   3.20791   1.19395 
 Bq                   -0.52716   3.22408   1.19395 
 Bq                   -0.52383   3.24082   1.19395 
 Bq                   -0.39442   3.25786   1.16844 
 Bq                   -0.39664   3.29164   1.16844 
 Bq                   -0.40324   3.32485   1.16844 
 Bq                   -0.41413   3.35691   1.16844 
 Bq                   -0.4291    3.38727   1.16844 
 Bq                   -0.44791   3.41542   1.16844 
 Bq                   -0.47023   3.44087   1.16844 
 Bq                   -0.49568   3.46319   1.16844 
 Bq                   -0.52383   3.482     1.16844 
 Bq                   -0.5542    3.49698   1.16844 
 Bq                   -0.58626   3.50786   1.16844 
 Bq                   -0.61946   3.51446   1.16844 
 Bq                   -0.65324   3.51668   1.16844 
 Bq                   -0.68703   3.51446   1.16844 
 Bq                   -0.72023   3.50786   1.16844 
 Bq                   -0.75229   3.49698   1.16844 
 Bq                   -0.78265   3.482     1.16844 
 Bq                   -0.8108    3.46319   1.16844 
 Bq                   -0.83626   3.44087   1.16844 
 Bq                   -0.85858   3.41542   1.16844 
 Bq                   -0.87739   3.38727   1.16844 
 Bq                   -0.89236   3.35691   1.16844 
 Bq                   -0.90324   3.32485   1.16844 
 Bq                   -0.90985   3.29164   1.16844 
 Bq                   -0.91206   3.25786   1.16844 
 
 NAtoms=    236 NQM=      236 NQMF=       0 NMMI=      0 NMMIF=      0
                NMic=       0 NMicF=      0.
                    Isotopes and Nuclear Properties:
 (Nuclear quadrupole moments (NQMom) in fm**2, nuclear magnetic moments (NMagM)
  in nuclear magnetons)

  Atom         1           2           3           4           5           6           7           8           9          10
 IAtWgt=          12          12          12          12          12          12          12          12          12          12
 AtmWgt=  12.0000000  12.0000000  12.0000000  12.0000000  12.0000000  12.0000000  12.0000000  12.0000000  12.0000000  12.0000000
 NucSpn=           0           0           0           0           0           0           0           0           0           0
 AtZEff=   0.0000000   0.0000000   0.0000000   0.0000000   0.0000000   0.0000000   0.0000000   0.0000000   0.0000000   0.0000000
 NQMom=    0.0000000   0.0000000   0.0000000   0.0000000   0.0000000   0.0000000   0.0000000   0.0000000   0.0000000   0.0000000
 NMagM=    0.0000000   0.0000000   0.0000000   0.0000000   0.0000000   0.0000000   0.0000000   0.0000000   0.0000000   0.0000000
 AtZNuc=   6.0000000   6.0000000   6.0000000   6.0000000   6.0000000   6.0000000   6.0000000   6.0000000   6.0000000   6.0000000

  Atom        11          12          13          14          15          16          17          18          19          20
 IAtWgt=           1           1           1           1          12          12          12          12           1           1
 AtmWgt=   1.0078250   1.0078250   1.0078250   1.0078250  12.0000000  12.0000000  12.0000000  12.0000000   1.0078250   1.0078250
 NucSpn=           1           1           1           1           0           0           0           0           1           1
 AtZEff=   0.0000000   0.0000000   0.0000000   0.0000000   0.0000000   0.0000000   0.0000000   0.0000000   0.0000000   0.0000000
 NQMom=    0.0000000   0.0000000   0.0000000   0.0000000   0.0000000   0.0000000   0.0000000   0.0000000   0.0000000   0.0000000
 NMagM=    2.7928460   2.7928460   2.7928460   2.7928460   0.0000000   0.0000000   0.0000000   0.0000000   2.7928460   2.7928460
 AtZNuc=   1.0000000   1.0000000   1.0000000   1.0000000   6.0000000   6.0000000   6.0000000   6.0000000   1.0000000   1.0000000

  Atom        21          22          23          24          25          26          27          28          29          30
 IAtWgt=           1           1          12          12          12          12          12          12          12          12
 AtmWgt=   1.0078250   1.0078250  12.0000000  12.0000000  12.0000000  12.0000000  12.0000000  12.0000000  12.0000000  12.0000000
 NucSpn=           1           1           0           0           0           0           0           0           0           0
 AtZEff=   0.0000000   0.0000000   0.0000000   0.0000000   0.0000000   0.0000000   0.0000000   0.0000000   0.0000000   0.0000000
 NQMom=    0.0000000   0.0000000   0.0000000   0.0000000   0.0000000   0.0000000   0.0000000   0.0000000   0.0000000   0.0000000
 NMagM=    2.7928460   2.7928460   0.0000000   0.0000000   0.0000000   0.0000000   0.0000000   0.0000000   0.0000000   0.0000000
 AtZNuc=   1.0000000   1.0000000   6.0000000   6.0000000   6.0000000   6.0000000   6.0000000   6.0000000   6.0000000   6.0000000

  Atom        31          32          33          34          35          36          37          38          39          40
 IAtWgt=           1           1           1           1           1           1           0           0           0           0
 AtmWgt=   1.0078250   1.0078250   1.0078250   1.0078250   1.0078250   1.0078250   0.0000000   0.0000000   0.0000000   0.0000000
 NucSpn=           1           1           1           1           1           1           0           0           0           0
 AtZEff=   0.0000000   0.0000000   0.0000000   0.0000000   0.0000000   0.0000000   0.0000000   0.0000000   0.0000000   0.0000000
 NQMom=    0.0000000   0.0000000   0.0000000   0.0000000   0.0000000   0.0000000   0.0000000   0.0000000   0.0000000   0.0000000
 NMagM=    2.7928460   2.7928460   2.7928460   2.7928460   2.7928460   2.7928460   0.0000000   0.0000000   0.0000000   0.0000000
 AtZNuc=   1.0000000   1.0000000   1.0000000   1.0000000   1.0000000   1.0000000   0.0000000   0.0000000   0.0000000   0.0000000

  Atom        41          42          43          44          45          46          47          48          49          50
 IAtWgt=           0           0           0           0           0           0           0           0           0           0
 AtmWgt=   0.0000000   0.0000000   0.0000000   0.0000000   0.0000000   0.0000000   0.0000000   0.0000000   0.0000000   0.0000000
 NucSpn=           0           0           0           0           0           0           0           0           0           0
 AtZEff=   0.0000000   0.0000000   0.0000000   0.0000000   0.0000000   0.0000000   0.0000000   0.0000000   0.0000000   0.0000000
 NQMom=    0.0000000   0.0000000   0.0000000   0.0000000   0.0000000   0.0000000   0.0000000   0.0000000   0.0000000   0.0000000
 NMagM=    0.0000000   0.0000000   0.0000000   0.0000000   0.0000000   0.0000000   0.0000000   0.0000000   0.0000000   0.0000000
 AtZNuc=   0.0000000   0.0000000   0.0000000   0.0000000   0.0000000   0.0000000   0.0000000   0.0000000   0.0000000   0.0000000

  Atom        51          52          53          54          55          56          57          58          59          60
 IAtWgt=           0           0           0           0           0           0           0           0           0           0
 AtmWgt=   0.0000000   0.0000000   0.0000000   0.0000000   0.0000000   0.0000000   0.0000000   0.0000000   0.0000000   0.0000000
 NucSpn=           0           0           0           0           0           0           0           0           0           0
 AtZEff=   0.0000000   0.0000000   0.0000000   0.0000000   0.0000000   0.0000000   0.0000000   0.0000000   0.0000000   0.0000000
 NQMom=    0.0000000   0.0000000   0.0000000   0.0000000   0.0000000   0.0000000   0.0000000   0.0000000   0.0000000   0.0000000
 NMagM=    0.0000000   0.0000000   0.0000000   0.0000000   0.0000000   0.0000000   0.0000000   0.0000000   0.0000000   0.0000000
 AtZNuc=   0.0000000   0.0000000   0.0000000   0.0000000   0.0000000   0.0000000   0.0000000   0.0000000   0.0000000   0.0000000

  Atom        61          62          63          64          65          66          67          68          69          70
 IAtWgt=           0           0           0           0           0           0           0           0           0           0
 AtmWgt=   0.0000000   0.0000000   0.0000000   0.0000000   0.0000000   0.0000000   0.0000000   0.0000000   0.0000000   0.0000000
 NucSpn=           0           0           0           0           0           0           0           0           0           0
 AtZEff=   0.0000000   0.0000000   0.0000000   0.0000000   0.0000000   0.0000000   0.0000000   0.0000000   0.0000000   0.0000000
 NQMom=    0.0000000   0.0000000   0.0000000   0.0000000   0.0000000   0.0000000   0.0000000   0.0000000   0.0000000   0.0000000
 NMagM=    0.0000000   0.0000000   0.0000000   0.0000000   0.0000000   0.0000000   0.0000000   0.0000000   0.0000000   0.0000000
 AtZNuc=   0.0000000   0.0000000   0.0000000   0.0000000   0.0000000   0.0000000   0.0000000   0.0000000   0.0000000   0.0000000

  Atom        71          72          73          74          75          76          77          78          79          80
 IAtWgt=           0           0           0           0           0           0           0           0           0           0
 AtmWgt=   0.0000000   0.0000000   0.0000000   0.0000000   0.0000000   0.0000000   0.0000000   0.0000000   0.0000000   0.0000000
 NucSpn=           0           0           0           0           0           0           0           0           0           0
 AtZEff=   0.0000000   0.0000000   0.0000000   0.0000000   0.0000000   0.0000000   0.0000000   0.0000000   0.0000000   0.0000000
 NQMom=    0.0000000   0.0000000   0.0000000   0.0000000   0.0000000   0.0000000   0.0000000   0.0000000   0.0000000   0.0000000
 NMagM=    0.0000000   0.0000000   0.0000000   0.0000000   0.0000000   0.0000000   0.0000000   0.0000000   0.0000000   0.0000000
 AtZNuc=   0.0000000   0.0000000   0.0000000   0.0000000   0.0000000   0.0000000   0.0000000   0.0000000   0.0000000   0.0000000

  Atom        81          82          83          84          85          86          87          88          89          90
 IAtWgt=           0           0           0           0           0           0           0           0           0           0
 AtmWgt=   0.0000000   0.0000000   0.0000000   0.0000000   0.0000000   0.0000000   0.0000000   0.0000000   0.0000000   0.0000000
 NucSpn=           0           0           0           0           0           0           0           0           0           0
 AtZEff=   0.0000000   0.0000000   0.0000000   0.0000000   0.0000000   0.0000000   0.0000000   0.0000000   0.0000000   0.0000000
 NQMom=    0.0000000   0.0000000   0.0000000   0.0000000   0.0000000   0.0000000   0.0000000   0.0000000   0.0000000   0.0000000
 NMagM=    0.0000000   0.0000000   0.0000000   0.0000000   0.0000000   0.0000000   0.0000000   0.0000000   0.0000000   0.0000000
 AtZNuc=   0.0000000   0.0000000   0.0000000   0.0000000   0.0000000   0.0000000   0.0000000   0.0000000   0.0000000   0.0000000

  Atom        91          92          93          94          95          96          97          98          99         100
 IAtWgt=           0           0           0           0           0           0           0           0           0           0
 AtmWgt=   0.0000000   0.0000000   0.0000000   0.0000000   0.0000000   0.0000000   0.0000000   0.0000000   0.0000000   0.0000000
 NucSpn=           0           0           0           0           0           0           0           0           0           0
 AtZEff=   0.0000000   0.0000000   0.0000000   0.0000000   0.0000000   0.0000000   0.0000000   0.0000000   0.0000000   0.0000000
 NQMom=    0.0000000   0.0000000   0.0000000   0.0000000   0.0000000   0.0000000   0.0000000   0.0000000   0.0000000   0.0000000
 NMagM=    0.0000000   0.0000000   0.0000000   0.0000000   0.0000000   0.0000000   0.0000000   0.0000000   0.0000000   0.0000000
 AtZNuc=   0.0000000   0.0000000   0.0000000   0.0000000   0.0000000   0.0000000   0.0000000   0.0000000   0.0000000   0.0000000

  Atom       101         102         103         104         105         106         107         108         109         110
 IAtWgt=           0           0           0           0           0           0           0           0           0           0
 AtmWgt=   0.0000000   0.0000000   0.0000000   0.0000000   0.0000000   0.0000000   0.0000000   0.0000000   0.0000000   0.0000000
 NucSpn=           0           0           0           0           0           0           0           0           0           0
 AtZEff=   0.0000000   0.0000000   0.0000000   0.0000000   0.0000000   0.0000000   0.0000000   0.0000000   0.0000000   0.0000000
 NQMom=    0.0000000   0.0000000   0.0000000   0.0000000   0.0000000   0.0000000   0.0000000   0.0000000   0.0000000   0.0000000
 NMagM=    0.0000000   0.0000000   0.0000000   0.0000000   0.0000000   0.0000000   0.0000000   0.0000000   0.0000000   0.0000000
 AtZNuc=   0.0000000   0.0000000   0.0000000   0.0000000   0.0000000   0.0000000   0.0000000   0.0000000   0.0000000   0.0000000

  Atom       111         112         113         114         115         116         117         118         119         120
 IAtWgt=           0           0           0           0           0           0           0           0           0           0
 AtmWgt=   0.0000000   0.0000000   0.0000000   0.0000000   0.0000000   0.0000000   0.0000000   0.0000000   0.0000000   0.0000000
 NucSpn=           0           0           0           0           0           0           0           0           0           0
 AtZEff=   0.0000000   0.0000000   0.0000000   0.0000000   0.0000000   0.0000000   0.0000000   0.0000000   0.0000000   0.0000000
 NQMom=    0.0000000   0.0000000   0.0000000   0.0000000   0.0000000   0.0000000   0.0000000   0.0000000   0.0000000   0.0000000
 NMagM=    0.0000000   0.0000000   0.0000000   0.0000000   0.0000000   0.0000000   0.0000000   0.0000000   0.0000000   0.0000000
 AtZNuc=   0.0000000   0.0000000   0.0000000   0.0000000   0.0000000   0.0000000   0.0000000   0.0000000   0.0000000   0.0000000

  Atom       121         122         123         124         125         126         127         128         129         130
 IAtWgt=           0           0           0           0           0           0           0           0           0           0
 AtmWgt=   0.0000000   0.0000000   0.0000000   0.0000000   0.0000000   0.0000000   0.0000000   0.0000000   0.0000000   0.0000000
 NucSpn=           0           0           0           0           0           0           0           0           0           0
 AtZEff=   0.0000000   0.0000000   0.0000000   0.0000000   0.0000000   0.0000000   0.0000000   0.0000000   0.0000000   0.0000000
 NQMom=    0.0000000   0.0000000   0.0000000   0.0000000   0.0000000   0.0000000   0.0000000   0.0000000   0.0000000   0.0000000
 NMagM=    0.0000000   0.0000000   0.0000000   0.0000000   0.0000000   0.0000000   0.0000000   0.0000000   0.0000000   0.0000000
 AtZNuc=   0.0000000   0.0000000   0.0000000   0.0000000   0.0000000   0.0000000   0.0000000   0.0000000   0.0000000   0.0000000

  Atom       131         132         133         134         135         136         137         138         139         140
 IAtWgt=           0           0           0           0           0           0           0           0           0           0
 AtmWgt=   0.0000000   0.0000000   0.0000000   0.0000000   0.0000000   0.0000000   0.0000000   0.0000000   0.0000000   0.0000000
 NucSpn=           0           0           0           0           0           0           0           0           0           0
 AtZEff=   0.0000000   0.0000000   0.0000000   0.0000000   0.0000000   0.0000000   0.0000000   0.0000000   0.0000000   0.0000000
 NQMom=    0.0000000   0.0000000   0.0000000   0.0000000   0.0000000   0.0000000   0.0000000   0.0000000   0.0000000   0.0000000
 NMagM=    0.0000000   0.0000000   0.0000000   0.0000000   0.0000000   0.0000000   0.0000000   0.0000000   0.0000000   0.0000000
 AtZNuc=   0.0000000   0.0000000   0.0000000   0.0000000   0.0000000   0.0000000   0.0000000   0.0000000   0.0000000   0.0000000

  Atom       141         142         143         144         145         146         147         148         149         150
 IAtWgt=           0           0           0           0           0           0           0           0           0           0
 AtmWgt=   0.0000000   0.0000000   0.0000000   0.0000000   0.0000000   0.0000000   0.0000000   0.0000000   0.0000000   0.0000000
 NucSpn=           0           0           0           0           0           0           0           0           0           0
 AtZEff=   0.0000000   0.0000000   0.0000000   0.0000000   0.0000000   0.0000000   0.0000000   0.0000000   0.0000000   0.0000000
 NQMom=    0.0000000   0.0000000   0.0000000   0.0000000   0.0000000   0.0000000   0.0000000   0.0000000   0.0000000   0.0000000
 NMagM=    0.0000000   0.0000000   0.0000000   0.0000000   0.0000000   0.0000000   0.0000000   0.0000000   0.0000000   0.0000000
 AtZNuc=   0.0000000   0.0000000   0.0000000   0.0000000   0.0000000   0.0000000   0.0000000   0.0000000   0.0000000   0.0000000

  Atom       151         152         153         154         155         156         157         158         159         160
 IAtWgt=           0           0           0           0           0           0           0           0           0           0
 AtmWgt=   0.0000000   0.0000000   0.0000000   0.0000000   0.0000000   0.0000000   0.0000000   0.0000000   0.0000000   0.0000000
 NucSpn=           0           0           0           0           0           0           0           0           0           0
 AtZEff=   0.0000000   0.0000000   0.0000000   0.0000000   0.0000000   0.0000000   0.0000000   0.0000000   0.0000000   0.0000000
 NQMom=    0.0000000   0.0000000   0.0000000   0.0000000   0.0000000   0.0000000   0.0000000   0.0000000   0.0000000   0.0000000
 NMagM=    0.0000000   0.0000000   0.0000000   0.0000000   0.0000000   0.0000000   0.0000000   0.0000000   0.0000000   0.0000000
 AtZNuc=   0.0000000   0.0000000   0.0000000   0.0000000   0.0000000   0.0000000   0.0000000   0.0000000   0.0000000   0.0000000

  Atom       161         162         163         164         165         166         167         168         169         170
 IAtWgt=           0           0           0           0           0           0           0           0           0           0
 AtmWgt=   0.0000000   0.0000000   0.0000000   0.0000000   0.0000000   0.0000000   0.0000000   0.0000000   0.0000000   0.0000000
 NucSpn=           0           0           0           0           0           0           0           0           0           0
 AtZEff=   0.0000000   0.0000000   0.0000000   0.0000000   0.0000000   0.0000000   0.0000000   0.0000000   0.0000000   0.0000000
 NQMom=    0.0000000   0.0000000   0.0000000   0.0000000   0.0000000   0.0000000   0.0000000   0.0000000   0.0000000   0.0000000
 NMagM=    0.0000000   0.0000000   0.0000000   0.0000000   0.0000000   0.0000000   0.0000000   0.0000000   0.0000000   0.0000000
 AtZNuc=   0.0000000   0.0000000   0.0000000   0.0000000   0.0000000   0.0000000   0.0000000   0.0000000   0.0000000   0.0000000

  Atom       171         172         173         174         175         176         177         178         179         180
 IAtWgt=           0           0           0           0           0           0           0           0           0           0
 AtmWgt=   0.0000000   0.0000000   0.0000000   0.0000000   0.0000000   0.0000000   0.0000000   0.0000000   0.0000000   0.0000000
 NucSpn=           0           0           0           0           0           0           0           0           0           0
 AtZEff=   0.0000000   0.0000000   0.0000000   0.0000000   0.0000000   0.0000000   0.0000000   0.0000000   0.0000000   0.0000000
 NQMom=    0.0000000   0.0000000   0.0000000   0.0000000   0.0000000   0.0000000   0.0000000   0.0000000   0.0000000   0.0000000
 NMagM=    0.0000000   0.0000000   0.0000000   0.0000000   0.0000000   0.0000000   0.0000000   0.0000000   0.0000000   0.0000000
 AtZNuc=   0.0000000   0.0000000   0.0000000   0.0000000   0.0000000   0.0000000   0.0000000   0.0000000   0.0000000   0.0000000

  Atom       181         182         183         184         185         186         187         188         189         190
 IAtWgt=           0           0           0           0           0           0           0           0           0           0
 AtmWgt=   0.0000000   0.0000000   0.0000000   0.0000000   0.0000000   0.0000000   0.0000000   0.0000000   0.0000000   0.0000000
 NucSpn=           0           0           0           0           0           0           0           0           0           0
 AtZEff=   0.0000000   0.0000000   0.0000000   0.0000000   0.0000000   0.0000000   0.0000000   0.0000000   0.0000000   0.0000000
 NQMom=    0.0000000   0.0000000   0.0000000   0.0000000   0.0000000   0.0000000   0.0000000   0.0000000   0.0000000   0.0000000
 NMagM=    0.0000000   0.0000000   0.0000000   0.0000000   0.0000000   0.0000000   0.0000000   0.0000000   0.0000000   0.0000000
 AtZNuc=   0.0000000   0.0000000   0.0000000   0.0000000   0.0000000   0.0000000   0.0000000   0.0000000   0.0000000   0.0000000

  Atom       191         192         193         194         195         196         197         198         199         200
 IAtWgt=           0           0           0           0           0           0           0           0           0           0
 AtmWgt=   0.0000000   0.0000000   0.0000000   0.0000000   0.0000000   0.0000000   0.0000000   0.0000000   0.0000000   0.0000000
 NucSpn=           0           0           0           0           0           0           0           0           0           0
 AtZEff=   0.0000000   0.0000000   0.0000000   0.0000000   0.0000000   0.0000000   0.0000000   0.0000000   0.0000000   0.0000000
 NQMom=    0.0000000   0.0000000   0.0000000   0.0000000   0.0000000   0.0000000   0.0000000   0.0000000   0.0000000   0.0000000
 NMagM=    0.0000000   0.0000000   0.0000000   0.0000000   0.0000000   0.0000000   0.0000000   0.0000000   0.0000000   0.0000000
 AtZNuc=   0.0000000   0.0000000   0.0000000   0.0000000   0.0000000   0.0000000   0.0000000   0.0000000   0.0000000   0.0000000

  Atom       201         202         203         204         205         206         207         208         209         210
 IAtWgt=           0           0           0           0           0           0           0           0           0           0
 AtmWgt=   0.0000000   0.0000000   0.0000000   0.0000000   0.0000000   0.0000000   0.0000000   0.0000000   0.0000000   0.0000000
 NucSpn=           0           0           0           0           0           0           0           0           0           0
 AtZEff=   0.0000000   0.0000000   0.0000000   0.0000000   0.0000000   0.0000000   0.0000000   0.0000000   0.0000000   0.0000000
 NQMom=    0.0000000   0.0000000   0.0000000   0.0000000   0.0000000   0.0000000   0.0000000   0.0000000   0.0000000   0.0000000
 NMagM=    0.0000000   0.0000000   0.0000000   0.0000000   0.0000000   0.0000000   0.0000000   0.0000000   0.0000000   0.0000000
 AtZNuc=   0.0000000   0.0000000   0.0000000   0.0000000   0.0000000   0.0000000   0.0000000   0.0000000   0.0000000   0.0000000

  Atom       211         212         213         214         215         216         217         218         219         220
 IAtWgt=           0           0           0           0           0           0           0           0           0           0
 AtmWgt=   0.0000000   0.0000000   0.0000000   0.0000000   0.0000000   0.0000000   0.0000000   0.0000000   0.0000000   0.0000000
 NucSpn=           0           0           0           0           0           0           0           0           0           0
 AtZEff=   0.0000000   0.0000000   0.0000000   0.0000000   0.0000000   0.0000000   0.0000000   0.0000000   0.0000000   0.0000000
 NQMom=    0.0000000   0.0000000   0.0000000   0.0000000   0.0000000   0.0000000   0.0000000   0.0000000   0.0000000   0.0000000
 NMagM=    0.0000000   0.0000000   0.0000000   0.0000000   0.0000000   0.0000000   0.0000000   0.0000000   0.0000000   0.0000000
 AtZNuc=   0.0000000   0.0000000   0.0000000   0.0000000   0.0000000   0.0000000   0.0000000   0.0000000   0.0000000   0.0000000

  Atom       221         222         223         224         225         226         227         228         229         230
 IAtWgt=           0           0           0           0           0           0           0           0           0           0
 AtmWgt=   0.0000000   0.0000000   0.0000000   0.0000000   0.0000000   0.0000000   0.0000000   0.0000000   0.0000000   0.0000000
 NucSpn=           0           0           0           0           0           0           0           0           0           0
 AtZEff=   0.0000000   0.0000000   0.0000000   0.0000000   0.0000000   0.0000000   0.0000000   0.0000000   0.0000000   0.0000000
 NQMom=    0.0000000   0.0000000   0.0000000   0.0000000   0.0000000   0.0000000   0.0000000   0.0000000   0.0000000   0.0000000
 NMagM=    0.0000000   0.0000000   0.0000000   0.0000000   0.0000000   0.0000000   0.0000000   0.0000000   0.0000000   0.0000000
 AtZNuc=   0.0000000   0.0000000   0.0000000   0.0000000   0.0000000   0.0000000   0.0000000   0.0000000   0.0000000   0.0000000

  Atom       231         232         233         234         235         236
 IAtWgt=           0           0           0           0           0           0
 AtmWgt=   0.0000000   0.0000000   0.0000000   0.0000000   0.0000000   0.0000000
 NucSpn=           0           0           0           0           0           0
 AtZEff=   0.0000000   0.0000000   0.0000000   0.0000000   0.0000000   0.0000000
 NQMom=    0.0000000   0.0000000   0.0000000   0.0000000   0.0000000   0.0000000
 NMagM=    0.0000000   0.0000000   0.0000000   0.0000000   0.0000000   0.0000000
 AtZNuc=   0.0000000   0.0000000   0.0000000   0.0000000   0.0000000   0.0000000
 Leave Link  101 at Tue Sep 15 10:30:52 2020, MaxMem=   131072000 cpu:         3.2
 (Enter /share/programs/GAUSSIAN/64/g09/l202.exe)
 Symmetry turned off:
 Cannot cope with ghost atoms or with translation vectors.
 Stoichiometry    C22H14
 Framework group  C1[X(C22H14)]
 NUMDOF-- NAT=    36 NAtoms=   236
 Deg. of freedom     0
 Full point group                 C1      NOp   1
                          Input orientation:                          
 ---------------------------------------------------------------------
 Center     Atomic      Atomic             Coordinates (Angstroms)
 Number     Number       Type             X           Y           Z
 ---------------------------------------------------------------------
      1          6           0        0.653241    3.257859   -0.202510
      2          6           0       -0.653243    3.257860    0.202510
      3          6           0        1.372495    2.032956   -0.320807
      4          6           0       -1.372495    2.032956    0.320807
      5          6           0        0.722474    0.795666   -0.050388
      6          6           0       -0.722474    0.795667    0.050387
      7          6           0        2.760385    2.053927   -0.674268
      8          6           0        3.508866    0.913916   -0.671362
      9          6           0        2.955226   -0.309622   -0.177479
     10          6           0        1.574722   -0.361114    0.197094
     11          1           0        1.183427    4.195740   -0.384599
     12          1           0       -1.183429    4.195740    0.384599
     13          1           0        3.206283    3.012423   -0.951392
     14          1           0        4.560023    0.932956   -0.969333
     15          6           0        3.783020   -1.443098    0.028309
     16          6           0        1.137427   -1.507533    0.912109
     17          6           0        1.973691   -2.584349    1.138062
     18          6           0        3.301853   -2.571588    0.661177
     19          1           0        4.825754   -1.391230   -0.295484
     20          1           0        0.124652   -1.532788    1.308472
     21          1           0        1.603586   -3.445682    1.698977
     22          1           0        3.952742   -3.433526    0.825134
     23          6           0       -3.508866    0.913915    0.671362
     24          6           0       -2.760386    2.053926    0.674268
     25          6           0       -2.955226   -0.309623    0.177479
     26          6           0       -1.574722   -0.361114   -0.197094
     27          6           0       -3.783020   -1.443099   -0.028309
     28          6           0       -3.301852   -2.571589   -0.661177
     29          6           0       -1.973690   -2.584349   -1.138061
     30          6           0       -1.137426   -1.507534   -0.912109
     31          1           0       -4.560022    0.932954    0.969334
     32          1           0       -3.206283    3.012421    0.951392
     33          1           0       -4.825754   -1.391232    0.295484
     34          1           0       -3.952741   -3.433528   -0.825134
     35          1           0       -1.603585   -3.445682   -1.698976
     36          1           0       -0.124652   -1.532788   -1.308471
     37          0           0        0.495682    3.463194   -1.168436
     38          0           0        0.470228    3.440872   -1.168436
     39          0           0        0.447906    3.415418   -1.168436
     40          0           0        0.429097    3.387269   -1.168436
     41          0           0        0.414123    3.356905   -1.168436
     42          0           0        0.403241    3.324846   -1.168436
     43          0           0        0.396636    3.291642   -1.168436
     44          0           0        0.394422    3.257859   -1.168436
     45          0           0        0.396636    3.224076   -1.168436
     46          0           0        0.403241    3.190872   -1.168436
     47          0           0        0.414123    3.158813   -1.168436
     48          0           0        0.429097    3.128449   -1.168436
     49          0           0        0.447906    3.100300   -1.168436
     50          0           0        0.470228    3.074846   -1.168436
     51          0           0        0.495682    3.052524   -1.168436
     52          0           0        0.523831    3.033715   -1.168436
     53          0           0        0.554195    3.018741   -1.168436
     54          0           0        0.586254    3.007859   -1.168436
     55          0           0        0.619458    3.001254   -1.168436
     56          0           0        0.653241    2.999040   -1.168436
     57          0           0        0.687024    3.001254   -1.168436
     58          0           0        0.720228    3.007859   -1.168436
     59          0           0        0.752287    3.018741   -1.168436
     60          0           0        0.782651    3.033715   -1.168436
     61          0           0        0.810800    3.052524   -1.168436
     62          0           0        0.836254    3.074846   -1.168436
     63          0           0        0.858576    3.100300   -1.168436
     64          0           0        0.877385    3.128449   -1.168436
     65          0           0        0.892359    3.158813   -1.168436
     66          0           0        0.903241    3.190872   -1.168436
     67          0           0        0.909846    3.224076   -1.168436
     68          0           0        0.783767    3.257859   -1.193955
     69          0           0        0.782651    3.274896   -1.193955
     70          0           0        0.779320    3.291642   -1.193955
     71          0           0        0.773831    3.307809   -1.193955
     72          0           0        0.766280    3.323122   -1.193955
     73          0           0        0.756794    3.337318   -1.193955
     74          0           0        0.745537    3.350155   -1.193955
     75          0           0        0.732700    3.361412   -1.193955
     76          0           0        0.718504    3.370898   -1.193955
     77          0           0        0.703191    3.378449   -1.193955
     78          0           0        0.687024    3.383938   -1.193955
     79          0           0        0.670278    3.387269   -1.193955
     80          0           0        0.653241    3.388385   -1.193955
     81          0           0        0.636204    3.387269   -1.193955
     82          0           0        0.619458    3.383938   -1.193955
     83          0           0        0.603291    3.378449   -1.193955
     84          0           0        0.587978    3.370898   -1.193955
     85          0           0        0.573782    3.361412   -1.193955
     86          0           0        0.560945    3.350155   -1.193955
     87          0           0        0.549688    3.337318   -1.193955
     88          0           0        0.540202    3.323122   -1.193955
     89          0           0        0.532651    3.307809   -1.193955
     90          0           0        0.527162    3.291642   -1.193955
     91          0           0        0.523831    3.274896   -1.193955
     92          0           0        0.522715    3.257859   -1.193955
     93          0           0        0.523831    3.240822   -1.193955
     94          0           0        0.527162    3.224076   -1.193955
     95          0           0        0.532651    3.207909   -1.193955
     96          0           0        0.540202    3.192596   -1.193955
     97          0           0        0.549688    3.178400   -1.193955
     98          0           0        0.560945    3.165563   -1.193955
     99          0           0        0.573782    3.154306   -1.193955
    100          0           0        0.587978    3.144820   -1.193955
    101          0           0        0.603291    3.137269   -1.193955
    102          0           0        0.619458    3.131780   -1.193955
    103          0           0        0.636204    3.128449   -1.193955
    104          0           0        0.653241    3.127333   -1.193955
    105          0           0        0.670278    3.128449   -1.193955
    106          0           0        0.687024    3.131780   -1.193955
    107          0           0        0.703191    3.137269   -1.193955
    108          0           0        0.718504    3.144820   -1.193955
    109          0           0        0.732700    3.154306   -1.193955
    110          0           0        0.745537    3.165563   -1.193955
    111          0           0        0.756794    3.178400   -1.193955
    112          0           0        0.766280    3.192596   -1.193955
    113          0           0        0.773831    3.207909   -1.193955
    114          0           0        0.779320    3.224076   -1.193955
    115          0           0        0.782651    3.240822   -1.193955
    116          0           0       -0.653243    3.257860    1.202510
    117          0           0       -0.653243    3.257860    1.202510
    118          0           0       -0.653243    3.257860    1.202510
    119          0           0       -0.653243    3.257860    1.202510
    120          0           0       -0.653243    3.257860    1.202510
    121          0           0       -0.653243    3.257860    1.202510
    122          0           0       -0.653243    3.257860    1.202510
    123          0           0       -0.653243    3.257860    1.202510
    124          0           0       -0.653243    3.257860    1.202510
    125          0           0       -0.653243    3.257860    1.202510
    126          0           0       -0.653243    3.257860    1.202510
    127          0           0       -0.653243    3.257860    1.202510
    128          0           0       -0.653243    3.257860    1.202510
    129          0           0       -0.653243    3.257860    1.202510
    130          0           0       -0.653243    3.257860    1.202510
    131          0           0       -0.653243    3.257860    1.202510
    132          0           0       -0.653243    3.257860    1.202510
    133          0           0       -0.653243    3.257860    1.202510
    134          0           0       -0.653243    3.257860    1.202510
    135          0           0       -0.653243    3.257860    1.202510
    136          0           0       -0.653243    3.257860    1.202510
    137          0           0       -0.653243    3.257860    1.202510
    138          0           0       -0.653243    3.257860    1.202510
    139          0           0       -0.653243    3.257860    1.202510
    140          0           0       -0.653243    3.257860    1.202510
    141          0           0       -0.653243    3.257860    1.202510
    142          0           0       -0.653243    3.257860    1.202510
    143          0           0       -0.653243    3.257860    1.202510
    144          0           0       -0.653243    3.257860    1.202510
    145          0           0       -0.653243    3.257860    1.202510
    146          0           0       -0.653243    3.257860    1.202510
    147          0           0       -0.653243    3.257860    1.202510
    148          0           0       -0.653243    3.257860    1.202510
    149          0           0       -0.653243    3.257860    1.202510
    150          0           0       -0.653243    3.257860    1.202510
    151          0           0       -0.653243    3.257860    1.202510
    152          0           0       -0.653243    3.257860    1.202510
    153          0           0       -0.653243    3.257860    1.202510
    154          0           0       -0.653243    3.257860    1.202510
    155          0           0       -0.653243    3.257860    1.202510
    156          0           0       -0.653243    3.257860    1.202510
    157          0           0       -0.653243    3.257860    1.202510
    158          0           0       -0.653243    3.257860    1.202510
    159          0           0       -0.653243    3.257860    1.202510
    160          0           0       -0.653243    3.257860    1.202510
    161          0           0       -0.653243    3.257860    1.202510
    162          0           0       -0.653243    3.257860    1.202510
    163          0           0       -0.653243    3.257860    1.202510
    164          0           0       -0.522717    3.257860    1.193955
    165          0           0       -0.523833    3.274897    1.193955
    166          0           0       -0.527164    3.291643    1.193955
    167          0           0       -0.532653    3.307810    1.193955
    168          0           0       -0.540204    3.323123    1.193955
    169          0           0       -0.549690    3.337319    1.193955
    170          0           0       -0.560947    3.350156    1.193955
    171          0           0       -0.573784    3.361413    1.193955
    172          0           0       -0.587980    3.370899    1.193955
    173          0           0       -0.603293    3.378450    1.193955
    174          0           0       -0.619460    3.383939    1.193955
    175          0           0       -0.636206    3.387270    1.193955
    176          0           0       -0.653243    3.388386    1.193955
    177          0           0       -0.670280    3.387270    1.193955
    178          0           0       -0.687026    3.383939    1.193955
    179          0           0       -0.703193    3.378450    1.193955
    180          0           0       -0.718506    3.370899    1.193955
    181          0           0       -0.732702    3.361413    1.193955
    182          0           0       -0.745539    3.350156    1.193955
    183          0           0       -0.756796    3.337319    1.193955
    184          0           0       -0.766282    3.323123    1.193955
    185          0           0       -0.773833    3.307810    1.193955
    186          0           0       -0.779322    3.291643    1.193955
    187          0           0       -0.782653    3.274897    1.193955
    188          0           0       -0.783769    3.257860    1.193955
    189          0           0       -0.782653    3.240823    1.193955
    190          0           0       -0.779322    3.224077    1.193955
    191          0           0       -0.773833    3.207910    1.193955
    192          0           0       -0.766282    3.192597    1.193955
    193          0           0       -0.756796    3.178401    1.193955
    194          0           0       -0.745539    3.165564    1.193955
    195          0           0       -0.732702    3.154307    1.193955
    196          0           0       -0.718506    3.144821    1.193955
    197          0           0       -0.703193    3.137270    1.193955
    198          0           0       -0.687026    3.131781    1.193955
    199          0           0       -0.670280    3.128450    1.193955
    200          0           0       -0.653243    3.127334    1.193955
    201          0           0       -0.636206    3.128450    1.193955
    202          0           0       -0.619460    3.131781    1.193955
    203          0           0       -0.603293    3.137270    1.193955
    204          0           0       -0.587980    3.144821    1.193955
    205          0           0       -0.573784    3.154307    1.193955
    206          0           0       -0.560947    3.165564    1.193955
    207          0           0       -0.549690    3.178401    1.193955
    208          0           0       -0.540204    3.192597    1.193955
    209          0           0       -0.532653    3.207910    1.193955
    210          0           0       -0.527164    3.224077    1.193955
    211          0           0       -0.523833    3.240823    1.193955
    212          0           0       -0.394424    3.257860    1.168436
    213          0           0       -0.396638    3.291643    1.168436
    214          0           0       -0.403243    3.324847    1.168436
    215          0           0       -0.414125    3.356906    1.168436
    216          0           0       -0.429099    3.387270    1.168436
    217          0           0       -0.447908    3.415419    1.168436
    218          0           0       -0.470230    3.440873    1.168436
    219          0           0       -0.495684    3.463195    1.168436
    220          0           0       -0.523833    3.482004    1.168436
    221          0           0       -0.554197    3.496978    1.168436
    222          0           0       -0.586256    3.507860    1.168436
    223          0           0       -0.619460    3.514465    1.168436
    224          0           0       -0.653243    3.516679    1.168436
    225          0           0       -0.687026    3.514465    1.168436
    226          0           0       -0.720230    3.507860    1.168436
    227          0           0       -0.752289    3.496978    1.168436
    228          0           0       -0.782653    3.482004    1.168436
    229          0           0       -0.810802    3.463195    1.168436
    230          0           0       -0.836256    3.440873    1.168436
    231          0           0       -0.858578    3.415419    1.168436
    232          0           0       -0.877387    3.387270    1.168436
    233          0           0       -0.892361    3.356906    1.168436
    234          0           0       -0.903243    3.324847    1.168436
    235          0           0       -0.909848    3.291643    1.168436
    236          0           0       -0.912062    3.257860    1.168436
 ---------------------------------------------------------------------
 Rotational constants (GHZ):      0.4454681      0.2811480      0.1854303
 Leave Link  202 at Tue Sep 15 10:30:52 2020, MaxMem=   131072000 cpu:         0.0
 (Enter /share/programs/GAUSSIAN/64/g09/l301.exe)
 Standard basis: 6-311+G(d,p) (5D, 7F)
 Warning:  center  37 has no basis functions!
 Warning:  center  38 has no basis functions!
 Warning:  center  39 has no basis functions!
 Warning:  center  40 has no basis functions!
 Warning:  center  41 has no basis functions!
 Warning:  center  42 has no basis functions!
 Warning:  center  43 has no basis functions!
 Warning:  center  44 has no basis functions!
 Warning:  center  45 has no basis functions!
 Warning:  center  46 has no basis functions!
 Warning:  center  47 has no basis functions!
 Warning:  center  48 has no basis functions!
 Warning:  center  49 has no basis functions!
 Warning:  center  50 has no basis functions!
 Warning:  center  51 has no basis functions!
 Warning:  center  52 has no basis functions!
 Warning:  center  53 has no basis functions!
 Warning:  center  54 has no basis functions!
 Warning:  center  55 has no basis functions!
 Warning:  center  56 has no basis functions!
 Warning:  center  57 has no basis functions!
 Warning:  center  58 has no basis functions!
 Warning:  center  59 has no basis functions!
 Warning:  center  60 has no basis functions!
 Warning:  center  61 has no basis functions!
 Warning:  center  62 has no basis functions!
 Warning:  center  63 has no basis functions!
 Warning:  center  64 has no basis functions!
 Warning:  center  65 has no basis functions!
 Warning:  center  66 has no basis functions!
 Warning:  center  67 has no basis functions!
 Warning:  center  68 has no basis functions!
 Warning:  center  69 has no basis functions!
 Warning:  center  70 has no basis functions!
 Warning:  center  71 has no basis functions!
 Warning:  center  72 has no basis functions!
 Warning:  center  73 has no basis functions!
 Warning:  center  74 has no basis functions!
 Warning:  center  75 has no basis functions!
 Warning:  center  76 has no basis functions!
 Warning:  center  77 has no basis functions!
 Warning:  center  78 has no basis functions!
 Warning:  center  79 has no basis functions!
 Warning:  center  80 has no basis functions!
 Warning:  center  81 has no basis functions!
 Warning:  center  82 has no basis functions!
 Warning:  center  83 has no basis functions!
 Warning:  center  84 has no basis functions!
 Warning:  center  85 has no basis functions!
 Warning:  center  86 has no basis functions!
 Warning:  center  87 has no basis functions!
 Warning:  center  88 has no basis functions!
 Warning:  center  89 has no basis functions!
 Warning:  center  90 has no basis functions!
 Warning:  center  91 has no basis functions!
 Warning:  center  92 has no basis functions!
 Warning:  center  93 has no basis functions!
 Warning:  center  94 has no basis functions!
 Warning:  center  95 has no basis functions!
 Warning:  center  96 has no basis functions!
 Warning:  center  97 has no basis functions!
 Warning:  center  98 has no basis functions!
 Warning:  center  99 has no basis functions!
 Warning:  center 100 has no basis functions!
 Warning:  center 101 has no basis functions!
 Warning:  center 102 has no basis functions!
 Warning:  center 103 has no basis functions!
 Warning:  center 104 has no basis functions!
 Warning:  center 105 has no basis functions!
 Warning:  center 106 has no basis functions!
 Warning:  center 107 has no basis functions!
 Warning:  center 108 has no basis functions!
 Warning:  center 109 has no basis functions!
 Warning:  center 110 has no basis functions!
 Warning:  center 111 has no basis functions!
 Warning:  center 112 has no basis functions!
 Warning:  center 113 has no basis functions!
 Warning:  center 114 has no basis functions!
 Warning:  center 115 has no basis functions!
 Warning:  center 116 has no basis functions!
 Warning:  center 117 has no basis functions!
 Warning:  center 118 has no basis functions!
 Warning:  center 119 has no basis functions!
 Warning:  center 120 has no basis functions!
 Warning:  center 121 has no basis functions!
 Warning:  center 122 has no basis functions!
 Warning:  center 123 has no basis functions!
 Warning:  center 124 has no basis functions!
 Warning:  center 125 has no basis functions!
 Warning:  center 126 has no basis functions!
 Warning:  center 127 has no basis functions!
 Warning:  center 128 has no basis functions!
 Warning:  center 129 has no basis functions!
 Warning:  center 130 has no basis functions!
 Warning:  center 131 has no basis functions!
 Warning:  center 132 has no basis functions!
 Warning:  center 133 has no basis functions!
 Warning:  center 134 has no basis functions!
 Warning:  center 135 has no basis functions!
 Warning:  center 136 has no basis functions!
 Warning:  center 137 has no basis functions!
 Warning:  center 138 has no basis functions!
 Warning:  center 139 has no basis functions!
 Warning:  center 140 has no basis functions!
 Warning:  center 141 has no basis functions!
 Warning:  center 142 has no basis functions!
 Warning:  center 143 has no basis functions!
 Warning:  center 144 has no basis functions!
 Warning:  center 145 has no basis functions!
 Warning:  center 146 has no basis functions!
 Warning:  center 147 has no basis functions!
 Warning:  center 148 has no basis functions!
 Warning:  center 149 has no basis functions!
 Warning:  center 150 has no basis functions!
 Warning:  center 151 has no basis functions!
 Warning:  center 152 has no basis functions!
 Warning:  center 153 has no basis functions!
 Warning:  center 154 has no basis functions!
 Warning:  center 155 has no basis functions!
 Warning:  center 156 has no basis functions!
 Warning:  center 157 has no basis functions!
 Warning:  center 158 has no basis functions!
 Warning:  center 159 has no basis functions!
 Warning:  center 160 has no basis functions!
 Warning:  center 161 has no basis functions!
 Warning:  center 162 has no basis functions!
 Warning:  center 163 has no basis functions!
 Warning:  center 164 has no basis functions!
 Warning:  center 165 has no basis functions!
 Warning:  center 166 has no basis functions!
 Warning:  center 167 has no basis functions!
 Warning:  center 168 has no basis functions!
 Warning:  center 169 has no basis functions!
 Warning:  center 170 has no basis functions!
 Warning:  center 171 has no basis functions!
 Warning:  center 172 has no basis functions!
 Warning:  center 173 has no basis functions!
 Warning:  center 174 has no basis functions!
 Warning:  center 175 has no basis functions!
 Warning:  center 176 has no basis functions!
 Warning:  center 177 has no basis functions!
 Warning:  center 178 has no basis functions!
 Warning:  center 179 has no basis functions!
 Warning:  center 180 has no basis functions!
 Warning:  center 181 has no basis functions!
 Warning:  center 182 has no basis functions!
 Warning:  center 183 has no basis functions!
 Warning:  center 184 has no basis functions!
 Warning:  center 185 has no basis functions!
 Warning:  center 186 has no basis functions!
 Warning:  center 187 has no basis functions!
 Warning:  center 188 has no basis functions!
 Warning:  center 189 has no basis functions!
 Warning:  center 190 has no basis functions!
 Warning:  center 191 has no basis functions!
 Warning:  center 192 has no basis functions!
 Warning:  center 193 has no basis functions!
 Warning:  center 194 has no basis functions!
 Warning:  center 195 has no basis functions!
 Warning:  center 196 has no basis functions!
 Warning:  center 197 has no basis functions!
 Warning:  center 198 has no basis functions!
 Warning:  center 199 has no basis functions!
 Warning:  center 200 has no basis functions!
 Warning:  center 201 has no basis functions!
 Warning:  center 202 has no basis functions!
 Warning:  center 203 has no basis functions!
 Warning:  center 204 has no basis functions!
 Warning:  center 205 has no basis functions!
 Warning:  center 206 has no basis functions!
 Warning:  center 207 has no basis functions!
 Warning:  center 208 has no basis functions!
 Warning:  center 209 has no basis functions!
 Warning:  center 210 has no basis functions!
 Warning:  center 211 has no basis functions!
 Warning:  center 212 has no basis functions!
 Warning:  center 213 has no basis functions!
 Warning:  center 214 has no basis functions!
 Warning:  center 215 has no basis functions!
 Warning:  center 216 has no basis functions!
 Warning:  center 217 has no basis functions!
 Warning:  center 218 has no basis functions!
 Warning:  center 219 has no basis functions!
 Warning:  center 220 has no basis functions!
 Warning:  center 221 has no basis functions!
 Warning:  center 222 has no basis functions!
 Warning:  center 223 has no basis functions!
 Warning:  center 224 has no basis functions!
 Warning:  center 225 has no basis functions!
 Warning:  center 226 has no basis functions!
 Warning:  center 227 has no basis functions!
 Warning:  center 228 has no basis functions!
 Warning:  center 229 has no basis functions!
 Warning:  center 230 has no basis functions!
 Warning:  center 231 has no basis functions!
 Warning:  center 232 has no basis functions!
 Warning:  center 233 has no basis functions!
 Warning:  center 234 has no basis functions!
 Warning:  center 235 has no basis functions!
 Warning:  center 236 has no basis functions!
 Ernie: Thresh=  0.10000D-02 Tol=  0.10000D-05 Strict=F.
   568 basis functions,   904 primitive gaussians,   590 cartesian basis functions
    73 alpha electrons       73 beta electrons
       nuclear repulsion energy      1599.9156270972 Hartrees.
 IExCor=  402 DFT=T Ex+Corr=B3LYP ExCW=0 ScaHFX=  0.200000
 ScaDFX=  0.800000  0.720000  1.000000  0.810000 ScalE2=  1.000000  1.000000
 IRadAn=      0 IRanWt=     -1 IRanGd=            0 ICorTp=0 IEmpDi=  4
 NAtoms=  236 NActive=  236 NUniq=  236 SFac= 1.00D+00 NAtFMM=   60 NAOKFM=T Big=T
 Integral buffers will be    131072 words long.
 Raffenetti 2 integral format.
 Two-electron integral symmetry is turned off.
 Leave Link  301 at Tue Sep 15 10:30:52 2020, MaxMem=   131072000 cpu:         0.6
 (Enter /share/programs/GAUSSIAN/64/g09/l302.exe)
 NPDir=0 NMtPBC=     1 NCelOv=     1 NCel=       1 NClECP=     1 NCelD=      1
         NCelK=      1 NCelE2=     1 NClLst=     1 CellRange=     0.0.
 One-electron integrals computed using PRISM.
 NBasis=   568 RedAO= T EigKep=  1.01D-06  NBF=   568
 NBsUse=   557 1.00D-06 EigRej=  9.19D-07 NBFU=   557
 Precomputing XC quadrature grid using
 IXCGrd= 4 IRadAn=           0 IRanWt=          -1 IRanGd=           0 AccXCQ= 0.00D+00.
 Generated NRdTot=       0 NPtTot=           0 NUsed=           0 NTot=          32
 NSgBfM=   587   588   588   589   589 MxSgAt=   236 MxSgA2=    36.
 Leave Link  302 at Tue Sep 15 10:30:54 2020, MaxMem=   131072000 cpu:        15.2
 (Enter /share/programs/GAUSSIAN/64/g09/l308.exe)
 Leave Link  308 at Tue Sep 15 10:30:55 2020, MaxMem=   131072000 cpu:         1.2
 (Enter /share/programs/GAUSSIAN/64/g09/l303.exe)
 DipDrv:  MaxL=1.
 Leave Link  303 at Tue Sep 15 10:30:55 2020, MaxMem=   131072000 cpu:         0.9
 (Enter /share/programs/GAUSSIAN/64/g09/l401.exe)
 Initial guess from the checkpoint file:  "/scratch/aartigas.38763/Gau-24620.chk"
 Skipping rotation of guess because NAtoms(RWF)=  236 differs from NAtoms(Chk)=   36.
 Guess basis will be translated and rotated to current coordinates.
 JPrj=2 DoOrth=T DoCkMO=T.
 Leave Link  401 at Tue Sep 15 10:30:57 2020, MaxMem=   131072000 cpu:        10.4
 (Enter /share/programs/GAUSSIAN/64/g09/l502.exe)
 Closed shell SCF:
 Using DIIS extrapolation, IDIIS=  1040.
 Two-electron integral symmetry not used.
 IVT=     1071582 IEndB=     1071582 NGot=   131072000 MDV=   130365749
 LenX=   130365749 LenY=   130017059
 Requested convergence on RMS density matrix=1.00D-08 within 128 cycles.
 Requested convergence on MAX density matrix=1.00D-06.
 Requested convergence on             energy=1.00D-06.
 No special actions if energy rises.
 Fock matrices will be formed incrementally for  20 cycles.

 Cycle   1  Pass 1  IDiag  1:
 FoFJK:  IHMeth= 1 ICntrl=       0 DoSepK=F KAlg= 0 I1Cent=   0 FoldK=F
 IRaf= 940000000 NMat=   1 IRICut=       1 DoRegI=T DoRafI=F ISym2E= 0.
 FoFCou: FMM=T IPFlag=           0 FMFlag=      100000 FMFlg1=        2001
         NFxFlg=           0 DoJE=F BraDBF=F KetDBF=F FulRan=T
         wScrn=  0.000000 ICntrl=       0 IOpCl=  0 I1Cent=           0 NGrid=           0
         NMat0=    1 NMatS0=      1 NMatT0=    0 NMatD0=    1 NMtDS0=    0 NMtDT0=    0
 Symmetry not used in FoFCou.
 FMM levels:  10  Number of levels for PrismC:   9
 E= -847.003738666967    
 DIIS: error= 5.05D-08 at cycle   1 NSaved=   1.
 NSaved= 1 IEnMin= 1 EnMin= -847.003738666967     IErMin= 1 ErrMin= 5.05D-08
 ErrMax= 5.05D-08  0.00D+00 EMaxC= 1.00D-01 BMatC= 3.55D-12 BMatP= 3.55D-12
 IDIUse=1 WtCom= 1.00D+00 WtEn= 0.00D+00
 Coeff-Com:  0.100D+01
 Coeff:      0.100D+01
 Gap=     0.151 Goal=   None    Shift=    0.000
 RMSDP=2.88D-07 MaxDP=1.33D-05              OVMax= 3.94D-07

 Cycle   2  Pass 1  IDiag  1:
 RMSU=  2.85D-07    CP:  1.00D+00
 E= -847.003738666839     Delta-E=        0.000000000128 Rises=F Damp=F
 DIIS: error= 1.42D-08 at cycle   2 NSaved=   2.
 NSaved= 2 IEnMin= 1 EnMin= -847.003738666967     IErMin= 2 ErrMin= 1.42D-08
 ErrMax= 1.42D-08  0.00D+00 EMaxC= 1.00D-01 BMatC= 2.13D-13 BMatP= 3.55D-12
 IDIUse=1 WtCom= 1.00D+00 WtEn= 0.00D+00
 Coeff-Com:  0.627D-01 0.937D+00
 Coeff:      0.627D-01 0.937D+00
 Gap=     0.151 Goal=   None    Shift=    0.000
 RMSDP=1.58D-08 MaxDP=7.89D-07 DE= 1.28D-10 OVMax= 3.02D-07

 Cycle   3  Pass 1  IDiag  1:
 RMSU=  1.33D-08    CP:  1.00D+00  1.02D+00
 E= -847.003738666831     Delta-E=        0.000000000008 Rises=F Damp=F
 DIIS: error= 2.51D-08 at cycle   3 NSaved=   3.
 NSaved= 3 IEnMin= 1 EnMin= -847.003738666967     IErMin= 2 ErrMin= 1.42D-08
 ErrMax= 2.51D-08  0.00D+00 EMaxC= 1.00D-01 BMatC= 5.05D-13 BMatP= 2.13D-13
 IDIUse=1 WtCom= 1.00D+00 WtEn= 0.00D+00
 Coeff-Com: -0.107D-01 0.616D+00 0.395D+00
 Coeff:     -0.107D-01 0.616D+00 0.395D+00
 Gap=     0.151 Goal=   None    Shift=    0.000
 RMSDP=1.03D-08 MaxDP=4.12D-07 DE= 8.19D-12 OVMax= 2.17D-07

 Cycle   4  Pass 1  IDiag  1:
 RMSU=  5.91D-09    CP:  1.00D+00  1.03D+00  3.95D-01
 E= -847.003738666726     Delta-E=        0.000000000105 Rises=F Damp=F
 DIIS: error= 8.06D-09 at cycle   4 NSaved=   4.
 NSaved= 4 IEnMin= 1 EnMin= -847.003738666967     IErMin= 4 ErrMin= 8.06D-09
 ErrMax= 8.06D-09  0.00D+00 EMaxC= 1.00D-01 BMatC= 2.07D-14 BMatP= 2.13D-13
 IDIUse=1 WtCom= 1.00D+00 WtEn= 0.00D+00
 Coeff-Com: -0.876D-02 0.309D+00 0.241D+00 0.459D+00
 Coeff:     -0.876D-02 0.309D+00 0.241D+00 0.459D+00
 Gap=     0.151 Goal=   None    Shift=    0.000
 RMSDP=4.16D-09 MaxDP=1.53D-07 DE= 1.05D-10 OVMax= 6.88D-08

 SCF Done:  E(RB3LYP) =  -847.003738667     A.U. after    4 cycles
            NFock=  4  Conv=0.42D-08     -V/T= 2.0049
 KE= 8.428349970566D+02 PE=-5.164192584015D+03 EE= 1.874438221195D+03
 Leave Link  502 at Tue Sep 15 10:33:08 2020, MaxMem=   131072000 cpu:      1043.4
 (Enter /share/programs/GAUSSIAN/64/g09/l801.exe)
 DoSCS=F DFT=T ScalE2(SS,OS)=  1.000000  1.000000
 Range of M.O.s used for correlation:     1   557
 NBasis=   568 NAE=    73 NBE=    73 NFC=     0 NFV=     0
 NROrb=    557 NOA=    73 NOB=    73 NVA=   484 NVB=   484

 **** Warning!!: The largest alpha MO coefficient is  0.14271943D+03

 Leave Link  801 at Tue Sep 15 10:33:08 2020, MaxMem=   131072000 cpu:         0.3
 (Enter /share/programs/GAUSSIAN/64/g09/l1002.exe)
 Minotr:  Closed shell wavefunction.
          Direct CPHF calculation.
          Differentiating once with respect to magnetic field using GIAOs.
          Electric field/nuclear overlap derivatives assumed to be zero.
          Requested convergence is 1.0D-08 RMS, and 1.0D-07 maximum.
          Secondary convergence is 1.0D-12 RMS, and 1.0D-12 maximum.
          NewPWx=T KeepS1=F KeepF1=F KeepIn=T MapXYZ=F SortEE=F KeepMc=T.
          MDV=     131069551 using IRadAn=       2.
 Generate precomputed XC quadrature information.
          Solving linear equations simultaneously, MaxMat=      72.
 FoFCou: FMM=F IPFlag=           0 FMFlag=      100000 FMFlg1=        2001
         NFxFlg=           0 DoJE=F BraDBF=F KetDBF=T FulRan=T
         wScrn=  0.000000 ICntrl=    6100 IOpCl=  0 I1Cent=           7 NGrid=         236
         NMat0=    1 NMatS0=      1 NMatT0=    0 NMatD0=    1 NMtDS0=    0 NMtDT0=    0
 Symmetry not used in FoFCou.
 FoFJK:  IHMeth= 1 ICntrl=    6127 DoSepK=F KAlg= 0 I1Cent=   0 FoldK=F
 IRaf=         1 NMat=   1 IRICut=       1 DoRegI=T DoRafI=F ISym2E= 0.
          There are     3 degrees of freedom in the 1st order CPHF.  IDoFFX=0 NUNeed=     3.
      3 vectors produced by pass  0 Test12= 1.18D-12 3.33D-08 XBig12= 1.96D+03 8.77D+00.
 AX will form     3 AO Fock derivatives at one time.
      3 vectors produced by pass  1 Test12= 1.18D-12 3.33D-08 XBig12= 3.18D+00 7.58D-01.
      3 vectors produced by pass  2 Test12= 1.18D-12 3.33D-08 XBig12= 1.86D-02 5.85D-02.
      3 vectors produced by pass  3 Test12= 1.18D-12 3.33D-08 XBig12= 4.29D-05 1.35D-03.
      3 vectors produced by pass  4 Test12= 1.18D-12 3.33D-08 XBig12= 9.75D-08 7.22D-05.
      3 vectors produced by pass  5 Test12= 1.18D-12 3.33D-08 XBig12= 3.97D-10 5.92D-06.
      3 vectors produced by pass  6 Test12= 1.18D-12 3.33D-08 XBig12= 1.51D-12 4.40D-07.
 InvSVY:  IOpt=1 It=  1 EMax= 1.42D-14
 Solved reduced A of dimension    21 with     3 vectors.
 Calculating GIAO nuclear magnetic shielding tensors.
 SCF GIAO Magnetic shielding tensor (ppm):
      1  C    Isotropic =    49.6861   Anisotropy =   149.7970
   XX=    46.3088   YX=   -25.0950   ZX=    31.4786
   XY=   -31.1109   YY=   -39.0339   ZY=    13.2621
   XZ=    24.9178   YZ=     8.9888   ZZ=   141.7833
   Eigenvalues:   -49.3507    48.8581   149.5507
      2  C    Isotropic =    49.6861   Anisotropy =   149.7971
   XX=    46.3088   YX=    25.0953   ZX=    31.4786
   XY=    31.1111   YY=   -39.0339   ZY=   -13.2621
   XZ=    24.9177   YZ=    -8.9889   ZZ=   141.7834
   Eigenvalues:   -49.3508    48.8583   149.5509
      3  C    Isotropic =    44.4899   Anisotropy =   204.7372
   XX=   -22.2199   YX=    10.8075   ZX=    51.2710
   XY=     4.9259   YY=   -14.7126   ZY=    14.7921
   XZ=    32.3655   YZ=    21.2392   ZZ=   170.4022
   Eigenvalues:   -31.9593   -15.5523   180.9814
      4  C    Isotropic =    44.4899   Anisotropy =   204.7373
   XX=   -22.2198   YX=   -10.8075   ZX=    51.2710
   XY=    -4.9256   YY=   -14.7126   ZY=   -14.7922
   XZ=    32.3656   YZ=   -21.2393   ZZ=   170.4023
   Eigenvalues:   -31.9592   -15.5524   180.9815
      5  C    Isotropic =    48.5420   Anisotropy =   189.5490
   XX=   -14.6790   YX=     4.7342   ZX=     8.4333
   XY=    20.3759   YY=    -5.5375   ZY=    31.5121
   XZ=    65.1218   YZ=     0.8640   ZZ=   165.8426
   Eigenvalues:   -26.3226    -2.9593   174.9080
      6  C    Isotropic =    48.5421   Anisotropy =   189.5489
   XX=   -14.6789   YX=    -4.7340   ZX=     8.4335
   XY=   -20.3758   YY=    -5.5374   ZY=   -31.5121
   XZ=    65.1218   YZ=    -0.8638   ZZ=   165.8426
   Eigenvalues:   -26.3224    -2.9594   174.9080
      7  C    Isotropic =    50.1907   Anisotropy =   149.2089
   XX=    19.7303   YX=   -44.2755   ZX=    41.2886
   XY=   -38.0437   YY=    -2.7069   ZY=    36.9011
   XZ=    36.5866   YZ=    37.5458   ZZ=   133.5487
   Eigenvalues:   -49.6656    50.5744   149.6633
      8  C    Isotropic =    48.9362   Anisotropy =   152.4339
   XX=   -31.5093   YX=   -11.4921   ZX=    54.7730
   XY=   -19.0468   YY=    46.5898   ZY=    27.5522
   XZ=    42.2451   YZ=    29.8391   ZZ=   131.7282
   Eigenvalues:   -50.1461    46.3960   150.5589
      9  C    Isotropic =    44.4204   Anisotropy =   209.3981
   XX=   -10.1987   YX=    16.7536   ZX=    44.4888
   XY=     8.9342   YY=    -7.7270   ZY=    61.4651
   XZ=    43.3269   YZ=    64.9792   ZZ=   151.1869
   Eigenvalues:   -30.3689   -20.3891   184.0192
     10  C    Isotropic =    45.3894   Anisotropy =   198.3236
   XX=    -5.9706   YX=    23.3819   ZX=    35.6519
   XY=    38.1954   YY=     1.7271   ZY=    73.1370
   XZ=    54.0013   YZ=    45.7045   ZZ=   140.4116
   Eigenvalues:   -33.5315    -7.9055   177.6051
     11  H    Isotropic =    23.8179   Anisotropy =     7.5674
   XX=    27.2191   YX=    -1.9090   ZX=    -2.2602
   XY=    -1.7961   YY=    24.8722   ZY=    -0.1966
   XZ=    -3.3763   YZ=    -0.1950   ZZ=    19.3625
   Eigenvalues:    18.3647    24.2263    28.8628
     12  H    Isotropic =    23.8179   Anisotropy =     7.5674
   XX=    27.2191   YX=     1.9090   ZX=    -2.2602
   XY=     1.7961   YY=    24.8722   ZY=     0.1966
   XZ=    -3.3763   YZ=     0.1950   ZZ=    19.3625
   Eigenvalues:    18.3647    24.2263    28.8628
     13  H    Isotropic =    23.8548   Anisotropy =     7.5124
[...]
   100  Bq   0.000000
   101  Bq   0.000000
   102  Bq   0.000000
   103  Bq   0.000000
   104  Bq   0.000000
   105  Bq   0.000000
   106  Bq   0.000000
   107  Bq   0.000000
   108  Bq   0.000000
   109  Bq   0.000000
   110  Bq   0.000000
   111  Bq   0.000000
   112  Bq   0.000000
   113  Bq   0.000000
   114  Bq   0.000000
   115  Bq   0.000000
   116  Bq   0.000000
   117  Bq   0.000000
   118  Bq   0.000000
   119  Bq   0.000000
   120  Bq   0.000000
   121  Bq   0.000000
   122  Bq   0.000000
   123  Bq   0.000000
   124  Bq   0.000000
   125  Bq   0.000000
   126  Bq   0.000000
   127  Bq   0.000000
   128  Bq   0.000000
   129  Bq   0.000000
   130  Bq   0.000000
   131  Bq   0.000000
   132  Bq   0.000000
   133  Bq   0.000000
   134  Bq   0.000000
   135  Bq   0.000000
   136  Bq   0.000000
   137  Bq   0.000000
   138  Bq   0.000000
   139  Bq   0.000000
   140  Bq   0.000000
   141  Bq   0.000000
   142  Bq   0.000000
   143  Bq   0.000000
   144  Bq   0.000000
   145  Bq   0.000000
   146  Bq   0.000000
   147  Bq   0.000000
   148  Bq   0.000000
   149  Bq   0.000000
   150  Bq   0.000000
   151  Bq   0.000000
   152  Bq   0.000000
   153  Bq   0.000000
   154  Bq   0.000000
   155  Bq   0.000000
   156  Bq   0.000000
   157  Bq   0.000000
   158  Bq   0.000000
   159  Bq   0.000000
   160  Bq   0.000000
   161  Bq   0.000000
   162  Bq   0.000000
   163  Bq   0.000000
   164  Bq   0.000000
   165  Bq   0.000000
   166  Bq   0.000000
   167  Bq   0.000000
   168  Bq   0.000000
   169  Bq   0.000000
   170  Bq   0.000000
   171  Bq   0.000000
   172  Bq   0.000000
   173  Bq   0.000000
   174  Bq   0.000000
   175  Bq   0.000000
   176  Bq   0.000000
   177  Bq   0.000000
   178  Bq   0.000000
   179  Bq   0.000000
   180  Bq   0.000000
   181  Bq   0.000000
   182  Bq   0.000000
   183  Bq   0.000000
   184  Bq   0.000000
   185  Bq   0.000000
   186  Bq   0.000000
   187  Bq   0.000000
   188  Bq   0.000000
   189  Bq   0.000000
   190  Bq   0.000000
   191  Bq   0.000000
   192  Bq   0.000000
   193  Bq   0.000000
   194  Bq   0.000000
   195  Bq   0.000000
   196  Bq   0.000000
   197  Bq   0.000000
   198  Bq   0.000000
   199  Bq   0.000000
   200  Bq   0.000000
   201  Bq   0.000000
   202  Bq   0.000000
   203  Bq   0.000000
   204  Bq   0.000000
   205  Bq   0.000000
   206  Bq   0.000000
   207  Bq   0.000000
   208  Bq   0.000000
   209  Bq   0.000000
   210  Bq   0.000000
   211  Bq   0.000000
   212  Bq   0.000000
   213  Bq   0.000000
   214  Bq   0.000000
   215  Bq   0.000000
   216  Bq   0.000000
   217  Bq   0.000000
   218  Bq   0.000000
   219  Bq   0.000000
   220  Bq   0.000000
   221  Bq   0.000000
   222  Bq   0.000000
   223  Bq   0.000000
   224  Bq   0.000000
   225  Bq   0.000000
   226  Bq   0.000000
   227  Bq   0.000000
   228  Bq   0.000000
   229  Bq   0.000000
   230  Bq   0.000000
   231  Bq   0.000000
   232  Bq   0.000000
   233  Bq   0.000000
   234  Bq   0.000000
   235  Bq   0.000000
   236  Bq   0.000000
 Sum of Mulliken charges =   0.00000
 Mulliken charges with hydrogens summed into heavy atoms:
               1
     1  C   -0.262865
     2  C   -0.262866
     3  C    0.737923
     4  C    0.737922
     5  C   -0.039994
     6  C   -0.040001
     7  C    0.075155
     8  C   -0.330147
     9  C    0.780501
    10  C   -0.200782
    15  C    0.249272
    16  C   -0.533462
    17  C   -0.189404
    18  C   -0.286191
    23  C   -0.330145
    24  C    0.075154
    25  C    0.780496
    26  C   -0.200782
    27  C    0.249273
    28  C   -0.286192
    29  C   -0.189403
    30  C   -0.533462
    37  Bq   0.000000
    38  Bq   0.000000
    39  Bq   0.000000
    40  Bq   0.000000
    41  Bq   0.000000
    42  Bq   0.000000
    43  Bq   0.000000
    44  Bq   0.000000
    45  Bq   0.000000
    46  Bq   0.000000
    47  Bq   0.000000
    48  Bq   0.000000
    49  Bq   0.000000
    50  Bq   0.000000
    51  Bq   0.000000
    52  Bq   0.000000
    53  Bq   0.000000
    54  Bq   0.000000
    55  Bq   0.000000
    56  Bq   0.000000
    57  Bq   0.000000
    58  Bq   0.000000
    59  Bq   0.000000
    60  Bq   0.000000
    61  Bq   0.000000
    62  Bq   0.000000
    63  Bq   0.000000
    64  Bq   0.000000
    65  Bq   0.000000
    66  Bq   0.000000
    67  Bq   0.000000
    68  Bq   0.000000
    69  Bq   0.000000
    70  Bq   0.000000
    71  Bq   0.000000
    72  Bq   0.000000
    73  Bq   0.000000
    74  Bq   0.000000
    75  Bq   0.000000
    76  Bq   0.000000
    77  Bq   0.000000
    78  Bq   0.000000
    79  Bq   0.000000
    80  Bq   0.000000
    81  Bq   0.000000
    82  Bq   0.000000
    83  Bq   0.000000
    84  Bq   0.000000
    85  Bq   0.000000
    86  Bq   0.000000
    87  Bq   0.000000
    88  Bq   0.000000
    89  Bq   0.000000
    90  Bq   0.000000
    91  Bq   0.000000
    92  Bq   0.000000
    93  Bq   0.000000
    94  Bq   0.000000
    95  Bq   0.000000
    96  Bq   0.000000
    97  Bq   0.000000
    98  Bq   0.000000
    99  Bq   0.000000
   100  Bq   0.000000
   101  Bq   0.000000
   102  Bq   0.000000
   103  Bq   0.000000
   104  Bq   0.000000
   105  Bq   0.000000
   106  Bq   0.000000
   107  Bq   0.000000
   108  Bq   0.000000
   109  Bq   0.000000
   110  Bq   0.000000
   111  Bq   0.000000
   112  Bq   0.000000
   113  Bq   0.000000
   114  Bq   0.000000
   115  Bq   0.000000
   116  Bq   0.000000
   117  Bq   0.000000
   118  Bq   0.000000
   119  Bq   0.000000
   120  Bq   0.000000
   121  Bq   0.000000
   122  Bq   0.000000
   123  Bq   0.000000
   124  Bq   0.000000
   125  Bq   0.000000
   126  Bq   0.000000
   127  Bq   0.000000
   128  Bq   0.000000
   129  Bq   0.000000
   130  Bq   0.000000
   131  Bq   0.000000
   132  Bq   0.000000
   133  Bq   0.000000
   134  Bq   0.000000
   135  Bq   0.000000
   136  Bq   0.000000
   137  Bq   0.000000
   138  Bq   0.000000
   139  Bq   0.000000
   140  Bq   0.000000
   141  Bq   0.000000
   142  Bq   0.000000
   143  Bq   0.000000
   144  Bq   0.000000
   145  Bq   0.000000
   146  Bq   0.000000
   147  Bq   0.000000
   148  Bq   0.000000
   149  Bq   0.000000
   150  Bq   0.000000
   151  Bq   0.000000
   152  Bq   0.000000
   153  Bq   0.000000
   154  Bq   0.000000
   155  Bq   0.000000
   156  Bq   0.000000
   157  Bq   0.000000
   158  Bq   0.000000
   159  Bq   0.000000
   160  Bq   0.000000
   161  Bq   0.000000
   162  Bq   0.000000
   163  Bq   0.000000
   164  Bq   0.000000
   165  Bq   0.000000
   166  Bq   0.000000
   167  Bq   0.000000
   168  Bq   0.000000
   169  Bq   0.000000
   170  Bq   0.000000
   171  Bq   0.000000
   172  Bq   0.000000
   173  Bq   0.000000
   174  Bq   0.000000
   175  Bq   0.000000
   176  Bq   0.000000
   177  Bq   0.000000
   178  Bq   0.000000
   179  Bq   0.000000
   180  Bq   0.000000
   181  Bq   0.000000
   182  Bq   0.000000
   183  Bq   0.000000
   184  Bq   0.000000
   185  Bq   0.000000
   186  Bq   0.000000
   187  Bq   0.000000
   188  Bq   0.000000
   189  Bq   0.000000
   190  Bq   0.000000
   191  Bq   0.000000
   192  Bq   0.000000
   193  Bq   0.000000
   194  Bq   0.000000
   195  Bq   0.000000
   196  Bq   0.000000
   197  Bq   0.000000
   198  Bq   0.000000
   199  Bq   0.000000
   200  Bq   0.000000
   201  Bq   0.000000
   202  Bq   0.000000
   203  Bq   0.000000
   204  Bq   0.000000
   205  Bq   0.000000
   206  Bq   0.000000
   207  Bq   0.000000
   208  Bq   0.000000
   209  Bq   0.000000
   210  Bq   0.000000
   211  Bq   0.000000
   212  Bq   0.000000
   213  Bq   0.000000
   214  Bq   0.000000
   215  Bq   0.000000
   216  Bq   0.000000
   217  Bq   0.000000
   218  Bq   0.000000
   219  Bq   0.000000
   220  Bq   0.000000
   221  Bq   0.000000
   222  Bq   0.000000
   223  Bq   0.000000
   224  Bq   0.000000
   225  Bq   0.000000
   226  Bq   0.000000
   227  Bq   0.000000
   228  Bq   0.000000
   229  Bq   0.000000
   230  Bq   0.000000
   231  Bq   0.000000
   232  Bq   0.000000
   233  Bq   0.000000
   234  Bq   0.000000
   235  Bq   0.000000
   236  Bq   0.000000
 Electronic spatial extent (au):  <R**2>=           5804.3227
 Charge=              0.0000 electrons
 Dipole moment (field-independent basis, Debye):
    X=              0.0000    Y=              0.0732    Z=              0.0000  Tot=              0.0732
 Quadrupole moment (field-independent basis, Debye-Ang):
   XX=           -113.9137   YY=           -113.9781   ZZ=           -133.4378
   XY=              0.0000   XZ=             -4.8717   YZ=              0.0000
 Traceless Quadrupole moment (field-independent basis, Debye-Ang):
   XX=              6.5295   YY=              6.4651   ZZ=            -12.9946
   XY=              0.0000   XZ=             -4.8717   YZ=              0.0000
 Octapole moment (field-independent basis, Debye-Ang**2):
  XXX=              0.0000  YYY=             11.7108  ZZZ=              0.0000  XYY=              0.0000
  XXY=             -6.4067  XXZ=              0.0000  XZZ=              0.0000  YZZ=             -7.8695
  YYZ=              0.0000  XYZ=            -16.2862
 Hexadecapole moment (field-independent basis, Debye-Ang**3):
 XXXX=          -4416.4021 YYYY=          -2784.9756 ZZZZ=           -481.5690 XXXY=              0.0001
 XXXZ=           -124.3517 YYYX=             -0.0003 YYYZ=              0.0001 ZZZX=             -4.4782
 ZZZY=              0.0001 XXYY=          -1189.3576 XXZZ=           -942.9016 YYZZ=           -589.4012
 XXYZ=              0.0000 YYXZ=              7.8297 ZZXY=             -0.0001
 N-N= 1.599915627097D+03 E-N=-5.164192587538D+03  KE= 8.428349970566D+02
 Leave Link  601 at Tue Sep 15 10:43:59 2020, MaxMem=   131072000 cpu:         0.8
 (Enter /share/programs/GAUSSIAN/64/g09/l9999.exe)
 1\1\GINC-URBICANDE\SP\RB3LYP\6-311+G(d,p)\C22H14\AARTIGAS\15-Sep-2020\
 0\\#P rb3lyp/6-311+g** NMR Guess=Read geom=connectivity\\Title\\0,1\C,
 0,0.653241,3.257859,-0.20251\C,0,-0.653243,3.25786,0.20251\C,0,1.37249
 5,2.032956,-0.320807\C,0,-1.372495,2.032956,0.320807\C,0,0.722474,0.79
 5666,-0.050388\C,0,-0.722474,0.795667,0.050387\C,0,2.760385,2.053927,-
 0.674268\C,0,3.508866,0.913916,-0.671362\C,0,2.955226,-0.309622,-0.177
 479\C,0,1.574722,-0.361114,0.197094\H,0,1.183427,4.19574,-0.384599\H,0
 ,-1.183429,4.19574,0.384599\H,0,3.206283,3.012423,-0.951392\H,0,4.5600
 23,0.932956,-0.969333\C,0,3.78302,-1.443098,0.028309\C,0,1.137427,-1.5
 07533,0.912109\C,0,1.973691,-2.584349,1.138062\C,0,3.301853,-2.571588,
 0.661177\H,0,4.825754,-1.39123,-0.295484\H,0,0.124652,-1.532788,1.3084
 72\H,0,1.603586,-3.445682,1.698977\H,0,3.952742,-3.433526,0.825134\C,0
 ,-3.508866,0.913915,0.671362\C,0,-2.760386,2.053926,0.674268\C,0,-2.95
 5226,-0.309623,0.177479\C,0,-1.574722,-0.361114,-0.197094\C,0,-3.78302
 ,-1.443099,-0.028309\C,0,-3.301852,-2.571589,-0.661177\C,0,-1.97369,-2
 .584349,-1.138061\C,0,-1.137426,-1.507534,-0.912109\H,0,-4.560022,0.93
 2954,0.969334\H,0,-3.206283,3.012421,0.951392\H,0,-4.825754,-1.391232,
 0.295484\H,0,-3.952741,-3.433528,-0.825134\H,0,-1.603585,-3.445682,-1.
 698976\H,0,-0.124652,-1.532788,-1.308471\Bq,0,0.4956819482,3.463193954
 ,-1.1684358263\Bq,0,0.4702282981,3.4408717019,-1.1684358263\Bq,0,0.447
 906046,3.4154180518,-1.1684358263\Bq,0,0.429097132,3.3872685226,-1.168
 4358263\Bq,0,0.4141233816,3.3569047605,-1.1684358263\Bq,0,0.403241,3.3
 248462981,-1.1684358263\Bq,0,0.3966361877,3.2916416644,-1.1684358263\B
 q,0,0.3944219549,3.257859,-1.1684358263\Bq,0,0.3966361877,3.2240763356
 ,-1.1684358263\Bq,0,0.403241,3.1908717019,-1.1684358263\Bq,0,0.4141233
 816,3.1588132395,-1.1684358263\Bq,0,0.429097132,3.1284494774,-1.168435
 8263\Bq,0,0.447906046,3.1002999482,-1.1684358263\Bq,0,0.4702282981,3.0
 748462981,-1.1684358263\Bq,0,0.4956819482,3.052524046,-1.1684358263\Bq
 ,0,0.5238314774,3.033715132,-1.1684358263\Bq,0,0.5541952395,3.01874138
 16,-1.1684358263\Bq,0,0.5862537019,3.007859,-1.1684358263\Bq,0,0.61945
 83356,3.0012541877,-1.1684358263\Bq,0,0.653241,2.9990399549,-1.1684358
 263\Bq,0,0.6870236644,3.0012541877,-1.1684358263\Bq,0,0.7202282981,3.0
 07859,-1.1684358263\Bq,0,0.7522867605,3.0187413816,-1.1684358263\Bq,0,
 0.7826505226,3.033715132,-1.1684358263\Bq,0,0.8108000518,3.052524046,-
 1.1684358263\Bq,0,0.8362537019,3.0748462981,-1.1684358263\Bq,0,0.85857
 5954,3.1002999482,-1.1684358263\Bq,0,0.877384868,3.1284494774,-1.16843
 58263\Bq,0,0.8923586184,3.1588132395,-1.1684358263\Bq,0,0.903241,3.190
 8717019,-1.1684358263\Bq,0,0.9098458123,3.2240763356,-1.1684358263\Bq,
 0,0.7837671922,3.257859,-1.1939548614\Bq,0,0.7826505226,3.2748960869,-
 1.1939548614\Bq,0,0.7793196201,3.2916416644,-1.1939548614\Bq,0,0.77383
 14774,3.3078092113,-1.1939548614\Bq,0,0.7662799983,3.3231220961,-1.193
 9548614\Bq,0,0.7567943906,3.3373183113,-1.1939548614\Bq,0,0.7455369556
 ,3.3501549556,-1.1939548614\Bq,0,0.7327003113,3.3614123906,-1.19395486
 14\Bq,0,0.7185040961,3.3708979983,-1.1939548614\Bq,0,0.7031912113,3.37
 84494774,-1.1939548614\Bq,0,0.6870236644,3.3839376201,-1.1939548614\Bq
 ,0,0.6702780869,3.3872685226,-1.1939548614\Bq,0,0.653241,3.3883851922,
 -1.1939548614\Bq,0,0.6362039131,3.3872685226,-1.1939548614\Bq,0,0.6194
 583356,3.3839376201,-1.1939548614\Bq,0,0.6032907887,3.3784494774,-1.19
 39548614\Bq,0,0.5879779039,3.3708979983,-1.1939548614\Bq,0,0.573781688
 7,3.3614123906,-1.1939548614\Bq,0,0.5609450444,3.3501549556,-1.1939548
 614\Bq,0,0.5496876094,3.3373183113,-1.1939548614\Bq,0,0.5402020017,3.3
 231220961,-1.1939548614\Bq,0,0.5326505226,3.3078092113,-1.1939548614\B
 q,0,0.5271623799,3.2916416644,-1.1939548614\Bq,0,0.5238314774,3.274896
 0869,-1.1939548614\Bq,0,0.5227148078,3.257859,-1.1939548614\Bq,0,0.523
 8314774,3.2408219131,-1.1939548614\Bq,0,0.5271623799,3.2240763356,-1.1
 939548614\Bq,0,0.5326505226,3.2079087887,-1.1939548614\Bq,0,0.54020200
 17,3.1925959039,-1.1939548614\Bq,0,0.5496876094,3.1783996887,-1.193954
 8614\Bq,0,0.5609450444,3.1655630444,-1.1939548614\Bq,0,0.5737816887,3.
 1543056094,-1.1939548614\Bq,0,0.5879779039,3.1448200017,-1.1939548614\
 Bq,0,0.6032907887,3.1372685226,-1.1939548614\Bq,0,0.6194583356,3.13178
 03799,-1.1939548614\Bq,0,0.6362039131,3.1284494774,-1.1939548614\Bq,0,
 0.653241,3.1273328078,-1.1939548614\Bq,0,0.6702780869,3.1284494774,-1.
 1939548614\Bq,0,0.6870236644,3.1317803799,-1.1939548614\Bq,0,0.7031912
 113,3.1372685226,-1.1939548614\Bq,0,0.7185040961,3.1448200017,-1.19395
 48614\Bq,0,0.7327003113,3.1543056094,-1.1939548614\Bq,0,0.7455369556,3
 .1655630444,-1.1939548614\Bq,0,0.7567943906,3.1783996887,-1.1939548614
 \Bq,0,0.7662799983,3.1925959039,-1.1939548614\Bq,0,0.7738314774,3.2079
 087887,-1.1939548614\Bq,0,0.7793196201,3.2240763356,-1.1939548614\Bq,0
 ,0.7826505226,3.2408219131,-1.1939548614\Bq,0,-0.653243,3.25786,1.2025
 1\Bq,0,-0.653243,3.25786,1.20251\Bq,0,-0.653243,3.25786,1.20251\Bq,0,-
 0.653243,3.25786,1.20251\Bq,0,-0.653243,3.25786,1.20251\Bq,0,-0.653243
 ,3.25786,1.20251\Bq,0,-0.653243,3.25786,1.20251\Bq,0,-0.653243,3.25786
 ,1.20251\Bq,0,-0.653243,3.25786,1.20251\Bq,0,-0.653243,3.25786,1.20251
 \Bq,0,-0.653243,3.25786,1.20251\Bq,0,-0.653243,3.25786,1.20251\Bq,0,-0
 .653243,3.25786,1.20251\Bq,0,-0.653243,3.25786,1.20251\Bq,0,-0.653243,
 3.25786,1.20251\Bq,0,-0.653243,3.25786,1.20251\Bq,0,-0.653243,3.25786,
 1.20251\Bq,0,-0.653243,3.25786,1.20251\Bq,0,-0.653243,3.25786,1.20251\
 Bq,0,-0.653243,3.25786,1.20251\Bq,0,-0.653243,3.25786,1.20251\Bq,0,-0.
 653243,3.25786,1.20251\Bq,0,-0.653243,3.25786,1.20251\Bq,0,-0.653243,3
 .25786,1.20251\Bq,0,-0.653243,3.25786,1.20251\Bq,0,-0.653243,3.25786,1
 .20251\Bq,0,-0.653243,3.25786,1.20251\Bq,0,-0.653243,3.25786,1.20251\B
 q,0,-0.653243,3.25786,1.20251\Bq,0,-0.653243,3.25786,1.20251\Bq,0,-0.6
 53243,3.25786,1.20251\Bq,0,-0.653243,3.25786,1.20251\Bq,0,-0.653243,3.
 25786,1.20251\Bq,0,-0.653243,3.25786,1.20251\Bq,0,-0.653243,3.25786,1.
 20251\Bq,0,-0.653243,3.25786,1.20251\Bq,0,-0.653243,3.25786,1.20251\Bq
 ,0,-0.653243,3.25786,1.20251\Bq,0,-0.653243,3.25786,1.20251\Bq,0,-0.65
 3243,3.25786,1.20251\Bq,0,-0.653243,3.25786,1.20251\Bq,0,-0.653243,3.2
 5786,1.20251\Bq,0,-0.653243,3.25786,1.20251\Bq,0,-0.653243,3.25786,1.2
 0251\Bq,0,-0.653243,3.25786,1.20251\Bq,0,-0.653243,3.25786,1.20251\Bq,
 0,-0.653243,3.25786,1.20251\Bq,0,-0.653243,3.25786,1.20251\Bq,0,-0.522
 7168078,3.25786,1.1939548614\Bq,0,-0.5238334774,3.2748970869,1.1939548
 614\Bq,0,-0.5271643799,3.2916426644,1.1939548614\Bq,0,-0.5326525226,3.
 3078102113,1.1939548614\Bq,0,-0.5402040017,3.3231230961,1.1939548614\B
 q,0,-0.5496896094,3.3373193113,1.1939548614\Bq,0,-0.5609470444,3.35015
 59556,1.1939548614\Bq,0,-0.5737836887,3.3614133906,1.1939548614\Bq,0,-
 0.5879799039,3.3708989983,1.1939548614\Bq,0,-0.6032927887,3.3784504774
 ,1.1939548614\Bq,0,-0.6194603356,3.3839386201,1.1939548614\Bq,0,-0.636
 2059131,3.3872695226,1.1939548614\Bq,0,-0.653243,3.3883861922,1.193954
 8614\Bq,0,-0.6702800869,3.3872695226,1.1939548614\Bq,0,-0.6870256644,3
 .3839386201,1.1939548614\Bq,0,-0.7031932113,3.3784504774,1.1939548614\
 Bq,0,-0.7185060961,3.3708989983,1.1939548614\Bq,0,-0.7327023113,3.3614
 133906,1.1939548614\Bq,0,-0.7455389556,3.3501559556,1.1939548614\Bq,0,
 -0.7567963906,3.3373193113,1.1939548614\Bq,0,-0.7662819983,3.323123096
 1,1.1939548614\Bq,0,-0.7738334774,3.3078102113,1.1939548614\Bq,0,-0.77
 93216201,3.2916426644,1.1939548614\Bq,0,-0.7826525226,3.2748970869,1.1
 939548614\Bq,0,-0.7837691922,3.25786,1.1939548614\Bq,0,-0.7826525226,3
 .2408229131,1.1939548614\Bq,0,-0.7793216201,3.2240773356,1.1939548614\
 Bq,0,-0.7738334774,3.2079097887,1.1939548614\Bq,0,-0.7662819983,3.1925
 969039,1.1939548614\Bq,0,-0.7567963906,3.1784006887,1.1939548614\Bq,0,
 -0.7455389556,3.1655640444,1.1939548614\Bq,0,-0.7327023113,3.154306609
 4,1.1939548614\Bq,0,-0.7185060961,3.1448210017,1.1939548614\Bq,0,-0.70
 31932113,3.1372695226,1.1939548614\Bq,0,-0.6870256644,3.1317813799,1.1
 939548614\Bq,0,-0.6702800869,3.1284504774,1.1939548614\Bq,0,-0.653243,
 3.1273338078,1.1939548614\Bq,0,-0.6362059131,3.1284504774,1.1939548614
 \Bq,0,-0.6194603356,3.1317813799,1.1939548614\Bq,0,-0.6032927887,3.137
 2695226,1.1939548614\Bq,0,-0.5879799039,3.1448210017,1.1939548614\Bq,0
 ,-0.5737836887,3.1543066094,1.1939548614\Bq,0,-0.5609470444,3.16556404
 44,1.1939548614\Bq,0,-0.5496896094,3.1784006887,1.1939548614\Bq,0,-0.5
 402040017,3.1925969039,1.1939548614\Bq,0,-0.5326525226,3.2079097887,1.
 1939548614\Bq,0,-0.5271643799,3.2240773356,1.1939548614\Bq,0,-0.523833
 4774,3.2408229131,1.1939548614\Bq,0,-0.3944239549,3.25786,1.1684358263
 \Bq,0,-0.3966381877,3.2916426644,1.1684358263\Bq,0,-0.403243,3.3248472
 981,1.1684358263\Bq,0,-0.4141253816,3.3569057605,1.1684358263\Bq,0,-0.
 429099132,3.3872695226,1.1684358263\Bq,0,-0.447908046,3.4154190518,1.1
 684358263\Bq,0,-0.4702302981,3.4408727019,1.1684358263\Bq,0,-0.4956839
 482,3.463194954,1.1684358263\Bq,0,-0.5238334774,3.482003868,1.16843582
 63\Bq,0,-0.5541972395,3.4969776184,1.1684358263\Bq,0,-0.5862557019,3.5
 0786,1.1684358263\Bq,0,-0.6194603356,3.5144648123,1.1684358263\Bq,0,-0
 .653243,3.5166790451,1.1684358263\Bq,0,-0.6870256644,3.5144648123,1.16
 84358263\Bq,0,-0.7202302981,3.50786,1.1684358263\Bq,0,-0.7522887605,3.
 4969776184,1.1684358263\Bq,0,-0.7826525226,3.482003868,1.1684358263\Bq
 ,0,-0.8108020518,3.463194954,1.1684358263\Bq,0,-0.8362557019,3.4408727
 019,1.1684358263\Bq,0,-0.858577954,3.4154190518,1.1684358263\Bq,0,-0.8
 77386868,3.3872695226,1.1684358263\Bq,0,-0.8923606184,3.3569057605,1.1
 684358263\Bq,0,-0.903243,3.3248472981,1.1684358263\Bq,0,-0.9098478123,
 3.2916426644,1.1684358263\Bq,0,-0.9120620451,3.25786,1.1684358263\\Ver
 sion=ES64L-G09RevD.01\HF=-847.0037387\RMSD=4.161e-09\Dipole=0.0000004,
 0.0287843,0.0000009\Quadrupole=4.8545288,4.8066247,-9.6611535,-0.00000
 47,-3.6219991,-0.000002\PG=C01 [X(C22H14)]\\@


 Everywhere is walking distance if you have the time.
                                    -- Steven Wright
 Job cpu time:       0 days  1 hours 42 minutes 18.3 seconds.
 File lengths (MBytes):  RWF=    184 Int=      0 D2E=      0 Chk=     21 Scr=      1
 Normal termination of Gaussian 09 at Tue Sep 15 10:43:59 2020.
