 Entering Gaussian System, Link 0=g09
 Input=input_batch_28400.com
 Output=input_batch_28400.log
 Initial command:
 /share/programs/GAUSSIAN/64/g09/l1.exe "/scratch/aartigas.39192/Gau-1425218.inp" -scrdir="/scratch/aartigas.39192/"
 Entering Link 1 = /share/programs/GAUSSIAN/64/g09/l1.exe PID=   1425219.
  
 Copyright (c) 1988,1990,1992,1993,1995,1998,2003,2009,2013,
            Gaussian, Inc.  All Rights Reserved.
  
 This is part of the Gaussian(R) 09 program.  It is based on
 the Gaussian(R) 03 system (copyright 2003, Gaussian, Inc.),
 the Gaussian(R) 98 system (copyright 1998, Gaussian, Inc.),
 the Gaussian(R) 94 system (copyright 1995, Gaussian, Inc.),
 the Gaussian 92(TM) system (copyright 1992, Gaussian, Inc.),
 the Gaussian 90(TM) system (copyright 1990, Gaussian, Inc.),
 the Gaussian 88(TM) system (copyright 1988, Gaussian, Inc.),
 the Gaussian 86(TM) system (copyright 1986, Carnegie Mellon
 University), and the Gaussian 82(TM) system (copyright 1983,
 Carnegie Mellon University). Gaussian is a federally registered
 trademark of Gaussian, Inc.
  
 This software contains proprietary and confidential information,
 including trade secrets, belonging to Gaussian, Inc.
  
 This software is provided under written license and may be
 used, copied, transmitted, or stored only in accord with that
 written license.
  
 The following legend is applicable only to US Government
 contracts under FAR:
  
                    RESTRICTED RIGHTS LEGEND
  
 Use, reproduction and disclosure by the US Government is
 subject to restrictions as set forth in subparagraphs (a)
 and (c) of the Commercial Computer Software - Restricted
 Rights clause in FAR 52.227-19.
  
 Gaussian, Inc.
 340 Quinnipiac St., Bldg. 40, Wallingford CT 06492
  
  
 ---------------------------------------------------------------
 Warning -- This program may not be used in any manner that
 competes with the business of Gaussian, Inc. or will provide
 assistance to any competitor of Gaussian, Inc.  The licensee
 of this program is prohibited from giving any competitor of
 Gaussian, Inc. access to this program.  By using this program,
 the user acknowledges that Gaussian, Inc. is engaged in the
 business of creating and licensing software in the field of
 computational chemistry and represents and warrants to the
 licensee that it is not a competitor of Gaussian, Inc. and that
 it will not use this program in any manner prohibited above.
 ---------------------------------------------------------------
  

 Cite this work as:
 Gaussian 09, Revision D.01,
 M. J. Frisch, G. W. Trucks, H. B. Schlegel, G. E. Scuseria, 
 M. A. Robb, J. R. Cheeseman, G. Scalmani, V. Barone, B. Mennucci, 
 G. A. Petersson, H. Nakatsuji, M. Caricato, X. Li, H. P. Hratchian, 
 A. F. Izmaylov, J. Bloino, G. Zheng, J. L. Sonnenberg, M. Hada, 
 M. Ehara, K. Toyota, R. Fukuda, J. Hasegawa, M. Ishida, T. Nakajima, 
 Y. Honda, O. Kitao, H. Nakai, T. Vreven, J. A. Montgomery, Jr., 
 J. E. Peralta, F. Ogliaro, M. Bearpark, J. J. Heyd, E. Brothers, 
 K. N. Kudin, V. N. Staroverov, T. Keith, R. Kobayashi, J. Normand, 
 K. Raghavachari, A. Rendell, J. C. Burant, S. S. Iyengar, J. Tomasi, 
 M. Cossi, N. Rega, J. M. Millam, M. Klene, J. E. Knox, J. B. Cross, 
 V. Bakken, C. Adamo, J. Jaramillo, R. Gomperts, R. E. Stratmann, 
 O. Yazyev, A. J. Austin, R. Cammi, C. Pomelli, J. W. Ochterski, 
 R. L. Martin, K. Morokuma, V. G. Zakrzewski, G. A. Voth, 
 P. Salvador, J. J. Dannenberg, S. Dapprich, A. D. Daniels, 
 O. Farkas, J. B. Foresman, J. V. Ortiz, J. Cioslowski, 
 and D. J. Fox, Gaussian, Inc., Wallingford CT, 2013.
 
 ******************************************
 Gaussian 09:  ES64L-G09RevD.01 24-Apr-2013
                15-Sep-2020 
 ******************************************
 %OldChk=/home/aartigas/chk/5_helicene_spe.chk
 %nproc=8
 Will use up to    8 processors via shared memory.
 %mem=1000MB
 Copying data from "/home/aartigas/chk/5_helicene_spe.chk" to current chk file "/scratch/aartigas.39192/Gau-1425219.chk".
 ----------------------------------------------------
 #P rb3lyp/6-311+g** NMR Guess=Read geom=connectivity
 ----------------------------------------------------
 1/38=1,57=2/1;
 2/12=2,17=6,18=5,40=1/2;
 3/5=4,6=6,7=111,11=2,16=1,25=1,30=1,74=-5,116=1/1,2,8,3;
 4/5=1/1;
 5/5=2,38=6/2;
 8/6=1,10=90,11=11/1;
 10/13=100,45=16/2;
 6/7=2,8=2,9=2,10=2,28=1/1;
 99/9=1/99;
 Leave Link    1 at Tue Sep 15 14:01:42 2020, MaxMem=   131072000 cpu:         0.6
 (Enter /share/programs/GAUSSIAN/64/g09/l101.exe)
 -----
 Title
 -----
 Symbolic Z-matrix:
 Charge =  0 Multiplicity = 1
 C                     0.65324   3.25786  -0.20251 
 C                    -0.65324   3.25786   0.20251 
 C                     1.3725    2.03296  -0.32081 
 C                    -1.3725    2.03296   0.32081 
 C                     0.72247   0.79567  -0.05039 
 C                    -0.72247   0.79567   0.05039 
 C                     2.76039   2.05393  -0.67427 
 C                     3.50887   0.91392  -0.67136 
 C                     2.95523  -0.30962  -0.17748 
 C                     1.57472  -0.36111   0.19709 
 H                     1.18343   4.19574  -0.3846 
 H                    -1.18343   4.19574   0.3846 
 H                     3.20628   3.01242  -0.95139 
 H                     4.56002   0.93296  -0.96933 
 C                     3.78302  -1.4431    0.02831 
 C                     1.13743  -1.50753   0.91211 
 C                     1.97369  -2.58435   1.13806 
 C                     3.30185  -2.57159   0.66118 
 H                     4.82575  -1.39123  -0.29548 
 H                     0.12465  -1.53279   1.30847 
 H                     1.60359  -3.44568   1.69898 
 H                     3.95274  -3.43353   0.82513 
 C                    -3.50887   0.91392   0.67136 
 C                    -2.76039   2.05393   0.67427 
 C                    -2.95523  -0.30962   0.17748 
 C                    -1.57472  -0.36111  -0.19709 
 C                    -3.78302  -1.4431   -0.02831 
 C                    -3.30185  -2.57159  -0.66118 
 C                    -1.97369  -2.58435  -1.13806 
 C                    -1.13743  -1.50753  -0.91211 
 H                    -4.56002   0.93295   0.96933 
 H                    -3.20628   3.01242   0.95139 
 H                    -4.82575  -1.39123   0.29548 
 H                    -3.95274  -3.43353  -0.82513 
 H                    -1.60359  -3.44568  -1.69898 
 H                    -0.12465  -1.53279  -1.30847 
 Bq                   -4.06489  -2.44898   0.66114 
 Bq                   -4.03283  -2.45986   0.66114 
 Bq                   -3.99962  -2.46647   0.66114 
 Bq                   -3.96584  -2.46868   0.66114 
 Bq                   -3.93206  -2.46647   0.66114 
 Bq                   -3.89885  -2.45986   0.66114 
 Bq                   -3.8668   -2.44898   0.66114 
 Bq                   -3.83643  -2.43401   0.66114 
 Bq                   -3.80828  -2.4152    0.66114 
 Bq                   -3.78283  -2.39287   0.66114 
 Bq                   -3.76051  -2.36742   0.66114 
 Bq                   -3.7417   -2.33927   0.66114 
 Bq                   -3.72672  -2.30891   0.66114 
 Bq                   -3.71584  -2.27685   0.66114 
 Bq                   -3.70924  -2.24364   0.66114 
 Bq                   -3.58316  -2.20986   0.6191 
 Bq                   -4.34853  -2.20986   0.6191 
 Bq                   -4.34525  -2.25981   0.6191 
 Bq                   -4.33549  -2.30891   0.6191 
 Bq                   -4.3194   -2.35631   0.6191 
 Bq                   -4.29726  -2.4012    0.6191 
 Bq                   -4.26944  -2.44282   0.6191 
 Bq                   -4.23644  -2.48046   0.6191 
 Bq                   -4.1988   -2.51347   0.6191 
 Bq                   -4.15718  -2.54128   0.6191 
 Bq                   -4.11229  -2.56342   0.6191 
 Bq                   -4.06489  -2.57951   0.6191 
 Bq                   -4.01579  -2.58927   0.6191 
 Bq                   -3.96584  -2.59255   0.6191 
 Bq                   -3.91589  -2.58927   0.6191 
 Bq                   -3.8668   -2.57951   0.6191 
 Bq                   -3.8194   -2.56342   0.6191 
 Bq                   -3.7745   -2.54128   0.6191 
 Bq                   -3.73288  -2.51347   0.6191 
 Bq                   -3.69524  -2.48046   0.6191 
 Bq                   -3.66224  -2.44282   0.6191 
 Bq                   -3.63443  -2.4012    0.6191 
 Bq                   -3.61229  -2.35631   0.6191 
 Bq                   -3.5962   -2.30891   0.6191 
 Bq                   -3.58643  -2.25981   0.6191 
 Bq                   -3.46584  -2.20986   0.56124 
 Bq                   -4.4488   -2.33927   0.56124 
 Bq                   -4.42778  -2.4012    0.56124 
 Bq                   -4.39885  -2.45986   0.56124 
 Bq                   -4.36252  -2.51424   0.56124 
 Bq                   -4.3194   -2.56342   0.56124 
 Bq                   -4.27022  -2.60654   0.56124 
 Bq                   -4.21584  -2.64287   0.56124 
 Bq                   -4.15718  -2.6718    0.56124 
 Bq                   -4.09525  -2.69282   0.56124 
 Bq                   -4.0311   -2.70558   0.56124 
 Bq                   -3.96584  -2.70986   0.56124 
 Bq                   -3.90058  -2.70558   0.56124 
 Bq                   -3.83643  -2.69282   0.56124 
 Bq                   -3.7745   -2.6718    0.56124 
 Bq                   -3.71584  -2.64287   0.56124 
 Bq                   -3.66146  -2.60654   0.56124 
 Bq                   -3.61229  -2.56342   0.56124 
 Bq                   -3.56917  -2.51424   0.56124 
 Bq                   -3.53283  -2.45986   0.56124 
 Bq                   -3.5039   -2.4012    0.56124 
 Bq                   -3.48288  -2.33927   0.56124 
 Bq                   -3.47012  -2.27513   0.56124 
 Bq                   -3.35708  -2.20986   0.48857 
 Bq                   -4.55386  -2.36742   0.48857 
 Bq                   -4.52826  -2.44282   0.48857 
 Bq                   -4.49304  -2.51424   0.48857 
 Bq                   -4.4488   -2.58045   0.48857 
 Bq                   -4.3963   -2.64032   0.48857 
 Bq                   -4.33643  -2.69282   0.48857 
 Bq                   -4.27022  -2.73706   0.48857 
 Bq                   -4.1988   -2.77228   0.48857 
 Bq                   -4.1234   -2.79788   0.48857 
 Bq                   -4.0453   -2.81342   0.48857 
 Bq                   -3.96584  -2.81862   0.48857 
 Bq                   -3.88638  -2.81342   0.48857 
 Bq                   -3.80828  -2.79788   0.48857 
 Bq                   -3.73288  -2.77228   0.48857 
 Bq                   -3.66146  -2.73706   0.48857 
 Bq                   -3.59525  -2.69282   0.48857 
 Bq                   -3.53538  -2.64032   0.48857 
 Bq                   -3.48288  -2.58045   0.48857 
 Bq                   -3.43864  -2.51424   0.48857 
 Bq                   -3.40342  -2.44282   0.48857 
 Bq                   -3.37782  -2.36742   0.48857 
 Bq                   -3.36229  -2.28932   0.48857 
 Bq                   -3.25873  -2.20986   0.40232 
 Bq                   -4.64885  -2.39287   0.40232 
 Bq                   -4.61912  -2.48046   0.40232 
 Bq                   -4.57821  -2.56342   0.40232 
 Bq                   -4.52683  -2.64032   0.40232 
 Bq                   -4.46584  -2.70986   0.40232 
 Bq                   -4.3963   -2.77085   0.40232 
 Bq                   -4.3194   -2.82223   0.40232 
 Bq                   -4.23644  -2.86314   0.40232 
 Bq                   -4.14885  -2.89287   0.40232 
 Bq                   -4.05814  -2.91092   0.40232 
 Bq                   -3.96584  -2.91697   0.40232 
 Bq                   -3.87355  -2.91092   0.40232 
 Bq                   -3.78283  -2.89287   0.40232 
 Bq                   -3.69524  -2.86314   0.40232 
 Bq                   -3.61229  -2.82223   0.40232 
 Bq                   -3.53538  -2.77085   0.40232 
 Bq                   -3.46584  -2.70986   0.40232 
 Bq                   -3.40486  -2.64032   0.40232 
 Bq                   -3.35347  -2.56342   0.40232 
 Bq                   -3.31256  -2.48046   0.40232 
 Bq                   -3.28283  -2.39287   0.40232 
 Bq                   -3.26478  -2.30216   0.40232 
 Bq                   -3.17249  -2.20986   0.30398 
 Bq                   -4.73216  -2.4152    0.30398 
 Bq                   -4.6988   -2.51347   0.30398 
 Bq                   -4.65291  -2.60654   0.30398 
 Bq                   -4.59525  -2.69282   0.30398 
 Bq                   -4.52683  -2.77085   0.30398 
 Bq                   -4.4488   -2.83927   0.30398 
 Bq                   -4.36252  -2.89693   0.30398 
 Bq                   -4.26944  -2.94282   0.30398 
 Bq                   -4.17118  -2.97618   0.30398 
 Bq                   -4.0694   -2.99643   0.30398 
 Bq                   -3.96584  -3.00322   0.30398 
 Bq                   -3.86229  -2.99643   0.30398 
 Bq                   -3.76051  -2.97618   0.30398 
 Bq                   -3.66224  -2.94282   0.30398 
 Bq                   -3.56917  -2.89693   0.30398 
 Bq                   -3.48288  -2.83927   0.30398 
 Bq                   -3.17928  -2.31342   0.30398 
 Bq                   -4.80236  -2.43401   0.19522 
 Bq                   -4.76594  -2.54128   0.19522 
 Bq                   -4.71584  -2.64287   0.19522 
 Bq                   -4.65291  -2.73706   0.19522 
 Bq                   -4.57821  -2.82223   0.19522 
 Bq                   -4.49304  -2.89693   0.19522 
 Bq                   -4.39885  -2.95986   0.19522 
 Bq                   -4.29726  -3.00997   0.19522 
 Bq                   -4.18999  -3.04638   0.19522 
 Bq                   -4.07888  -3.06848   0.19522 
 Bq                   -3.96584  -3.07589   0.19522 
 Bq                   -3.8528   -3.06848   0.19522 
 Bq                   -3.7417   -3.04638   0.19522 
 Bq                   -3.63443  -3.00997   0.19522 
 Bq                   -4.85824  -2.44898   0.0779 
 Bq                   -4.8194   -2.56342   0.0779 
 Bq                   -4.76594  -2.6718    0.0779 
 Bq                   -4.6988   -2.77228   0.0779 
 Bq                   -4.61912  -2.86314   0.0779 
 Bq                   -4.52826  -2.94282   0.0779 
 Bq                   -4.42778  -3.00997   0.0779 
 Bq                   -4.3194   -3.06342   0.0779 
 Bq                   -4.9235   -2.33594  -0.04596 
 Bq                   -4.89885  -2.45986  -0.04596 
 Bq                   -4.85824  -2.57951  -0.04596 
 Bq                   -4.80236  -2.69282  -0.04596 
 Bq                   -4.73216  -2.79788  -0.04596 
 Bq                   -4.64885  -2.89287  -0.04596 
 Bq                   -4.55386  -2.97618  -0.04596 
 Bq                   -4.4488   -3.04638  -0.04596 
 Bq                   -4.9488   -2.33927  -0.17426 
 Bq                   -4.9235   -2.46647  -0.17426 
 Bq                   -4.88182  -2.58927  -0.17426 
 Bq                   -4.82446  -2.70558  -0.17426 
 Bq                   -4.75241  -2.81342  -0.17426 
 Bq                   -4.6669   -2.91092  -0.17426 
 Bq                   -4.96584  -2.20986  -0.30478 
 Bq                   -4.95729  -2.34039  -0.30478 
 Bq                   -4.93177  -2.46868  -0.30478 
 Bq                   -4.88972  -2.59255  -0.30478 
 Bq                   -4.83187  -2.70986  -0.30478 
 Bq                   -4.7592   -2.81862  -0.30478 
 Bq                   -4.67295  -2.91697  -0.30478 
 Bq                   -4.9488   -2.08045  -0.43531 
 Bq                   -4.95729  -2.20986  -0.43531 
 Bq                   -4.9488   -2.33927  -0.43531 
 Bq                   -4.9235   -2.46647  -0.43531 
 Bq                   -4.88182  -2.58927  -0.43531 
 Bq                   -4.82446  -2.70558  -0.43531 
 Bq                   -4.75241  -2.81342  -0.43531 
 Bq                   -4.89885  -1.95986  -0.5636 
 Bq                   -4.9235   -2.08378  -0.5636 
 Bq                   -4.93177  -2.20986  -0.5636 
 Bq                   -4.9235   -2.33594  -0.5636 
 Bq                   -4.89885  -2.45986  -0.5636 
 Bq                   -4.85824  -2.57951  -0.5636 
 Bq                   -4.80236  -2.69282  -0.5636 
 Bq                   -4.73216  -2.79788  -0.5636 
 Bq                   -4.61912  -1.55658  -0.68747 
 Bq                   -4.6988   -1.64744  -0.68747 
 Bq                   -4.76594  -1.74792  -0.68747 
 Bq                   -4.8194   -1.85631  -0.68747 
 Bq                   -4.85824  -1.97074  -0.68747 
 Bq                   -4.88182  -2.08927  -0.68747 
 Bq                   -4.88972  -2.20986  -0.68747 
 Bq                   -4.88182  -2.33045  -0.68747 
 Bq                   -4.85824  -2.44898  -0.68747 
 Bq                   -4.8194   -2.56342  -0.68747 
 Bq                   -4.76594  -2.6718   -0.68747 
 Bq                   -4.6988   -2.77228  -0.68747 
 Bq                   -4.49304  -1.5228   -0.80478 
 Bq                   -4.57821  -1.59749  -0.80478 
 Bq                   -4.65291  -1.68266  -0.80478 
 
 NAtoms=    236 NQM=      236 NQMF=       0 NMMI=      0 NMMIF=      0
                NMic=       0 NMicF=      0.
                    Isotopes and Nuclear Properties:
 (Nuclear quadrupole moments (NQMom) in fm**2, nuclear magnetic moments (NMagM)
  in nuclear magnetons)

  Atom         1           2           3           4           5           6           7           8           9          10
 IAtWgt=          12          12          12          12          12          12          12          12          12          12
 AtmWgt=  12.0000000  12.0000000  12.0000000  12.0000000  12.0000000  12.0000000  12.0000000  12.0000000  12.0000000  12.0000000
 NucSpn=           0           0           0           0           0           0           0           0           0           0
 AtZEff=   0.0000000   0.0000000   0.0000000   0.0000000   0.0000000   0.0000000   0.0000000   0.0000000   0.0000000   0.0000000
 NQMom=    0.0000000   0.0000000   0.0000000   0.0000000   0.0000000   0.0000000   0.0000000   0.0000000   0.0000000   0.0000000
 NMagM=    0.0000000   0.0000000   0.0000000   0.0000000   0.0000000   0.0000000   0.0000000   0.0000000   0.0000000   0.0000000
 AtZNuc=   6.0000000   6.0000000   6.0000000   6.0000000   6.0000000   6.0000000   6.0000000   6.0000000   6.0000000   6.0000000

  Atom        11          12          13          14          15          16          17          18          19          20
 IAtWgt=           1           1           1           1          12          12          12          12           1           1
 AtmWgt=   1.0078250   1.0078250   1.0078250   1.0078250  12.0000000  12.0000000  12.0000000  12.0000000   1.0078250   1.0078250
 NucSpn=           1           1           1           1           0           0           0           0           1           1
 AtZEff=   0.0000000   0.0000000   0.0000000   0.0000000   0.0000000   0.0000000   0.0000000   0.0000000   0.0000000   0.0000000
 NQMom=    0.0000000   0.0000000   0.0000000   0.0000000   0.0000000   0.0000000   0.0000000   0.0000000   0.0000000   0.0000000
 NMagM=    2.7928460   2.7928460   2.7928460   2.7928460   0.0000000   0.0000000   0.0000000   0.0000000   2.7928460   2.7928460
 AtZNuc=   1.0000000   1.0000000   1.0000000   1.0000000   6.0000000   6.0000000   6.0000000   6.0000000   1.0000000   1.0000000

  Atom        21          22          23          24          25          26          27          28          29          30
 IAtWgt=           1           1          12          12          12          12          12          12          12          12
 AtmWgt=   1.0078250   1.0078250  12.0000000  12.0000000  12.0000000  12.0000000  12.0000000  12.0000000  12.0000000  12.0000000
 NucSpn=           1           1           0           0           0           0           0           0           0           0
 AtZEff=   0.0000000   0.0000000   0.0000000   0.0000000   0.0000000   0.0000000   0.0000000   0.0000000   0.0000000   0.0000000
 NQMom=    0.0000000   0.0000000   0.0000000   0.0000000   0.0000000   0.0000000   0.0000000   0.0000000   0.0000000   0.0000000
 NMagM=    2.7928460   2.7928460   0.0000000   0.0000000   0.0000000   0.0000000   0.0000000   0.0000000   0.0000000   0.0000000
 AtZNuc=   1.0000000   1.0000000   6.0000000   6.0000000   6.0000000   6.0000000   6.0000000   6.0000000   6.0000000   6.0000000

  Atom        31          32          33          34          35          36          37          38          39          40
 IAtWgt=           1           1           1           1           1           1           0           0           0           0
 AtmWgt=   1.0078250   1.0078250   1.0078250   1.0078250   1.0078250   1.0078250   0.0000000   0.0000000   0.0000000   0.0000000
 NucSpn=           1           1           1           1           1           1           0           0           0           0
 AtZEff=   0.0000000   0.0000000   0.0000000   0.0000000   0.0000000   0.0000000   0.0000000   0.0000000   0.0000000   0.0000000
 NQMom=    0.0000000   0.0000000   0.0000000   0.0000000   0.0000000   0.0000000   0.0000000   0.0000000   0.0000000   0.0000000
 NMagM=    2.7928460   2.7928460   2.7928460   2.7928460   2.7928460   2.7928460   0.0000000   0.0000000   0.0000000   0.0000000
 AtZNuc=   1.0000000   1.0000000   1.0000000   1.0000000   1.0000000   1.0000000   0.0000000   0.0000000   0.0000000   0.0000000

  Atom        41          42          43          44          45          46          47          48          49          50
 IAtWgt=           0           0           0           0           0           0           0           0           0           0
 AtmWgt=   0.0000000   0.0000000   0.0000000   0.0000000   0.0000000   0.0000000   0.0000000   0.0000000   0.0000000   0.0000000
 NucSpn=           0           0           0           0           0           0           0           0           0           0
 AtZEff=   0.0000000   0.0000000   0.0000000   0.0000000   0.0000000   0.0000000   0.0000000   0.0000000   0.0000000   0.0000000
 NQMom=    0.0000000   0.0000000   0.0000000   0.0000000   0.0000000   0.0000000   0.0000000   0.0000000   0.0000000   0.0000000
 NMagM=    0.0000000   0.0000000   0.0000000   0.0000000   0.0000000   0.0000000   0.0000000   0.0000000   0.0000000   0.0000000
 AtZNuc=   0.0000000   0.0000000   0.0000000   0.0000000   0.0000000   0.0000000   0.0000000   0.0000000   0.0000000   0.0000000

  Atom        51          52          53          54          55          56          57          58          59          60
 IAtWgt=           0           0           0           0           0           0           0           0           0           0
 AtmWgt=   0.0000000   0.0000000   0.0000000   0.0000000   0.0000000   0.0000000   0.0000000   0.0000000   0.0000000   0.0000000
 NucSpn=           0           0           0           0           0           0           0           0           0           0
 AtZEff=   0.0000000   0.0000000   0.0000000   0.0000000   0.0000000   0.0000000   0.0000000   0.0000000   0.0000000   0.0000000
 NQMom=    0.0000000   0.0000000   0.0000000   0.0000000   0.0000000   0.0000000   0.0000000   0.0000000   0.0000000   0.0000000
 NMagM=    0.0000000   0.0000000   0.0000000   0.0000000   0.0000000   0.0000000   0.0000000   0.0000000   0.0000000   0.0000000
 AtZNuc=   0.0000000   0.0000000   0.0000000   0.0000000   0.0000000   0.0000000   0.0000000   0.0000000   0.0000000   0.0000000

  Atom        61          62          63          64          65          66          67          68          69          70
 IAtWgt=           0           0           0           0           0           0           0           0           0           0
 AtmWgt=   0.0000000   0.0000000   0.0000000   0.0000000   0.0000000   0.0000000   0.0000000   0.0000000   0.0000000   0.0000000
 NucSpn=           0           0           0           0           0           0           0           0           0           0
 AtZEff=   0.0000000   0.0000000   0.0000000   0.0000000   0.0000000   0.0000000   0.0000000   0.0000000   0.0000000   0.0000000
 NQMom=    0.0000000   0.0000000   0.0000000   0.0000000   0.0000000   0.0000000   0.0000000   0.0000000   0.0000000   0.0000000
 NMagM=    0.0000000   0.0000000   0.0000000   0.0000000   0.0000000   0.0000000   0.0000000   0.0000000   0.0000000   0.0000000
 AtZNuc=   0.0000000   0.0000000   0.0000000   0.0000000   0.0000000   0.0000000   0.0000000   0.0000000   0.0000000   0.0000000

  Atom        71          72          73          74          75          76          77          78          79          80
 IAtWgt=           0           0           0           0           0           0           0           0           0           0
 AtmWgt=   0.0000000   0.0000000   0.0000000   0.0000000   0.0000000   0.0000000   0.0000000   0.0000000   0.0000000   0.0000000
 NucSpn=           0           0           0           0           0           0           0           0           0           0
 AtZEff=   0.0000000   0.0000000   0.0000000   0.0000000   0.0000000   0.0000000   0.0000000   0.0000000   0.0000000   0.0000000
 NQMom=    0.0000000   0.0000000   0.0000000   0.0000000   0.0000000   0.0000000   0.0000000   0.0000000   0.0000000   0.0000000
 NMagM=    0.0000000   0.0000000   0.0000000   0.0000000   0.0000000   0.0000000   0.0000000   0.0000000   0.0000000   0.0000000
 AtZNuc=   0.0000000   0.0000000   0.0000000   0.0000000   0.0000000   0.0000000   0.0000000   0.0000000   0.0000000   0.0000000

  Atom        81          82          83          84          85          86          87          88          89          90
 IAtWgt=           0           0           0           0           0           0           0           0           0           0
 AtmWgt=   0.0000000   0.0000000   0.0000000   0.0000000   0.0000000   0.0000000   0.0000000   0.0000000   0.0000000   0.0000000
 NucSpn=           0           0           0           0           0           0           0           0           0           0
 AtZEff=   0.0000000   0.0000000   0.0000000   0.0000000   0.0000000   0.0000000   0.0000000   0.0000000   0.0000000   0.0000000
 NQMom=    0.0000000   0.0000000   0.0000000   0.0000000   0.0000000   0.0000000   0.0000000   0.0000000   0.0000000   0.0000000
 NMagM=    0.0000000   0.0000000   0.0000000   0.0000000   0.0000000   0.0000000   0.0000000   0.0000000   0.0000000   0.0000000
 AtZNuc=   0.0000000   0.0000000   0.0000000   0.0000000   0.0000000   0.0000000   0.0000000   0.0000000   0.0000000   0.0000000

  Atom        91          92          93          94          95          96          97          98          99         100
 IAtWgt=           0           0           0           0           0           0           0           0           0           0
 AtmWgt=   0.0000000   0.0000000   0.0000000   0.0000000   0.0000000   0.0000000   0.0000000   0.0000000   0.0000000   0.0000000
 NucSpn=           0           0           0           0           0           0           0           0           0           0
 AtZEff=   0.0000000   0.0000000   0.0000000   0.0000000   0.0000000   0.0000000   0.0000000   0.0000000   0.0000000   0.0000000
 NQMom=    0.0000000   0.0000000   0.0000000   0.0000000   0.0000000   0.0000000   0.0000000   0.0000000   0.0000000   0.0000000
 NMagM=    0.0000000   0.0000000   0.0000000   0.0000000   0.0000000   0.0000000   0.0000000   0.0000000   0.0000000   0.0000000
 AtZNuc=   0.0000000   0.0000000   0.0000000   0.0000000   0.0000000   0.0000000   0.0000000   0.0000000   0.0000000   0.0000000

  Atom       101         102         103         104         105         106         107         108         109         110
 IAtWgt=           0           0           0           0           0           0           0           0           0           0
 AtmWgt=   0.0000000   0.0000000   0.0000000   0.0000000   0.0000000   0.0000000   0.0000000   0.0000000   0.0000000   0.0000000
 NucSpn=           0           0           0           0           0           0           0           0           0           0
 AtZEff=   0.0000000   0.0000000   0.0000000   0.0000000   0.0000000   0.0000000   0.0000000   0.0000000   0.0000000   0.0000000
 NQMom=    0.0000000   0.0000000   0.0000000   0.0000000   0.0000000   0.0000000   0.0000000   0.0000000   0.0000000   0.0000000
 NMagM=    0.0000000   0.0000000   0.0000000   0.0000000   0.0000000   0.0000000   0.0000000   0.0000000   0.0000000   0.0000000
 AtZNuc=   0.0000000   0.0000000   0.0000000   0.0000000   0.0000000   0.0000000   0.0000000   0.0000000   0.0000000   0.0000000

  Atom       111         112         113         114         115         116         117         118         119         120
 IAtWgt=           0           0           0           0           0           0           0           0           0           0
 AtmWgt=   0.0000000   0.0000000   0.0000000   0.0000000   0.0000000   0.0000000   0.0000000   0.0000000   0.0000000   0.0000000
 NucSpn=           0           0           0           0           0           0           0           0           0           0
 AtZEff=   0.0000000   0.0000000   0.0000000   0.0000000   0.0000000   0.0000000   0.0000000   0.0000000   0.0000000   0.0000000
 NQMom=    0.0000000   0.0000000   0.0000000   0.0000000   0.0000000   0.0000000   0.0000000   0.0000000   0.0000000   0.0000000
 NMagM=    0.0000000   0.0000000   0.0000000   0.0000000   0.0000000   0.0000000   0.0000000   0.0000000   0.0000000   0.0000000
 AtZNuc=   0.0000000   0.0000000   0.0000000   0.0000000   0.0000000   0.0000000   0.0000000   0.0000000   0.0000000   0.0000000

  Atom       121         122         123         124         125         126         127         128         129         130
 IAtWgt=           0           0           0           0           0           0           0           0           0           0
 AtmWgt=   0.0000000   0.0000000   0.0000000   0.0000000   0.0000000   0.0000000   0.0000000   0.0000000   0.0000000   0.0000000
 NucSpn=           0           0           0           0           0           0           0           0           0           0
 AtZEff=   0.0000000   0.0000000   0.0000000   0.0000000   0.0000000   0.0000000   0.0000000   0.0000000   0.0000000   0.0000000
 NQMom=    0.0000000   0.0000000   0.0000000   0.0000000   0.0000000   0.0000000   0.0000000   0.0000000   0.0000000   0.0000000
 NMagM=    0.0000000   0.0000000   0.0000000   0.0000000   0.0000000   0.0000000   0.0000000   0.0000000   0.0000000   0.0000000
 AtZNuc=   0.0000000   0.0000000   0.0000000   0.0000000   0.0000000   0.0000000   0.0000000   0.0000000   0.0000000   0.0000000

  Atom       131         132         133         134         135         136         137         138         139         140
 IAtWgt=           0           0           0           0           0           0           0           0           0           0
 AtmWgt=   0.0000000   0.0000000   0.0000000   0.0000000   0.0000000   0.0000000   0.0000000   0.0000000   0.0000000   0.0000000
 NucSpn=           0           0           0           0           0           0           0           0           0           0
 AtZEff=   0.0000000   0.0000000   0.0000000   0.0000000   0.0000000   0.0000000   0.0000000   0.0000000   0.0000000   0.0000000
 NQMom=    0.0000000   0.0000000   0.0000000   0.0000000   0.0000000   0.0000000   0.0000000   0.0000000   0.0000000   0.0000000
 NMagM=    0.0000000   0.0000000   0.0000000   0.0000000   0.0000000   0.0000000   0.0000000   0.0000000   0.0000000   0.0000000
 AtZNuc=   0.0000000   0.0000000   0.0000000   0.0000000   0.0000000   0.0000000   0.0000000   0.0000000   0.0000000   0.0000000

  Atom       141         142         143         144         145         146         147         148         149         150
 IAtWgt=           0           0           0           0           0           0           0           0           0           0
 AtmWgt=   0.0000000   0.0000000   0.0000000   0.0000000   0.0000000   0.0000000   0.0000000   0.0000000   0.0000000   0.0000000
 NucSpn=           0           0           0           0           0           0           0           0           0           0
 AtZEff=   0.0000000   0.0000000   0.0000000   0.0000000   0.0000000   0.0000000   0.0000000   0.0000000   0.0000000   0.0000000
 NQMom=    0.0000000   0.0000000   0.0000000   0.0000000   0.0000000   0.0000000   0.0000000   0.0000000   0.0000000   0.0000000
 NMagM=    0.0000000   0.0000000   0.0000000   0.0000000   0.0000000   0.0000000   0.0000000   0.0000000   0.0000000   0.0000000
 AtZNuc=   0.0000000   0.0000000   0.0000000   0.0000000   0.0000000   0.0000000   0.0000000   0.0000000   0.0000000   0.0000000

  Atom       151         152         153         154         155         156         157         158         159         160
 IAtWgt=           0           0           0           0           0           0           0           0           0           0
 AtmWgt=   0.0000000   0.0000000   0.0000000   0.0000000   0.0000000   0.0000000   0.0000000   0.0000000   0.0000000   0.0000000
 NucSpn=           0           0           0           0           0           0           0           0           0           0
 AtZEff=   0.0000000   0.0000000   0.0000000   0.0000000   0.0000000   0.0000000   0.0000000   0.0000000   0.0000000   0.0000000
 NQMom=    0.0000000   0.0000000   0.0000000   0.0000000   0.0000000   0.0000000   0.0000000   0.0000000   0.0000000   0.0000000
 NMagM=    0.0000000   0.0000000   0.0000000   0.0000000   0.0000000   0.0000000   0.0000000   0.0000000   0.0000000   0.0000000
 AtZNuc=   0.0000000   0.0000000   0.0000000   0.0000000   0.0000000   0.0000000   0.0000000   0.0000000   0.0000000   0.0000000

  Atom       161         162         163         164         165         166         167         168         169         170
 IAtWgt=           0           0           0           0           0           0           0           0           0           0
 AtmWgt=   0.0000000   0.0000000   0.0000000   0.0000000   0.0000000   0.0000000   0.0000000   0.0000000   0.0000000   0.0000000
 NucSpn=           0           0           0           0           0           0           0           0           0           0
 AtZEff=   0.0000000   0.0000000   0.0000000   0.0000000   0.0000000   0.0000000   0.0000000   0.0000000   0.0000000   0.0000000
 NQMom=    0.0000000   0.0000000   0.0000000   0.0000000   0.0000000   0.0000000   0.0000000   0.0000000   0.0000000   0.0000000
 NMagM=    0.0000000   0.0000000   0.0000000   0.0000000   0.0000000   0.0000000   0.0000000   0.0000000   0.0000000   0.0000000
 AtZNuc=   0.0000000   0.0000000   0.0000000   0.0000000   0.0000000   0.0000000   0.0000000   0.0000000   0.0000000   0.0000000

  Atom       171         172         173         174         175         176         177         178         179         180
 IAtWgt=           0           0           0           0           0           0           0           0           0           0
 AtmWgt=   0.0000000   0.0000000   0.0000000   0.0000000   0.0000000   0.0000000   0.0000000   0.0000000   0.0000000   0.0000000
 NucSpn=           0           0           0           0           0           0           0           0           0           0
 AtZEff=   0.0000000   0.0000000   0.0000000   0.0000000   0.0000000   0.0000000   0.0000000   0.0000000   0.0000000   0.0000000
 NQMom=    0.0000000   0.0000000   0.0000000   0.0000000   0.0000000   0.0000000   0.0000000   0.0000000   0.0000000   0.0000000
 NMagM=    0.0000000   0.0000000   0.0000000   0.0000000   0.0000000   0.0000000   0.0000000   0.0000000   0.0000000   0.0000000
 AtZNuc=   0.0000000   0.0000000   0.0000000   0.0000000   0.0000000   0.0000000   0.0000000   0.0000000   0.0000000   0.0000000

  Atom       181         182         183         184         185         186         187         188         189         190
 IAtWgt=           0           0           0           0           0           0           0           0           0           0
 AtmWgt=   0.0000000   0.0000000   0.0000000   0.0000000   0.0000000   0.0000000   0.0000000   0.0000000   0.0000000   0.0000000
 NucSpn=           0           0           0           0           0           0           0           0           0           0
 AtZEff=   0.0000000   0.0000000   0.0000000   0.0000000   0.0000000   0.0000000   0.0000000   0.0000000   0.0000000   0.0000000
 NQMom=    0.0000000   0.0000000   0.0000000   0.0000000   0.0000000   0.0000000   0.0000000   0.0000000   0.0000000   0.0000000
 NMagM=    0.0000000   0.0000000   0.0000000   0.0000000   0.0000000   0.0000000   0.0000000   0.0000000   0.0000000   0.0000000
 AtZNuc=   0.0000000   0.0000000   0.0000000   0.0000000   0.0000000   0.0000000   0.0000000   0.0000000   0.0000000   0.0000000

  Atom       191         192         193         194         195         196         197         198         199         200
 IAtWgt=           0           0           0           0           0           0           0           0           0           0
 AtmWgt=   0.0000000   0.0000000   0.0000000   0.0000000   0.0000000   0.0000000   0.0000000   0.0000000   0.0000000   0.0000000
 NucSpn=           0           0           0           0           0           0           0           0           0           0
 AtZEff=   0.0000000   0.0000000   0.0000000   0.0000000   0.0000000   0.0000000   0.0000000   0.0000000   0.0000000   0.0000000
 NQMom=    0.0000000   0.0000000   0.0000000   0.0000000   0.0000000   0.0000000   0.0000000   0.0000000   0.0000000   0.0000000
 NMagM=    0.0000000   0.0000000   0.0000000   0.0000000   0.0000000   0.0000000   0.0000000   0.0000000   0.0000000   0.0000000
 AtZNuc=   0.0000000   0.0000000   0.0000000   0.0000000   0.0000000   0.0000000   0.0000000   0.0000000   0.0000000   0.0000000

  Atom       201         202         203         204         205         206         207         208         209         210
 IAtWgt=           0           0           0           0           0           0           0           0           0           0
 AtmWgt=   0.0000000   0.0000000   0.0000000   0.0000000   0.0000000   0.0000000   0.0000000   0.0000000   0.0000000   0.0000000
 NucSpn=           0           0           0           0           0           0           0           0           0           0
 AtZEff=   0.0000000   0.0000000   0.0000000   0.0000000   0.0000000   0.0000000   0.0000000   0.0000000   0.0000000   0.0000000
 NQMom=    0.0000000   0.0000000   0.0000000   0.0000000   0.0000000   0.0000000   0.0000000   0.0000000   0.0000000   0.0000000
 NMagM=    0.0000000   0.0000000   0.0000000   0.0000000   0.0000000   0.0000000   0.0000000   0.0000000   0.0000000   0.0000000
 AtZNuc=   0.0000000   0.0000000   0.0000000   0.0000000   0.0000000   0.0000000   0.0000000   0.0000000   0.0000000   0.0000000

  Atom       211         212         213         214         215         216         217         218         219         220
 IAtWgt=           0           0           0           0           0           0           0           0           0           0
 AtmWgt=   0.0000000   0.0000000   0.0000000   0.0000000   0.0000000   0.0000000   0.0000000   0.0000000   0.0000000   0.0000000
 NucSpn=           0           0           0           0           0           0           0           0           0           0
 AtZEff=   0.0000000   0.0000000   0.0000000   0.0000000   0.0000000   0.0000000   0.0000000   0.0000000   0.0000000   0.0000000
 NQMom=    0.0000000   0.0000000   0.0000000   0.0000000   0.0000000   0.0000000   0.0000000   0.0000000   0.0000000   0.0000000
 NMagM=    0.0000000   0.0000000   0.0000000   0.0000000   0.0000000   0.0000000   0.0000000   0.0000000   0.0000000   0.0000000
 AtZNuc=   0.0000000   0.0000000   0.0000000   0.0000000   0.0000000   0.0000000   0.0000000   0.0000000   0.0000000   0.0000000

  Atom       221         222         223         224         225         226         227         228         229         230
 IAtWgt=           0           0           0           0           0           0           0           0           0           0
 AtmWgt=   0.0000000   0.0000000   0.0000000   0.0000000   0.0000000   0.0000000   0.0000000   0.0000000   0.0000000   0.0000000
 NucSpn=           0           0           0           0           0           0           0           0           0           0
 AtZEff=   0.0000000   0.0000000   0.0000000   0.0000000   0.0000000   0.0000000   0.0000000   0.0000000   0.0000000   0.0000000
 NQMom=    0.0000000   0.0000000   0.0000000   0.0000000   0.0000000   0.0000000   0.0000000   0.0000000   0.0000000   0.0000000
 NMagM=    0.0000000   0.0000000   0.0000000   0.0000000   0.0000000   0.0000000   0.0000000   0.0000000   0.0000000   0.0000000
 AtZNuc=   0.0000000   0.0000000   0.0000000   0.0000000   0.0000000   0.0000000   0.0000000   0.0000000   0.0000000   0.0000000

  Atom       231         232         233         234         235         236
 IAtWgt=           0           0           0           0           0           0
 AtmWgt=   0.0000000   0.0000000   0.0000000   0.0000000   0.0000000   0.0000000
 NucSpn=           0           0           0           0           0           0
 AtZEff=   0.0000000   0.0000000   0.0000000   0.0000000   0.0000000   0.0000000
 NQMom=    0.0000000   0.0000000   0.0000000   0.0000000   0.0000000   0.0000000
 NMagM=    0.0000000   0.0000000   0.0000000   0.0000000   0.0000000   0.0000000
 AtZNuc=   0.0000000   0.0000000   0.0000000   0.0000000   0.0000000   0.0000000
 Leave Link  101 at Tue Sep 15 14:01:42 2020, MaxMem=   131072000 cpu:         3.6
 (Enter /share/programs/GAUSSIAN/64/g09/l202.exe)
 Symmetry turned off:
 Cannot cope with ghost atoms or with translation vectors.
 Stoichiometry    C22H14
 Framework group  C1[X(C22H14)]
 NUMDOF-- NAT=    36 NAtoms=   236
 Deg. of freedom     0
 Full point group                 C1      NOp   1
                          Input orientation:                          
 ---------------------------------------------------------------------
 Center     Atomic      Atomic             Coordinates (Angstroms)
 Number     Number       Type             X           Y           Z
 ---------------------------------------------------------------------
      1          6           0        0.653241    3.257859   -0.202510
      2          6           0       -0.653243    3.257860    0.202510
      3          6           0        1.372495    2.032956   -0.320807
      4          6           0       -1.372495    2.032956    0.320807
      5          6           0        0.722474    0.795666   -0.050388
      6          6           0       -0.722474    0.795667    0.050387
      7          6           0        2.760385    2.053927   -0.674268
      8          6           0        3.508866    0.913916   -0.671362
      9          6           0        2.955226   -0.309622   -0.177479
     10          6           0        1.574722   -0.361114    0.197094
     11          1           0        1.183427    4.195740   -0.384599
     12          1           0       -1.183429    4.195740    0.384599
     13          1           0        3.206283    3.012423   -0.951392
     14          1           0        4.560023    0.932956   -0.969333
     15          6           0        3.783020   -1.443098    0.028309
     16          6           0        1.137427   -1.507533    0.912109
     17          6           0        1.973691   -2.584349    1.138062
     18          6           0        3.301853   -2.571588    0.661177
     19          1           0        4.825754   -1.391230   -0.295484
     20          1           0        0.124652   -1.532788    1.308472
     21          1           0        1.603586   -3.445682    1.698977
     22          1           0        3.952742   -3.433526    0.825134
     23          6           0       -3.508866    0.913915    0.671362
     24          6           0       -2.760386    2.053926    0.674268
     25          6           0       -2.955226   -0.309623    0.177479
     26          6           0       -1.574722   -0.361114   -0.197094
     27          6           0       -3.783020   -1.443099   -0.028309
     28          6           0       -3.301852   -2.571589   -0.661177
     29          6           0       -1.973690   -2.584349   -1.138061
     30          6           0       -1.137426   -1.507534   -0.912109
     31          1           0       -4.560022    0.932954    0.969334
     32          1           0       -3.206283    3.012421    0.951392
     33          1           0       -4.825754   -1.391232    0.295484
     34          1           0       -3.952741   -3.433528   -0.825134
     35          1           0       -1.603585   -3.445682   -1.698976
     36          1           0       -0.124652   -1.532788   -1.308471
     37          0           0       -4.064888   -2.448980    0.661142
     38          0           0       -4.032829   -2.459862    0.661142
     39          0           0       -3.999624   -2.466467    0.661142
     40          0           0       -3.965842   -2.468681    0.661142
     41          0           0       -3.932059   -2.466467    0.661142
     42          0           0       -3.898854   -2.459862    0.661142
     43          0           0       -3.866796   -2.448980    0.661142
     44          0           0       -3.836432   -2.434006    0.661142
     45          0           0       -3.808283   -2.415197    0.661142
     46          0           0       -3.782829   -2.392875    0.661142
     47          0           0       -3.760507   -2.367421    0.661142
     48          0           0       -3.741698   -2.339272    0.661142
     49          0           0       -3.726724   -2.308908    0.661142
     50          0           0       -3.715842   -2.276849    0.661142
     51          0           0       -3.709237   -2.243645    0.661142
     52          0           0       -3.583158   -2.209862    0.619096
     53          0           0       -4.348525   -2.209862    0.619096
     54          0           0       -4.345251   -2.259812    0.619096
     55          0           0       -4.335486   -2.308908    0.619096
     56          0           0       -4.319395   -2.356309    0.619096
     57          0           0       -4.297255   -2.401204    0.619096
     58          0           0       -4.269445   -2.442825    0.619096
     59          0           0       -4.236440   -2.480460    0.619096
     60          0           0       -4.198805   -2.513465    0.619096
     61          0           0       -4.157183   -2.541276    0.619096
     62          0           0       -4.112288   -2.563415    0.619096
     63          0           0       -4.064888   -2.579506    0.619096
     64          0           0       -4.015792   -2.589272    0.619096
     65          0           0       -3.965842   -2.592545    0.619096
     66          0           0       -3.915892   -2.589272    0.619096
     67          0           0       -3.866796   -2.579506    0.619096
     68          0           0       -3.819395   -2.563415    0.619096
     69          0           0       -3.774500   -2.541276    0.619096
     70          0           0       -3.732879   -2.513465    0.619096
     71          0           0       -3.695244   -2.480460    0.619096
     72          0           0       -3.662239   -2.442825    0.619096
     73          0           0       -3.634428   -2.401204    0.619096
     74          0           0       -3.612288   -2.356309    0.619096
     75          0           0       -3.596198   -2.308908    0.619096
     76          0           0       -3.586432   -2.259812    0.619096
     77          0           0       -3.465842   -2.209862    0.561241
     78          0           0       -4.448805   -2.339272    0.561241
     79          0           0       -4.427782   -2.401204    0.561241
     80          0           0       -4.398854   -2.459862    0.561241
     81          0           0       -4.362518   -2.514243    0.561241
     82          0           0       -4.319395   -2.563415    0.561241
     83          0           0       -4.270222   -2.606539    0.561241
     84          0           0       -4.215842   -2.642875    0.561241
     85          0           0       -4.157183   -2.671802    0.561241
     86          0           0       -4.095251   -2.692825    0.561241
     87          0           0       -4.031105   -2.705584    0.561241
     88          0           0       -3.965842   -2.709862    0.561241
     89          0           0       -3.900579   -2.705584    0.561241
     90          0           0       -3.836432   -2.692825    0.561241
     91          0           0       -3.774500   -2.671802    0.561241
     92          0           0       -3.715842   -2.642875    0.561241
     93          0           0       -3.661461   -2.606539    0.561241
     94          0           0       -3.612288   -2.563415    0.561241
     95          0           0       -3.569165   -2.514243    0.561241
     96          0           0       -3.532829   -2.459862    0.561241
     97          0           0       -3.503902   -2.401204    0.561241
     98          0           0       -3.482879   -2.339272    0.561241
     99          0           0       -3.470119   -2.275125    0.561241
    100          0           0       -3.357080   -2.209862    0.488569
    101          0           0       -4.553860   -2.367421    0.488569
    102          0           0       -4.528264   -2.442825    0.488569
    103          0           0       -4.493045   -2.514243    0.488569
    104          0           0       -4.448805   -2.580452    0.488569
    105          0           0       -4.396301   -2.640321    0.488569
    106          0           0       -4.336432   -2.692825    0.488569
    107          0           0       -4.270222   -2.737065    0.488569
    108          0           0       -4.198805   -2.772284    0.488569
    109          0           0       -4.123401   -2.797880    0.488569
    110          0           0       -4.045301   -2.813415    0.488569
    111          0           0       -3.965842   -2.818623    0.488569
    112          0           0       -3.886382   -2.813415    0.488569
    113          0           0       -3.808283   -2.797880    0.488569
    114          0           0       -3.732879   -2.772284    0.488569
    115          0           0       -3.661461   -2.737065    0.488569
    116          0           0       -3.595251   -2.692825    0.488569
    117          0           0       -3.535382   -2.640321    0.488569
    118          0           0       -3.482879   -2.580452    0.488569
    119          0           0       -3.438639   -2.514243    0.488569
    120          0           0       -3.403420   -2.442825    0.488569
    121          0           0       -3.377823   -2.367421    0.488569
    122          0           0       -3.362288   -2.289321    0.488569
    123          0           0       -3.258735   -2.209862    0.402323
    124          0           0       -4.648854   -2.392875    0.402323
    125          0           0       -4.619123   -2.480460    0.402323
    126          0           0       -4.578214   -2.563415    0.402323
    127          0           0       -4.526827   -2.640321    0.402323
    128          0           0       -4.465842   -2.709862    0.402323
    129          0           0       -4.396301   -2.770848    0.402323
    130          0           0       -4.319395   -2.822234    0.402323
    131          0           0       -4.236440   -2.863143    0.402323
    132          0           0       -4.148854   -2.892875    0.402323
    133          0           0       -4.058138   -2.910919    0.402323
    134          0           0       -3.965842   -2.916969    0.402323
    135          0           0       -3.873546   -2.910919    0.402323
    136          0           0       -3.782829   -2.892875    0.402323
    137          0           0       -3.695244   -2.863143    0.402323
    138          0           0       -3.612288   -2.822234    0.402323
    139          0           0       -3.535382   -2.770848    0.402323
    140          0           0       -3.465842   -2.709862    0.402323
    141          0           0       -3.404856   -2.640321    0.402323
    142          0           0       -3.353469   -2.563415    0.402323
    143          0           0       -3.312560   -2.480460    0.402323
    144          0           0       -3.282829   -2.392875    0.402323
    145          0           0       -3.264784   -2.302158    0.402323
    146          0           0       -3.172488   -2.209862    0.303977
    147          0           0       -4.732162   -2.415197    0.303977
    148          0           0       -4.698805   -2.513465    0.303977
    149          0           0       -4.652906   -2.606539    0.303977
    150          0           0       -4.595251   -2.692825    0.303977
    151          0           0       -4.526827   -2.770848    0.303977
    152          0           0       -4.448805   -2.839272    0.303977
    153          0           0       -4.362518   -2.896926    0.303977
    154          0           0       -4.269445   -2.942825    0.303977
    155          0           0       -4.171177   -2.976182    0.303977
    156          0           0       -4.069395   -2.996428    0.303977
    157          0           0       -3.965842   -3.003215    0.303977
    158          0           0       -3.862288   -2.996428    0.303977
    159          0           0       -3.760507   -2.976182    0.303977
    160          0           0       -3.662239   -2.942825    0.303977
    161          0           0       -3.569165   -2.896926    0.303977
    162          0           0       -3.482879   -2.839272    0.303977
    163          0           0       -3.179276   -2.313415    0.303977
    164          0           0       -4.802358   -2.434006    0.195216
    165          0           0       -4.765945   -2.541276    0.195216
    166          0           0       -4.715842   -2.642875    0.195216
    167          0           0       -4.652906   -2.737065    0.195216
    168          0           0       -4.578214   -2.822234    0.195216
    169          0           0       -4.493045   -2.896926    0.195216
    170          0           0       -4.398854   -2.959862    0.195216
    171          0           0       -4.297255   -3.009965    0.195216
    172          0           0       -4.189986   -3.046378    0.195216
    173          0           0       -4.078881   -3.068478    0.195216
    174          0           0       -3.965842   -3.075887    0.195216
    175          0           0       -3.852803   -3.068478    0.195216
    176          0           0       -3.741698   -3.046378    0.195216
    177          0           0       -3.634428   -3.009965    0.195216
    178          0           0       -4.858241   -2.448980    0.077899
    179          0           0       -4.819395   -2.563415    0.077899
    180          0           0       -4.765945   -2.671802    0.077899
    181          0           0       -4.698805   -2.772284    0.077899
    182          0           0       -4.619123   -2.863143    0.077899
    183          0           0       -4.528264   -2.942825    0.077899
    184          0           0       -4.427782   -3.009965    0.077899
    185          0           0       -4.319395   -3.063415    0.077899
    186          0           0       -4.923504   -2.335941   -0.045965
    187          0           0       -4.898854   -2.459862   -0.045965
    188          0           0       -4.858241   -2.579506   -0.045965
    189          0           0       -4.802358   -2.692825   -0.045965
    190          0           0       -4.732162   -2.797880   -0.045965
    191          0           0       -4.648854   -2.892875   -0.045965
    192          0           0       -4.553860   -2.976182   -0.045965
    193          0           0       -4.448805   -3.046378   -0.045965
    194          0           0       -4.948805   -2.339272   -0.174258
    195          0           0       -4.923504   -2.466467   -0.174258
    196          0           0       -4.881817   -2.589272   -0.174258
    197          0           0       -4.824458   -2.705584   -0.174258
    198          0           0       -4.752408   -2.813415   -0.174258
    199          0           0       -4.666899   -2.910919   -0.174258
    200          0           0       -4.965842   -2.209862   -0.304784
    201          0           0       -4.957287   -2.340388   -0.304784
    202          0           0       -4.931768   -2.468681   -0.304784
    203          0           0       -4.889721   -2.592545   -0.304784
    204          0           0       -4.831867   -2.709862   -0.304784
    205          0           0       -4.759195   -2.818623   -0.304784
    206          0           0       -4.672949   -2.916969   -0.304784
    207          0           0       -4.948805   -2.080452   -0.435310
    208          0           0       -4.957287   -2.209862   -0.435310
    209          0           0       -4.948805   -2.339272   -0.435310
    210          0           0       -4.923504   -2.466467   -0.435310
    211          0           0       -4.881817   -2.589272   -0.435310
    212          0           0       -4.824458   -2.705584   -0.435310
    213          0           0       -4.752408   -2.813415   -0.435310
    214          0           0       -4.898854   -1.959862   -0.563603
    215          0           0       -4.923504   -2.083783   -0.563603
    216          0           0       -4.931768   -2.209862   -0.563603
    217          0           0       -4.923504   -2.335941   -0.563603
    218          0           0       -4.898854   -2.459862   -0.563603
    219          0           0       -4.858241   -2.579506   -0.563603
    220          0           0       -4.802358   -2.692825   -0.563603
    221          0           0       -4.732162   -2.797880   -0.563603
    222          0           0       -4.619123   -1.556581   -0.687467
    223          0           0       -4.698805   -1.647440   -0.687467
    224          0           0       -4.765945   -1.747922   -0.687467
    225          0           0       -4.819395   -1.856309   -0.687467
    226          0           0       -4.858241   -1.970744   -0.687467
    227          0           0       -4.881817   -2.089272   -0.687467
    228          0           0       -4.889721   -2.209862   -0.687467
    229          0           0       -4.881817   -2.330452   -0.687467
    230          0           0       -4.858241   -2.448980   -0.687467
    231          0           0       -4.819395   -2.563415   -0.687467
    232          0           0       -4.765945   -2.671802   -0.687467
    233          0           0       -4.698805   -2.772284   -0.687467
    234          0           0       -4.493045   -1.522798   -0.804784
    235          0           0       -4.578214   -1.597490   -0.804784
    236          0           0       -4.652906   -1.682659   -0.804784
 ---------------------------------------------------------------------
 Rotational constants (GHZ):      0.4454681      0.2811480      0.1854303
 Leave Link  202 at Tue Sep 15 14:01:42 2020, MaxMem=   131072000 cpu:         0.1
 (Enter /share/programs/GAUSSIAN/64/g09/l301.exe)
 Standard basis: 6-311+G(d,p) (5D, 7F)
 Warning:  center  37 has no basis functions!
 Warning:  center  38 has no basis functions!
 Warning:  center  39 has no basis functions!
 Warning:  center  40 has no basis functions!
 Warning:  center  41 has no basis functions!
 Warning:  center  42 has no basis functions!
 Warning:  center  43 has no basis functions!
 Warning:  center  44 has no basis functions!
 Warning:  center  45 has no basis functions!
 Warning:  center  46 has no basis functions!
 Warning:  center  47 has no basis functions!
 Warning:  center  48 has no basis functions!
 Warning:  center  49 has no basis functions!
 Warning:  center  50 has no basis functions!
 Warning:  center  51 has no basis functions!
 Warning:  center  52 has no basis functions!
 Warning:  center  53 has no basis functions!
 Warning:  center  54 has no basis functions!
 Warning:  center  55 has no basis functions!
 Warning:  center  56 has no basis functions!
 Warning:  center  57 has no basis functions!
 Warning:  center  58 has no basis functions!
 Warning:  center  59 has no basis functions!
 Warning:  center  60 has no basis functions!
 Warning:  center  61 has no basis functions!
 Warning:  center  62 has no basis functions!
 Warning:  center  63 has no basis functions!
 Warning:  center  64 has no basis functions!
 Warning:  center  65 has no basis functions!
 Warning:  center  66 has no basis functions!
 Warning:  center  67 has no basis functions!
 Warning:  center  68 has no basis functions!
 Warning:  center  69 has no basis functions!
 Warning:  center  70 has no basis functions!
 Warning:  center  71 has no basis functions!
 Warning:  center  72 has no basis functions!
 Warning:  center  73 has no basis functions!
 Warning:  center  74 has no basis functions!
 Warning:  center  75 has no basis functions!
 Warning:  center  76 has no basis functions!
 Warning:  center  77 has no basis functions!
 Warning:  center  78 has no basis functions!
 Warning:  center  79 has no basis functions!
 Warning:  center  80 has no basis functions!
 Warning:  center  81 has no basis functions!
 Warning:  center  82 has no basis functions!
 Warning:  center  83 has no basis functions!
 Warning:  center  84 has no basis functions!
 Warning:  center  85 has no basis functions!
 Warning:  center  86 has no basis functions!
 Warning:  center  87 has no basis functions!
 Warning:  center  88 has no basis functions!
 Warning:  center  89 has no basis functions!
 Warning:  center  90 has no basis functions!
 Warning:  center  91 has no basis functions!
 Warning:  center  92 has no basis functions!
 Warning:  center  93 has no basis functions!
 Warning:  center  94 has no basis functions!
 Warning:  center  95 has no basis functions!
 Warning:  center  96 has no basis functions!
 Warning:  center  97 has no basis functions!
 Warning:  center  98 has no basis functions!
 Warning:  center  99 has no basis functions!
 Warning:  center 100 has no basis functions!
 Warning:  center 101 has no basis functions!
 Warning:  center 102 has no basis functions!
 Warning:  center 103 has no basis functions!
 Warning:  center 104 has no basis functions!
 Warning:  center 105 has no basis functions!
 Warning:  center 106 has no basis functions!
 Warning:  center 107 has no basis functions!
 Warning:  center 108 has no basis functions!
 Warning:  center 109 has no basis functions!
 Warning:  center 110 has no basis functions!
 Warning:  center 111 has no basis functions!
 Warning:  center 112 has no basis functions!
 Warning:  center 113 has no basis functions!
 Warning:  center 114 has no basis functions!
 Warning:  center 115 has no basis functions!
 Warning:  center 116 has no basis functions!
 Warning:  center 117 has no basis functions!
 Warning:  center 118 has no basis functions!
 Warning:  center 119 has no basis functions!
 Warning:  center 120 has no basis functions!
 Warning:  center 121 has no basis functions!
 Warning:  center 122 has no basis functions!
 Warning:  center 123 has no basis functions!
 Warning:  center 124 has no basis functions!
 Warning:  center 125 has no basis functions!
 Warning:  center 126 has no basis functions!
 Warning:  center 127 has no basis functions!
 Warning:  center 128 has no basis functions!
 Warning:  center 129 has no basis functions!
 Warning:  center 130 has no basis functions!
 Warning:  center 131 has no basis functions!
 Warning:  center 132 has no basis functions!
 Warning:  center 133 has no basis functions!
 Warning:  center 134 has no basis functions!
 Warning:  center 135 has no basis functions!
 Warning:  center 136 has no basis functions!
 Warning:  center 137 has no basis functions!
 Warning:  center 138 has no basis functions!
 Warning:  center 139 has no basis functions!
 Warning:  center 140 has no basis functions!
 Warning:  center 141 has no basis functions!
 Warning:  center 142 has no basis functions!
 Warning:  center 143 has no basis functions!
 Warning:  center 144 has no basis functions!
 Warning:  center 145 has no basis functions!
 Warning:  center 146 has no basis functions!
 Warning:  center 147 has no basis functions!
 Warning:  center 148 has no basis functions!
 Warning:  center 149 has no basis functions!
 Warning:  center 150 has no basis functions!
 Warning:  center 151 has no basis functions!
 Warning:  center 152 has no basis functions!
 Warning:  center 153 has no basis functions!
 Warning:  center 154 has no basis functions!
 Warning:  center 155 has no basis functions!
 Warning:  center 156 has no basis functions!
 Warning:  center 157 has no basis functions!
 Warning:  center 158 has no basis functions!
 Warning:  center 159 has no basis functions!
 Warning:  center 160 has no basis functions!
 Warning:  center 161 has no basis functions!
 Warning:  center 162 has no basis functions!
 Warning:  center 163 has no basis functions!
 Warning:  center 164 has no basis functions!
 Warning:  center 165 has no basis functions!
 Warning:  center 166 has no basis functions!
 Warning:  center 167 has no basis functions!
 Warning:  center 168 has no basis functions!
 Warning:  center 169 has no basis functions!
 Warning:  center 170 has no basis functions!
 Warning:  center 171 has no basis functions!
 Warning:  center 172 has no basis functions!
 Warning:  center 173 has no basis functions!
 Warning:  center 174 has no basis functions!
 Warning:  center 175 has no basis functions!
 Warning:  center 176 has no basis functions!
 Warning:  center 177 has no basis functions!
 Warning:  center 178 has no basis functions!
 Warning:  center 179 has no basis functions!
 Warning:  center 180 has no basis functions!
 Warning:  center 181 has no basis functions!
 Warning:  center 182 has no basis functions!
 Warning:  center 183 has no basis functions!
 Warning:  center 184 has no basis functions!
 Warning:  center 185 has no basis functions!
 Warning:  center 186 has no basis functions!
 Warning:  center 187 has no basis functions!
 Warning:  center 188 has no basis functions!
 Warning:  center 189 has no basis functions!
 Warning:  center 190 has no basis functions!
 Warning:  center 191 has no basis functions!
 Warning:  center 192 has no basis functions!
 Warning:  center 193 has no basis functions!
 Warning:  center 194 has no basis functions!
 Warning:  center 195 has no basis functions!
 Warning:  center 196 has no basis functions!
 Warning:  center 197 has no basis functions!
 Warning:  center 198 has no basis functions!
 Warning:  center 199 has no basis functions!
 Warning:  center 200 has no basis functions!
 Warning:  center 201 has no basis functions!
 Warning:  center 202 has no basis functions!
 Warning:  center 203 has no basis functions!
 Warning:  center 204 has no basis functions!
 Warning:  center 205 has no basis functions!
 Warning:  center 206 has no basis functions!
 Warning:  center 207 has no basis functions!
 Warning:  center 208 has no basis functions!
 Warning:  center 209 has no basis functions!
 Warning:  center 210 has no basis functions!
 Warning:  center 211 has no basis functions!
 Warning:  center 212 has no basis functions!
 Warning:  center 213 has no basis functions!
 Warning:  center 214 has no basis functions!
 Warning:  center 215 has no basis functions!
 Warning:  center 216 has no basis functions!
 Warning:  center 217 has no basis functions!
 Warning:  center 218 has no basis functions!
 Warning:  center 219 has no basis functions!
 Warning:  center 220 has no basis functions!
 Warning:  center 221 has no basis functions!
 Warning:  center 222 has no basis functions!
 Warning:  center 223 has no basis functions!
 Warning:  center 224 has no basis functions!
 Warning:  center 225 has no basis functions!
 Warning:  center 226 has no basis functions!
 Warning:  center 227 has no basis functions!
 Warning:  center 228 has no basis functions!
 Warning:  center 229 has no basis functions!
 Warning:  center 230 has no basis functions!
 Warning:  center 231 has no basis functions!
 Warning:  center 232 has no basis functions!
 Warning:  center 233 has no basis functions!
 Warning:  center 234 has no basis functions!
 Warning:  center 235 has no basis functions!
 Warning:  center 236 has no basis functions!
 Ernie: Thresh=  0.10000D-02 Tol=  0.10000D-05 Strict=F.
   568 basis functions,   904 primitive gaussians,   590 cartesian basis functions
    73 alpha electrons       73 beta electrons
       nuclear repulsion energy      1599.9156270972 Hartrees.
 IExCor=  402 DFT=T Ex+Corr=B3LYP ExCW=0 ScaHFX=  0.200000
 ScaDFX=  0.800000  0.720000  1.000000  0.810000 ScalE2=  1.000000  1.000000
 IRadAn=      0 IRanWt=     -1 IRanGd=            0 ICorTp=0 IEmpDi=  4
 NAtoms=  236 NActive=  236 NUniq=  236 SFac= 1.00D+00 NAtFMM=   60 NAOKFM=T Big=T
 Integral buffers will be    131072 words long.
 Raffenetti 2 integral format.
 Two-electron integral symmetry is turned off.
 Leave Link  301 at Tue Sep 15 14:01:42 2020, MaxMem=   131072000 cpu:         0.4
 (Enter /share/programs/GAUSSIAN/64/g09/l302.exe)
 NPDir=0 NMtPBC=     1 NCelOv=     1 NCel=       1 NClECP=     1 NCelD=      1
         NCelK=      1 NCelE2=     1 NClLst=     1 CellRange=     0.0.
 One-electron integrals computed using PRISM.
 NBasis=   568 RedAO= T EigKep=  1.01D-06  NBF=   568
 NBsUse=   557 1.00D-06 EigRej=  9.19D-07 NBFU=   557
 Precomputing XC quadrature grid using
 IXCGrd= 4 IRadAn=           0 IRanWt=          -1 IRanGd=           0 AccXCQ= 0.00D+00.
 Generated NRdTot=       0 NPtTot=           0 NUsed=           0 NTot=          32
 NSgBfM=   587   588   588   589   589 MxSgAt=   236 MxSgA2=    36.
 Leave Link  302 at Tue Sep 15 14:01:45 2020, MaxMem=   131072000 cpu:        18.4
 (Enter /share/programs/GAUSSIAN/64/g09/l308.exe)
 Leave Link  308 at Tue Sep 15 14:01:45 2020, MaxMem=   131072000 cpu:         1.1
 (Enter /share/programs/GAUSSIAN/64/g09/l303.exe)
 DipDrv:  MaxL=1.
 Leave Link  303 at Tue Sep 15 14:01:45 2020, MaxMem=   131072000 cpu:         0.7
 (Enter /share/programs/GAUSSIAN/64/g09/l401.exe)
 Initial guess from the checkpoint file:  "/scratch/aartigas.39192/Gau-1425219.chk"
 Skipping rotation of guess because NAtoms(RWF)=  236 differs from NAtoms(Chk)=   36.
 Guess basis will be translated and rotated to current coordinates.
 JPrj=2 DoOrth=T DoCkMO=T.
 Leave Link  401 at Tue Sep 15 14:01:48 2020, MaxMem=   131072000 cpu:        14.0
 (Enter /share/programs/GAUSSIAN/64/g09/l502.exe)
 Closed shell SCF:
 Using DIIS extrapolation, IDIIS=  1040.
 Two-electron integral symmetry not used.
 IVT=     1071582 IEndB=     1071582 NGot=   131072000 MDV=   130365749
 LenX=   130365749 LenY=   130017059
 Requested convergence on RMS density matrix=1.00D-08 within 128 cycles.
 Requested convergence on MAX density matrix=1.00D-06.
 Requested convergence on             energy=1.00D-06.
 No special actions if energy rises.
 Fock matrices will be formed incrementally for  20 cycles.

 Cycle   1  Pass 1  IDiag  1:
 FoFJK:  IHMeth= 1 ICntrl=       0 DoSepK=F KAlg= 0 I1Cent=   0 FoldK=F
 IRaf= 940000000 NMat=   1 IRICut=       1 DoRegI=T DoRafI=F ISym2E= 0.
 FoFCou: FMM=T IPFlag=           0 FMFlag=      100000 FMFlg1=        2001
         NFxFlg=           0 DoJE=F BraDBF=F KetDBF=F FulRan=T
         wScrn=  0.000000 ICntrl=       0 IOpCl=  0 I1Cent=           0 NGrid=           0
         NMat0=    1 NMatS0=      1 NMatT0=    0 NMatD0=    1 NMtDS0=    0 NMtDT0=    0
 Symmetry not used in FoFCou.
 FMM levels:  10  Number of levels for PrismC:   9
 E= -847.003738666967    
 DIIS: error= 5.05D-08 at cycle   1 NSaved=   1.
 NSaved= 1 IEnMin= 1 EnMin= -847.003738666967     IErMin= 1 ErrMin= 5.05D-08
 ErrMax= 5.05D-08  0.00D+00 EMaxC= 1.00D-01 BMatC= 3.55D-12 BMatP= 3.55D-12
 IDIUse=1 WtCom= 1.00D+00 WtEn= 0.00D+00
 Coeff-Com:  0.100D+01
 Coeff:      0.100D+01
 Gap=     0.151 Goal=   None    Shift=    0.000
 RMSDP=2.88D-07 MaxDP=1.33D-05              OVMax= 3.94D-07

 Cycle   2  Pass 1  IDiag  1:
 RMSU=  2.85D-07    CP:  1.00D+00
 E= -847.003738666791     Delta-E=        0.000000000176 Rises=F Damp=F
 DIIS: error= 1.42D-08 at cycle   2 NSaved=   2.
 NSaved= 2 IEnMin= 1 EnMin= -847.003738666967     IErMin= 2 ErrMin= 1.42D-08
 ErrMax= 1.42D-08  0.00D+00 EMaxC= 1.00D-01 BMatC= 2.13D-13 BMatP= 3.55D-12
 IDIUse=1 WtCom= 1.00D+00 WtEn= 0.00D+00
 Coeff-Com:  0.627D-01 0.937D+00
 Coeff:      0.627D-01 0.937D+00
 Gap=     0.151 Goal=   None    Shift=    0.000
 RMSDP=1.58D-08 MaxDP=7.85D-07 DE= 1.76D-10 OVMax= 3.02D-07

 Cycle   3  Pass 1  IDiag  1:
 RMSU=  1.33D-08    CP:  1.00D+00  1.02D+00
 E= -847.003738666914     Delta-E=       -0.000000000123 Rises=F Damp=F
 DIIS: error= 2.51D-08 at cycle   3 NSaved=   3.
 NSaved= 3 IEnMin= 1 EnMin= -847.003738666967     IErMin= 2 ErrMin= 1.42D-08
 ErrMax= 2.51D-08  0.00D+00 EMaxC= 1.00D-01 BMatC= 5.05D-13 BMatP= 2.13D-13
 IDIUse=1 WtCom= 1.00D+00 WtEn= 0.00D+00
 Coeff-Com: -0.107D-01 0.616D+00 0.395D+00
 Coeff:     -0.107D-01 0.616D+00 0.395D+00
 Gap=     0.151 Goal=   None    Shift=    0.000
 RMSDP=1.03D-08 MaxDP=4.11D-07 DE=-1.23D-10 OVMax= 2.17D-07

 Cycle   4  Pass 1  IDiag  1:
 RMSU=  5.91D-09    CP:  1.00D+00  1.02D+00  3.97D-01
 E= -847.003738666815     Delta-E=        0.000000000099 Rises=F Damp=F
 DIIS: error= 8.06D-09 at cycle   4 NSaved=   4.
 NSaved= 4 IEnMin= 1 EnMin= -847.003738666967     IErMin= 4 ErrMin= 8.06D-09
 ErrMax= 8.06D-09  0.00D+00 EMaxC= 1.00D-01 BMatC= 2.07D-14 BMatP= 2.13D-13
 IDIUse=1 WtCom= 1.00D+00 WtEn= 0.00D+00
 Coeff-Com: -0.876D-02 0.309D+00 0.241D+00 0.459D+00
 Coeff:     -0.876D-02 0.309D+00 0.241D+00 0.459D+00
 Gap=     0.151 Goal=   None    Shift=    0.000
 RMSDP=4.11D-09 MaxDP=1.49D-07 DE= 9.91D-11 OVMax= 6.88D-08

 SCF Done:  E(RB3LYP) =  -847.003738667     A.U. after    4 cycles
            NFock=  4  Conv=0.41D-08     -V/T= 2.0049
 KE= 8.428349970566D+02 PE=-5.164192584015D+03 EE= 1.874438221195D+03
 Leave Link  502 at Tue Sep 15 14:04:25 2020, MaxMem=   131072000 cpu:      1238.3
 (Enter /share/programs/GAUSSIAN/64/g09/l801.exe)
 DoSCS=F DFT=T ScalE2(SS,OS)=  1.000000  1.000000
 Range of M.O.s used for correlation:     1   557
 NBasis=   568 NAE=    73 NBE=    73 NFC=     0 NFV=     0
 NROrb=    557 NOA=    73 NOB=    73 NVA=   484 NVB=   484

 **** Warning!!: The largest alpha MO coefficient is  0.14271942D+03

 Leave Link  801 at Tue Sep 15 14:04:25 2020, MaxMem=   131072000 cpu:         0.2
 (Enter /share/programs/GAUSSIAN/64/g09/l1002.exe)
 Minotr:  Closed shell wavefunction.
          Direct CPHF calculation.
          Differentiating once with respect to magnetic field using GIAOs.
          Electric field/nuclear overlap derivatives assumed to be zero.
          Requested convergence is 1.0D-08 RMS, and 1.0D-07 maximum.
          Secondary convergence is 1.0D-12 RMS, and 1.0D-12 maximum.
          NewPWx=T KeepS1=F KeepF1=F KeepIn=T MapXYZ=F SortEE=F KeepMc=T.
          MDV=     131069551 using IRadAn=       2.
 Generate precomputed XC quadrature information.
          Solving linear equations simultaneously, MaxMat=      72.
 FoFCou: FMM=F IPFlag=           0 FMFlag=      100000 FMFlg1=        2001
         NFxFlg=           0 DoJE=F BraDBF=F KetDBF=T FulRan=T
         wScrn=  0.000000 ICntrl=    6100 IOpCl=  0 I1Cent=           7 NGrid=         236
         NMat0=    1 NMatS0=      1 NMatT0=    0 NMatD0=    1 NMtDS0=    0 NMtDT0=    0
 Symmetry not used in FoFCou.
 FoFJK:  IHMeth= 1 ICntrl=    6127 DoSepK=F KAlg= 0 I1Cent=   0 FoldK=F
 IRaf=         1 NMat=   1 IRICut=       1 DoRegI=T DoRafI=F ISym2E= 0.
          There are     3 degrees of freedom in the 1st order CPHF.  IDoFFX=0 NUNeed=     3.
      3 vectors produced by pass  0 Test12= 1.18D-12 3.33D-08 XBig12= 1.96D+03 8.77D+00.
 AX will form     3 AO Fock derivatives at one time.
      3 vectors produced by pass  1 Test12= 1.18D-12 3.33D-08 XBig12= 3.18D+00 7.58D-01.
      3 vectors produced by pass  2 Test12= 1.18D-12 3.33D-08 XBig12= 1.86D-02 5.85D-02.
      3 vectors produced by pass  3 Test12= 1.18D-12 3.33D-08 XBig12= 4.29D-05 1.35D-03.
      3 vectors produced by pass  4 Test12= 1.18D-12 3.33D-08 XBig12= 9.75D-08 7.22D-05.
      3 vectors produced by pass  5 Test12= 1.18D-12 3.33D-08 XBig12= 3.97D-10 5.92D-06.
      3 vectors produced by pass  6 Test12= 1.18D-12 3.33D-08 XBig12= 1.51D-12 4.40D-07.
 InvSVY:  IOpt=1 It=  1 EMax= 1.42D-14
 Solved reduced A of dimension    21 with     3 vectors.
 Calculating GIAO nuclear magnetic shielding tensors.
 SCF GIAO Magnetic shielding tensor (ppm):
      1  C    Isotropic =    49.6861   Anisotropy =   149.7970
   XX=    46.3088   YX=   -25.0950   ZX=    31.4786
   XY=   -31.1109   YY=   -39.0339   ZY=    13.2621
   XZ=    24.9178   YZ=     8.9888   ZZ=   141.7833
   Eigenvalues:   -49.3507    48.8581   149.5507
      2  C    Isotropic =    49.6861   Anisotropy =   149.7971
   XX=    46.3088   YX=    25.0953   ZX=    31.4786
   XY=    31.1111   YY=   -39.0339   ZY=   -13.2621
   XZ=    24.9177   YZ=    -8.9889   ZZ=   141.7834
   Eigenvalues:   -49.3508    48.8583   149.5509
      3  C    Isotropic =    44.4899   Anisotropy =   204.7372
   XX=   -22.2199   YX=    10.8075   ZX=    51.2710
   XY=     4.9259   YY=   -14.7126   ZY=    14.7921
   XZ=    32.3655   YZ=    21.2392   ZZ=   170.4022
   Eigenvalues:   -31.9593   -15.5523   180.9814
      4  C    Isotropic =    44.4899   Anisotropy =   204.7373
   XX=   -22.2198   YX=   -10.8075   ZX=    51.2710
   XY=    -4.9256   YY=   -14.7126   ZY=   -14.7922
   XZ=    32.3656   YZ=   -21.2393   ZZ=   170.4023
   Eigenvalues:   -31.9592   -15.5524   180.9815
      5  C    Isotropic =    48.5420   Anisotropy =   189.5490
   XX=   -14.6790   YX=     4.7342   ZX=     8.4333
   XY=    20.3759   YY=    -5.5375   ZY=    31.5121
   XZ=    65.1218   YZ=     0.8640   ZZ=   165.8426
   Eigenvalues:   -26.3226    -2.9593   174.9080
      6  C    Isotropic =    48.5421   Anisotropy =   189.5489
   XX=   -14.6789   YX=    -4.7340   ZX=     8.4335
   XY=   -20.3758   YY=    -5.5374   ZY=   -31.5121
   XZ=    65.1218   YZ=    -0.8638   ZZ=   165.8426
   Eigenvalues:   -26.3224    -2.9594   174.9080
      7  C    Isotropic =    50.1907   Anisotropy =   149.2089
   XX=    19.7303   YX=   -44.2755   ZX=    41.2886
   XY=   -38.0437   YY=    -2.7069   ZY=    36.9011
   XZ=    36.5866   YZ=    37.5458   ZZ=   133.5487
   Eigenvalues:   -49.6656    50.5744   149.6633
      8  C    Isotropic =    48.9362   Anisotropy =   152.4339
   XX=   -31.5093   YX=   -11.4921   ZX=    54.7730
   XY=   -19.0468   YY=    46.5898   ZY=    27.5522
   XZ=    42.2451   YZ=    29.8391   ZZ=   131.7282
   Eigenvalues:   -50.1461    46.3960   150.5589
      9  C    Isotropic =    44.4204   Anisotropy =   209.3981
   XX=   -10.1987   YX=    16.7536   ZX=    44.4888
   XY=     8.9342   YY=    -7.7270   ZY=    61.4651
   XZ=    43.3269   YZ=    64.9792   ZZ=   151.1869
   Eigenvalues:   -30.3689   -20.3891   184.0192
     10  C    Isotropic =    45.3894   Anisotropy =   198.3236
   XX=    -5.9706   YX=    23.3819   ZX=    35.6519
   XY=    38.1954   YY=     1.7271   ZY=    73.1370
   XZ=    54.0013   YZ=    45.7045   ZZ=   140.4116
   Eigenvalues:   -33.5315    -7.9055   177.6051
     11  H    Isotropic =    23.8179   Anisotropy =     7.5674
   XX=    27.2191   YX=    -1.9090   ZX=    -2.2602
   XY=    -1.7961   YY=    24.8722   ZY=    -0.1966
   XZ=    -3.3763   YZ=    -0.1950   ZZ=    19.3625
   Eigenvalues:    18.3647    24.2263    28.8628
     12  H    Isotropic =    23.8179   Anisotropy =     7.5674
   XX=    27.2191   YX=     1.9090   ZX=    -2.2602
   XY=     1.7961   YY=    24.8722   ZY=     0.1966
   XZ=    -3.3763   YZ=     0.1950   ZZ=    19.3625
   Eigenvalues:    18.3647    24.2263    28.8628
     13  H    Isotropic =    23.8548   Anisotropy =     7.5124
   XX=    26.7195   YX=    -2.1358   ZX=    -2.0755
[...]
   136  Bq   0.000000
   137  Bq   0.000000
   138  Bq   0.000000
   139  Bq   0.000000
   140  Bq   0.000000
   141  Bq   0.000000
   142  Bq   0.000000
   143  Bq   0.000000
   144  Bq   0.000000
   145  Bq   0.000000
   146  Bq   0.000000
   147  Bq   0.000000
   148  Bq   0.000000
   149  Bq   0.000000
   150  Bq   0.000000
   151  Bq   0.000000
   152  Bq   0.000000
   153  Bq   0.000000
   154  Bq   0.000000
   155  Bq   0.000000
   156  Bq   0.000000
   157  Bq   0.000000
   158  Bq   0.000000
   159  Bq   0.000000
   160  Bq   0.000000
   161  Bq   0.000000
   162  Bq   0.000000
   163  Bq   0.000000
   164  Bq   0.000000
   165  Bq   0.000000
   166  Bq   0.000000
   167  Bq   0.000000
   168  Bq   0.000000
   169  Bq   0.000000
   170  Bq   0.000000
   171  Bq   0.000000
   172  Bq   0.000000
   173  Bq   0.000000
   174  Bq   0.000000
   175  Bq   0.000000
   176  Bq   0.000000
   177  Bq   0.000000
   178  Bq   0.000000
   179  Bq   0.000000
   180  Bq   0.000000
   181  Bq   0.000000
   182  Bq   0.000000
   183  Bq   0.000000
   184  Bq   0.000000
   185  Bq   0.000000
   186  Bq   0.000000
   187  Bq   0.000000
   188  Bq   0.000000
   189  Bq   0.000000
   190  Bq   0.000000
   191  Bq   0.000000
   192  Bq   0.000000
   193  Bq   0.000000
   194  Bq   0.000000
   195  Bq   0.000000
   196  Bq   0.000000
   197  Bq   0.000000
   198  Bq   0.000000
   199  Bq   0.000000
   200  Bq   0.000000
   201  Bq   0.000000
   202  Bq   0.000000
   203  Bq   0.000000
   204  Bq   0.000000
   205  Bq   0.000000
   206  Bq   0.000000
   207  Bq   0.000000
   208  Bq   0.000000
   209  Bq   0.000000
   210  Bq   0.000000
   211  Bq   0.000000
   212  Bq   0.000000
   213  Bq   0.000000
   214  Bq   0.000000
   215  Bq   0.000000
   216  Bq   0.000000
   217  Bq   0.000000
   218  Bq   0.000000
   219  Bq   0.000000
   220  Bq   0.000000
   221  Bq   0.000000
   222  Bq   0.000000
   223  Bq   0.000000
   224  Bq   0.000000
   225  Bq   0.000000
   226  Bq   0.000000
   227  Bq   0.000000
   228  Bq   0.000000
   229  Bq   0.000000
   230  Bq   0.000000
   231  Bq   0.000000
   232  Bq   0.000000
   233  Bq   0.000000
   234  Bq   0.000000
   235  Bq   0.000000
   236  Bq   0.000000
 Sum of Mulliken charges =   0.00000
 Mulliken charges with hydrogens summed into heavy atoms:
               1
     1  C   -0.262865
     2  C   -0.262866
     3  C    0.737923
     4  C    0.737922
     5  C   -0.039994
     6  C   -0.040001
     7  C    0.075155
     8  C   -0.330147
     9  C    0.780501
    10  C   -0.200782
    15  C    0.249272
    16  C   -0.533462
    17  C   -0.189404
    18  C   -0.286191
    23  C   -0.330145
    24  C    0.075154
    25  C    0.780496
    26  C   -0.200782
    27  C    0.130592
    28  C   -0.412303
    29  C   -0.189403
    30  C   -0.533462
    37  Bq   0.000000
    38  Bq   0.000000
    39  Bq   0.000000
    40  Bq   0.000000
    41  Bq   0.000000
    42  Bq   0.000000
    43  Bq   0.000000
    44  Bq   0.000000
    45  Bq   0.000000
    46  Bq   0.000000
    47  Bq   0.000000
    48  Bq   0.000000
    49  Bq   0.000000
    50  Bq   0.000000
    51  Bq   0.000000
    52  Bq   0.000000
    53  Bq   0.118681
    54  Bq   0.000000
    55  Bq   0.000000
    56  Bq   0.000000
    57  Bq   0.000000
    58  Bq   0.000000
    59  Bq   0.000000
    60  Bq   0.000000
    61  Bq   0.000000
    62  Bq   0.000000
    63  Bq   0.000000
    64  Bq   0.000000
    65  Bq   0.000000
    66  Bq   0.000000
    67  Bq   0.000000
    68  Bq   0.000000
    69  Bq   0.000000
    70  Bq   0.000000
    71  Bq   0.000000
    72  Bq   0.000000
    73  Bq   0.000000
    74  Bq   0.000000
    75  Bq   0.000000
    76  Bq   0.000000
    77  Bq   0.000000
    78  Bq   0.000000
    79  Bq   0.000000
    80  Bq   0.000000
    81  Bq   0.000000
    82  Bq   0.000000
    83  Bq   0.000000
    84  Bq   0.000000
    85  Bq   0.000000
    86  Bq   0.000000
    87  Bq   0.000000
    88  Bq   0.000000
    89  Bq   0.000000
    90  Bq   0.000000
    91  Bq   0.000000
    92  Bq   0.000000
    93  Bq   0.000000
    94  Bq   0.000000
    95  Bq   0.000000
    96  Bq   0.000000
    97  Bq   0.000000
    98  Bq   0.000000
    99  Bq   0.000000
   100  Bq   0.000000
   101  Bq   0.000000
   102  Bq   0.000000
   103  Bq   0.000000
   104  Bq   0.000000
   105  Bq   0.000000
   106  Bq   0.000000
   107  Bq   0.000000
   108  Bq   0.000000
   109  Bq   0.000000
   110  Bq   0.000000
   111  Bq   0.000000
   112  Bq   0.000000
   113  Bq   0.000000
   114  Bq   0.000000
   115  Bq   0.000000
   116  Bq   0.000000
   117  Bq   0.000000
   118  Bq   0.000000
   119  Bq   0.000000
   120  Bq   0.000000
   121  Bq   0.000000
   122  Bq   0.000000
   123  Bq   0.000000
   124  Bq   0.000000
   125  Bq   0.000000
   126  Bq   0.000000
   127  Bq   0.000000
   128  Bq   0.000000
   129  Bq   0.000000
   130  Bq   0.000000
   131  Bq   0.000000
   132  Bq   0.000000
   133  Bq   0.000000
   134  Bq   0.000000
   135  Bq   0.000000
   136  Bq   0.000000
   137  Bq   0.000000
   138  Bq   0.000000
   139  Bq   0.000000
   140  Bq   0.000000
   141  Bq   0.000000
   142  Bq   0.000000
   143  Bq   0.000000
   144  Bq   0.000000
   145  Bq   0.000000
   146  Bq   0.000000
   147  Bq   0.000000
   148  Bq   0.000000
   149  Bq   0.000000
   150  Bq   0.000000
   151  Bq   0.000000
   152  Bq   0.000000
   153  Bq   0.000000
   154  Bq   0.000000
   155  Bq   0.000000
   156  Bq   0.000000
   157  Bq   0.000000
   158  Bq   0.000000
   159  Bq   0.000000
   160  Bq   0.000000
   161  Bq   0.000000
   162  Bq   0.000000
   163  Bq   0.000000
   164  Bq   0.000000
   165  Bq   0.000000
   166  Bq   0.000000
   167  Bq   0.000000
   168  Bq   0.000000
   169  Bq   0.000000
   170  Bq   0.000000
   171  Bq   0.000000
   172  Bq   0.000000
   173  Bq   0.000000
   174  Bq   0.000000
   175  Bq   0.000000
   176  Bq   0.000000
   177  Bq   0.000000
   178  Bq   0.000000
   179  Bq   0.000000
   180  Bq   0.000000
   181  Bq   0.000000
   182  Bq   0.000000
   183  Bq   0.000000
   184  Bq   0.000000
   185  Bq   0.000000
   186  Bq   0.000000
   187  Bq   0.000000
   188  Bq   0.000000
   189  Bq   0.000000
   190  Bq   0.000000
   191  Bq   0.000000
   192  Bq   0.000000
   193  Bq   0.126111
   194  Bq   0.000000
   195  Bq   0.000000
   196  Bq   0.000000
   197  Bq   0.000000
   198  Bq   0.000000
   199  Bq   0.000000
   200  Bq   0.000000
   201  Bq   0.000000
   202  Bq   0.000000
   203  Bq   0.000000
   204  Bq   0.000000
   205  Bq   0.000000
   206  Bq   0.000000
   207  Bq   0.000000
   208  Bq   0.000000
   209  Bq   0.000000
   210  Bq   0.000000
   211  Bq   0.000000
   212  Bq   0.000000
   213  Bq   0.000000
   214  Bq   0.000000
   215  Bq   0.000000
   216  Bq   0.000000
   217  Bq   0.000000
   218  Bq   0.000000
   219  Bq   0.000000
   220  Bq   0.000000
   221  Bq   0.000000
   222  Bq   0.000000
   223  Bq   0.000000
   224  Bq   0.000000
   225  Bq   0.000000
   226  Bq   0.000000
   227  Bq   0.000000
   228  Bq   0.000000
   229  Bq   0.000000
   230  Bq   0.000000
   231  Bq   0.000000
   232  Bq   0.000000
   233  Bq   0.000000
   234  Bq   0.000000
   235  Bq   0.000000
   236  Bq   0.000000
 Electronic spatial extent (au):  <R**2>=           5804.3227
 Charge=              0.0000 electrons
 Dipole moment (field-independent basis, Debye):
    X=              0.0000    Y=              0.0732    Z=              0.0000  Tot=              0.0732
 Quadrupole moment (field-independent basis, Debye-Ang):
   XX=           -113.9137   YY=           -113.9781   ZZ=           -133.4378
   XY=              0.0000   XZ=             -4.8717   YZ=              0.0000
 Traceless Quadrupole moment (field-independent basis, Debye-Ang):
   XX=              6.5295   YY=              6.4651   ZZ=            -12.9946
   XY=              0.0000   XZ=             -4.8717   YZ=              0.0000
 Octapole moment (field-independent basis, Debye-Ang**2):
  XXX=              0.0000  YYY=             11.7108  ZZZ=              0.0000  XYY=              0.0000
  XXY=             -6.4067  XXZ=              0.0000  XZZ=              0.0000  YZZ=             -7.8695
  YYZ=              0.0000  XYZ=            -16.2862
 Hexadecapole moment (field-independent basis, Debye-Ang**3):
 XXXX=          -4416.4021 YYYY=          -2784.9756 ZZZZ=           -481.5690 XXXY=              0.0001
 XXXZ=           -124.3517 YYYX=             -0.0003 YYYZ=              0.0001 ZZZX=             -4.4782
 ZZZY=              0.0001 XXYY=          -1189.3576 XXZZ=           -942.9016 YYZZ=           -589.4012
 XXYZ=              0.0000 YYXZ=              7.8297 ZZXY=             -0.0001
 N-N= 1.599915627097D+03 E-N=-5.164192587538D+03  KE= 8.428349970566D+02
 Leave Link  601 at Tue Sep 15 14:15:56 2020, MaxMem=   131072000 cpu:         0.9
 (Enter /share/programs/GAUSSIAN/64/g09/l9999.exe)
 1\1\GINC-CALVANI\SP\RB3LYP\6-311+G(d,p)\C22H14\AARTIGAS\15-Sep-2020\0\
 \#P rb3lyp/6-311+g** NMR Guess=Read geom=connectivity\\Title\\0,1\C,0,
 0.653241,3.257859,-0.20251\C,0,-0.653243,3.25786,0.20251\C,0,1.372495,
 2.032956,-0.320807\C,0,-1.372495,2.032956,0.320807\C,0,0.722474,0.7956
 66,-0.050388\C,0,-0.722474,0.795667,0.050387\C,0,2.760385,2.053927,-0.
 674268\C,0,3.508866,0.913916,-0.671362\C,0,2.955226,-0.309622,-0.17747
 9\C,0,1.574722,-0.361114,0.197094\H,0,1.183427,4.19574,-0.384599\H,0,-
 1.183429,4.19574,0.384599\H,0,3.206283,3.012423,-0.951392\H,0,4.560023
 ,0.932956,-0.969333\C,0,3.78302,-1.443098,0.028309\C,0,1.137427,-1.507
 533,0.912109\C,0,1.973691,-2.584349,1.138062\C,0,3.301853,-2.571588,0.
 661177\H,0,4.825754,-1.39123,-0.295484\H,0,0.124652,-1.532788,1.308472
 \H,0,1.603586,-3.445682,1.698977\H,0,3.952742,-3.433526,0.825134\C,0,-
 3.508866,0.913915,0.671362\C,0,-2.760386,2.053926,0.674268\C,0,-2.9552
 26,-0.309623,0.177479\C,0,-1.574722,-0.361114,-0.197094\C,0,-3.78302,-
 1.443099,-0.028309\C,0,-3.301852,-2.571589,-0.661177\C,0,-1.97369,-2.5
 84349,-1.138061\C,0,-1.137426,-1.507534,-0.912109\H,0,-4.560022,0.9329
 54,0.969334\H,0,-3.206283,3.012421,0.951392\H,0,-4.825754,-1.391232,0.
 295484\H,0,-3.952741,-3.433528,-0.825134\H,0,-1.603585,-3.445682,-1.69
 8976\H,0,-0.124652,-1.532788,-1.308471\Bq,0,-4.0648875105,-2.448979618
 4,0.6611418263\Bq,0,-4.0328290481,-2.459862,0.6611418263\Bq,0,-3.99962
 44144,-2.4664668123,0.6611418263\Bq,0,-3.96584175,-2.4686810451,0.6611
 418263\Bq,0,-3.9320590856,-2.4664668123,0.6611418263\Bq,0,-3.898854451
 9,-2.459862,0.6611418263\Bq,0,-3.8667959895,-2.4489796184,0.6611418263
 \Bq,0,-3.8364322274,-2.434005868,0.6611418263\Bq,0,-3.8082826982,-2.41
 5196954,0.6611418263\Bq,0,-3.7828290481,-2.3928747019,0.6611418263\Bq,
 0,-3.760506796,-2.3674210518,0.6611418263\Bq,0,-3.741697882,-2.3392715
 226,0.6611418263\Bq,0,-3.7267241316,-2.3089077605,0.6611418263\Bq,0,-3
 .71584175,-2.2768492981,0.6611418263\Bq,0,-3.7092369377,-2.2436446644,
 0.6611418263\Bq,0,-3.5831583176,-2.209862,0.6190955325\Bq,0,-4.3485251
 824,-2.209862,0.6190955325\Bq,0,-4.3452512726,-2.2598122113,0.61909553
 25\Bq,0,-4.3354855606,-2.3089077605,0.6190955325\Bq,0,-4.3193951406,-2
 .3563086094,0.6190955325\Bq,0,-4.297255324,-2.4012037162,0.6190955325\
 Bq,0,-4.2694449293,-2.4428249131,0.6190955325\Bq,0,-4.2364398001,-2.48
 04600501,0.6190955325\Bq,0,-4.1988046631,-2.5134651793,0.6190955325\Bq
 ,0,-4.1571834662,-2.541275574,0.6190955325\Bq,0,-4.1122883594,-2.56341
 53906,0.6190955325\Bq,0,-4.0648875105,-2.5795058106,0.6190955325\Bq,0,
 -4.0157919613,-2.5892715226,0.6190955325\Bq,0,-3.96584175,-2.592545432
 4,0.6190955325\Bq,0,-3.9158915387,-2.5892715226,0.6190955325\Bq,0,-3.8
 667959895,-2.5795058106,0.6190955325\Bq,0,-3.8193951406,-2.5634153906,
 0.6190955325\Bq,0,-3.7745000338,-2.541275574,0.6190955325\Bq,0,-3.7328
 788369,-2.5134651793,0.6190955325\Bq,0,-3.6952436999,-2.4804600501,0.6
 190955325\Bq,0,-3.6622385707,-2.4428249131,0.6190955325\Bq,0,-3.634428
 176,-2.4012037162,0.6190955325\Bq,0,-3.6122883594,-2.3563086094,0.6190
 955325\Bq,0,-3.5961979394,-2.3089077605,0.6190955325\Bq,0,-3.586432227
 4,-2.2598122113,0.6190955325\Bq,0,-3.46584175,-2.209862,0.5612414038\B
 q,0,-4.4488046631,-2.3392715226,0.5612414038\Bq,0,-4.4277815163,-2.401
 2037162,0.5612414038\Bq,0,-4.3988544519,-2.459862,0.5612414038\Bq,0,-4
 .3625184201,-2.5142427145,0.5612414038\Bq,0,-4.3193951406,-2.563415390
 6,0.5612414038\Bq,0,-4.2702224645,-2.6065386701,0.5612414038\Bq,0,-4.2
 1584175,-2.6428747019,0.5612414038\Bq,0,-4.1571834662,-2.6718017663,0.
 5612414038\Bq,0,-4.0952512726,-2.6928249131,0.5612414038\Bq,0,-4.03110
 48461,-2.7055844307,0.5612414038\Bq,0,-3.96584175,-2.709862,0.56124140
 38\Bq,0,-3.9005786539,-2.7055844307,0.5612414038\Bq,0,-3.8364322274,-2
 .6928249131,0.5612414038\Bq,0,-3.7745000338,-2.6718017663,0.5612414038
 \Bq,0,-3.71584175,-2.6428747019,0.5612414038\Bq,0,-3.6614610355,-2.606
 5386701,0.5612414038\Bq,0,-3.6122883594,-2.5634153906,0.5612414038\Bq,
 0,-3.5691650799,-2.5142427145,0.5612414038\Bq,0,-3.5328290481,-2.45986
 2,0.5612414038\Bq,0,-3.5039019837,-2.4012037162,0.5612414038\Bq,0,-3.4
 828788369,-2.3392715226,0.5612414038\Bq,0,-3.4701193193,-2.2751250961,
 0.5612414038\Bq,0,-3.357080321,-2.209862,0.4885693403\Bq,0,-4.55386013
 63,-2.3674210518,0.4885693403\Bq,0,-4.5282639744,-2.4428249131,0.48856
 93403\Bq,0,-4.4930446124,-2.5142427145,0.4885693403\Bq,0,-4.4488046631
 ,-2.5804524774,0.4885693403\Bq,0,-4.3963010846,-2.6403213346,0.4885693
 403\Bq,0,-4.3364322274,-2.6928249131,0.4885693403\Bq,0,-4.2702224645,-
 2.7370648624,0.4885693403\Bq,0,-4.1988046631,-2.7722842244,0.488569340
 3\Bq,0,-4.1234008018,-2.7978803863,0.4885693403\Bq,0,-4.0453010613,-2.
 8134153906,0.4885693403\Bq,0,-3.96584175,-2.818623429,0.4885693403\Bq,
 0,-3.8863824387,-2.8134153906,0.4885693403\Bq,0,-3.8082826982,-2.79788
 03863,0.4885693403\Bq,0,-3.7328788369,-2.7722842244,0.4885693403\Bq,0,
 -3.6614610355,-2.7370648624,0.4885693403\Bq,0,-3.5952512726,-2.6928249
 131,0.4885693403\Bq,0,-3.5353824154,-2.6403213346,0.4885693403\Bq,0,-3
 .4828788369,-2.5804524774,0.4885693403\Bq,0,-3.4386388876,-2.514242714
 5,0.4885693403\Bq,0,-3.4034195256,-2.4428249131,0.4885693403\Bq,0,-3.3
 778233637,-2.3674210518,0.4885693403\Bq,0,-3.3622883594,-2.2893213113,
 0.4885693403\Bq,0,-3.2587349688,-2.209862,0.4023227812\Bq,0,-4.6488544
 519,-2.3928747019,0.4023227812\Bq,0,-4.6191232324,-2.4804600501,0.4023
 227812\Bq,0,-4.5782141857,-2.5634153906,0.4023227812\Bq,0,-4.526827276
 8,-2.6403213346,0.4023227812\Bq,0,-4.46584175,-2.709862,0.4023227812\B
 q,0,-4.3963010846,-2.7708475268,0.4023227812\Bq,0,-4.3193951406,-2.822
 2344357,0.4023227812\Bq,0,-4.2364398001,-2.8631434824,0.4023227812\Bq,
 0,-4.1488544519,-2.8928747019,0.4023227812\Bq,0,-4.0581377056,-2.91091
 93846,0.4023227812\Bq,0,-3.96584175,-2.9169687812,0.4023227812\Bq,0,-3
 .8735457944,-2.9109193846,0.4023227812\Bq,0,-3.7828290481,-2.892874701
 9,0.4023227812\Bq,0,-3.6952436999,-2.8631434824,0.4023227812\Bq,0,-3.6
 122883594,-2.8222344357,0.4023227812\Bq,0,-3.5353824154,-2.7708475268,
 0.4023227812\Bq,0,-3.46584175,-2.709862,0.4023227812\Bq,0,-3.404856223
 2,-2.6403213346,0.4023227812\Bq,0,-3.3534693143,-2.5634153906,0.402322
 7812\Bq,0,-3.3125602676,-2.4804600501,0.4023227812\Bq,0,-3.2828290481,
 -2.3928747019,0.4023227812\Bq,0,-3.2647843654,-2.3021579556,0.40232278
 12\Bq,0,-3.1724884097,-2.209862,0.303977429\Bq,0,-4.7321622308,-2.4151
 96954,0.303977429\Bq,0,-4.6988046631,-2.5134651793,0.303977429\Bq,0,-4
 .6529058969,-2.6065386701,0.303977429\Bq,0,-4.5952512726,-2.6928249131
 ,0.303977429\Bq,0,-4.5268272768,-2.7708475268,0.303977429\Bq,0,-4.4488
 046631,-2.8392715226,0.303977429\Bq,0,-4.3625184201,-2.8969261469,0.30
 3977429\Bq,0,-4.2694449293,-2.9428249131,0.303977429\Bq,0,-4.171176704
 ,-2.9761824808,0.303977429\Bq,0,-4.0693951406,-2.9964280925,0.30397742
 9\Bq,0,-3.96584175,-3.0032153403,0.303977429\Bq,0,-3.8622883594,-2.996
 4280925,0.303977429\Bq,0,-3.760506796,-2.9761824808,0.303977429\Bq,0,-
 3.6622385707,-2.9428249131,0.303977429\Bq,0,-3.5691650799,-2.896926146
 9,0.303977429\Bq,0,-3.4828788369,-2.8392715226,0.303977429\Bq,0,-3.179
 2756575,-2.3134153906,0.303977429\Bq,0,-4.8023580537,-2.434005868,0.19
 5216\Bq,0,-4.7659448952,-2.541275574,0.195216\Bq,0,-4.71584175,-2.6428
 747019,0.195216\Bq,0,-4.6529058969,-2.7370648624,0.195216\Bq,0,-4.5782
 141857,-2.8222344357,0.195216\Bq,0,-4.4930446124,-2.8969261469,0.19521
 6\Bq,0,-4.3988544519,-2.959862,0.195216\Bq,0,-4.297255324,-3.009965145
 2,0.195216\Bq,0,-4.189985618,-3.0463783037,0.195216\Bq,0,-4.0788807483
 ,-3.0684784364,0.195216\Bq,0,-3.96584175,-3.0758874038,0.195216\Bq,0,-
 3.8528027517,-3.0684784364,0.195216\Bq,0,-3.741697882,-3.0463783037,0.
 195216\Bq,0,-3.634428176,-3.0099651452,0.195216\Bq,0,-4.8582408508,-2.
 4489796184,0.0778994324\Bq,0,-4.8193951406,-2.5634153906,0.0778994324\
 Bq,0,-4.7659448952,-2.6718017663,0.0778994324\Bq,0,-4.6988046631,-2.77
 22842244,0.0778994324\Bq,0,-4.6191232324,-2.8631434824,0.0778994324\Bq
 ,0,-4.5282639744,-2.9428249131,0.0778994324\Bq,0,-4.4277815163,-3.0099
 651452,0.0778994324\Bq,0,-4.3193951406,-3.0634153906,0.0778994324\Bq,0
 ,-4.9235039469,-2.3359406201,-0.0459649549\Bq,0,-4.8988544519,-2.45986
 2,-0.0459649549\Bq,0,-4.8582408508,-2.5795058106,-0.0459649549\Bq,0,-4
 .8023580537,-2.6928249131,-0.0459649549\Bq,0,-4.7321622308,-2.79788038
 63,-0.0459649549\Bq,0,-4.6488544519,-2.8928747019,-0.0459649549\Bq,0,-
 4.5538601363,-2.9761824808,-0.0459649549\Bq,0,-4.4488046631,-3.0463783
 037,-0.0459649549\Bq,0,-4.9488046631,-2.3392715226,-0.1742578078\Bq,0,
 -4.9235039469,-2.4664668123,-0.1742578078\Bq,0,-4.881817365,-2.5892715
 226,-0.1742578078\Bq,0,-4.8244581864,-2.7055844307,-0.1742578078\Bq,0,
 -4.7524078425,-2.8134153906,-0.1742578078\Bq,0,-4.6668991346,-2.910919
 3846,-0.1742578078\Bq,0,-4.96584175,-2.209862,-0.304784\Bq,0,-4.957286
 6114,-2.3403881922,-0.304784\Bq,0,-4.9317675763,-2.4686810451,-0.30478
 4\Bq,0,-4.8897212825,-2.5925454324,-0.304784\Bq,0,-4.8318671538,-2.709
 862,-0.304784\Bq,0,-4.7591950903,-2.818623429,-0.304784\Bq,0,-4.672948
 5312,-2.9169687812,-0.304784\Bq,0,-4.9488046631,-2.0804524774,-0.43531
 01922\Bq,0,-4.9572866114,-2.209862,-0.4353101922\Bq,0,-4.9488046631,-2
 .3392715226,-0.4353101922\Bq,0,-4.9235039469,-2.4664668123,-0.43531019
 22\Bq,0,-4.881817365,-2.5892715226,-0.4353101922\Bq,0,-4.8244581864,-2
 .7055844307,-0.4353101922\Bq,0,-4.7524078425,-2.8134153906,-0.43531019
 22\Bq,0,-4.8988544519,-1.959862,-0.5636030451\Bq,0,-4.9235039469,-2.08
 37833799,-0.5636030451\Bq,0,-4.9317675763,-2.209862,-0.5636030451\Bq,0
 ,-4.9235039469,-2.3359406201,-0.5636030451\Bq,0,-4.8988544519,-2.45986
 2,-0.5636030451\Bq,0,-4.8582408508,-2.5795058106,-0.5636030451\Bq,0,-4
 .8023580537,-2.6928249131,-0.5636030451\Bq,0,-4.7321622308,-2.79788038
 63,-0.5636030451\Bq,0,-4.6191232324,-1.5565805176,-0.6874674324\Bq,0,-
 4.6988046631,-1.6474397756,-0.6874674324\Bq,0,-4.7659448952,-1.7479222
 337,-0.6874674324\Bq,0,-4.8193951406,-1.8563086094,-0.6874674324\Bq,0,
 -4.8582408508,-1.9707443816,-0.6874674324\Bq,0,-4.881817365,-2.0892715
 226,-0.6874674324\Bq,0,-4.8897212825,-2.209862,-0.6874674324\Bq,0,-4.8
 81817365,-2.3304524774,-0.6874674324\Bq,0,-4.8582408508,-2.4489796184,
 -0.6874674324\Bq,0,-4.8193951406,-2.5634153906,-0.6874674324\Bq,0,-4.7
 659448952,-2.6718017663,-0.6874674324\Bq,0,-4.6988046631,-2.7722842244
 ,-0.6874674324\Bq,0,-4.4930446124,-1.5227978531,-0.804784\Bq,0,-4.5782
 141857,-1.5974895643,-0.804784\Bq,0,-4.6529058969,-1.6826591376,-0.804
 784\\Version=ES64L-G09RevD.01\HF=-847.0037387\RMSD=4.106e-09\Dipole=0.
 0000004,0.0287843,0.0000009\Quadrupole=4.8545288,4.8066247,-9.6611535,
 -0.0000047,-3.6219991,-0.000002\PG=C01 [X(C22H14)]\\@


 I take a simple view of life: keep your eyes open and get on with it.
 -- Laurence Olivier
 Job cpu time:       0 days  1 hours 49 minutes 43.7 seconds.
 File lengths (MBytes):  RWF=    184 Int=      0 D2E=      0 Chk=     21 Scr=      1
 Normal termination of Gaussian 09 at Tue Sep 15 14:15:56 2020.
