 Entering Gaussian System, Link 0=g09
 Input=input_batch_15400.com
 Output=input_batch_15400.log
 Initial command:
 /share/programs/GAUSSIAN/64/g09/l1.exe "/scratch/aartigas.39043/Gau-3281481.inp" -scrdir="/scratch/aartigas.39043/"
 Entering Link 1 = /share/programs/GAUSSIAN/64/g09/l1.exe PID=   3281482.
  
 Copyright (c) 1988,1990,1992,1993,1995,1998,2003,2009,2013,
            Gaussian, Inc.  All Rights Reserved.
  
 This is part of the Gaussian(R) 09 program.  It is based on
 the Gaussian(R) 03 system (copyright 2003, Gaussian, Inc.),
 the Gaussian(R) 98 system (copyright 1998, Gaussian, Inc.),
 the Gaussian(R) 94 system (copyright 1995, Gaussian, Inc.),
 the Gaussian 92(TM) system (copyright 1992, Gaussian, Inc.),
 the Gaussian 90(TM) system (copyright 1990, Gaussian, Inc.),
 the Gaussian 88(TM) system (copyright 1988, Gaussian, Inc.),
 the Gaussian 86(TM) system (copyright 1986, Carnegie Mellon
 University), and the Gaussian 82(TM) system (copyright 1983,
 Carnegie Mellon University). Gaussian is a federally registered
 trademark of Gaussian, Inc.
  
 This software contains proprietary and confidential information,
 including trade secrets, belonging to Gaussian, Inc.
  
 This software is provided under written license and may be
 used, copied, transmitted, or stored only in accord with that
 written license.
  
 The following legend is applicable only to US Government
 contracts under FAR:
  
                    RESTRICTED RIGHTS LEGEND
  
 Use, reproduction and disclosure by the US Government is
 subject to restrictions as set forth in subparagraphs (a)
 and (c) of the Commercial Computer Software - Restricted
 Rights clause in FAR 52.227-19.
  
 Gaussian, Inc.
 340 Quinnipiac St., Bldg. 40, Wallingford CT 06492
  
  
 ---------------------------------------------------------------
 Warning -- This program may not be used in any manner that
 competes with the business of Gaussian, Inc. or will provide
 assistance to any competitor of Gaussian, Inc.  The licensee
 of this program is prohibited from giving any competitor of
 Gaussian, Inc. access to this program.  By using this program,
 the user acknowledges that Gaussian, Inc. is engaged in the
 business of creating and licensing software in the field of
 computational chemistry and represents and warrants to the
 licensee that it is not a competitor of Gaussian, Inc. and that
 it will not use this program in any manner prohibited above.
 ---------------------------------------------------------------
  

 Cite this work as:
 Gaussian 09, Revision D.01,
 M. J. Frisch, G. W. Trucks, H. B. Schlegel, G. E. Scuseria, 
 M. A. Robb, J. R. Cheeseman, G. Scalmani, V. Barone, B. Mennucci, 
 G. A. Petersson, H. Nakatsuji, M. Caricato, X. Li, H. P. Hratchian, 
 A. F. Izmaylov, J. Bloino, G. Zheng, J. L. Sonnenberg, M. Hada, 
 M. Ehara, K. Toyota, R. Fukuda, J. Hasegawa, M. Ishida, T. Nakajima, 
 Y. Honda, O. Kitao, H. Nakai, T. Vreven, J. A. Montgomery, Jr., 
 J. E. Peralta, F. Ogliaro, M. Bearpark, J. J. Heyd, E. Brothers, 
 K. N. Kudin, V. N. Staroverov, T. Keith, R. Kobayashi, J. Normand, 
 K. Raghavachari, A. Rendell, J. C. Burant, S. S. Iyengar, J. Tomasi, 
 M. Cossi, N. Rega, J. M. Millam, M. Klene, J. E. Knox, J. B. Cross, 
 V. Bakken, C. Adamo, J. Jaramillo, R. Gomperts, R. E. Stratmann, 
 O. Yazyev, A. J. Austin, R. Cammi, C. Pomelli, J. W. Ochterski, 
 R. L. Martin, K. Morokuma, V. G. Zakrzewski, G. A. Voth, 
 P. Salvador, J. J. Dannenberg, S. Dapprich, A. D. Daniels, 
 O. Farkas, J. B. Foresman, J. V. Ortiz, J. Cioslowski, 
 and D. J. Fox, Gaussian, Inc., Wallingford CT, 2013.
 
 ******************************************
 Gaussian 09:  ES64L-G09RevD.01 24-Apr-2013
                15-Sep-2020 
 ******************************************
 %OldChk=/home/aartigas/chk/5_helicene_spe.chk
 %nproc=8
 Will use up to    8 processors via shared memory.
 %mem=1000MB
 Copying data from "/home/aartigas/chk/5_helicene_spe.chk" to current chk file "/scratch/aartigas.39043/Gau-3281482.chk".
 ----------------------------------------------------
 #P rb3lyp/6-311+g** NMR Guess=Read geom=connectivity
 ----------------------------------------------------
 1/38=1,57=2/1;
 2/12=2,17=6,18=5,40=1/2;
 3/5=4,6=6,7=111,11=2,16=1,25=1,30=1,74=-5,116=1/1,2,8,3;
 4/5=1/1;
 5/5=2,38=6/2;
 8/6=1,10=90,11=11/1;
 10/13=100,45=16/2;
 6/7=2,8=2,9=2,10=2,28=1/1;
 99/9=1/99;
 Leave Link    1 at Tue Sep 15 12:21:32 2020, MaxMem=   131072000 cpu:         0.5
 (Enter /share/programs/GAUSSIAN/64/g09/l101.exe)
 -----
 Title
 -----
 Symbolic Z-matrix:
 Charge =  0 Multiplicity = 1
 C                     0.65324   3.25786  -0.20251 
 C                    -0.65324   3.25786   0.20251 
 C                     1.3725    2.03296  -0.32081 
 C                    -1.3725    2.03296   0.32081 
 C                     0.72247   0.79567  -0.05039 
 C                    -0.72247   0.79567   0.05039 
 C                     2.76039   2.05393  -0.67427 
 C                     3.50887   0.91392  -0.67136 
 C                     2.95523  -0.30962  -0.17748 
 C                     1.57472  -0.36111   0.19709 
 H                     1.18343   4.19574  -0.3846 
 H                    -1.18343   4.19574   0.3846 
 H                     3.20628   3.01242  -0.95139 
 H                     4.56002   0.93296  -0.96933 
 C                     3.78302  -1.4431    0.02831 
 C                     1.13743  -1.50753   0.91211 
 C                     1.97369  -2.58435   1.13806 
 C                     3.30185  -2.57159   0.66118 
 H                     4.82575  -1.39123  -0.29548 
 H                     0.12465  -1.53279   1.30847 
 H                     1.60359  -3.44568   1.69898 
 H                     3.95274  -3.43353   0.82513 
 C                    -3.50887   0.91392   0.67136 
 C                    -2.76039   2.05393   0.67427 
 C                    -2.95523  -0.30962   0.17748 
 C                    -1.57472  -0.36111  -0.19709 
 C                    -3.78302  -1.4431   -0.02831 
 C                    -3.30185  -2.57159  -0.66118 
 C                    -1.97369  -2.58435  -1.13806 
 C                    -1.13743  -1.50753  -0.91211 
 H                    -4.56002   0.93295   0.96933 
 H                    -3.20628   3.01242   0.95139 
 H                    -4.82575  -1.39123   0.29548 
 H                    -3.95274  -3.43353  -0.82513 
 H                    -1.60359  -3.44568  -1.69898 
 H                    -0.12465  -1.53279  -1.30847 
 Bq                   -1.4442   -0.36111  -1.18854 
 Bq                   -1.44531  -0.34408  -1.18854 
 Bq                   -1.44864  -0.32733  -1.18854 
 Bq                   -1.45413  -0.31116  -1.18854 
 Bq                   -1.46168  -0.29585  -1.18854 
 Bq                   -1.47117  -0.28165  -1.18854 
 Bq                   -1.48243  -0.26882  -1.18854 
 Bq                   -1.49526  -0.25756  -1.18854 
 Bq                   -1.50946  -0.24808  -1.18854 
 Bq                   -1.52477  -0.24052  -1.18854 
 Bq                   -1.54094  -0.23504  -1.18854 
 Bq                   -1.55768  -0.2317   -1.18854 
 Bq                   -1.57472  -0.23059  -1.18854 
 Bq                   -1.59176  -0.2317   -1.18854 
 Bq                   -1.6085   -0.23504  -1.18854 
 Bq                   -1.62467  -0.24052  -1.18854 
 Bq                   -1.63999  -0.24808  -1.18854 
 Bq                   -1.65418  -0.25756  -1.18854 
 Bq                   -1.66702  -0.26882  -1.18854 
 Bq                   -1.67828  -0.28165  -1.18854 
 Bq                   -1.68776  -0.29585  -1.18854 
 Bq                   -1.69531  -0.31116  -1.18854 
 Bq                   -1.7008   -0.32733  -1.18854 
 Bq                   -1.70413  -0.34408  -1.18854 
 Bq                   -1.70525  -0.36111  -1.18854 
 Bq                   -1.70413  -0.37815  -1.18854 
 Bq                   -1.7008   -0.3949   -1.18854 
 Bq                   -1.69531  -0.41106  -1.18854 
 Bq                   -1.68776  -0.42638  -1.18854 
 Bq                   -1.67828  -0.44057  -1.18854 
 Bq                   -1.66702  -0.45341  -1.18854 
 Bq                   -1.65418  -0.46467  -1.18854 
 Bq                   -1.63999  -0.47415  -1.18854 
 Bq                   -1.62467  -0.4817   -1.18854 
 Bq                   -1.6085   -0.48719  -1.18854 
 Bq                   -1.59176  -0.49052  -1.18854 
 Bq                   -1.57472  -0.49164  -1.18854 
 Bq                   -1.55768  -0.49052  -1.18854 
 Bq                   -1.54094  -0.48719  -1.18854 
 Bq                   -1.52477  -0.4817   -1.18854 
 Bq                   -1.50946  -0.47415  -1.18854 
 Bq                   -1.49526  -0.46467  -1.18854 
 Bq                   -1.48243  -0.45341  -1.18854 
 Bq                   -1.47117  -0.44057  -1.18854 
 Bq                   -1.46168  -0.42638  -1.18854 
 Bq                   -1.45413  -0.41106  -1.18854 
 Bq                   -1.44864  -0.3949   -1.18854 
 Bq                   -1.44531  -0.37815  -1.18854 
 Bq                   -3.78302  -1.4431    0.97169 
 Bq                   -3.78302  -1.4431    0.97169 
 Bq                   -3.78302  -1.4431    0.97169 
 Bq                   -3.78302  -1.4431    0.97169 
 Bq                   -3.78302  -1.4431    0.97169 
 Bq                   -3.78302  -1.4431    0.97169 
 Bq                   -3.78302  -1.4431    0.97169 
 Bq                   -3.78302  -1.4431    0.97169 
 Bq                   -3.78302  -1.4431    0.97169 
 Bq                   -3.78302  -1.4431    0.97169 
 Bq                   -3.78302  -1.4431    0.97169 
 Bq                   -3.78302  -1.4431    0.97169 
 Bq                   -3.78302  -1.4431    0.97169 
 Bq                   -3.78302  -1.4431    0.97169 
 Bq                   -3.78302  -1.4431    0.97169 
 Bq                   -3.78302  -1.4431    0.97169 
 Bq                   -3.78302  -1.4431    0.97169 
 Bq                   -3.78302  -1.4431    0.97169 
 Bq                   -3.78302  -1.4431    0.97169 
 Bq                   -3.78302  -1.4431    0.97169 
 Bq                   -3.78302  -1.4431    0.97169 
 Bq                   -3.78302  -1.4431    0.97169 
 Bq                   -3.78302  -1.4431    0.97169 
 Bq                   -3.78302  -1.4431    0.97169 
 Bq                   -3.78302  -1.4431    0.97169 
 Bq                   -3.78302  -1.4431    0.97169 
 Bq                   -3.78302  -1.4431    0.97169 
 Bq                   -3.78302  -1.4431    0.97169 
 Bq                   -3.78302  -1.4431    0.97169 
 Bq                   -3.78302  -1.4431    0.97169 
 Bq                   -3.78302  -1.4431    0.97169 
 Bq                   -3.78302  -1.4431    0.97169 
 Bq                   -3.78302  -1.4431    0.97169 
 Bq                   -3.78302  -1.4431    0.97169 
 Bq                   -3.78302  -1.4431    0.97169 
 Bq                   -3.78302  -1.4431    0.97169 
 Bq                   -3.78302  -1.4431    0.97169 
 Bq                   -3.78302  -1.4431    0.97169 
 Bq                   -3.78302  -1.4431    0.97169 
 Bq                   -3.78302  -1.4431    0.97169 
 Bq                   -3.78302  -1.4431    0.97169 
 Bq                   -3.78302  -1.4431    0.97169 
 Bq                   -3.78302  -1.4431    0.97169 
 Bq                   -3.78302  -1.4431    0.97169 
 Bq                   -3.78302  -1.4431    0.97169 
 Bq                   -3.78302  -1.4431    0.97169 
 Bq                   -3.78302  -1.4431    0.97169 
 Bq                   -3.78302  -1.4431    0.97169 
 Bq                   -3.65249  -1.4431    0.96314 
 Bq                   -3.65361  -1.42606   0.96314 
 Bq                   -3.65694  -1.40932   0.96314 
 Bq                   -3.66243  -1.39315   0.96314 
 Bq                   -3.66998  -1.37784   0.96314 
 Bq                   -3.67947  -1.36364   0.96314 
 Bq                   -3.69072  -1.3508    0.96314 
 Bq                   -3.70356  -1.33955   0.96314 
 Bq                   -3.71776  -1.33006   0.96314 
 Bq                   -3.73307  -1.32251   0.96314 
 Bq                   -3.74924  -1.31702   0.96314 
 Bq                   -3.76598  -1.31369   0.96314 
 Bq                   -3.78302  -1.31257   0.96314 
 Bq                   -3.80006  -1.31369   0.96314 
 Bq                   -3.8168   -1.31702   0.96314 
 Bq                   -3.83297  -1.32251   0.96314 
 Bq                   -3.84828  -1.33006   0.96314 
 Bq                   -3.86248  -1.33955   0.96314 
 Bq                   -3.87532  -1.3508    0.96314 
 Bq                   -3.88657  -1.36364   0.96314 
 Bq                   -3.89606  -1.37784   0.96314 
 Bq                   -3.90361  -1.39315   0.96314 
 Bq                   -3.9091   -1.40932   0.96314 
 Bq                   -3.91243  -1.42606   0.96314 
 Bq                   -3.91355  -1.4431    0.96314 
 Bq                   -3.91243  -1.46014   0.96314 
 Bq                   -3.9091   -1.47688   0.96314 
 Bq                   -3.90361  -1.49305   0.96314 
 Bq                   -3.89606  -1.50836   0.96314 
 Bq                   -3.88657  -1.52256   0.96314 
 Bq                   -3.87532  -1.53539   0.96314 
 Bq                   -3.86248  -1.54665   0.96314 
 Bq                   -3.84828  -1.55614   0.96314 
 Bq                   -3.83297  -1.56369   0.96314 
 Bq                   -3.8168   -1.56918   0.96314 
 Bq                   -3.80006  -1.57251   0.96314 
 Bq                   -3.78302  -1.57363   0.96314 
 Bq                   -3.76598  -1.57251   0.96314 
 Bq                   -3.74924  -1.56918   0.96314 
 Bq                   -3.73307  -1.56369   0.96314 
 Bq                   -3.71776  -1.55614   0.96314 
 Bq                   -3.70356  -1.54665   0.96314 
 Bq                   -3.69072  -1.53539   0.96314 
 Bq                   -3.67947  -1.52256   0.96314 
 Bq                   -3.66998  -1.50836   0.96314 
 Bq                   -3.66243  -1.49305   0.96314 
 Bq                   -3.65694  -1.47688   0.96314 
 Bq                   -3.65361  -1.46014   0.96314 
 Bq                   -3.5242   -1.4431    0.93762 
 Bq                   -3.52642  -1.40932   0.93762 
 Bq                   -3.53302  -1.37611   0.93762 
 Bq                   -3.5439   -1.34405   0.93762 
 Bq                   -3.55888  -1.31369   0.93762 
 Bq                   -3.57769  -1.28554   0.93762 
 Bq                   -3.60001  -1.26009   0.93762 
 Bq                   -3.62546  -1.23776   0.93762 
 Bq                   -3.65361  -1.21896   0.93762 
 Bq                   -3.68397  -1.20398   0.93762 
 Bq                   -3.71603  -1.1931    0.93762 
 Bq                   -3.74924  -1.18649   0.93762 
 Bq                   -3.78302  -1.18428   0.93762 
 Bq                   -3.8168   -1.18649   0.93762 
 Bq                   -3.85001  -1.1931    0.93762 
 Bq                   -3.88207  -1.20398   0.93762 
 Bq                   -3.91243  -1.21896   0.93762 
 Bq                   -3.94058  -1.23776   0.93762 
 Bq                   -3.96603  -1.26009   0.93762 
 Bq                   -3.98835  -1.28554   0.93762 
 Bq                   -4.00716  -1.31369   0.93762 
 Bq                   -4.02214  -1.34405   0.93762 
 Bq                   -4.03302  -1.37611   0.93762 
 Bq                   -4.03962  -1.40932   0.93762 
 Bq                   -4.04184  -1.4431    0.93762 
 Bq                   -4.03962  -1.47688   0.93762 
 Bq                   -4.03302  -1.51009   0.93762 
 Bq                   -4.02214  -1.54214   0.93762 
 Bq                   -4.00716  -1.57251   0.93762 
 Bq                   -3.98835  -1.60066   0.93762 
 Bq                   -3.96603  -1.62611   0.93762 
 Bq                   -3.94058  -1.64843   0.93762 
 Bq                   -3.91243  -1.66724   0.93762 
 Bq                   -3.88207  -1.68222   0.93762 
 Bq                   -3.85001  -1.6931    0.93762 
 Bq                   -3.8168   -1.6997    0.93762 
 Bq                   -3.78302  -1.70192   0.93762 
 Bq                   -3.74924  -1.6997    0.93762 
 Bq                   -3.71603  -1.6931    0.93762 
 Bq                   -3.68397  -1.68222   0.93762 
 Bq                   -3.65361  -1.66724   0.93762 
 Bq                   -3.62546  -1.64843   0.93762 
 Bq                   -3.60001  -1.62611   0.93762 
 Bq                   -3.57769  -1.60066   0.93762 
 Bq                   -3.55888  -1.57251   0.93762 
 Bq                   -3.5439   -1.54214   0.93762 
 Bq                   -3.53302  -1.51009   0.93762 
 Bq                   -3.52642  -1.47688   0.93762 
 Bq                   -3.40034  -1.4431    0.89557 
 Bq                   -3.40361  -1.39315   0.89557 
 Bq                   -3.41338  -1.34405   0.89557 
 Bq                   -3.42947  -1.29665   0.89557 
 Bq                   -3.45161  -1.25176   0.89557 
 Bq                   -3.47942  -1.21014   0.89557 
 Bq                   -3.51242  -1.1725    0.89557 
 Bq                   -3.55006  -1.1395    0.89557 
 
 NAtoms=    236 NQM=      236 NQMF=       0 NMMI=      0 NMMIF=      0
                NMic=       0 NMicF=      0.
                    Isotopes and Nuclear Properties:
 (Nuclear quadrupole moments (NQMom) in fm**2, nuclear magnetic moments (NMagM)
  in nuclear magnetons)

  Atom         1           2           3           4           5           6           7           8           9          10
 IAtWgt=          12          12          12          12          12          12          12          12          12          12
 AtmWgt=  12.0000000  12.0000000  12.0000000  12.0000000  12.0000000  12.0000000  12.0000000  12.0000000  12.0000000  12.0000000
 NucSpn=           0           0           0           0           0           0           0           0           0           0
 AtZEff=   0.0000000   0.0000000   0.0000000   0.0000000   0.0000000   0.0000000   0.0000000   0.0000000   0.0000000   0.0000000
 NQMom=    0.0000000   0.0000000   0.0000000   0.0000000   0.0000000   0.0000000   0.0000000   0.0000000   0.0000000   0.0000000
 NMagM=    0.0000000   0.0000000   0.0000000   0.0000000   0.0000000   0.0000000   0.0000000   0.0000000   0.0000000   0.0000000
 AtZNuc=   6.0000000   6.0000000   6.0000000   6.0000000   6.0000000   6.0000000   6.0000000   6.0000000   6.0000000   6.0000000

  Atom        11          12          13          14          15          16          17          18          19          20
 IAtWgt=           1           1           1           1          12          12          12          12           1           1
 AtmWgt=   1.0078250   1.0078250   1.0078250   1.0078250  12.0000000  12.0000000  12.0000000  12.0000000   1.0078250   1.0078250
 NucSpn=           1           1           1           1           0           0           0           0           1           1
 AtZEff=   0.0000000   0.0000000   0.0000000   0.0000000   0.0000000   0.0000000   0.0000000   0.0000000   0.0000000   0.0000000
 NQMom=    0.0000000   0.0000000   0.0000000   0.0000000   0.0000000   0.0000000   0.0000000   0.0000000   0.0000000   0.0000000
 NMagM=    2.7928460   2.7928460   2.7928460   2.7928460   0.0000000   0.0000000   0.0000000   0.0000000   2.7928460   2.7928460
 AtZNuc=   1.0000000   1.0000000   1.0000000   1.0000000   6.0000000   6.0000000   6.0000000   6.0000000   1.0000000   1.0000000

  Atom        21          22          23          24          25          26          27          28          29          30
 IAtWgt=           1           1          12          12          12          12          12          12          12          12
 AtmWgt=   1.0078250   1.0078250  12.0000000  12.0000000  12.0000000  12.0000000  12.0000000  12.0000000  12.0000000  12.0000000
 NucSpn=           1           1           0           0           0           0           0           0           0           0
 AtZEff=   0.0000000   0.0000000   0.0000000   0.0000000   0.0000000   0.0000000   0.0000000   0.0000000   0.0000000   0.0000000
 NQMom=    0.0000000   0.0000000   0.0000000   0.0000000   0.0000000   0.0000000   0.0000000   0.0000000   0.0000000   0.0000000
 NMagM=    2.7928460   2.7928460   0.0000000   0.0000000   0.0000000   0.0000000   0.0000000   0.0000000   0.0000000   0.0000000
 AtZNuc=   1.0000000   1.0000000   6.0000000   6.0000000   6.0000000   6.0000000   6.0000000   6.0000000   6.0000000   6.0000000

  Atom        31          32          33          34          35          36          37          38          39          40
 IAtWgt=           1           1           1           1           1           1           0           0           0           0
 AtmWgt=   1.0078250   1.0078250   1.0078250   1.0078250   1.0078250   1.0078250   0.0000000   0.0000000   0.0000000   0.0000000
 NucSpn=           1           1           1           1           1           1           0           0           0           0
 AtZEff=   0.0000000   0.0000000   0.0000000   0.0000000   0.0000000   0.0000000   0.0000000   0.0000000   0.0000000   0.0000000
 NQMom=    0.0000000   0.0000000   0.0000000   0.0000000   0.0000000   0.0000000   0.0000000   0.0000000   0.0000000   0.0000000
 NMagM=    2.7928460   2.7928460   2.7928460   2.7928460   2.7928460   2.7928460   0.0000000   0.0000000   0.0000000   0.0000000
 AtZNuc=   1.0000000   1.0000000   1.0000000   1.0000000   1.0000000   1.0000000   0.0000000   0.0000000   0.0000000   0.0000000

  Atom        41          42          43          44          45          46          47          48          49          50
 IAtWgt=           0           0           0           0           0           0           0           0           0           0
 AtmWgt=   0.0000000   0.0000000   0.0000000   0.0000000   0.0000000   0.0000000   0.0000000   0.0000000   0.0000000   0.0000000
 NucSpn=           0           0           0           0           0           0           0           0           0           0
 AtZEff=   0.0000000   0.0000000   0.0000000   0.0000000   0.0000000   0.0000000   0.0000000   0.0000000   0.0000000   0.0000000
 NQMom=    0.0000000   0.0000000   0.0000000   0.0000000   0.0000000   0.0000000   0.0000000   0.0000000   0.0000000   0.0000000
 NMagM=    0.0000000   0.0000000   0.0000000   0.0000000   0.0000000   0.0000000   0.0000000   0.0000000   0.0000000   0.0000000
 AtZNuc=   0.0000000   0.0000000   0.0000000   0.0000000   0.0000000   0.0000000   0.0000000   0.0000000   0.0000000   0.0000000

  Atom        51          52          53          54          55          56          57          58          59          60
 IAtWgt=           0           0           0           0           0           0           0           0           0           0
 AtmWgt=   0.0000000   0.0000000   0.0000000   0.0000000   0.0000000   0.0000000   0.0000000   0.0000000   0.0000000   0.0000000
 NucSpn=           0           0           0           0           0           0           0           0           0           0
 AtZEff=   0.0000000   0.0000000   0.0000000   0.0000000   0.0000000   0.0000000   0.0000000   0.0000000   0.0000000   0.0000000
 NQMom=    0.0000000   0.0000000   0.0000000   0.0000000   0.0000000   0.0000000   0.0000000   0.0000000   0.0000000   0.0000000
 NMagM=    0.0000000   0.0000000   0.0000000   0.0000000   0.0000000   0.0000000   0.0000000   0.0000000   0.0000000   0.0000000
 AtZNuc=   0.0000000   0.0000000   0.0000000   0.0000000   0.0000000   0.0000000   0.0000000   0.0000000   0.0000000   0.0000000

  Atom        61          62          63          64          65          66          67          68          69          70
 IAtWgt=           0           0           0           0           0           0           0           0           0           0
 AtmWgt=   0.0000000   0.0000000   0.0000000   0.0000000   0.0000000   0.0000000   0.0000000   0.0000000   0.0000000   0.0000000
 NucSpn=           0           0           0           0           0           0           0           0           0           0
 AtZEff=   0.0000000   0.0000000   0.0000000   0.0000000   0.0000000   0.0000000   0.0000000   0.0000000   0.0000000   0.0000000
 NQMom=    0.0000000   0.0000000   0.0000000   0.0000000   0.0000000   0.0000000   0.0000000   0.0000000   0.0000000   0.0000000
 NMagM=    0.0000000   0.0000000   0.0000000   0.0000000   0.0000000   0.0000000   0.0000000   0.0000000   0.0000000   0.0000000
 AtZNuc=   0.0000000   0.0000000   0.0000000   0.0000000   0.0000000   0.0000000   0.0000000   0.0000000   0.0000000   0.0000000

  Atom        71          72          73          74          75          76          77          78          79          80
 IAtWgt=           0           0           0           0           0           0           0           0           0           0
 AtmWgt=   0.0000000   0.0000000   0.0000000   0.0000000   0.0000000   0.0000000   0.0000000   0.0000000   0.0000000   0.0000000
 NucSpn=           0           0           0           0           0           0           0           0           0           0
 AtZEff=   0.0000000   0.0000000   0.0000000   0.0000000   0.0000000   0.0000000   0.0000000   0.0000000   0.0000000   0.0000000
 NQMom=    0.0000000   0.0000000   0.0000000   0.0000000   0.0000000   0.0000000   0.0000000   0.0000000   0.0000000   0.0000000
 NMagM=    0.0000000   0.0000000   0.0000000   0.0000000   0.0000000   0.0000000   0.0000000   0.0000000   0.0000000   0.0000000
 AtZNuc=   0.0000000   0.0000000   0.0000000   0.0000000   0.0000000   0.0000000   0.0000000   0.0000000   0.0000000   0.0000000

  Atom        81          82          83          84          85          86          87          88          89          90
 IAtWgt=           0           0           0           0           0           0           0           0           0           0
 AtmWgt=   0.0000000   0.0000000   0.0000000   0.0000000   0.0000000   0.0000000   0.0000000   0.0000000   0.0000000   0.0000000
 NucSpn=           0           0           0           0           0           0           0           0           0           0
 AtZEff=   0.0000000   0.0000000   0.0000000   0.0000000   0.0000000   0.0000000   0.0000000   0.0000000   0.0000000   0.0000000
 NQMom=    0.0000000   0.0000000   0.0000000   0.0000000   0.0000000   0.0000000   0.0000000   0.0000000   0.0000000   0.0000000
 NMagM=    0.0000000   0.0000000   0.0000000   0.0000000   0.0000000   0.0000000   0.0000000   0.0000000   0.0000000   0.0000000
 AtZNuc=   0.0000000   0.0000000   0.0000000   0.0000000   0.0000000   0.0000000   0.0000000   0.0000000   0.0000000   0.0000000

  Atom        91          92          93          94          95          96          97          98          99         100
 IAtWgt=           0           0           0           0           0           0           0           0           0           0
 AtmWgt=   0.0000000   0.0000000   0.0000000   0.0000000   0.0000000   0.0000000   0.0000000   0.0000000   0.0000000   0.0000000
 NucSpn=           0           0           0           0           0           0           0           0           0           0
 AtZEff=   0.0000000   0.0000000   0.0000000   0.0000000   0.0000000   0.0000000   0.0000000   0.0000000   0.0000000   0.0000000
 NQMom=    0.0000000   0.0000000   0.0000000   0.0000000   0.0000000   0.0000000   0.0000000   0.0000000   0.0000000   0.0000000
 NMagM=    0.0000000   0.0000000   0.0000000   0.0000000   0.0000000   0.0000000   0.0000000   0.0000000   0.0000000   0.0000000
 AtZNuc=   0.0000000   0.0000000   0.0000000   0.0000000   0.0000000   0.0000000   0.0000000   0.0000000   0.0000000   0.0000000

  Atom       101         102         103         104         105         106         107         108         109         110
 IAtWgt=           0           0           0           0           0           0           0           0           0           0
 AtmWgt=   0.0000000   0.0000000   0.0000000   0.0000000   0.0000000   0.0000000   0.0000000   0.0000000   0.0000000   0.0000000
 NucSpn=           0           0           0           0           0           0           0           0           0           0
 AtZEff=   0.0000000   0.0000000   0.0000000   0.0000000   0.0000000   0.0000000   0.0000000   0.0000000   0.0000000   0.0000000
 NQMom=    0.0000000   0.0000000   0.0000000   0.0000000   0.0000000   0.0000000   0.0000000   0.0000000   0.0000000   0.0000000
 NMagM=    0.0000000   0.0000000   0.0000000   0.0000000   0.0000000   0.0000000   0.0000000   0.0000000   0.0000000   0.0000000
 AtZNuc=   0.0000000   0.0000000   0.0000000   0.0000000   0.0000000   0.0000000   0.0000000   0.0000000   0.0000000   0.0000000

  Atom       111         112         113         114         115         116         117         118         119         120
 IAtWgt=           0           0           0           0           0           0           0           0           0           0
 AtmWgt=   0.0000000   0.0000000   0.0000000   0.0000000   0.0000000   0.0000000   0.0000000   0.0000000   0.0000000   0.0000000
 NucSpn=           0           0           0           0           0           0           0           0           0           0
 AtZEff=   0.0000000   0.0000000   0.0000000   0.0000000   0.0000000   0.0000000   0.0000000   0.0000000   0.0000000   0.0000000
 NQMom=    0.0000000   0.0000000   0.0000000   0.0000000   0.0000000   0.0000000   0.0000000   0.0000000   0.0000000   0.0000000
 NMagM=    0.0000000   0.0000000   0.0000000   0.0000000   0.0000000   0.0000000   0.0000000   0.0000000   0.0000000   0.0000000
 AtZNuc=   0.0000000   0.0000000   0.0000000   0.0000000   0.0000000   0.0000000   0.0000000   0.0000000   0.0000000   0.0000000

  Atom       121         122         123         124         125         126         127         128         129         130
 IAtWgt=           0           0           0           0           0           0           0           0           0           0
 AtmWgt=   0.0000000   0.0000000   0.0000000   0.0000000   0.0000000   0.0000000   0.0000000   0.0000000   0.0000000   0.0000000
 NucSpn=           0           0           0           0           0           0           0           0           0           0
 AtZEff=   0.0000000   0.0000000   0.0000000   0.0000000   0.0000000   0.0000000   0.0000000   0.0000000   0.0000000   0.0000000
 NQMom=    0.0000000   0.0000000   0.0000000   0.0000000   0.0000000   0.0000000   0.0000000   0.0000000   0.0000000   0.0000000
 NMagM=    0.0000000   0.0000000   0.0000000   0.0000000   0.0000000   0.0000000   0.0000000   0.0000000   0.0000000   0.0000000
 AtZNuc=   0.0000000   0.0000000   0.0000000   0.0000000   0.0000000   0.0000000   0.0000000   0.0000000   0.0000000   0.0000000

  Atom       131         132         133         134         135         136         137         138         139         140
 IAtWgt=           0           0           0           0           0           0           0           0           0           0
 AtmWgt=   0.0000000   0.0000000   0.0000000   0.0000000   0.0000000   0.0000000   0.0000000   0.0000000   0.0000000   0.0000000
 NucSpn=           0           0           0           0           0           0           0           0           0           0
 AtZEff=   0.0000000   0.0000000   0.0000000   0.0000000   0.0000000   0.0000000   0.0000000   0.0000000   0.0000000   0.0000000
 NQMom=    0.0000000   0.0000000   0.0000000   0.0000000   0.0000000   0.0000000   0.0000000   0.0000000   0.0000000   0.0000000
 NMagM=    0.0000000   0.0000000   0.0000000   0.0000000   0.0000000   0.0000000   0.0000000   0.0000000   0.0000000   0.0000000
 AtZNuc=   0.0000000   0.0000000   0.0000000   0.0000000   0.0000000   0.0000000   0.0000000   0.0000000   0.0000000   0.0000000

  Atom       141         142         143         144         145         146         147         148         149         150
 IAtWgt=           0           0           0           0           0           0           0           0           0           0
 AtmWgt=   0.0000000   0.0000000   0.0000000   0.0000000   0.0000000   0.0000000   0.0000000   0.0000000   0.0000000   0.0000000
 NucSpn=           0           0           0           0           0           0           0           0           0           0
 AtZEff=   0.0000000   0.0000000   0.0000000   0.0000000   0.0000000   0.0000000   0.0000000   0.0000000   0.0000000   0.0000000
 NQMom=    0.0000000   0.0000000   0.0000000   0.0000000   0.0000000   0.0000000   0.0000000   0.0000000   0.0000000   0.0000000
 NMagM=    0.0000000   0.0000000   0.0000000   0.0000000   0.0000000   0.0000000   0.0000000   0.0000000   0.0000000   0.0000000
 AtZNuc=   0.0000000   0.0000000   0.0000000   0.0000000   0.0000000   0.0000000   0.0000000   0.0000000   0.0000000   0.0000000

  Atom       151         152         153         154         155         156         157         158         159         160
 IAtWgt=           0           0           0           0           0           0           0           0           0           0
 AtmWgt=   0.0000000   0.0000000   0.0000000   0.0000000   0.0000000   0.0000000   0.0000000   0.0000000   0.0000000   0.0000000
 NucSpn=           0           0           0           0           0           0           0           0           0           0
 AtZEff=   0.0000000   0.0000000   0.0000000   0.0000000   0.0000000   0.0000000   0.0000000   0.0000000   0.0000000   0.0000000
 NQMom=    0.0000000   0.0000000   0.0000000   0.0000000   0.0000000   0.0000000   0.0000000   0.0000000   0.0000000   0.0000000
 NMagM=    0.0000000   0.0000000   0.0000000   0.0000000   0.0000000   0.0000000   0.0000000   0.0000000   0.0000000   0.0000000
 AtZNuc=   0.0000000   0.0000000   0.0000000   0.0000000   0.0000000   0.0000000   0.0000000   0.0000000   0.0000000   0.0000000

  Atom       161         162         163         164         165         166         167         168         169         170
 IAtWgt=           0           0           0           0           0           0           0           0           0           0
 AtmWgt=   0.0000000   0.0000000   0.0000000   0.0000000   0.0000000   0.0000000   0.0000000   0.0000000   0.0000000   0.0000000
 NucSpn=           0           0           0           0           0           0           0           0           0           0
 AtZEff=   0.0000000   0.0000000   0.0000000   0.0000000   0.0000000   0.0000000   0.0000000   0.0000000   0.0000000   0.0000000
 NQMom=    0.0000000   0.0000000   0.0000000   0.0000000   0.0000000   0.0000000   0.0000000   0.0000000   0.0000000   0.0000000
 NMagM=    0.0000000   0.0000000   0.0000000   0.0000000   0.0000000   0.0000000   0.0000000   0.0000000   0.0000000   0.0000000
 AtZNuc=   0.0000000   0.0000000   0.0000000   0.0000000   0.0000000   0.0000000   0.0000000   0.0000000   0.0000000   0.0000000

  Atom       171         172         173         174         175         176         177         178         179         180
 IAtWgt=           0           0           0           0           0           0           0           0           0           0
 AtmWgt=   0.0000000   0.0000000   0.0000000   0.0000000   0.0000000   0.0000000   0.0000000   0.0000000   0.0000000   0.0000000
 NucSpn=           0           0           0           0           0           0           0           0           0           0
 AtZEff=   0.0000000   0.0000000   0.0000000   0.0000000   0.0000000   0.0000000   0.0000000   0.0000000   0.0000000   0.0000000
 NQMom=    0.0000000   0.0000000   0.0000000   0.0000000   0.0000000   0.0000000   0.0000000   0.0000000   0.0000000   0.0000000
 NMagM=    0.0000000   0.0000000   0.0000000   0.0000000   0.0000000   0.0000000   0.0000000   0.0000000   0.0000000   0.0000000
 AtZNuc=   0.0000000   0.0000000   0.0000000   0.0000000   0.0000000   0.0000000   0.0000000   0.0000000   0.0000000   0.0000000

  Atom       181         182         183         184         185         186         187         188         189         190
 IAtWgt=           0           0           0           0           0           0           0           0           0           0
 AtmWgt=   0.0000000   0.0000000   0.0000000   0.0000000   0.0000000   0.0000000   0.0000000   0.0000000   0.0000000   0.0000000
 NucSpn=           0           0           0           0           0           0           0           0           0           0
 AtZEff=   0.0000000   0.0000000   0.0000000   0.0000000   0.0000000   0.0000000   0.0000000   0.0000000   0.0000000   0.0000000
 NQMom=    0.0000000   0.0000000   0.0000000   0.0000000   0.0000000   0.0000000   0.0000000   0.0000000   0.0000000   0.0000000
 NMagM=    0.0000000   0.0000000   0.0000000   0.0000000   0.0000000   0.0000000   0.0000000   0.0000000   0.0000000   0.0000000
 AtZNuc=   0.0000000   0.0000000   0.0000000   0.0000000   0.0000000   0.0000000   0.0000000   0.0000000   0.0000000   0.0000000

  Atom       191         192         193         194         195         196         197         198         199         200
 IAtWgt=           0           0           0           0           0           0           0           0           0           0
 AtmWgt=   0.0000000   0.0000000   0.0000000   0.0000000   0.0000000   0.0000000   0.0000000   0.0000000   0.0000000   0.0000000
 NucSpn=           0           0           0           0           0           0           0           0           0           0
 AtZEff=   0.0000000   0.0000000   0.0000000   0.0000000   0.0000000   0.0000000   0.0000000   0.0000000   0.0000000   0.0000000
 NQMom=    0.0000000   0.0000000   0.0000000   0.0000000   0.0000000   0.0000000   0.0000000   0.0000000   0.0000000   0.0000000
 NMagM=    0.0000000   0.0000000   0.0000000   0.0000000   0.0000000   0.0000000   0.0000000   0.0000000   0.0000000   0.0000000
 AtZNuc=   0.0000000   0.0000000   0.0000000   0.0000000   0.0000000   0.0000000   0.0000000   0.0000000   0.0000000   0.0000000

  Atom       201         202         203         204         205         206         207         208         209         210
 IAtWgt=           0           0           0           0           0           0           0           0           0           0
 AtmWgt=   0.0000000   0.0000000   0.0000000   0.0000000   0.0000000   0.0000000   0.0000000   0.0000000   0.0000000   0.0000000
 NucSpn=           0           0           0           0           0           0           0           0           0           0
 AtZEff=   0.0000000   0.0000000   0.0000000   0.0000000   0.0000000   0.0000000   0.0000000   0.0000000   0.0000000   0.0000000
 NQMom=    0.0000000   0.0000000   0.0000000   0.0000000   0.0000000   0.0000000   0.0000000   0.0000000   0.0000000   0.0000000
 NMagM=    0.0000000   0.0000000   0.0000000   0.0000000   0.0000000   0.0000000   0.0000000   0.0000000   0.0000000   0.0000000
 AtZNuc=   0.0000000   0.0000000   0.0000000   0.0000000   0.0000000   0.0000000   0.0000000   0.0000000   0.0000000   0.0000000

  Atom       211         212         213         214         215         216         217         218         219         220
 IAtWgt=           0           0           0           0           0           0           0           0           0           0
 AtmWgt=   0.0000000   0.0000000   0.0000000   0.0000000   0.0000000   0.0000000   0.0000000   0.0000000   0.0000000   0.0000000
 NucSpn=           0           0           0           0           0           0           0           0           0           0
 AtZEff=   0.0000000   0.0000000   0.0000000   0.0000000   0.0000000   0.0000000   0.0000000   0.0000000   0.0000000   0.0000000
 NQMom=    0.0000000   0.0000000   0.0000000   0.0000000   0.0000000   0.0000000   0.0000000   0.0000000   0.0000000   0.0000000
 NMagM=    0.0000000   0.0000000   0.0000000   0.0000000   0.0000000   0.0000000   0.0000000   0.0000000   0.0000000   0.0000000
 AtZNuc=   0.0000000   0.0000000   0.0000000   0.0000000   0.0000000   0.0000000   0.0000000   0.0000000   0.0000000   0.0000000

  Atom       221         222         223         224         225         226         227         228         229         230
 IAtWgt=           0           0           0           0           0           0           0           0           0           0
 AtmWgt=   0.0000000   0.0000000   0.0000000   0.0000000   0.0000000   0.0000000   0.0000000   0.0000000   0.0000000   0.0000000
 NucSpn=           0           0           0           0           0           0           0           0           0           0
 AtZEff=   0.0000000   0.0000000   0.0000000   0.0000000   0.0000000   0.0000000   0.0000000   0.0000000   0.0000000   0.0000000
 NQMom=    0.0000000   0.0000000   0.0000000   0.0000000   0.0000000   0.0000000   0.0000000   0.0000000   0.0000000   0.0000000
 NMagM=    0.0000000   0.0000000   0.0000000   0.0000000   0.0000000   0.0000000   0.0000000   0.0000000   0.0000000   0.0000000
 AtZNuc=   0.0000000   0.0000000   0.0000000   0.0000000   0.0000000   0.0000000   0.0000000   0.0000000   0.0000000   0.0000000

  Atom       231         232         233         234         235         236
 IAtWgt=           0           0           0           0           0           0
 AtmWgt=   0.0000000   0.0000000   0.0000000   0.0000000   0.0000000   0.0000000
 NucSpn=           0           0           0           0           0           0
 AtZEff=   0.0000000   0.0000000   0.0000000   0.0000000   0.0000000   0.0000000
 NQMom=    0.0000000   0.0000000   0.0000000   0.0000000   0.0000000   0.0000000
 NMagM=    0.0000000   0.0000000   0.0000000   0.0000000   0.0000000   0.0000000
 AtZNuc=   0.0000000   0.0000000   0.0000000   0.0000000   0.0000000   0.0000000
 Leave Link  101 at Tue Sep 15 12:21:32 2020, MaxMem=   131072000 cpu:         4.5
 (Enter /share/programs/GAUSSIAN/64/g09/l202.exe)
 Symmetry turned off:
 Cannot cope with ghost atoms or with translation vectors.
 Stoichiometry    C22H14
 Framework group  C1[X(C22H14)]
 NUMDOF-- NAT=    36 NAtoms=   236
 Deg. of freedom     0
 Full point group                 C1      NOp   1
                          Input orientation:                          
 ---------------------------------------------------------------------
 Center     Atomic      Atomic             Coordinates (Angstroms)
 Number     Number       Type             X           Y           Z
 ---------------------------------------------------------------------
      1          6           0        0.653241    3.257859   -0.202510
      2          6           0       -0.653243    3.257860    0.202510
      3          6           0        1.372495    2.032956   -0.320807
      4          6           0       -1.372495    2.032956    0.320807
      5          6           0        0.722474    0.795666   -0.050388
      6          6           0       -0.722474    0.795667    0.050387
      7          6           0        2.760385    2.053927   -0.674268
      8          6           0        3.508866    0.913916   -0.671362
      9          6           0        2.955226   -0.309622   -0.177479
     10          6           0        1.574722   -0.361114    0.197094
     11          1           0        1.183427    4.195740   -0.384599
     12          1           0       -1.183429    4.195740    0.384599
     13          1           0        3.206283    3.012423   -0.951392
     14          1           0        4.560023    0.932956   -0.969333
     15          6           0        3.783020   -1.443098    0.028309
     16          6           0        1.137427   -1.507533    0.912109
     17          6           0        1.973691   -2.584349    1.138062
     18          6           0        3.301853   -2.571588    0.661177
     19          1           0        4.825754   -1.391230   -0.295484
     20          1           0        0.124652   -1.532788    1.308472
     21          1           0        1.603586   -3.445682    1.698977
     22          1           0        3.952742   -3.433526    0.825134
     23          6           0       -3.508866    0.913915    0.671362
     24          6           0       -2.760386    2.053926    0.674268
     25          6           0       -2.955226   -0.309623    0.177479
     26          6           0       -1.574722   -0.361114   -0.197094
     27          6           0       -3.783020   -1.443099   -0.028309
     28          6           0       -3.301852   -2.571589   -0.661177
     29          6           0       -1.973690   -2.584349   -1.138061
     30          6           0       -1.137426   -1.507534   -0.912109
     31          1           0       -4.560022    0.932954    0.969334
     32          1           0       -3.206283    3.012421    0.951392
     33          1           0       -4.825754   -1.391232    0.295484
     34          1           0       -3.952741   -3.433528   -0.825134
     35          1           0       -1.603585   -3.445682   -1.698976
     36          1           0       -0.124652   -1.532788   -1.308471
     37          0           0       -1.444196   -0.361114   -1.188539
     38          0           0       -1.445312   -0.344077   -1.188539
     39          0           0       -1.448643   -0.327331   -1.188539
     40          0           0       -1.454132   -0.311164   -1.188539
     41          0           0       -1.461683   -0.295851   -1.188539
     42          0           0       -1.471169   -0.281655   -1.188539
     43          0           0       -1.482426   -0.268818   -1.188539
     44          0           0       -1.495263   -0.257561   -1.188539
     45          0           0       -1.509459   -0.248075   -1.188539
     46          0           0       -1.524772   -0.240524   -1.188539
     47          0           0       -1.540939   -0.235035   -1.188539
     48          0           0       -1.557685   -0.231704   -1.188539
     49          0           0       -1.574722   -0.230588   -1.188539
     50          0           0       -1.591759   -0.231704   -1.188539
     51          0           0       -1.608505   -0.235035   -1.188539
     52          0           0       -1.624672   -0.240524   -1.188539
     53          0           0       -1.639985   -0.248075   -1.188539
     54          0           0       -1.654181   -0.257561   -1.188539
     55          0           0       -1.667018   -0.268818   -1.188539
     56          0           0       -1.678275   -0.281655   -1.188539
     57          0           0       -1.687761   -0.295851   -1.188539
     58          0           0       -1.695312   -0.311164   -1.188539
     59          0           0       -1.700801   -0.327331   -1.188539
     60          0           0       -1.704132   -0.344077   -1.188539
     61          0           0       -1.705248   -0.361114   -1.188539
     62          0           0       -1.704132   -0.378151   -1.188539
     63          0           0       -1.700801   -0.394897   -1.188539
     64          0           0       -1.695312   -0.411064   -1.188539
     65          0           0       -1.687761   -0.426377   -1.188539
     66          0           0       -1.678275   -0.440573   -1.188539
     67          0           0       -1.667018   -0.453410   -1.188539
     68          0           0       -1.654181   -0.464667   -1.188539
     69          0           0       -1.639985   -0.474153   -1.188539
     70          0           0       -1.624672   -0.481704   -1.188539
     71          0           0       -1.608505   -0.487193   -1.188539
     72          0           0       -1.591759   -0.490524   -1.188539
     73          0           0       -1.574722   -0.491640   -1.188539
     74          0           0       -1.557685   -0.490524   -1.188539
     75          0           0       -1.540939   -0.487193   -1.188539
     76          0           0       -1.524772   -0.481704   -1.188539
     77          0           0       -1.509459   -0.474153   -1.188539
     78          0           0       -1.495263   -0.464667   -1.188539
     79          0           0       -1.482426   -0.453410   -1.188539
     80          0           0       -1.471169   -0.440573   -1.188539
     81          0           0       -1.461683   -0.426377   -1.188539
     82          0           0       -1.454132   -0.411064   -1.188539
     83          0           0       -1.448643   -0.394897   -1.188539
     84          0           0       -1.445312   -0.378151   -1.188539
     85          0           0       -3.783020   -1.443099    0.971691
     86          0           0       -3.783020   -1.443099    0.971691
     87          0           0       -3.783020   -1.443099    0.971691
     88          0           0       -3.783020   -1.443099    0.971691
     89          0           0       -3.783020   -1.443099    0.971691
     90          0           0       -3.783020   -1.443099    0.971691
     91          0           0       -3.783020   -1.443099    0.971691
     92          0           0       -3.783020   -1.443099    0.971691
     93          0           0       -3.783020   -1.443099    0.971691
     94          0           0       -3.783020   -1.443099    0.971691
     95          0           0       -3.783020   -1.443099    0.971691
     96          0           0       -3.783020   -1.443099    0.971691
     97          0           0       -3.783020   -1.443099    0.971691
     98          0           0       -3.783020   -1.443099    0.971691
     99          0           0       -3.783020   -1.443099    0.971691
    100          0           0       -3.783020   -1.443099    0.971691
    101          0           0       -3.783020   -1.443099    0.971691
    102          0           0       -3.783020   -1.443099    0.971691
    103          0           0       -3.783020   -1.443099    0.971691
    104          0           0       -3.783020   -1.443099    0.971691
    105          0           0       -3.783020   -1.443099    0.971691
    106          0           0       -3.783020   -1.443099    0.971691
    107          0           0       -3.783020   -1.443099    0.971691
    108          0           0       -3.783020   -1.443099    0.971691
    109          0           0       -3.783020   -1.443099    0.971691
    110          0           0       -3.783020   -1.443099    0.971691
    111          0           0       -3.783020   -1.443099    0.971691
    112          0           0       -3.783020   -1.443099    0.971691
    113          0           0       -3.783020   -1.443099    0.971691
    114          0           0       -3.783020   -1.443099    0.971691
    115          0           0       -3.783020   -1.443099    0.971691
    116          0           0       -3.783020   -1.443099    0.971691
    117          0           0       -3.783020   -1.443099    0.971691
    118          0           0       -3.783020   -1.443099    0.971691
    119          0           0       -3.783020   -1.443099    0.971691
    120          0           0       -3.783020   -1.443099    0.971691
    121          0           0       -3.783020   -1.443099    0.971691
    122          0           0       -3.783020   -1.443099    0.971691
    123          0           0       -3.783020   -1.443099    0.971691
    124          0           0       -3.783020   -1.443099    0.971691
    125          0           0       -3.783020   -1.443099    0.971691
    126          0           0       -3.783020   -1.443099    0.971691
    127          0           0       -3.783020   -1.443099    0.971691
    128          0           0       -3.783020   -1.443099    0.971691
    129          0           0       -3.783020   -1.443099    0.971691
    130          0           0       -3.783020   -1.443099    0.971691
    131          0           0       -3.783020   -1.443099    0.971691
    132          0           0       -3.783020   -1.443099    0.971691
    133          0           0       -3.652494   -1.443099    0.963136
    134          0           0       -3.653610   -1.426062    0.963136
    135          0           0       -3.656941   -1.409316    0.963136
    136          0           0       -3.662430   -1.393149    0.963136
    137          0           0       -3.669981   -1.377836    0.963136
    138          0           0       -3.679467   -1.363640    0.963136
    139          0           0       -3.690724   -1.350803    0.963136
    140          0           0       -3.703561   -1.339546    0.963136
    141          0           0       -3.717757   -1.330060    0.963136
    142          0           0       -3.733070   -1.322509    0.963136
    143          0           0       -3.749237   -1.317020    0.963136
    144          0           0       -3.765983   -1.313689    0.963136
    145          0           0       -3.783020   -1.312573    0.963136
    146          0           0       -3.800057   -1.313689    0.963136
    147          0           0       -3.816803   -1.317020    0.963136
    148          0           0       -3.832970   -1.322509    0.963136
    149          0           0       -3.848283   -1.330060    0.963136
    150          0           0       -3.862479   -1.339546    0.963136
    151          0           0       -3.875316   -1.350803    0.963136
    152          0           0       -3.886573   -1.363640    0.963136
    153          0           0       -3.896059   -1.377836    0.963136
    154          0           0       -3.903610   -1.393149    0.963136
    155          0           0       -3.909099   -1.409316    0.963136
    156          0           0       -3.912430   -1.426062    0.963136
    157          0           0       -3.913546   -1.443099    0.963136
    158          0           0       -3.912430   -1.460136    0.963136
    159          0           0       -3.909099   -1.476882    0.963136
    160          0           0       -3.903610   -1.493049    0.963136
    161          0           0       -3.896059   -1.508362    0.963136
    162          0           0       -3.886573   -1.522558    0.963136
    163          0           0       -3.875316   -1.535395    0.963136
    164          0           0       -3.862479   -1.546652    0.963136
    165          0           0       -3.848283   -1.556138    0.963136
    166          0           0       -3.832970   -1.563689    0.963136
    167          0           0       -3.816803   -1.569178    0.963136
    168          0           0       -3.800057   -1.572509    0.963136
    169          0           0       -3.783020   -1.573625    0.963136
    170          0           0       -3.765983   -1.572509    0.963136
    171          0           0       -3.749237   -1.569178    0.963136
    172          0           0       -3.733070   -1.563689    0.963136
    173          0           0       -3.717757   -1.556138    0.963136
    174          0           0       -3.703561   -1.546652    0.963136
    175          0           0       -3.690724   -1.535395    0.963136
    176          0           0       -3.679467   -1.522558    0.963136
    177          0           0       -3.669981   -1.508362    0.963136
    178          0           0       -3.662430   -1.493049    0.963136
    179          0           0       -3.656941   -1.476882    0.963136
    180          0           0       -3.653610   -1.460136    0.963136
    181          0           0       -3.524201   -1.443099    0.937617
    182          0           0       -3.526415   -1.409316    0.937617
    183          0           0       -3.533020   -1.376112    0.937617
    184          0           0       -3.543902   -1.344053    0.937617
    185          0           0       -3.558876   -1.313689    0.937617
    186          0           0       -3.577685   -1.285540    0.937617
    187          0           0       -3.600007   -1.260086    0.937617
    188          0           0       -3.625461   -1.237764    0.937617
    189          0           0       -3.653610   -1.218955    0.937617
    190          0           0       -3.683974   -1.203981    0.937617
    191          0           0       -3.716033   -1.193099    0.937617
    192          0           0       -3.749237   -1.186494    0.937617
    193          0           0       -3.783020   -1.184280    0.937617
    194          0           0       -3.816803   -1.186494    0.937617
    195          0           0       -3.850007   -1.193099    0.937617
    196          0           0       -3.882066   -1.203981    0.937617
    197          0           0       -3.912430   -1.218955    0.937617
    198          0           0       -3.940579   -1.237764    0.937617
    199          0           0       -3.966033   -1.260086    0.937617
    200          0           0       -3.988355   -1.285540    0.937617
    201          0           0       -4.007164   -1.313689    0.937617
    202          0           0       -4.022138   -1.344053    0.937617
    203          0           0       -4.033020   -1.376112    0.937617
    204          0           0       -4.039625   -1.409316    0.937617
    205          0           0       -4.041839   -1.443099    0.937617
    206          0           0       -4.039625   -1.476882    0.937617
    207          0           0       -4.033020   -1.510086    0.937617
    208          0           0       -4.022138   -1.542145    0.937617
    209          0           0       -4.007164   -1.572509    0.937617
    210          0           0       -3.988355   -1.600658    0.937617
    211          0           0       -3.966033   -1.626112    0.937617
    212          0           0       -3.940579   -1.648434    0.937617
    213          0           0       -3.912430   -1.667243    0.937617
    214          0           0       -3.882066   -1.682217    0.937617
    215          0           0       -3.850007   -1.693099    0.937617
    216          0           0       -3.816803   -1.699704    0.937617
    217          0           0       -3.783020   -1.701918    0.937617
    218          0           0       -3.749237   -1.699704    0.937617
    219          0           0       -3.716033   -1.693099    0.937617
    220          0           0       -3.683974   -1.682217    0.937617
    221          0           0       -3.653610   -1.667243    0.937617
    222          0           0       -3.625461   -1.648434    0.937617
    223          0           0       -3.600007   -1.626112    0.937617
    224          0           0       -3.577685   -1.600658    0.937617
    225          0           0       -3.558876   -1.572509    0.937617
    226          0           0       -3.543902   -1.542145    0.937617
    227          0           0       -3.533020   -1.510086    0.937617
    228          0           0       -3.526415   -1.476882    0.937617
    229          0           0       -3.400337   -1.443099    0.895571
    230          0           0       -3.403610   -1.393149    0.895571
    231          0           0       -3.413376   -1.344053    0.895571
    232          0           0       -3.429467   -1.296652    0.895571
    233          0           0       -3.451606   -1.251757    0.895571
    234          0           0       -3.479417   -1.210136    0.895571
    235          0           0       -3.512422   -1.172501    0.895571
    236          0           0       -3.550057   -1.139496    0.895571
 ---------------------------------------------------------------------
 Rotational constants (GHZ):      0.4454681      0.2811480      0.1854303
 Leave Link  202 at Tue Sep 15 12:21:32 2020, MaxMem=   131072000 cpu:         0.0
 (Enter /share/programs/GAUSSIAN/64/g09/l301.exe)
 Standard basis: 6-311+G(d,p) (5D, 7F)
 Warning:  center  37 has no basis functions!
 Warning:  center  38 has no basis functions!
 Warning:  center  39 has no basis functions!
 Warning:  center  40 has no basis functions!
 Warning:  center  41 has no basis functions!
 Warning:  center  42 has no basis functions!
 Warning:  center  43 has no basis functions!
 Warning:  center  44 has no basis functions!
 Warning:  center  45 has no basis functions!
 Warning:  center  46 has no basis functions!
 Warning:  center  47 has no basis functions!
 Warning:  center  48 has no basis functions!
 Warning:  center  49 has no basis functions!
 Warning:  center  50 has no basis functions!
 Warning:  center  51 has no basis functions!
 Warning:  center  52 has no basis functions!
 Warning:  center  53 has no basis functions!
 Warning:  center  54 has no basis functions!
 Warning:  center  55 has no basis functions!
 Warning:  center  56 has no basis functions!
 Warning:  center  57 has no basis functions!
 Warning:  center  58 has no basis functions!
 Warning:  center  59 has no basis functions!
 Warning:  center  60 has no basis functions!
 Warning:  center  61 has no basis functions!
 Warning:  center  62 has no basis functions!
 Warning:  center  63 has no basis functions!
 Warning:  center  64 has no basis functions!
 Warning:  center  65 has no basis functions!
 Warning:  center  66 has no basis functions!
 Warning:  center  67 has no basis functions!
 Warning:  center  68 has no basis functions!
 Warning:  center  69 has no basis functions!
 Warning:  center  70 has no basis functions!
 Warning:  center  71 has no basis functions!
 Warning:  center  72 has no basis functions!
 Warning:  center  73 has no basis functions!
 Warning:  center  74 has no basis functions!
 Warning:  center  75 has no basis functions!
 Warning:  center  76 has no basis functions!
 Warning:  center  77 has no basis functions!
 Warning:  center  78 has no basis functions!
 Warning:  center  79 has no basis functions!
 Warning:  center  80 has no basis functions!
 Warning:  center  81 has no basis functions!
 Warning:  center  82 has no basis functions!
 Warning:  center  83 has no basis functions!
 Warning:  center  84 has no basis functions!
 Warning:  center  85 has no basis functions!
 Warning:  center  86 has no basis functions!
 Warning:  center  87 has no basis functions!
 Warning:  center  88 has no basis functions!
 Warning:  center  89 has no basis functions!
 Warning:  center  90 has no basis functions!
 Warning:  center  91 has no basis functions!
 Warning:  center  92 has no basis functions!
 Warning:  center  93 has no basis functions!
 Warning:  center  94 has no basis functions!
 Warning:  center  95 has no basis functions!
 Warning:  center  96 has no basis functions!
 Warning:  center  97 has no basis functions!
 Warning:  center  98 has no basis functions!
 Warning:  center  99 has no basis functions!
 Warning:  center 100 has no basis functions!
 Warning:  center 101 has no basis functions!
 Warning:  center 102 has no basis functions!
 Warning:  center 103 has no basis functions!
 Warning:  center 104 has no basis functions!
 Warning:  center 105 has no basis functions!
 Warning:  center 106 has no basis functions!
 Warning:  center 107 has no basis functions!
 Warning:  center 108 has no basis functions!
 Warning:  center 109 has no basis functions!
 Warning:  center 110 has no basis functions!
 Warning:  center 111 has no basis functions!
 Warning:  center 112 has no basis functions!
 Warning:  center 113 has no basis functions!
 Warning:  center 114 has no basis functions!
 Warning:  center 115 has no basis functions!
 Warning:  center 116 has no basis functions!
 Warning:  center 117 has no basis functions!
 Warning:  center 118 has no basis functions!
 Warning:  center 119 has no basis functions!
 Warning:  center 120 has no basis functions!
 Warning:  center 121 has no basis functions!
 Warning:  center 122 has no basis functions!
 Warning:  center 123 has no basis functions!
 Warning:  center 124 has no basis functions!
 Warning:  center 125 has no basis functions!
 Warning:  center 126 has no basis functions!
 Warning:  center 127 has no basis functions!
 Warning:  center 128 has no basis functions!
 Warning:  center 129 has no basis functions!
 Warning:  center 130 has no basis functions!
 Warning:  center 131 has no basis functions!
 Warning:  center 132 has no basis functions!
 Warning:  center 133 has no basis functions!
 Warning:  center 134 has no basis functions!
 Warning:  center 135 has no basis functions!
 Warning:  center 136 has no basis functions!
 Warning:  center 137 has no basis functions!
 Warning:  center 138 has no basis functions!
 Warning:  center 139 has no basis functions!
 Warning:  center 140 has no basis functions!
 Warning:  center 141 has no basis functions!
 Warning:  center 142 has no basis functions!
 Warning:  center 143 has no basis functions!
 Warning:  center 144 has no basis functions!
 Warning:  center 145 has no basis functions!
 Warning:  center 146 has no basis functions!
 Warning:  center 147 has no basis functions!
 Warning:  center 148 has no basis functions!
 Warning:  center 149 has no basis functions!
 Warning:  center 150 has no basis functions!
 Warning:  center 151 has no basis functions!
 Warning:  center 152 has no basis functions!
 Warning:  center 153 has no basis functions!
 Warning:  center 154 has no basis functions!
 Warning:  center 155 has no basis functions!
 Warning:  center 156 has no basis functions!
 Warning:  center 157 has no basis functions!
 Warning:  center 158 has no basis functions!
 Warning:  center 159 has no basis functions!
 Warning:  center 160 has no basis functions!
 Warning:  center 161 has no basis functions!
 Warning:  center 162 has no basis functions!
 Warning:  center 163 has no basis functions!
 Warning:  center 164 has no basis functions!
 Warning:  center 165 has no basis functions!
 Warning:  center 166 has no basis functions!
 Warning:  center 167 has no basis functions!
 Warning:  center 168 has no basis functions!
 Warning:  center 169 has no basis functions!
 Warning:  center 170 has no basis functions!
 Warning:  center 171 has no basis functions!
 Warning:  center 172 has no basis functions!
 Warning:  center 173 has no basis functions!
 Warning:  center 174 has no basis functions!
 Warning:  center 175 has no basis functions!
 Warning:  center 176 has no basis functions!
 Warning:  center 177 has no basis functions!
 Warning:  center 178 has no basis functions!
 Warning:  center 179 has no basis functions!
 Warning:  center 180 has no basis functions!
 Warning:  center 181 has no basis functions!
 Warning:  center 182 has no basis functions!
 Warning:  center 183 has no basis functions!
 Warning:  center 184 has no basis functions!
 Warning:  center 185 has no basis functions!
 Warning:  center 186 has no basis functions!
 Warning:  center 187 has no basis functions!
 Warning:  center 188 has no basis functions!
 Warning:  center 189 has no basis functions!
 Warning:  center 190 has no basis functions!
 Warning:  center 191 has no basis functions!
 Warning:  center 192 has no basis functions!
 Warning:  center 193 has no basis functions!
 Warning:  center 194 has no basis functions!
 Warning:  center 195 has no basis functions!
 Warning:  center 196 has no basis functions!
 Warning:  center 197 has no basis functions!
 Warning:  center 198 has no basis functions!
 Warning:  center 199 has no basis functions!
 Warning:  center 200 has no basis functions!
 Warning:  center 201 has no basis functions!
 Warning:  center 202 has no basis functions!
 Warning:  center 203 has no basis functions!
 Warning:  center 204 has no basis functions!
 Warning:  center 205 has no basis functions!
 Warning:  center 206 has no basis functions!
 Warning:  center 207 has no basis functions!
 Warning:  center 208 has no basis functions!
 Warning:  center 209 has no basis functions!
 Warning:  center 210 has no basis functions!
 Warning:  center 211 has no basis functions!
 Warning:  center 212 has no basis functions!
 Warning:  center 213 has no basis functions!
 Warning:  center 214 has no basis functions!
 Warning:  center 215 has no basis functions!
 Warning:  center 216 has no basis functions!
 Warning:  center 217 has no basis functions!
 Warning:  center 218 has no basis functions!
 Warning:  center 219 has no basis functions!
 Warning:  center 220 has no basis functions!
 Warning:  center 221 has no basis functions!
 Warning:  center 222 has no basis functions!
 Warning:  center 223 has no basis functions!
 Warning:  center 224 has no basis functions!
 Warning:  center 225 has no basis functions!
 Warning:  center 226 has no basis functions!
 Warning:  center 227 has no basis functions!
 Warning:  center 228 has no basis functions!
 Warning:  center 229 has no basis functions!
 Warning:  center 230 has no basis functions!
 Warning:  center 231 has no basis functions!
 Warning:  center 232 has no basis functions!
 Warning:  center 233 has no basis functions!
 Warning:  center 234 has no basis functions!
 Warning:  center 235 has no basis functions!
 Warning:  center 236 has no basis functions!
 Ernie: Thresh=  0.10000D-02 Tol=  0.10000D-05 Strict=F.
   568 basis functions,   904 primitive gaussians,   590 cartesian basis functions
    73 alpha electrons       73 beta electrons
       nuclear repulsion energy      1599.9156270972 Hartrees.
 IExCor=  402 DFT=T Ex+Corr=B3LYP ExCW=0 ScaHFX=  0.200000
 ScaDFX=  0.800000  0.720000  1.000000  0.810000 ScalE2=  1.000000  1.000000
 IRadAn=      0 IRanWt=     -1 IRanGd=            0 ICorTp=0 IEmpDi=  4
 NAtoms=  236 NActive=  236 NUniq=  236 SFac= 1.00D+00 NAtFMM=   60 NAOKFM=T Big=T
 Integral buffers will be    131072 words long.
 Raffenetti 2 integral format.
 Two-electron integral symmetry is turned off.
 Leave Link  301 at Tue Sep 15 12:21:32 2020, MaxMem=   131072000 cpu:         0.5
 (Enter /share/programs/GAUSSIAN/64/g09/l302.exe)
 NPDir=0 NMtPBC=     1 NCelOv=     1 NCel=       1 NClECP=     1 NCelD=      1
         NCelK=      1 NCelE2=     1 NClLst=     1 CellRange=     0.0.
 One-electron integrals computed using PRISM.
 NBasis=   568 RedAO= T EigKep=  1.01D-06  NBF=   568
 NBsUse=   557 1.00D-06 EigRej=  9.19D-07 NBFU=   557
 Precomputing XC quadrature grid using
 IXCGrd= 4 IRadAn=           0 IRanWt=          -1 IRanGd=           0 AccXCQ= 0.00D+00.
 Generated NRdTot=       0 NPtTot=           0 NUsed=           0 NTot=          32
 NSgBfM=   587   588   588   589   589 MxSgAt=   236 MxSgA2=    36.
 Leave Link  302 at Tue Sep 15 12:21:35 2020, MaxMem=   131072000 cpu:        22.8
 (Enter /share/programs/GAUSSIAN/64/g09/l308.exe)
 Leave Link  308 at Tue Sep 15 12:21:35 2020, MaxMem=   131072000 cpu:         1.2
 (Enter /share/programs/GAUSSIAN/64/g09/l303.exe)
 DipDrv:  MaxL=1.
 Leave Link  303 at Tue Sep 15 12:21:36 2020, MaxMem=   131072000 cpu:         0.9
 (Enter /share/programs/GAUSSIAN/64/g09/l401.exe)
 Initial guess from the checkpoint file:  "/scratch/aartigas.39043/Gau-3281482.chk"
 Skipping rotation of guess because NAtoms(RWF)=  236 differs from NAtoms(Chk)=   36.
 Guess basis will be translated and rotated to current coordinates.
 JPrj=2 DoOrth=T DoCkMO=T.
 Leave Link  401 at Tue Sep 15 12:21:40 2020, MaxMem=   131072000 cpu:        21.1
 (Enter /share/programs/GAUSSIAN/64/g09/l502.exe)
 Closed shell SCF:
 Using DIIS extrapolation, IDIIS=  1040.
 Two-electron integral symmetry not used.
 IVT=     1071582 IEndB=     1071582 NGot=   131072000 MDV=   130365749
 LenX=   130365749 LenY=   130017059
 Requested convergence on RMS density matrix=1.00D-08 within 128 cycles.
 Requested convergence on MAX density matrix=1.00D-06.
 Requested convergence on             energy=1.00D-06.
 No special actions if energy rises.
 Fock matrices will be formed incrementally for  20 cycles.

 Cycle   1  Pass 1  IDiag  1:
 FoFJK:  IHMeth= 1 ICntrl=       0 DoSepK=F KAlg= 0 I1Cent=   0 FoldK=F
 IRaf= 940000000 NMat=   1 IRICut=       1 DoRegI=T DoRafI=F ISym2E= 0.
 FoFCou: FMM=T IPFlag=           0 FMFlag=      100000 FMFlg1=        2001
         NFxFlg=           0 DoJE=F BraDBF=F KetDBF=F FulRan=T
         wScrn=  0.000000 ICntrl=       0 IOpCl=  0 I1Cent=           0 NGrid=           0
         NMat0=    1 NMatS0=      1 NMatT0=    0 NMatD0=    1 NMtDS0=    0 NMtDT0=    0
 Symmetry not used in FoFCou.
 FMM levels:  10  Number of levels for PrismC:   9
 E= -847.003738666969    
 DIIS: error= 5.05D-08 at cycle   1 NSaved=   1.
 NSaved= 1 IEnMin= 1 EnMin= -847.003738666969     IErMin= 1 ErrMin= 5.05D-08
 ErrMax= 5.05D-08  0.00D+00 EMaxC= 1.00D-01 BMatC= 3.55D-12 BMatP= 3.55D-12
 IDIUse=1 WtCom= 1.00D+00 WtEn= 0.00D+00
 Coeff-Com:  0.100D+01
 Coeff:      0.100D+01
 Gap=     0.151 Goal=   None    Shift=    0.000
 RMSDP=2.89D-07 MaxDP=1.34D-05              OVMax= 3.94D-07

 Cycle   2  Pass 1  IDiag  1:
 RMSU=  2.85D-07    CP:  1.00D+00
 E= -847.003738666889     Delta-E=        0.000000000080 Rises=F Damp=F
 DIIS: error= 1.42D-08 at cycle   2 NSaved=   2.
 NSaved= 2 IEnMin= 1 EnMin= -847.003738666969     IErMin= 2 ErrMin= 1.42D-08
 ErrMax= 1.42D-08  0.00D+00 EMaxC= 1.00D-01 BMatC= 2.13D-13 BMatP= 3.55D-12
 IDIUse=1 WtCom= 1.00D+00 WtEn= 0.00D+00
 Coeff-Com:  0.627D-01 0.937D+00
 Coeff:      0.627D-01 0.937D+00
 Gap=     0.151 Goal=   None    Shift=    0.000
 RMSDP=1.57D-08 MaxDP=7.87D-07 DE= 8.00D-11 OVMax= 3.02D-07

 Cycle   3  Pass 1  IDiag  1:
 RMSU=  1.32D-08    CP:  1.00D+00  1.02D+00
 E= -847.003738666865     Delta-E=        0.000000000025 Rises=F Damp=F
 DIIS: error= 2.51D-08 at cycle   3 NSaved=   3.
 NSaved= 3 IEnMin= 1 EnMin= -847.003738666969     IErMin= 2 ErrMin= 1.42D-08
 ErrMax= 2.51D-08  0.00D+00 EMaxC= 1.00D-01 BMatC= 5.05D-13 BMatP= 2.13D-13
 IDIUse=1 WtCom= 1.00D+00 WtEn= 0.00D+00
 Coeff-Com: -0.107D-01 0.616D+00 0.395D+00
 Coeff:     -0.107D-01 0.616D+00 0.395D+00
 Gap=     0.151 Goal=   None    Shift=    0.000
 RMSDP=1.03D-08 MaxDP=4.16D-07 DE= 2.46D-11 OVMax= 2.17D-07

 Cycle   4  Pass 1  IDiag  1:
 RMSU=  5.85D-09    CP:  1.00D+00  1.02D+00  3.91D-01
 E= -847.003738666849     Delta-E=        0.000000000015 Rises=F Damp=F
 DIIS: error= 8.06D-09 at cycle   4 NSaved=   4.
 NSaved= 4 IEnMin= 1 EnMin= -847.003738666969     IErMin= 4 ErrMin= 8.06D-09
 ErrMax= 8.06D-09  0.00D+00 EMaxC= 1.00D-01 BMatC= 2.06D-14 BMatP= 2.13D-13
 IDIUse=1 WtCom= 1.00D+00 WtEn= 0.00D+00
 Coeff-Com: -0.876D-02 0.309D+00 0.241D+00 0.459D+00
 Coeff:     -0.876D-02 0.309D+00 0.241D+00 0.459D+00
 Gap=     0.151 Goal=   None    Shift=    0.000
 RMSDP=4.01D-09 MaxDP=1.49D-07 DE= 1.55D-11 OVMax= 6.88D-08

 SCF Done:  E(RB3LYP) =  -847.003738667     A.U. after    4 cycles
            NFock=  4  Conv=0.40D-08     -V/T= 2.0049
 KE= 8.428349970566D+02 PE=-5.164192584015D+03 EE= 1.874438221195D+03
 Leave Link  502 at Tue Sep 15 12:23:28 2020, MaxMem=   131072000 cpu:       859.1
 (Enter /share/programs/GAUSSIAN/64/g09/l801.exe)
 DoSCS=F DFT=T ScalE2(SS,OS)=  1.000000  1.000000
 Range of M.O.s used for correlation:     1   557
 NBasis=   568 NAE=    73 NBE=    73 NFC=     0 NFV=     0
 NROrb=    557 NOA=    73 NOB=    73 NVA=   484 NVB=   484

 **** Warning!!: The largest alpha MO coefficient is  0.14271945D+03

 Leave Link  801 at Tue Sep 15 12:23:28 2020, MaxMem=   131072000 cpu:         0.2
 (Enter /share/programs/GAUSSIAN/64/g09/l1002.exe)
 Minotr:  Closed shell wavefunction.
          Direct CPHF calculation.
          Differentiating once with respect to magnetic field using GIAOs.
          Electric field/nuclear overlap derivatives assumed to be zero.
          Requested convergence is 1.0D-08 RMS, and 1.0D-07 maximum.
          Secondary convergence is 1.0D-12 RMS, and 1.0D-12 maximum.
          NewPWx=T KeepS1=F KeepF1=F KeepIn=T MapXYZ=F SortEE=F KeepMc=T.
          MDV=     131069551 using IRadAn=       2.
 Generate precomputed XC quadrature information.
          Solving linear equations simultaneously, MaxMat=      72.
 FoFCou: FMM=F IPFlag=           0 FMFlag=      100000 FMFlg1=        2001
         NFxFlg=           0 DoJE=F BraDBF=F KetDBF=T FulRan=T
         wScrn=  0.000000 ICntrl=    6100 IOpCl=  0 I1Cent=           7 NGrid=         236
         NMat0=    1 NMatS0=      1 NMatT0=    0 NMatD0=    1 NMtDS0=    0 NMtDT0=    0
 Symmetry not used in FoFCou.
 FoFJK:  IHMeth= 1 ICntrl=    6127 DoSepK=F KAlg= 0 I1Cent=   0 FoldK=F
 IRaf=         1 NMat=   1 IRICut=       1 DoRegI=T DoRafI=F ISym2E= 0.
          There are     3 degrees of freedom in the 1st order CPHF.  IDoFFX=0 NUNeed=     3.
      3 vectors produced by pass  0 Test12= 1.18D-12 3.33D-08 XBig12= 1.96D+03 8.77D+00.
 AX will form     3 AO Fock derivatives at one time.
      3 vectors produced by pass  1 Test12= 1.18D-12 3.33D-08 XBig12= 3.18D+00 7.58D-01.
      3 vectors produced by pass  2 Test12= 1.18D-12 3.33D-08 XBig12= 1.86D-02 5.85D-02.
      3 vectors produced by pass  3 Test12= 1.18D-12 3.33D-08 XBig12= 4.29D-05 1.35D-03.
      3 vectors produced by pass  4 Test12= 1.18D-12 3.33D-08 XBig12= 9.75D-08 7.22D-05.
      3 vectors produced by pass  5 Test12= 1.18D-12 3.33D-08 XBig12= 3.97D-10 5.92D-06.
      3 vectors produced by pass  6 Test12= 1.18D-12 3.33D-08 XBig12= 1.51D-12 4.40D-07.
 InvSVY:  IOpt=1 It=  1 EMax= 7.11D-15
 Solved reduced A of dimension    21 with     3 vectors.
 Calculating GIAO nuclear magnetic shielding tensors.
 SCF GIAO Magnetic shielding tensor (ppm):
      1  C    Isotropic =    49.6861   Anisotropy =   149.7970
   XX=    46.3088   YX=   -25.0950   ZX=    31.4786
   XY=   -31.1109   YY=   -39.0339   ZY=    13.2621
   XZ=    24.9178   YZ=     8.9888   ZZ=   141.7833
   Eigenvalues:   -49.3507    48.8581   149.5507
      2  C    Isotropic =    49.6861   Anisotropy =   149.7971
   XX=    46.3088   YX=    25.0953   ZX=    31.4786
   XY=    31.1111   YY=   -39.0339   ZY=   -13.2621
   XZ=    24.9177   YZ=    -8.9889   ZZ=   141.7834
   Eigenvalues:   -49.3508    48.8583   149.5509
      3  C    Isotropic =    44.4899   Anisotropy =   204.7372
   XX=   -22.2199   YX=    10.8075   ZX=    51.2710
   XY=     4.9259   YY=   -14.7126   ZY=    14.7921
   XZ=    32.3655   YZ=    21.2392   ZZ=   170.4022
   Eigenvalues:   -31.9593   -15.5523   180.9814
      4  C    Isotropic =    44.4899   Anisotropy =   204.7373
   XX=   -22.2198   YX=   -10.8075   ZX=    51.2710
   XY=    -4.9256   YY=   -14.7126   ZY=   -14.7922
   XZ=    32.3656   YZ=   -21.2393   ZZ=   170.4023
   Eigenvalues:   -31.9592   -15.5524   180.9815
      5  C    Isotropic =    48.5420   Anisotropy =   189.5490
   XX=   -14.6790   YX=     4.7342   ZX=     8.4333
   XY=    20.3759   YY=    -5.5375   ZY=    31.5121
   XZ=    65.1218   YZ=     0.8640   ZZ=   165.8426
   Eigenvalues:   -26.3226    -2.9593   174.9080
      6  C    Isotropic =    48.5421   Anisotropy =   189.5489
   XX=   -14.6789   YX=    -4.7340   ZX=     8.4335
   XY=   -20.3758   YY=    -5.5374   ZY=   -31.5121
   XZ=    65.1218   YZ=    -0.8638   ZZ=   165.8426
   Eigenvalues:   -26.3224    -2.9594   174.9080
      7  C    Isotropic =    50.1907   Anisotropy =   149.2089
   XX=    19.7303   YX=   -44.2755   ZX=    41.2886
   XY=   -38.0437   YY=    -2.7069   ZY=    36.9011
   XZ=    36.5866   YZ=    37.5458   ZZ=   133.5487
   Eigenvalues:   -49.6656    50.5744   149.6633
      8  C    Isotropic =    48.9362   Anisotropy =   152.4339
   XX=   -31.5093   YX=   -11.4921   ZX=    54.7730
   XY=   -19.0468   YY=    46.5898   ZY=    27.5522
   XZ=    42.2451   YZ=    29.8391   ZZ=   131.7282
   Eigenvalues:   -50.1461    46.3960   150.5589
      9  C    Isotropic =    44.4204   Anisotropy =   209.3981
   XX=   -10.1987   YX=    16.7536   ZX=    44.4888
   XY=     8.9342   YY=    -7.7270   ZY=    61.4651
   XZ=    43.3269   YZ=    64.9792   ZZ=   151.1869
   Eigenvalues:   -30.3689   -20.3891   184.0192
     10  C    Isotropic =    45.3894   Anisotropy =   198.3236
   XX=    -5.9706   YX=    23.3819   ZX=    35.6519
   XY=    38.1954   YY=     1.7271   ZY=    73.1370
   XZ=    54.0013   YZ=    45.7045   ZZ=   140.4116
   Eigenvalues:   -33.5315    -7.9055   177.6051
     11  H    Isotropic =    23.8179   Anisotropy =     7.5674
   XX=    27.2191   YX=    -1.9090   ZX=    -2.2602
   XY=    -1.7961   YY=    24.8722   ZY=    -0.1966
   XZ=    -3.3763   YZ=    -0.1950   ZZ=    19.3625
   Eigenvalues:    18.3647    24.2263    28.8628
     12  H    Isotropic =    23.8179   Anisotropy =     7.5674
   XX=    27.2191   YX=     1.9090   ZX=    -2.2602
   XY=     1.7961   YY=    24.8722   ZY=     0.1966
   XZ=    -3.3763   YZ=     0.1950   ZZ=    19.3625
   Eigenvalues:    18.3647    24.2263    28.8628
     13  H    Isotropic =    23.8548   Anisotropy =     7.5124
[...]
   113  Bq   0.000000
   114  Bq   0.000000
   115  Bq   0.000000
   116  Bq   0.000000
   117  Bq   0.000000
   118  Bq   0.000000
   119  Bq   0.000000
   120  Bq   0.000000
   121  Bq   0.000000
   122  Bq   0.000000
   123  Bq   0.000000
   124  Bq   0.000000
   125  Bq   0.000000
   126  Bq   0.000000
   127  Bq   0.000000
   128  Bq   0.000000
   129  Bq   0.000000
   130  Bq   0.000000
   131  Bq   0.000000
   132  Bq   0.000000
   133  Bq   0.000000
   134  Bq   0.000000
   135  Bq   0.000000
   136  Bq   0.000000
   137  Bq   0.000000
   138  Bq   0.000000
   139  Bq   0.000000
   140  Bq   0.000000
   141  Bq   0.000000
   142  Bq   0.000000
   143  Bq   0.000000
   144  Bq   0.000000
   145  Bq   0.000000
   146  Bq   0.000000
   147  Bq   0.000000
   148  Bq   0.000000
   149  Bq   0.000000
   150  Bq   0.000000
   151  Bq   0.000000
   152  Bq   0.000000
   153  Bq   0.000000
   154  Bq   0.000000
   155  Bq   0.000000
   156  Bq   0.000000
   157  Bq   0.000000
   158  Bq   0.000000
   159  Bq   0.000000
   160  Bq   0.000000
   161  Bq   0.000000
   162  Bq   0.000000
   163  Bq   0.000000
   164  Bq   0.000000
   165  Bq   0.000000
   166  Bq   0.000000
   167  Bq   0.000000
   168  Bq   0.000000
   169  Bq   0.000000
   170  Bq   0.000000
   171  Bq   0.000000
   172  Bq   0.000000
   173  Bq   0.000000
   174  Bq   0.000000
   175  Bq   0.000000
   176  Bq   0.000000
   177  Bq   0.000000
   178  Bq   0.000000
   179  Bq   0.000000
   180  Bq   0.000000
   181  Bq   0.000000
   182  Bq   0.000000
   183  Bq   0.000000
   184  Bq   0.000000
   185  Bq   0.000000
   186  Bq   0.000000
   187  Bq   0.000000
   188  Bq   0.000000
   189  Bq   0.000000
   190  Bq   0.000000
   191  Bq   0.000000
   192  Bq   0.000000
   193  Bq   0.000000
   194  Bq   0.000000
   195  Bq   0.000000
   196  Bq   0.000000
   197  Bq   0.000000
   198  Bq   0.000000
   199  Bq   0.000000
   200  Bq   0.000000
   201  Bq   0.000000
   202  Bq   0.000000
   203  Bq   0.000000
   204  Bq   0.000000
   205  Bq   0.000000
   206  Bq   0.000000
   207  Bq   0.000000
   208  Bq   0.000000
   209  Bq   0.000000
   210  Bq   0.000000
   211  Bq   0.000000
   212  Bq   0.000000
   213  Bq   0.000000
   214  Bq   0.000000
   215  Bq   0.000000
   216  Bq   0.000000
   217  Bq   0.000000
   218  Bq   0.000000
   219  Bq   0.000000
   220  Bq   0.000000
   221  Bq   0.000000
   222  Bq   0.000000
   223  Bq   0.000000
   224  Bq   0.000000
   225  Bq   0.000000
   226  Bq   0.000000
   227  Bq   0.000000
   228  Bq   0.000000
   229  Bq   0.000000
   230  Bq   0.000000
   231  Bq   0.000000
   232  Bq   0.000000
   233  Bq   0.000000
   234  Bq   0.000000
   235  Bq   0.000000
   236  Bq   0.000000
 Sum of Mulliken charges =   0.00000
 Mulliken charges with hydrogens summed into heavy atoms:
               1
     1  C   -0.262865
     2  C   -0.262866
     3  C    0.737923
     4  C    0.737922
     5  C   -0.039994
     6  C   -0.040001
     7  C    0.075155
     8  C   -0.330147
     9  C    0.780501
    10  C   -0.200782
    15  C    0.249272
    16  C   -0.533462
    17  C   -0.189405
    18  C   -0.286191
    23  C   -0.330145
    24  C    0.075154
    25  C    0.780496
    26  C   -0.200782
    27  C    0.130592
    28  C   -0.286192
    29  C   -0.189403
    30  C   -0.533462
    37  Bq   0.000000
    38  Bq   0.000000
    39  Bq   0.000000
    40  Bq   0.000000
    41  Bq   0.000000
    42  Bq   0.000000
    43  Bq   0.000000
    44  Bq   0.000000
    45  Bq   0.000000
    46  Bq   0.000000
    47  Bq   0.000000
    48  Bq   0.000000
    49  Bq   0.000000
    50  Bq   0.000000
    51  Bq   0.000000
    52  Bq   0.000000
    53  Bq   0.000000
    54  Bq   0.000000
    55  Bq   0.000000
    56  Bq   0.000000
    57  Bq   0.000000
    58  Bq   0.000000
    59  Bq   0.000000
    60  Bq   0.000000
    61  Bq   0.000000
    62  Bq   0.000000
    63  Bq   0.000000
    64  Bq   0.000000
    65  Bq   0.000000
    66  Bq   0.000000
    67  Bq   0.000000
    68  Bq   0.000000
    69  Bq   0.000000
    70  Bq   0.000000
    71  Bq   0.000000
    72  Bq   0.000000
    73  Bq   0.000000
    74  Bq   0.000000
    75  Bq   0.000000
    76  Bq   0.000000
    77  Bq   0.000000
    78  Bq   0.000000
    79  Bq   0.000000
    80  Bq   0.000000
    81  Bq   0.000000
    82  Bq   0.000000
    83  Bq   0.000000
    84  Bq   0.000000
    85  Bq   0.000000
    86  Bq   0.000000
    87  Bq   0.000000
    88  Bq   0.000000
    89  Bq   0.000000
    90  Bq   0.000000
    91  Bq   0.000000
    92  Bq   0.000000
    93  Bq   0.000000
    94  Bq   0.000000
    95  Bq   0.000000
    96  Bq   0.000000
    97  Bq   0.000000
    98  Bq   0.000000
    99  Bq   0.000000
   100  Bq   0.000000
   101  Bq   0.000000
   102  Bq   0.000000
   103  Bq   0.000000
   104  Bq   0.000000
   105  Bq   0.000000
   106  Bq   0.000000
   107  Bq   0.000000
   108  Bq   0.000000
   109  Bq   0.000000
   110  Bq   0.000000
   111  Bq   0.000000
   112  Bq   0.000000
   113  Bq   0.000000
   114  Bq   0.000000
   115  Bq   0.000000
   116  Bq   0.000000
   117  Bq   0.000000
   118  Bq   0.000000
   119  Bq   0.000000
   120  Bq   0.000000
   121  Bq   0.000000
   122  Bq   0.000000
   123  Bq   0.000000
   124  Bq   0.000000
   125  Bq   0.000000
   126  Bq   0.000000
   127  Bq   0.000000
   128  Bq   0.000000
   129  Bq   0.000000
   130  Bq   0.000000
   131  Bq   0.000000
   132  Bq   0.000000
   133  Bq   0.000000
   134  Bq   0.000000
   135  Bq   0.000000
   136  Bq   0.000000
   137  Bq   0.000000
   138  Bq   0.000000
   139  Bq   0.000000
   140  Bq   0.000000
   141  Bq   0.000000
   142  Bq   0.000000
   143  Bq   0.000000
   144  Bq   0.000000
   145  Bq   0.000000
   146  Bq   0.000000
   147  Bq   0.000000
   148  Bq   0.000000
   149  Bq   0.000000
   150  Bq   0.000000
   151  Bq   0.000000
   152  Bq   0.000000
   153  Bq   0.000000
   154  Bq   0.000000
   155  Bq   0.000000
   156  Bq   0.000000
   157  Bq   0.000000
   158  Bq   0.000000
   159  Bq   0.000000
   160  Bq   0.000000
   161  Bq   0.000000
   162  Bq   0.000000
   163  Bq   0.000000
   164  Bq   0.000000
   165  Bq   0.000000
   166  Bq   0.000000
   167  Bq   0.000000
   168  Bq   0.000000
   169  Bq   0.000000
   170  Bq   0.000000
   171  Bq   0.000000
   172  Bq   0.000000
   173  Bq   0.000000
   174  Bq   0.000000
   175  Bq   0.000000
   176  Bq   0.000000
   177  Bq   0.000000
   178  Bq   0.000000
   179  Bq   0.000000
   180  Bq   0.000000
   181  Bq   0.000000
   182  Bq   0.000000
   183  Bq   0.000000
   184  Bq   0.000000
   185  Bq   0.000000
   186  Bq   0.000000
   187  Bq   0.000000
   188  Bq   0.000000
   189  Bq   0.000000
   190  Bq   0.000000
   191  Bq   0.000000
   192  Bq   0.000000
   193  Bq   0.000000
   194  Bq   0.000000
   195  Bq   0.000000
   196  Bq   0.000000
   197  Bq   0.000000
   198  Bq   0.000000
   199  Bq   0.000000
   200  Bq   0.000000
   201  Bq   0.000000
   202  Bq   0.000000
   203  Bq   0.000000
   204  Bq   0.000000
   205  Bq   0.118681
   206  Bq   0.000000
   207  Bq   0.000000
   208  Bq   0.000000
   209  Bq   0.000000
   210  Bq   0.000000
   211  Bq   0.000000
   212  Bq   0.000000
   213  Bq   0.000000
   214  Bq   0.000000
   215  Bq   0.000000
   216  Bq   0.000000
   217  Bq   0.000000
   218  Bq   0.000000
   219  Bq   0.000000
   220  Bq   0.000000
   221  Bq   0.000000
   222  Bq   0.000000
   223  Bq   0.000000
   224  Bq   0.000000
   225  Bq   0.000000
   226  Bq   0.000000
   227  Bq   0.000000
   228  Bq   0.000000
   229  Bq   0.000000
   230  Bq   0.000000
   231  Bq   0.000000
   232  Bq   0.000000
   233  Bq   0.000000
   234  Bq   0.000000
   235  Bq   0.000000
   236  Bq   0.000000
 Electronic spatial extent (au):  <R**2>=           5804.3227
 Charge=              0.0000 electrons
 Dipole moment (field-independent basis, Debye):
    X=              0.0000    Y=              0.0732    Z=              0.0000  Tot=              0.0732
 Quadrupole moment (field-independent basis, Debye-Ang):
   XX=           -113.9137   YY=           -113.9781   ZZ=           -133.4378
   XY=              0.0000   XZ=             -4.8717   YZ=              0.0000
 Traceless Quadrupole moment (field-independent basis, Debye-Ang):
   XX=              6.5295   YY=              6.4651   ZZ=            -12.9946
   XY=              0.0000   XZ=             -4.8717   YZ=              0.0000
 Octapole moment (field-independent basis, Debye-Ang**2):
  XXX=              0.0000  YYY=             11.7108  ZZZ=              0.0000  XYY=              0.0000
  XXY=             -6.4067  XXZ=              0.0000  XZZ=              0.0000  YZZ=             -7.8695
  YYZ=              0.0000  XYZ=            -16.2862
 Hexadecapole moment (field-independent basis, Debye-Ang**3):
 XXXX=          -4416.4021 YYYY=          -2784.9756 ZZZZ=           -481.5690 XXXY=              0.0001
 XXXZ=           -124.3517 YYYX=             -0.0003 YYYZ=              0.0001 ZZZX=             -4.4782
 ZZZY=              0.0001 XXYY=          -1189.3576 XXZZ=           -942.9016 YYZZ=           -589.4012
 XXYZ=              0.0000 YYXZ=              7.8297 ZZXY=             -0.0001
 N-N= 1.599915627097D+03 E-N=-5.164192587538D+03  KE= 8.428349970566D+02
 Leave Link  601 at Tue Sep 15 12:31:03 2020, MaxMem=   131072000 cpu:         1.0
 (Enter /share/programs/GAUSSIAN/64/g09/l9999.exe)
 1\1\GINC-PLANA\SP\RB3LYP\6-311+G(d,p)\C22H14\AARTIGAS\15-Sep-2020\0\\#
 P rb3lyp/6-311+g** NMR Guess=Read geom=connectivity\\Title\\0,1\C,0,0.
 653241,3.257859,-0.20251\C,0,-0.653243,3.25786,0.20251\C,0,1.372495,2.
 032956,-0.320807\C,0,-1.372495,2.032956,0.320807\C,0,0.722474,0.795666
 ,-0.050388\C,0,-0.722474,0.795667,0.050387\C,0,2.760385,2.053927,-0.67
 4268\C,0,3.508866,0.913916,-0.671362\C,0,2.955226,-0.309622,-0.177479\
 C,0,1.574722,-0.361114,0.197094\H,0,1.183427,4.19574,-0.384599\H,0,-1.
 183429,4.19574,0.384599\H,0,3.206283,3.012423,-0.951392\H,0,4.560023,0
 .932956,-0.969333\C,0,3.78302,-1.443098,0.028309\C,0,1.137427,-1.50753
 3,0.912109\C,0,1.973691,-2.584349,1.138062\C,0,3.301853,-2.571588,0.66
 1177\H,0,4.825754,-1.39123,-0.295484\H,0,0.124652,-1.532788,1.308472\H
 ,0,1.603586,-3.445682,1.698977\H,0,3.952742,-3.433526,0.825134\C,0,-3.
 508866,0.913915,0.671362\C,0,-2.760386,2.053926,0.674268\C,0,-2.955226
 ,-0.309623,0.177479\C,0,-1.574722,-0.361114,-0.197094\C,0,-3.78302,-1.
 443099,-0.028309\C,0,-3.301852,-2.571589,-0.661177\C,0,-1.97369,-2.584
 349,-1.138061\C,0,-1.137426,-1.507534,-0.912109\H,0,-4.560022,0.932954
 ,0.969334\H,0,-3.206283,3.012421,0.951392\H,0,-4.825754,-1.391232,0.29
 5484\H,0,-3.952741,-3.433528,-0.825134\H,0,-1.603585,-3.445682,-1.6989
 76\H,0,-0.124652,-1.532788,-1.308471\Bq,0,-1.4441958078,-0.361114,-1.1
 885388614\Bq,0,-1.4453124774,-0.3440769131,-1.1885388614\Bq,0,-1.44864
 33799,-0.3273313356,-1.1885388614\Bq,0,-1.4541315226,-0.3111637887,-1.
 1885388614\Bq,0,-1.4616830017,-0.2958509039,-1.1885388614\Bq,0,-1.4711
 686094,-0.2816546887,-1.1885388614\Bq,0,-1.4824260444,-0.2688180444,-1
 .1885388614\Bq,0,-1.4952626887,-0.2575606094,-1.1885388614\Bq,0,-1.509
 4589039,-0.2480750017,-1.1885388614\Bq,0,-1.5247717887,-0.2405235226,-
 1.1885388614\Bq,0,-1.5409393356,-0.2350353799,-1.1885388614\Bq,0,-1.55
 76849131,-0.2317044774,-1.1885388614\Bq,0,-1.574722,-0.2305878078,-1.1
 885388614\Bq,0,-1.5917590869,-0.2317044774,-1.1885388614\Bq,0,-1.60850
 46644,-0.2350353799,-1.1885388614\Bq,0,-1.6246722113,-0.2405235226,-1.
 1885388614\Bq,0,-1.6399850961,-0.2480750017,-1.1885388614\Bq,0,-1.6541
 813113,-0.2575606094,-1.1885388614\Bq,0,-1.6670179556,-0.2688180444,-1
 .1885388614\Bq,0,-1.6782753906,-0.2816546887,-1.1885388614\Bq,0,-1.687
 7609983,-0.2958509039,-1.1885388614\Bq,0,-1.6953124774,-0.3111637887,-
 1.1885388614\Bq,0,-1.7008006201,-0.3273313356,-1.1885388614\Bq,0,-1.70
 41315226,-0.3440769131,-1.1885388614\Bq,0,-1.7052481922,-0.361114,-1.1
 885388614\Bq,0,-1.7041315226,-0.3781510869,-1.1885388614\Bq,0,-1.70080
 06201,-0.3948966644,-1.1885388614\Bq,0,-1.6953124774,-0.4110642113,-1.
 1885388614\Bq,0,-1.6877609983,-0.4263770961,-1.1885388614\Bq,0,-1.6782
 753906,-0.4405733113,-1.1885388614\Bq,0,-1.6670179556,-0.4534099556,-1
 .1885388614\Bq,0,-1.6541813113,-0.4646673906,-1.1885388614\Bq,0,-1.639
 9850961,-0.4741529983,-1.1885388614\Bq,0,-1.6246722113,-0.4817044774,-
 1.1885388614\Bq,0,-1.6085046644,-0.4871926201,-1.1885388614\Bq,0,-1.59
 17590869,-0.4905235226,-1.1885388614\Bq,0,-1.574722,-0.4916401922,-1.1
 885388614\Bq,0,-1.5576849131,-0.4905235226,-1.1885388614\Bq,0,-1.54093
 93356,-0.4871926201,-1.1885388614\Bq,0,-1.5247717887,-0.4817044774,-1.
 1885388614\Bq,0,-1.5094589039,-0.4741529983,-1.1885388614\Bq,0,-1.4952
 626887,-0.4646673906,-1.1885388614\Bq,0,-1.4824260444,-0.4534099556,-1
 .1885388614\Bq,0,-1.4711686094,-0.4405733113,-1.1885388614\Bq,0,-1.461
 6830017,-0.4263770961,-1.1885388614\Bq,0,-1.4541315226,-0.4110642113,-
 1.1885388614\Bq,0,-1.4486433799,-0.3948966644,-1.1885388614\Bq,0,-1.44
 53124774,-0.3781510869,-1.1885388614\Bq,0,-3.78302,-1.443099,0.971691\
 Bq,0,-3.78302,-1.443099,0.971691\Bq,0,-3.78302,-1.443099,0.971691\Bq,0
 ,-3.78302,-1.443099,0.971691\Bq,0,-3.78302,-1.443099,0.971691\Bq,0,-3.
 78302,-1.443099,0.971691\Bq,0,-3.78302,-1.443099,0.971691\Bq,0,-3.7830
 2,-1.443099,0.971691\Bq,0,-3.78302,-1.443099,0.971691\Bq,0,-3.78302,-1
 .443099,0.971691\Bq,0,-3.78302,-1.443099,0.971691\Bq,0,-3.78302,-1.443
 099,0.971691\Bq,0,-3.78302,-1.443099,0.971691\Bq,0,-3.78302,-1.443099,
 0.971691\Bq,0,-3.78302,-1.443099,0.971691\Bq,0,-3.78302,-1.443099,0.97
 1691\Bq,0,-3.78302,-1.443099,0.971691\Bq,0,-3.78302,-1.443099,0.971691
 \Bq,0,-3.78302,-1.443099,0.971691\Bq,0,-3.78302,-1.443099,0.971691\Bq,
 0,-3.78302,-1.443099,0.971691\Bq,0,-3.78302,-1.443099,0.971691\Bq,0,-3
 .78302,-1.443099,0.971691\Bq,0,-3.78302,-1.443099,0.971691\Bq,0,-3.783
 02,-1.443099,0.971691\Bq,0,-3.78302,-1.443099,0.971691\Bq,0,-3.78302,-
 1.443099,0.971691\Bq,0,-3.78302,-1.443099,0.971691\Bq,0,-3.78302,-1.44
 3099,0.971691\Bq,0,-3.78302,-1.443099,0.971691\Bq,0,-3.78302,-1.443099
 ,0.971691\Bq,0,-3.78302,-1.443099,0.971691\Bq,0,-3.78302,-1.443099,0.9
 71691\Bq,0,-3.78302,-1.443099,0.971691\Bq,0,-3.78302,-1.443099,0.97169
 1\Bq,0,-3.78302,-1.443099,0.971691\Bq,0,-3.78302,-1.443099,0.971691\Bq
 ,0,-3.78302,-1.443099,0.971691\Bq,0,-3.78302,-1.443099,0.971691\Bq,0,-
 3.78302,-1.443099,0.971691\Bq,0,-3.78302,-1.443099,0.971691\Bq,0,-3.78
 302,-1.443099,0.971691\Bq,0,-3.78302,-1.443099,0.971691\Bq,0,-3.78302,
 -1.443099,0.971691\Bq,0,-3.78302,-1.443099,0.971691\Bq,0,-3.78302,-1.4
 43099,0.971691\Bq,0,-3.78302,-1.443099,0.971691\Bq,0,-3.78302,-1.44309
 9,0.971691\Bq,0,-3.6524938078,-1.443099,0.9631358614\Bq,0,-3.653610477
 4,-1.4260619131,0.9631358614\Bq,0,-3.6569413799,-1.4093163356,0.963135
 8614\Bq,0,-3.6624295226,-1.3931487887,0.9631358614\Bq,0,-3.6699810017,
 -1.3778359039,0.9631358614\Bq,0,-3.6794666094,-1.3636396887,0.96313586
 14\Bq,0,-3.6907240444,-1.3508030444,0.9631358614\Bq,0,-3.7035606887,-1
 .3395456094,0.9631358614\Bq,0,-3.7177569039,-1.3300600017,0.9631358614
 \Bq,0,-3.7330697887,-1.3225085226,0.9631358614\Bq,0,-3.7492373356,-1.3
 170203799,0.9631358614\Bq,0,-3.7659829131,-1.3136894774,0.9631358614\B
 q,0,-3.78302,-1.3125728078,0.9631358614\Bq,0,-3.8000570869,-1.31368947
 74,0.9631358614\Bq,0,-3.8168026644,-1.3170203799,0.9631358614\Bq,0,-3.
 8329702113,-1.3225085226,0.9631358614\Bq,0,-3.8482830961,-1.3300600017
 ,0.9631358614\Bq,0,-3.8624793113,-1.3395456094,0.9631358614\Bq,0,-3.87
 53159556,-1.3508030444,0.9631358614\Bq,0,-3.8865733906,-1.3636396887,0
 .9631358614\Bq,0,-3.8960589983,-1.3778359039,0.9631358614\Bq,0,-3.9036
 104774,-1.3931487887,0.9631358614\Bq,0,-3.9090986201,-1.4093163356,0.9
 631358614\Bq,0,-3.9124295226,-1.4260619131,0.9631358614\Bq,0,-3.913546
 1922,-1.443099,0.9631358614\Bq,0,-3.9124295226,-1.4601360869,0.9631358
 614\Bq,0,-3.9090986201,-1.4768816644,0.9631358614\Bq,0,-3.9036104774,-
 1.4930492113,0.9631358614\Bq,0,-3.8960589983,-1.5083620961,0.963135861
 4\Bq,0,-3.8865733906,-1.5225583113,0.9631358614\Bq,0,-3.8753159556,-1.
 5353949556,0.9631358614\Bq,0,-3.8624793113,-1.5466523906,0.9631358614\
 Bq,0,-3.8482830961,-1.5561379983,0.9631358614\Bq,0,-3.8329702113,-1.56
 36894774,0.9631358614\Bq,0,-3.8168026644,-1.5691776201,0.9631358614\Bq
 ,0,-3.8000570869,-1.5725085226,0.9631358614\Bq,0,-3.78302,-1.573625192
 2,0.9631358614\Bq,0,-3.7659829131,-1.5725085226,0.9631358614\Bq,0,-3.7
 492373356,-1.5691776201,0.9631358614\Bq,0,-3.7330697887,-1.5636894774,
 0.9631358614\Bq,0,-3.7177569039,-1.5561379983,0.9631358614\Bq,0,-3.703
 5606887,-1.5466523906,0.9631358614\Bq,0,-3.6907240444,-1.5353949556,0.
 9631358614\Bq,0,-3.6794666094,-1.5225583113,0.9631358614\Bq,0,-3.66998
 10017,-1.5083620961,0.9631358614\Bq,0,-3.6624295226,-1.4930492113,0.96
 31358614\Bq,0,-3.6569413799,-1.4768816644,0.9631358614\Bq,0,-3.6536104
 774,-1.4601360869,0.9631358614\Bq,0,-3.5242009549,-1.443099,0.93761682
 63\Bq,0,-3.5264151877,-1.4093163356,0.9376168263\Bq,0,-3.53302,-1.3761
 117019,0.9376168263\Bq,0,-3.5439023816,-1.3440532395,0.9376168263\Bq,0
 ,-3.558876132,-1.3136894774,0.9376168263\Bq,0,-3.577685046,-1.28553994
 82,0.9376168263\Bq,0,-3.6000072981,-1.2600862981,0.9376168263\Bq,0,-3.
 6254609482,-1.237764046,0.9376168263\Bq,0,-3.6536104774,-1.218955132,0
 .9376168263\Bq,0,-3.6839742395,-1.2039813816,0.9376168263\Bq,0,-3.7160
 327019,-1.193099,0.9376168263\Bq,0,-3.7492373356,-1.1864941877,0.93761
 68263\Bq,0,-3.78302,-1.1842799549,0.9376168263\Bq,0,-3.8168026644,-1.1
 864941877,0.9376168263\Bq,0,-3.8500072981,-1.193099,0.9376168263\Bq,0,
 -3.8820657605,-1.2039813816,0.9376168263\Bq,0,-3.9124295226,-1.2189551
 32,0.9376168263\Bq,0,-3.9405790518,-1.237764046,0.9376168263\Bq,0,-3.9
 660327019,-1.2600862981,0.9376168263\Bq,0,-3.988354954,-1.2855399482,0
 .9376168263\Bq,0,-4.007163868,-1.3136894774,0.9376168263\Bq,0,-4.02213
 76184,-1.3440532395,0.9376168263\Bq,0,-4.03302,-1.3761117019,0.9376168
 263\Bq,0,-4.0396248123,-1.4093163356,0.9376168263\Bq,0,-4.0418390451,-
 1.443099,0.9376168263\Bq,0,-4.0396248123,-1.4768816644,0.9376168263\Bq
 ,0,-4.03302,-1.5100862981,0.9376168263\Bq,0,-4.0221376184,-1.542144760
 5,0.9376168263\Bq,0,-4.007163868,-1.5725085226,0.9376168263\Bq,0,-3.98
 8354954,-1.6006580518,0.9376168263\Bq,0,-3.9660327019,-1.6261117019,0.
 9376168263\Bq,0,-3.9405790518,-1.648433954,0.9376168263\Bq,0,-3.912429
 5226,-1.667242868,0.9376168263\Bq,0,-3.8820657605,-1.6822166184,0.9376
 168263\Bq,0,-3.8500072981,-1.693099,0.9376168263\Bq,0,-3.8168026644,-1
 .6997038123,0.9376168263\Bq,0,-3.78302,-1.7019180451,0.9376168263\Bq,0
 ,-3.7492373356,-1.6997038123,0.9376168263\Bq,0,-3.7160327019,-1.693099
 ,0.9376168263\Bq,0,-3.6839742395,-1.6822166184,0.9376168263\Bq,0,-3.65
 36104774,-1.667242868,0.9376168263\Bq,0,-3.6254609482,-1.648433954,0.9
 376168263\Bq,0,-3.6000072981,-1.6261117019,0.9376168263\Bq,0,-3.577685
 046,-1.6006580518,0.9376168263\Bq,0,-3.558876132,-1.5725085226,0.93761
 68263\Bq,0,-3.5439023816,-1.5421447605,0.9376168263\Bq,0,-3.53302,-1.5
 100862981,0.9376168263\Bq,0,-3.5264151877,-1.4768816644,0.9376168263\B
 q,0,-3.4003365676,-1.443099,0.8955705325\Bq,0,-3.4036104774,-1.3931487
 887,0.8955705325\Bq,0,-3.4133761894,-1.3440532395,0.8955705325\Bq,0,-3
 .4294666094,-1.2966523906,0.8955705325\Bq,0,-3.451606426,-1.2517572838
 ,0.8955705325\Bq,0,-3.4794168207,-1.2101360869,0.8955705325\Bq,0,-3.51
 24219499,-1.1725009499,0.8955705325\Bq,0,-3.5500570869,-1.1394958207,0
 .8955705325\\Version=ES64L-G09RevD.01\HF=-847.0037387\RMSD=4.015e-09\D
 ipole=0.0000004,0.0287843,0.0000009\Quadrupole=4.8545288,4.8066247,-9.
 6611535,-0.0000047,-3.6219991,-0.000002\PG=C01 [X(C22H14)]\\@


 It takes a long time to grow an old friend.
                            -- John Leonard
 Job cpu time:       0 days  1 hours 13 minutes 37.4 seconds.
 File lengths (MBytes):  RWF=    184 Int=      0 D2E=      0 Chk=     21 Scr=      1
 Normal termination of Gaussian 09 at Tue Sep 15 12:31:03 2020.
