 Entering Gaussian System, Link 0=g09
 Input=input_batch_31400.com
 Output=input_batch_31400.log
 Initial command:
 /share/programs/GAUSSIAN/64/g09/l1.exe "/scratch/aartigas.39216/Gau-985.inp" -scrdir="/scratch/aartigas.39216/"
 Entering Link 1 = /share/programs/GAUSSIAN/64/g09/l1.exe PID=       986.
  
 Copyright (c) 1988,1990,1992,1993,1995,1998,2003,2009,2013,
            Gaussian, Inc.  All Rights Reserved.
  
 This is part of the Gaussian(R) 09 program.  It is based on
 the Gaussian(R) 03 system (copyright 2003, Gaussian, Inc.),
 the Gaussian(R) 98 system (copyright 1998, Gaussian, Inc.),
 the Gaussian(R) 94 system (copyright 1995, Gaussian, Inc.),
 the Gaussian 92(TM) system (copyright 1992, Gaussian, Inc.),
 the Gaussian 90(TM) system (copyright 1990, Gaussian, Inc.),
 the Gaussian 88(TM) system (copyright 1988, Gaussian, Inc.),
 the Gaussian 86(TM) system (copyright 1986, Carnegie Mellon
 University), and the Gaussian 82(TM) system (copyright 1983,
 Carnegie Mellon University). Gaussian is a federally registered
 trademark of Gaussian, Inc.
  
 This software contains proprietary and confidential information,
 including trade secrets, belonging to Gaussian, Inc.
  
 This software is provided under written license and may be
 used, copied, transmitted, or stored only in accord with that
 written license.
  
 The following legend is applicable only to US Government
 contracts under FAR:
  
                    RESTRICTED RIGHTS LEGEND
  
 Use, reproduction and disclosure by the US Government is
 subject to restrictions as set forth in subparagraphs (a)
 and (c) of the Commercial Computer Software - Restricted
 Rights clause in FAR 52.227-19.
  
 Gaussian, Inc.
 340 Quinnipiac St., Bldg. 40, Wallingford CT 06492
  
  
 ---------------------------------------------------------------
 Warning -- This program may not be used in any manner that
 competes with the business of Gaussian, Inc. or will provide
 assistance to any competitor of Gaussian, Inc.  The licensee
 of this program is prohibited from giving any competitor of
 Gaussian, Inc. access to this program.  By using this program,
 the user acknowledges that Gaussian, Inc. is engaged in the
 business of creating and licensing software in the field of
 computational chemistry and represents and warrants to the
 licensee that it is not a competitor of Gaussian, Inc. and that
 it will not use this program in any manner prohibited above.
 ---------------------------------------------------------------
  

 Cite this work as:
 Gaussian 09, Revision D.01,
 M. J. Frisch, G. W. Trucks, H. B. Schlegel, G. E. Scuseria, 
 M. A. Robb, J. R. Cheeseman, G. Scalmani, V. Barone, B. Mennucci, 
 G. A. Petersson, H. Nakatsuji, M. Caricato, X. Li, H. P. Hratchian, 
 A. F. Izmaylov, J. Bloino, G. Zheng, J. L. Sonnenberg, M. Hada, 
 M. Ehara, K. Toyota, R. Fukuda, J. Hasegawa, M. Ishida, T. Nakajima, 
 Y. Honda, O. Kitao, H. Nakai, T. Vreven, J. A. Montgomery, Jr., 
 J. E. Peralta, F. Ogliaro, M. Bearpark, J. J. Heyd, E. Brothers, 
 K. N. Kudin, V. N. Staroverov, T. Keith, R. Kobayashi, J. Normand, 
 K. Raghavachari, A. Rendell, J. C. Burant, S. S. Iyengar, J. Tomasi, 
 M. Cossi, N. Rega, J. M. Millam, M. Klene, J. E. Knox, J. B. Cross, 
 V. Bakken, C. Adamo, J. Jaramillo, R. Gomperts, R. E. Stratmann, 
 O. Yazyev, A. J. Austin, R. Cammi, C. Pomelli, J. W. Ochterski, 
 R. L. Martin, K. Morokuma, V. G. Zakrzewski, G. A. Voth, 
 P. Salvador, J. J. Dannenberg, S. Dapprich, A. D. Daniels, 
 O. Farkas, J. B. Foresman, J. V. Ortiz, J. Cioslowski, 
 and D. J. Fox, Gaussian, Inc., Wallingford CT, 2013.
 
 ******************************************
 Gaussian 09:  ES64L-G09RevD.01 24-Apr-2013
                15-Sep-2020 
 ******************************************
 %OldChk=/home/aartigas/chk/5_helicene_spe.chk
 %nproc=8
 Will use up to    8 processors via shared memory.
 %mem=1000MB
 Copying data from "/home/aartigas/chk/5_helicene_spe.chk" to current chk file "/scratch/aartigas.39216/Gau-986.chk".
 ----------------------------------------------------
 #P rb3lyp/6-311+g** NMR Guess=Read geom=connectivity
 ----------------------------------------------------
 1/38=1,57=2/1;
 2/12=2,17=6,18=5,40=1/2;
 3/5=4,6=6,7=111,11=2,16=1,25=1,30=1,74=-5,116=1/1,2,8,3;
 4/5=1/1;
 5/5=2,38=6/2;
 8/6=1,10=90,11=11/1;
 10/13=100,45=16/2;
 6/7=2,8=2,9=2,10=2,28=1/1;
 99/9=1/99;
 Leave Link    1 at Tue Sep 15 14:25:34 2020, MaxMem=   131072000 cpu:         0.3
 (Enter /share/programs/GAUSSIAN/64/g09/l101.exe)
 -----
 Title
 -----
 Symbolic Z-matrix:
 Charge =  0 Multiplicity = 1
 C                     0.65324   3.25786  -0.20251 
 C                    -0.65324   3.25786   0.20251 
 C                     1.3725    2.03296  -0.32081 
 C                    -1.3725    2.03296   0.32081 
 C                     0.72247   0.79567  -0.05039 
 C                    -0.72247   0.79567   0.05039 
 C                     2.76039   2.05393  -0.67427 
 C                     3.50887   0.91392  -0.67136 
 C                     2.95523  -0.30962  -0.17748 
 C                     1.57472  -0.36111   0.19709 
 H                     1.18343   4.19574  -0.3846 
 H                    -1.18343   4.19574   0.3846 
 H                     3.20628   3.01242  -0.95139 
 H                     4.56002   0.93296  -0.96933 
 C                     3.78302  -1.4431    0.02831 
 C                     1.13743  -1.50753   0.91211 
 C                     1.97369  -2.58435   1.13806 
 C                     3.30185  -2.57159   0.66118 
 H                     4.82575  -1.39123  -0.29548 
 H                     0.12465  -1.53279   1.30847 
 H                     1.60359  -3.44568   1.69898 
 H                     3.95274  -3.43353   0.82513 
 C                    -3.50887   0.91392   0.67136 
 C                    -2.76039   2.05393   0.67427 
 C                    -2.95523  -0.30962   0.17748 
 C                    -1.57472  -0.36111  -0.19709 
 C                    -3.78302  -1.4431   -0.02831 
 C                    -3.30185  -2.57159  -0.66118 
 C                    -1.97369  -2.58435  -1.13806 
 C                    -1.13743  -1.50753  -0.91211 
 H                    -4.56002   0.93295   0.96933 
 H                    -3.20628   3.01242   0.95139 
 H                    -4.82575  -1.39123   0.29548 
 H                    -3.95274  -3.43353  -0.82513 
 H                    -1.60359  -3.44568  -1.69898 
 H                    -0.12465  -1.53279  -1.30847 
 Bq                   -2.21429   0.96733  -0.70858 
 Bq                   -2.22849   0.95784  -0.70858 
 Bq                   -2.24132   0.94658  -0.70858 
 Bq                   -2.25258   0.93375  -0.70858 
 Bq                   -2.26207   0.91955  -0.70858 
 Bq                   -2.26962   0.90424  -0.70858 
 Bq                   -2.27511   0.88807  -0.70858 
 Bq                   -2.27844   0.87132  -0.70858 
 Bq                   -2.27955   0.85429  -0.70858 
 Bq                   -2.27844   0.83725  -0.70858 
 Bq                   -2.27511   0.82051  -0.70858 
 Bq                   -2.26962   0.80434  -0.70858 
 Bq                   -2.26207   0.78902  -0.70858 
 Bq                   -2.25258   0.77483  -0.70858 
 Bq                   -2.24132   0.76199  -0.70858 
 Bq                   -2.22849   0.75073  -0.70858 
 Bq                   -2.21429   0.74125  -0.70858 
 Bq                   -2.19898   0.7337   -0.70858 
 Bq                   -2.18281   0.72821  -0.70858 
 Bq                   -2.16607   0.72488  -0.70858 
 Bq                   -2.14903   0.72376  -0.70858 
 Bq                   -2.13199   0.72488  -0.70858 
 Bq                   -2.11525   0.72821  -0.70858 
 Bq                   -2.09908   0.7337   -0.70858 
 Bq                   -2.08377   0.74125  -0.70858 
 Bq                   -2.06957   0.75073  -0.70858 
 Bq                   -2.05673   0.76199  -0.70858 
 Bq                   -2.04547   0.77483  -0.70858 
 Bq                   -2.03599   0.78902  -0.70858 
 Bq                   -2.02844   0.80434  -0.70858 
 Bq                   -2.02295   0.82051  -0.70858 
 Bq                   -2.01962   0.83725  -0.70858 
 Bq                   0.         2.02883   1. 
 Bq                   0.         2.02883   1. 
 Bq                   0.         2.02883   1. 
 Bq                   0.         2.02883   1. 
 Bq                   0.         2.02883   1. 
 Bq                   0.         2.02883   1. 
 Bq                   0.         2.02883   1. 
 Bq                   0.         2.02883   1. 
 Bq                   0.         2.02883   1. 
 Bq                   0.         2.02883   1. 
 Bq                   0.         2.02883   1. 
 Bq                   0.         2.02883   1. 
 Bq                   0.         2.02883   1. 
 Bq                   0.         2.02883   1. 
 Bq                   0.         2.02883   1. 
 Bq                   0.         2.02883   1. 
 Bq                   0.         2.02883   1. 
 Bq                   0.         2.02883   1. 
 Bq                   0.         2.02883   1. 
 Bq                   0.         2.02883   1. 
 Bq                   0.         2.02883   1. 
 Bq                   0.         2.02883   1. 
 Bq                   0.         2.02883   1. 
 Bq                   0.         2.02883   1. 
 Bq                   0.         2.02883   1. 
 Bq                   0.         2.02883   1. 
 Bq                   0.         2.02883   1. 
 Bq                   0.         2.02883   1. 
 Bq                   0.         2.02883   1. 
 Bq                   0.         2.02883   1. 
 Bq                   0.         2.02883   1. 
 Bq                   0.         2.02883   1. 
 Bq                   0.         2.02883   1. 
 Bq                   0.         2.02883   1. 
 Bq                   0.         2.02883   1. 
 Bq                   0.         2.02883   1. 
 Bq                   0.         2.02883   1. 
 Bq                   0.         2.02883   1. 
 Bq                   0.         2.02883   1. 
 Bq                   0.         2.02883   1. 
 Bq                   0.         2.02883   1. 
 Bq                   0.         2.02883   1. 
 Bq                   0.         2.02883   1. 
 Bq                   0.         2.02883   1. 
 Bq                   0.         2.02883   1. 
 Bq                   0.         2.02883   1. 
 Bq                   0.         2.02883   1. 
 Bq                   0.         2.02883   1. 
 Bq                    0.13053   2.02883   0.99144 
 Bq                    0.12941   2.04586   0.99144 
 Bq                    0.12608   2.06261   0.99144 
 Bq                    0.12059   2.07878   0.99144 
 Bq                    0.11304   2.09409   0.99144 
 Bq                    0.10355   2.10829   0.99144 
 Bq                    0.0923    2.12112   0.99144 
 Bq                    0.07946   2.13238   0.99144 
 Bq                    0.06526   2.14187   0.99144 
 Bq                    0.04995   2.14942   0.99144 
 Bq                    0.03378   2.15491   0.99144 
 Bq                    0.01704   2.15824   0.99144 
 Bq                   0.         2.15935   0.99144 
 Bq                   -0.01704   2.15824   0.99144 
 Bq                   -0.03378   2.15491   0.99144 
 Bq                   -0.04995   2.14942   0.99144 
 Bq                   -0.06526   2.14187   0.99144 
 Bq                   -0.07946   2.13238   0.99144 
 Bq                   -0.0923    2.12112   0.99144 
 Bq                   -0.10355   2.10829   0.99144 
 Bq                   -0.11304   2.09409   0.99144 
 Bq                   -0.12059   2.07878   0.99144 
 Bq                   -0.12608   2.06261   0.99144 
 Bq                   -0.12941   2.04586   0.99144 
 Bq                   -0.13053   2.02883   0.99144 
 Bq                   -0.12941   2.01179   0.99144 
 Bq                   -0.12608   1.99504   0.99144 
 Bq                   -0.12059   1.97888   0.99144 
 Bq                   -0.11304   1.96356   0.99144 
 Bq                   -0.10355   1.94937   0.99144 
 Bq                   -0.0923    1.93653   0.99144 
 Bq                   -0.07946   1.92527   0.99144 
 Bq                   -0.06526   1.91579   0.99144 
 Bq                   -0.04995   1.90824   0.99144 
 Bq                   -0.03378   1.90275   0.99144 
 Bq                   -0.01704   1.89942   0.99144 
 Bq                   0.         1.8983    0.99144 
 Bq                    0.01704   1.89942   0.99144 
 Bq                    0.03378   1.90275   0.99144 
 Bq                    0.04995   1.90824   0.99144 
 Bq                    0.06526   1.91579   0.99144 
 Bq                    0.07946   1.92527   0.99144 
 Bq                    0.0923    1.93653   0.99144 
 Bq                    0.10355   1.94937   0.99144 
 Bq                    0.11304   1.96356   0.99144 
 Bq                    0.12059   1.97888   0.99144 
 Bq                    0.12608   1.99504   0.99144 
 Bq                    0.12941   2.01179   0.99144 
 Bq                    0.25882   2.02883   0.96593 
 Bq                    0.2566    2.06261   0.96593 
 Bq                    0.25      2.09581   0.96593 
 Bq                    0.23912   2.12787   0.96593 
 Bq                    0.22414   2.15824   0.96593 
 Bq                    0.20533   2.18639   0.96593 
 Bq                    0.18301   2.21184   0.96593 
 Bq                    0.15756   2.23416   0.96593 
 Bq                    0.12941   2.25297   0.96593 
 Bq                    0.09905   2.26794   0.96593 
 Bq                    0.06699   2.27883   0.96593 
 Bq                    0.03378   2.28543   0.96593 
 Bq                   0.         2.28765   0.96593 
 Bq                   -0.03378   2.28543   0.96593 
 Bq                   -0.06699   2.27883   0.96593 
 Bq                   -0.09905   2.26794   0.96593 
 Bq                   -0.12941   2.25297   0.96593 
 Bq                   -0.15756   2.23416   0.96593 
 Bq                   -0.18301   2.21184   0.96593 
 Bq                   -0.20534   2.18639   0.96593 
 Bq                   -0.22414   2.15824   0.96593 
 Bq                   -0.23912   2.12787   0.96593 
 Bq                   -0.25      2.09581   0.96593 
 Bq                   -0.25661   2.06261   0.96593 
 Bq                   -0.25882   2.02883   0.96593 
 Bq                   -0.25661   1.99504   0.96593 
 Bq                   -0.25      1.96184   0.96593 
 Bq                   -0.23912   1.92978   0.96593 
 Bq                   -0.22414   1.89942   0.96593 
 Bq                   -0.20534   1.87127   0.96593 
 Bq                   -0.18301   1.84581   0.96593 
 Bq                   -0.15756   1.82349   0.96593 
 Bq                   -0.12941   1.80468   0.96593 
 Bq                   -0.09905   1.78971   0.96593 
 Bq                   -0.06699   1.77883   0.96593 
 Bq                   -0.03378   1.77222   0.96593 
 Bq                   0.         1.77001   0.96593 
 Bq                    0.03378   1.77222   0.96593 
 Bq                    0.06699   1.77883   0.96593 
 Bq                    0.09905   1.78971   0.96593 
 Bq                    0.12941   1.80468   0.96593 
 Bq                    0.15756   1.82349   0.96593 
 Bq                    0.18301   1.84581   0.96593 
 Bq                    0.20533   1.87127   0.96593 
 Bq                    0.22414   1.89942   0.96593 
 Bq                    0.23912   1.92978   0.96593 
 Bq                    0.25      1.96184   0.96593 
 Bq                    0.2566    1.99504   0.96593 
 Bq                    0.38268   2.02883   0.92388 
 Bq                    0.37941   2.07878   0.92388 
 Bq                    0.36964   2.12787   0.92388 
 Bq                    0.35355   2.17527   0.92388 
 Bq                    0.33141   2.22017   0.92388 
 Bq                    0.3036    2.26179   0.92388 
 Bq                    0.2706    2.29943   0.92388 
 Bq                    0.23296   2.33243   0.92388 
 Bq                    0.19134   2.36024   0.92388 
 Bq                    0.14645   2.38238   0.92388 
 Bq                    0.09905   2.39847   0.92388 
 Bq                    0.04995   2.40824   0.92388 
 Bq                   0.         2.41151   0.92388 
 Bq                   -0.04995   2.40824   0.92388 
 Bq                   -0.09905   2.39847   0.92388 
 Bq                   -0.14645   2.38238   0.92388 
 Bq                   -0.19134   2.36024   0.92388 
 Bq                   -0.23296   2.33243   0.92388 
 Bq                   -0.2706    2.29943   0.92388 
 Bq                   -0.3036    2.26179   0.92388 
 Bq                   -0.33141   2.22017   0.92388 
 Bq                   -0.35355   2.17527   0.92388 
 Bq                   -0.36964   2.12787   0.92388 
 Bq                   -0.37941   2.07878   0.92388 
 
 NAtoms=    236 NQM=      236 NQMF=       0 NMMI=      0 NMMIF=      0
                NMic=       0 NMicF=      0.
                    Isotopes and Nuclear Properties:
 (Nuclear quadrupole moments (NQMom) in fm**2, nuclear magnetic moments (NMagM)
  in nuclear magnetons)

  Atom         1           2           3           4           5           6           7           8           9          10
 IAtWgt=          12          12          12          12          12          12          12          12          12          12
 AtmWgt=  12.0000000  12.0000000  12.0000000  12.0000000  12.0000000  12.0000000  12.0000000  12.0000000  12.0000000  12.0000000
 NucSpn=           0           0           0           0           0           0           0           0           0           0
 AtZEff=   0.0000000   0.0000000   0.0000000   0.0000000   0.0000000   0.0000000   0.0000000   0.0000000   0.0000000   0.0000000
 NQMom=    0.0000000   0.0000000   0.0000000   0.0000000   0.0000000   0.0000000   0.0000000   0.0000000   0.0000000   0.0000000
 NMagM=    0.0000000   0.0000000   0.0000000   0.0000000   0.0000000   0.0000000   0.0000000   0.0000000   0.0000000   0.0000000
 AtZNuc=   6.0000000   6.0000000   6.0000000   6.0000000   6.0000000   6.0000000   6.0000000   6.0000000   6.0000000   6.0000000

  Atom        11          12          13          14          15          16          17          18          19          20
 IAtWgt=           1           1           1           1          12          12          12          12           1           1
 AtmWgt=   1.0078250   1.0078250   1.0078250   1.0078250  12.0000000  12.0000000  12.0000000  12.0000000   1.0078250   1.0078250
 NucSpn=           1           1           1           1           0           0           0           0           1           1
 AtZEff=   0.0000000   0.0000000   0.0000000   0.0000000   0.0000000   0.0000000   0.0000000   0.0000000   0.0000000   0.0000000
 NQMom=    0.0000000   0.0000000   0.0000000   0.0000000   0.0000000   0.0000000   0.0000000   0.0000000   0.0000000   0.0000000
 NMagM=    2.7928460   2.7928460   2.7928460   2.7928460   0.0000000   0.0000000   0.0000000   0.0000000   2.7928460   2.7928460
 AtZNuc=   1.0000000   1.0000000   1.0000000   1.0000000   6.0000000   6.0000000   6.0000000   6.0000000   1.0000000   1.0000000

  Atom        21          22          23          24          25          26          27          28          29          30
 IAtWgt=           1           1          12          12          12          12          12          12          12          12
 AtmWgt=   1.0078250   1.0078250  12.0000000  12.0000000  12.0000000  12.0000000  12.0000000  12.0000000  12.0000000  12.0000000
 NucSpn=           1           1           0           0           0           0           0           0           0           0
 AtZEff=   0.0000000   0.0000000   0.0000000   0.0000000   0.0000000   0.0000000   0.0000000   0.0000000   0.0000000   0.0000000
 NQMom=    0.0000000   0.0000000   0.0000000   0.0000000   0.0000000   0.0000000   0.0000000   0.0000000   0.0000000   0.0000000
 NMagM=    2.7928460   2.7928460   0.0000000   0.0000000   0.0000000   0.0000000   0.0000000   0.0000000   0.0000000   0.0000000
 AtZNuc=   1.0000000   1.0000000   6.0000000   6.0000000   6.0000000   6.0000000   6.0000000   6.0000000   6.0000000   6.0000000

  Atom        31          32          33          34          35          36          37          38          39          40
 IAtWgt=           1           1           1           1           1           1           0           0           0           0
 AtmWgt=   1.0078250   1.0078250   1.0078250   1.0078250   1.0078250   1.0078250   0.0000000   0.0000000   0.0000000   0.0000000
 NucSpn=           1           1           1           1           1           1           0           0           0           0
 AtZEff=   0.0000000   0.0000000   0.0000000   0.0000000   0.0000000   0.0000000   0.0000000   0.0000000   0.0000000   0.0000000
 NQMom=    0.0000000   0.0000000   0.0000000   0.0000000   0.0000000   0.0000000   0.0000000   0.0000000   0.0000000   0.0000000
 NMagM=    2.7928460   2.7928460   2.7928460   2.7928460   2.7928460   2.7928460   0.0000000   0.0000000   0.0000000   0.0000000
 AtZNuc=   1.0000000   1.0000000   1.0000000   1.0000000   1.0000000   1.0000000   0.0000000   0.0000000   0.0000000   0.0000000

  Atom        41          42          43          44          45          46          47          48          49          50
 IAtWgt=           0           0           0           0           0           0           0           0           0           0
 AtmWgt=   0.0000000   0.0000000   0.0000000   0.0000000   0.0000000   0.0000000   0.0000000   0.0000000   0.0000000   0.0000000
 NucSpn=           0           0           0           0           0           0           0           0           0           0
 AtZEff=   0.0000000   0.0000000   0.0000000   0.0000000   0.0000000   0.0000000   0.0000000   0.0000000   0.0000000   0.0000000
 NQMom=    0.0000000   0.0000000   0.0000000   0.0000000   0.0000000   0.0000000   0.0000000   0.0000000   0.0000000   0.0000000
 NMagM=    0.0000000   0.0000000   0.0000000   0.0000000   0.0000000   0.0000000   0.0000000   0.0000000   0.0000000   0.0000000
 AtZNuc=   0.0000000   0.0000000   0.0000000   0.0000000   0.0000000   0.0000000   0.0000000   0.0000000   0.0000000   0.0000000

  Atom        51          52          53          54          55          56          57          58          59          60
 IAtWgt=           0           0           0           0           0           0           0           0           0           0
 AtmWgt=   0.0000000   0.0000000   0.0000000   0.0000000   0.0000000   0.0000000   0.0000000   0.0000000   0.0000000   0.0000000
 NucSpn=           0           0           0           0           0           0           0           0           0           0
 AtZEff=   0.0000000   0.0000000   0.0000000   0.0000000   0.0000000   0.0000000   0.0000000   0.0000000   0.0000000   0.0000000
 NQMom=    0.0000000   0.0000000   0.0000000   0.0000000   0.0000000   0.0000000   0.0000000   0.0000000   0.0000000   0.0000000
 NMagM=    0.0000000   0.0000000   0.0000000   0.0000000   0.0000000   0.0000000   0.0000000   0.0000000   0.0000000   0.0000000
 AtZNuc=   0.0000000   0.0000000   0.0000000   0.0000000   0.0000000   0.0000000   0.0000000   0.0000000   0.0000000   0.0000000

  Atom        61          62          63          64          65          66          67          68          69          70
 IAtWgt=           0           0           0           0           0           0           0           0           0           0
 AtmWgt=   0.0000000   0.0000000   0.0000000   0.0000000   0.0000000   0.0000000   0.0000000   0.0000000   0.0000000   0.0000000
 NucSpn=           0           0           0           0           0           0           0           0           0           0
 AtZEff=   0.0000000   0.0000000   0.0000000   0.0000000   0.0000000   0.0000000   0.0000000   0.0000000   0.0000000   0.0000000
 NQMom=    0.0000000   0.0000000   0.0000000   0.0000000   0.0000000   0.0000000   0.0000000   0.0000000   0.0000000   0.0000000
 NMagM=    0.0000000   0.0000000   0.0000000   0.0000000   0.0000000   0.0000000   0.0000000   0.0000000   0.0000000   0.0000000
 AtZNuc=   0.0000000   0.0000000   0.0000000   0.0000000   0.0000000   0.0000000   0.0000000   0.0000000   0.0000000   0.0000000

  Atom        71          72          73          74          75          76          77          78          79          80
 IAtWgt=           0           0           0           0           0           0           0           0           0           0
 AtmWgt=   0.0000000   0.0000000   0.0000000   0.0000000   0.0000000   0.0000000   0.0000000   0.0000000   0.0000000   0.0000000
 NucSpn=           0           0           0           0           0           0           0           0           0           0
 AtZEff=   0.0000000   0.0000000   0.0000000   0.0000000   0.0000000   0.0000000   0.0000000   0.0000000   0.0000000   0.0000000
 NQMom=    0.0000000   0.0000000   0.0000000   0.0000000   0.0000000   0.0000000   0.0000000   0.0000000   0.0000000   0.0000000
 NMagM=    0.0000000   0.0000000   0.0000000   0.0000000   0.0000000   0.0000000   0.0000000   0.0000000   0.0000000   0.0000000
 AtZNuc=   0.0000000   0.0000000   0.0000000   0.0000000   0.0000000   0.0000000   0.0000000   0.0000000   0.0000000   0.0000000

  Atom        81          82          83          84          85          86          87          88          89          90
 IAtWgt=           0           0           0           0           0           0           0           0           0           0
 AtmWgt=   0.0000000   0.0000000   0.0000000   0.0000000   0.0000000   0.0000000   0.0000000   0.0000000   0.0000000   0.0000000
 NucSpn=           0           0           0           0           0           0           0           0           0           0
 AtZEff=   0.0000000   0.0000000   0.0000000   0.0000000   0.0000000   0.0000000   0.0000000   0.0000000   0.0000000   0.0000000
 NQMom=    0.0000000   0.0000000   0.0000000   0.0000000   0.0000000   0.0000000   0.0000000   0.0000000   0.0000000   0.0000000
 NMagM=    0.0000000   0.0000000   0.0000000   0.0000000   0.0000000   0.0000000   0.0000000   0.0000000   0.0000000   0.0000000
 AtZNuc=   0.0000000   0.0000000   0.0000000   0.0000000   0.0000000   0.0000000   0.0000000   0.0000000   0.0000000   0.0000000

  Atom        91          92          93          94          95          96          97          98          99         100
 IAtWgt=           0           0           0           0           0           0           0           0           0           0
 AtmWgt=   0.0000000   0.0000000   0.0000000   0.0000000   0.0000000   0.0000000   0.0000000   0.0000000   0.0000000   0.0000000
 NucSpn=           0           0           0           0           0           0           0           0           0           0
 AtZEff=   0.0000000   0.0000000   0.0000000   0.0000000   0.0000000   0.0000000   0.0000000   0.0000000   0.0000000   0.0000000
 NQMom=    0.0000000   0.0000000   0.0000000   0.0000000   0.0000000   0.0000000   0.0000000   0.0000000   0.0000000   0.0000000
 NMagM=    0.0000000   0.0000000   0.0000000   0.0000000   0.0000000   0.0000000   0.0000000   0.0000000   0.0000000   0.0000000
 AtZNuc=   0.0000000   0.0000000   0.0000000   0.0000000   0.0000000   0.0000000   0.0000000   0.0000000   0.0000000   0.0000000

  Atom       101         102         103         104         105         106         107         108         109         110
 IAtWgt=           0           0           0           0           0           0           0           0           0           0
 AtmWgt=   0.0000000   0.0000000   0.0000000   0.0000000   0.0000000   0.0000000   0.0000000   0.0000000   0.0000000   0.0000000
 NucSpn=           0           0           0           0           0           0           0           0           0           0
 AtZEff=   0.0000000   0.0000000   0.0000000   0.0000000   0.0000000   0.0000000   0.0000000   0.0000000   0.0000000   0.0000000
 NQMom=    0.0000000   0.0000000   0.0000000   0.0000000   0.0000000   0.0000000   0.0000000   0.0000000   0.0000000   0.0000000
 NMagM=    0.0000000   0.0000000   0.0000000   0.0000000   0.0000000   0.0000000   0.0000000   0.0000000   0.0000000   0.0000000
 AtZNuc=   0.0000000   0.0000000   0.0000000   0.0000000   0.0000000   0.0000000   0.0000000   0.0000000   0.0000000   0.0000000

  Atom       111         112         113         114         115         116         117         118         119         120
 IAtWgt=           0           0           0           0           0           0           0           0           0           0
 AtmWgt=   0.0000000   0.0000000   0.0000000   0.0000000   0.0000000   0.0000000   0.0000000   0.0000000   0.0000000   0.0000000
 NucSpn=           0           0           0           0           0           0           0           0           0           0
 AtZEff=   0.0000000   0.0000000   0.0000000   0.0000000   0.0000000   0.0000000   0.0000000   0.0000000   0.0000000   0.0000000
 NQMom=    0.0000000   0.0000000   0.0000000   0.0000000   0.0000000   0.0000000   0.0000000   0.0000000   0.0000000   0.0000000
 NMagM=    0.0000000   0.0000000   0.0000000   0.0000000   0.0000000   0.0000000   0.0000000   0.0000000   0.0000000   0.0000000
 AtZNuc=   0.0000000   0.0000000   0.0000000   0.0000000   0.0000000   0.0000000   0.0000000   0.0000000   0.0000000   0.0000000

  Atom       121         122         123         124         125         126         127         128         129         130
 IAtWgt=           0           0           0           0           0           0           0           0           0           0
 AtmWgt=   0.0000000   0.0000000   0.0000000   0.0000000   0.0000000   0.0000000   0.0000000   0.0000000   0.0000000   0.0000000
 NucSpn=           0           0           0           0           0           0           0           0           0           0
 AtZEff=   0.0000000   0.0000000   0.0000000   0.0000000   0.0000000   0.0000000   0.0000000   0.0000000   0.0000000   0.0000000
 NQMom=    0.0000000   0.0000000   0.0000000   0.0000000   0.0000000   0.0000000   0.0000000   0.0000000   0.0000000   0.0000000
 NMagM=    0.0000000   0.0000000   0.0000000   0.0000000   0.0000000   0.0000000   0.0000000   0.0000000   0.0000000   0.0000000
 AtZNuc=   0.0000000   0.0000000   0.0000000   0.0000000   0.0000000   0.0000000   0.0000000   0.0000000   0.0000000   0.0000000

  Atom       131         132         133         134         135         136         137         138         139         140
 IAtWgt=           0           0           0           0           0           0           0           0           0           0
 AtmWgt=   0.0000000   0.0000000   0.0000000   0.0000000   0.0000000   0.0000000   0.0000000   0.0000000   0.0000000   0.0000000
 NucSpn=           0           0           0           0           0           0           0           0           0           0
 AtZEff=   0.0000000   0.0000000   0.0000000   0.0000000   0.0000000   0.0000000   0.0000000   0.0000000   0.0000000   0.0000000
 NQMom=    0.0000000   0.0000000   0.0000000   0.0000000   0.0000000   0.0000000   0.0000000   0.0000000   0.0000000   0.0000000
 NMagM=    0.0000000   0.0000000   0.0000000   0.0000000   0.0000000   0.0000000   0.0000000   0.0000000   0.0000000   0.0000000
 AtZNuc=   0.0000000   0.0000000   0.0000000   0.0000000   0.0000000   0.0000000   0.0000000   0.0000000   0.0000000   0.0000000

  Atom       141         142         143         144         145         146         147         148         149         150
 IAtWgt=           0           0           0           0           0           0           0           0           0           0
 AtmWgt=   0.0000000   0.0000000   0.0000000   0.0000000   0.0000000   0.0000000   0.0000000   0.0000000   0.0000000   0.0000000
 NucSpn=           0           0           0           0           0           0           0           0           0           0
 AtZEff=   0.0000000   0.0000000   0.0000000   0.0000000   0.0000000   0.0000000   0.0000000   0.0000000   0.0000000   0.0000000
 NQMom=    0.0000000   0.0000000   0.0000000   0.0000000   0.0000000   0.0000000   0.0000000   0.0000000   0.0000000   0.0000000
 NMagM=    0.0000000   0.0000000   0.0000000   0.0000000   0.0000000   0.0000000   0.0000000   0.0000000   0.0000000   0.0000000
 AtZNuc=   0.0000000   0.0000000   0.0000000   0.0000000   0.0000000   0.0000000   0.0000000   0.0000000   0.0000000   0.0000000

  Atom       151         152         153         154         155         156         157         158         159         160
 IAtWgt=           0           0           0           0           0           0           0           0           0           0
 AtmWgt=   0.0000000   0.0000000   0.0000000   0.0000000   0.0000000   0.0000000   0.0000000   0.0000000   0.0000000   0.0000000
 NucSpn=           0           0           0           0           0           0           0           0           0           0
 AtZEff=   0.0000000   0.0000000   0.0000000   0.0000000   0.0000000   0.0000000   0.0000000   0.0000000   0.0000000   0.0000000
 NQMom=    0.0000000   0.0000000   0.0000000   0.0000000   0.0000000   0.0000000   0.0000000   0.0000000   0.0000000   0.0000000
 NMagM=    0.0000000   0.0000000   0.0000000   0.0000000   0.0000000   0.0000000   0.0000000   0.0000000   0.0000000   0.0000000
 AtZNuc=   0.0000000   0.0000000   0.0000000   0.0000000   0.0000000   0.0000000   0.0000000   0.0000000   0.0000000   0.0000000

  Atom       161         162         163         164         165         166         167         168         169         170
 IAtWgt=           0           0           0           0           0           0           0           0           0           0
 AtmWgt=   0.0000000   0.0000000   0.0000000   0.0000000   0.0000000   0.0000000   0.0000000   0.0000000   0.0000000   0.0000000
 NucSpn=           0           0           0           0           0           0           0           0           0           0
 AtZEff=   0.0000000   0.0000000   0.0000000   0.0000000   0.0000000   0.0000000   0.0000000   0.0000000   0.0000000   0.0000000
 NQMom=    0.0000000   0.0000000   0.0000000   0.0000000   0.0000000   0.0000000   0.0000000   0.0000000   0.0000000   0.0000000
 NMagM=    0.0000000   0.0000000   0.0000000   0.0000000   0.0000000   0.0000000   0.0000000   0.0000000   0.0000000   0.0000000
 AtZNuc=   0.0000000   0.0000000   0.0000000   0.0000000   0.0000000   0.0000000   0.0000000   0.0000000   0.0000000   0.0000000

  Atom       171         172         173         174         175         176         177         178         179         180
 IAtWgt=           0           0           0           0           0           0           0           0           0           0
 AtmWgt=   0.0000000   0.0000000   0.0000000   0.0000000   0.0000000   0.0000000   0.0000000   0.0000000   0.0000000   0.0000000
 NucSpn=           0           0           0           0           0           0           0           0           0           0
 AtZEff=   0.0000000   0.0000000   0.0000000   0.0000000   0.0000000   0.0000000   0.0000000   0.0000000   0.0000000   0.0000000
 NQMom=    0.0000000   0.0000000   0.0000000   0.0000000   0.0000000   0.0000000   0.0000000   0.0000000   0.0000000   0.0000000
 NMagM=    0.0000000   0.0000000   0.0000000   0.0000000   0.0000000   0.0000000   0.0000000   0.0000000   0.0000000   0.0000000
 AtZNuc=   0.0000000   0.0000000   0.0000000   0.0000000   0.0000000   0.0000000   0.0000000   0.0000000   0.0000000   0.0000000

  Atom       181         182         183         184         185         186         187         188         189         190
 IAtWgt=           0           0           0           0           0           0           0           0           0           0
 AtmWgt=   0.0000000   0.0000000   0.0000000   0.0000000   0.0000000   0.0000000   0.0000000   0.0000000   0.0000000   0.0000000
 NucSpn=           0           0           0           0           0           0           0           0           0           0
 AtZEff=   0.0000000   0.0000000   0.0000000   0.0000000   0.0000000   0.0000000   0.0000000   0.0000000   0.0000000   0.0000000
 NQMom=    0.0000000   0.0000000   0.0000000   0.0000000   0.0000000   0.0000000   0.0000000   0.0000000   0.0000000   0.0000000
 NMagM=    0.0000000   0.0000000   0.0000000   0.0000000   0.0000000   0.0000000   0.0000000   0.0000000   0.0000000   0.0000000
 AtZNuc=   0.0000000   0.0000000   0.0000000   0.0000000   0.0000000   0.0000000   0.0000000   0.0000000   0.0000000   0.0000000

  Atom       191         192         193         194         195         196         197         198         199         200
 IAtWgt=           0           0           0           0           0           0           0           0           0           0
 AtmWgt=   0.0000000   0.0000000   0.0000000   0.0000000   0.0000000   0.0000000   0.0000000   0.0000000   0.0000000   0.0000000
 NucSpn=           0           0           0           0           0           0           0           0           0           0
 AtZEff=   0.0000000   0.0000000   0.0000000   0.0000000   0.0000000   0.0000000   0.0000000   0.0000000   0.0000000   0.0000000
 NQMom=    0.0000000   0.0000000   0.0000000   0.0000000   0.0000000   0.0000000   0.0000000   0.0000000   0.0000000   0.0000000
 NMagM=    0.0000000   0.0000000   0.0000000   0.0000000   0.0000000   0.0000000   0.0000000   0.0000000   0.0000000   0.0000000
 AtZNuc=   0.0000000   0.0000000   0.0000000   0.0000000   0.0000000   0.0000000   0.0000000   0.0000000   0.0000000   0.0000000

  Atom       201         202         203         204         205         206         207         208         209         210
 IAtWgt=           0           0           0           0           0           0           0           0           0           0
 AtmWgt=   0.0000000   0.0000000   0.0000000   0.0000000   0.0000000   0.0000000   0.0000000   0.0000000   0.0000000   0.0000000
 NucSpn=           0           0           0           0           0           0           0           0           0           0
 AtZEff=   0.0000000   0.0000000   0.0000000   0.0000000   0.0000000   0.0000000   0.0000000   0.0000000   0.0000000   0.0000000
 NQMom=    0.0000000   0.0000000   0.0000000   0.0000000   0.0000000   0.0000000   0.0000000   0.0000000   0.0000000   0.0000000
 NMagM=    0.0000000   0.0000000   0.0000000   0.0000000   0.0000000   0.0000000   0.0000000   0.0000000   0.0000000   0.0000000
 AtZNuc=   0.0000000   0.0000000   0.0000000   0.0000000   0.0000000   0.0000000   0.0000000   0.0000000   0.0000000   0.0000000

  Atom       211         212         213         214         215         216         217         218         219         220
 IAtWgt=           0           0           0           0           0           0           0           0           0           0
 AtmWgt=   0.0000000   0.0000000   0.0000000   0.0000000   0.0000000   0.0000000   0.0000000   0.0000000   0.0000000   0.0000000
 NucSpn=           0           0           0           0           0           0           0           0           0           0
 AtZEff=   0.0000000   0.0000000   0.0000000   0.0000000   0.0000000   0.0000000   0.0000000   0.0000000   0.0000000   0.0000000
 NQMom=    0.0000000   0.0000000   0.0000000   0.0000000   0.0000000   0.0000000   0.0000000   0.0000000   0.0000000   0.0000000
 NMagM=    0.0000000   0.0000000   0.0000000   0.0000000   0.0000000   0.0000000   0.0000000   0.0000000   0.0000000   0.0000000
 AtZNuc=   0.0000000   0.0000000   0.0000000   0.0000000   0.0000000   0.0000000   0.0000000   0.0000000   0.0000000   0.0000000

  Atom       221         222         223         224         225         226         227         228         229         230
 IAtWgt=           0           0           0           0           0           0           0           0           0           0
 AtmWgt=   0.0000000   0.0000000   0.0000000   0.0000000   0.0000000   0.0000000   0.0000000   0.0000000   0.0000000   0.0000000
 NucSpn=           0           0           0           0           0           0           0           0           0           0
 AtZEff=   0.0000000   0.0000000   0.0000000   0.0000000   0.0000000   0.0000000   0.0000000   0.0000000   0.0000000   0.0000000
 NQMom=    0.0000000   0.0000000   0.0000000   0.0000000   0.0000000   0.0000000   0.0000000   0.0000000   0.0000000   0.0000000
 NMagM=    0.0000000   0.0000000   0.0000000   0.0000000   0.0000000   0.0000000   0.0000000   0.0000000   0.0000000   0.0000000
 AtZNuc=   0.0000000   0.0000000   0.0000000   0.0000000   0.0000000   0.0000000   0.0000000   0.0000000   0.0000000   0.0000000

  Atom       231         232         233         234         235         236
 IAtWgt=           0           0           0           0           0           0
 AtmWgt=   0.0000000   0.0000000   0.0000000   0.0000000   0.0000000   0.0000000
 NucSpn=           0           0           0           0           0           0
 AtZEff=   0.0000000   0.0000000   0.0000000   0.0000000   0.0000000   0.0000000
 NQMom=    0.0000000   0.0000000   0.0000000   0.0000000   0.0000000   0.0000000
 NMagM=    0.0000000   0.0000000   0.0000000   0.0000000   0.0000000   0.0000000
 AtZNuc=   0.0000000   0.0000000   0.0000000   0.0000000   0.0000000   0.0000000
 Leave Link  101 at Tue Sep 15 14:25:34 2020, MaxMem=   131072000 cpu:         3.0
 (Enter /share/programs/GAUSSIAN/64/g09/l202.exe)
 Symmetry turned off:
 Cannot cope with ghost atoms or with translation vectors.
 Stoichiometry    C22H14
 Framework group  C1[X(C22H14)]
 NUMDOF-- NAT=    36 NAtoms=   236
 Deg. of freedom     0
 Full point group                 C1      NOp   1
                          Input orientation:                          
 ---------------------------------------------------------------------
 Center     Atomic      Atomic             Coordinates (Angstroms)
 Number     Number       Type             X           Y           Z
 ---------------------------------------------------------------------
      1          6           0        0.653241    3.257859   -0.202510
      2          6           0       -0.653243    3.257860    0.202510
      3          6           0        1.372495    2.032956   -0.320807
      4          6           0       -1.372495    2.032956    0.320807
      5          6           0        0.722474    0.795666   -0.050388
      6          6           0       -0.722474    0.795667    0.050387
      7          6           0        2.760385    2.053927   -0.674268
      8          6           0        3.508866    0.913916   -0.671362
      9          6           0        2.955226   -0.309622   -0.177479
     10          6           0        1.574722   -0.361114    0.197094
     11          1           0        1.183427    4.195740   -0.384599
     12          1           0       -1.183429    4.195740    0.384599
     13          1           0        3.206283    3.012423   -0.951392
     14          1           0        4.560023    0.932956   -0.969333
     15          6           0        3.783020   -1.443098    0.028309
     16          6           0        1.137427   -1.507533    0.912109
     17          6           0        1.973691   -2.584349    1.138062
     18          6           0        3.301853   -2.571588    0.661177
     19          1           0        4.825754   -1.391230   -0.295484
     20          1           0        0.124652   -1.532788    1.308472
     21          1           0        1.603586   -3.445682    1.698977
     22          1           0        3.952742   -3.433526    0.825134
     23          6           0       -3.508866    0.913915    0.671362
     24          6           0       -2.760386    2.053926    0.674268
     25          6           0       -2.955226   -0.309623    0.177479
     26          6           0       -1.574722   -0.361114   -0.197094
     27          6           0       -3.783020   -1.443099   -0.028309
     28          6           0       -3.301852   -2.571589   -0.661177
     29          6           0       -1.973690   -2.584349   -1.138061
     30          6           0       -1.137426   -1.507534   -0.912109
     31          1           0       -4.560022    0.932954    0.969334
     32          1           0       -3.206283    3.012421    0.951392
     33          1           0       -4.825754   -1.391232    0.295484
     34          1           0       -3.952741   -3.433528   -0.825134
     35          1           0       -1.603585   -3.445682   -1.698976
     36          1           0       -0.124652   -1.532788   -1.308471
     37          0           0       -2.214291    0.967327   -0.708577
     38          0           0       -2.228487    0.957841   -0.708577
     39          0           0       -2.241324    0.946584   -0.708577
     40          0           0       -2.252582    0.933747   -0.708577
     41          0           0       -2.262067    0.919551   -0.708577
     42          0           0       -2.269619    0.904238   -0.708577
     43          0           0       -2.275107    0.888070   -0.708577
     44          0           0       -2.278438    0.871325   -0.708577
     45          0           0       -2.279554    0.854288   -0.708577
     46          0           0       -2.278438    0.837251   -0.708577
     47          0           0       -2.275107    0.820505   -0.708577
     48          0           0       -2.269619    0.804338   -0.708577
     49          0           0       -2.262067    0.789025   -0.708577
     50          0           0       -2.252582    0.774829   -0.708577
     51          0           0       -2.241324    0.761992   -0.708577
     52          0           0       -2.228487    0.750734   -0.708577
     53          0           0       -2.214291    0.741249   -0.708577
     54          0           0       -2.198978    0.733697   -0.708577
     55          0           0       -2.182811    0.728209   -0.708577
     56          0           0       -2.166065    0.724878   -0.708577
     57          0           0       -2.149028    0.723762   -0.708577
     58          0           0       -2.131991    0.724878   -0.708577
     59          0           0       -2.115246    0.728209   -0.708577
     60          0           0       -2.099078    0.733697   -0.708577
     61          0           0       -2.083765    0.741249   -0.708577
     62          0           0       -2.069569    0.750734   -0.708577
     63          0           0       -2.056732    0.761992   -0.708577
     64          0           0       -2.045475    0.774829   -0.708577
     65          0           0       -2.035989    0.789025   -0.708577
     66          0           0       -2.028438    0.804338   -0.708577
     67          0           0       -2.022950    0.820505   -0.708577
     68          0           0       -2.019619    0.837251   -0.708577
     69          0           0        0.000000    2.028827    1.000000
     70          0           0        0.000000    2.028827    1.000000
     71          0           0        0.000000    2.028827    1.000000
     72          0           0        0.000000    2.028827    1.000000
     73          0           0        0.000000    2.028827    1.000000
     74          0           0        0.000000    2.028827    1.000000
     75          0           0        0.000000    2.028827    1.000000
     76          0           0        0.000000    2.028827    1.000000
     77          0           0        0.000000    2.028827    1.000000
     78          0           0        0.000000    2.028827    1.000000
     79          0           0        0.000000    2.028827    1.000000
     80          0           0        0.000000    2.028827    1.000000
     81          0           0        0.000000    2.028827    1.000000
     82          0           0        0.000000    2.028827    1.000000
     83          0           0        0.000000    2.028827    1.000000
     84          0           0        0.000000    2.028827    1.000000
     85          0           0        0.000000    2.028827    1.000000
     86          0           0        0.000000    2.028827    1.000000
     87          0           0        0.000000    2.028827    1.000000
     88          0           0        0.000000    2.028827    1.000000
     89          0           0        0.000000    2.028827    1.000000
     90          0           0        0.000000    2.028827    1.000000
     91          0           0        0.000000    2.028827    1.000000
     92          0           0        0.000000    2.028827    1.000000
     93          0           0        0.000000    2.028827    1.000000
     94          0           0        0.000000    2.028827    1.000000
     95          0           0        0.000000    2.028827    1.000000
     96          0           0        0.000000    2.028827    1.000000
     97          0           0        0.000000    2.028827    1.000000
     98          0           0        0.000000    2.028827    1.000000
     99          0           0        0.000000    2.028827    1.000000
    100          0           0        0.000000    2.028827    1.000000
    101          0           0        0.000000    2.028827    1.000000
    102          0           0        0.000000    2.028827    1.000000
    103          0           0        0.000000    2.028827    1.000000
    104          0           0        0.000000    2.028827    1.000000
    105          0           0        0.000000    2.028827    1.000000
    106          0           0        0.000000    2.028827    1.000000
    107          0           0        0.000000    2.028827    1.000000
    108          0           0        0.000000    2.028827    1.000000
    109          0           0        0.000000    2.028827    1.000000
    110          0           0        0.000000    2.028827    1.000000
    111          0           0        0.000000    2.028827    1.000000
    112          0           0        0.000000    2.028827    1.000000
    113          0           0        0.000000    2.028827    1.000000
    114          0           0        0.000000    2.028827    1.000000
    115          0           0        0.000000    2.028827    1.000000
    116          0           0        0.000000    2.028827    1.000000
    117          0           0        0.130526    2.028827    0.991445
    118          0           0        0.129409    2.045864    0.991445
    119          0           0        0.126078    2.062610    0.991445
    120          0           0        0.120590    2.078778    0.991445
    121          0           0        0.113039    2.094090    0.991445
    122          0           0        0.103553    2.108287    0.991445
    123          0           0        0.092296    2.121123    0.991445
    124          0           0        0.079459    2.132381    0.991445
    125          0           0        0.065263    2.141866    0.991445
    126          0           0        0.049950    2.149418    0.991445
    127          0           0        0.033782    2.154906    0.991445
    128          0           0        0.017037    2.158237    0.991445
    129          0           0        0.000000    2.159354    0.991445
    130          0           0       -0.017037    2.158237    0.991445
    131          0           0       -0.033783    2.154906    0.991445
    132          0           0       -0.049951    2.149418    0.991445
    133          0           0       -0.065263    2.141866    0.991445
    134          0           0       -0.079460    2.132381    0.991445
    135          0           0       -0.092296    2.121123    0.991445
    136          0           0       -0.103554    2.108287    0.991445
    137          0           0       -0.113039    2.094090    0.991445
    138          0           0       -0.120591    2.078778    0.991445
    139          0           0       -0.126079    2.062610    0.991445
    140          0           0       -0.129410    2.045864    0.991445
    141          0           0       -0.130527    2.028827    0.991445
    142          0           0       -0.129410    2.011790    0.991445
    143          0           0       -0.126079    1.995045    0.991445
    144          0           0       -0.120591    1.978877    0.991445
    145          0           0       -0.113039    1.963564    0.991445
    146          0           0       -0.103554    1.949368    0.991445
    147          0           0       -0.092296    1.936531    0.991445
    148          0           0       -0.079460    1.925274    0.991445
    149          0           0       -0.065263    1.915788    0.991445
    150          0           0       -0.049951    1.908237    0.991445
    151          0           0       -0.033783    1.902749    0.991445
    152          0           0       -0.017037    1.899418    0.991445
    153          0           0        0.000000    1.898301    0.991445
    154          0           0        0.017037    1.899418    0.991445
    155          0           0        0.033782    1.902749    0.991445
    156          0           0        0.049950    1.908237    0.991445
    157          0           0        0.065263    1.915788    0.991445
    158          0           0        0.079459    1.925274    0.991445
    159          0           0        0.092296    1.936531    0.991445
    160          0           0        0.103553    1.949368    0.991445
    161          0           0        0.113039    1.963564    0.991445
    162          0           0        0.120590    1.978877    0.991445
    163          0           0        0.126078    1.995045    0.991445
    164          0           0        0.129409    2.011790    0.991445
    165          0           0        0.258819    2.028827    0.965926
    166          0           0        0.256604    2.062610    0.965926
    167          0           0        0.250000    2.095815    0.965926
    168          0           0        0.239117    2.127873    0.965926
    169          0           0        0.224144    2.158237    0.965926
    170          0           0        0.205335    2.186386    0.965926
    171          0           0        0.183012    2.211840    0.965926
    172          0           0        0.157559    2.234162    0.965926
    173          0           0        0.129409    2.252971    0.965926
    174          0           0        0.099045    2.267945    0.965926
    175          0           0        0.066987    2.278827    0.965926
    176          0           0        0.033782    2.285432    0.965926
    177          0           0        0.000000    2.287646    0.965926
    178          0           0       -0.033783    2.285432    0.965926
    179          0           0       -0.066988    2.278827    0.965926
    180          0           0       -0.099046    2.267945    0.965926
    181          0           0       -0.129410    2.252971    0.965926
    182          0           0       -0.157559    2.234162    0.965926
    183          0           0       -0.183013    2.211840    0.965926
    184          0           0       -0.205335    2.186386    0.965926
    185          0           0       -0.224144    2.158237    0.965926
    186          0           0       -0.239118    2.127873    0.965926
    187          0           0       -0.250000    2.095815    0.965926
    188          0           0       -0.256605    2.062610    0.965926
    189          0           0       -0.258819    2.028827    0.965926
    190          0           0       -0.256605    1.995045    0.965926
    191          0           0       -0.250000    1.961840    0.965926
    192          0           0       -0.239118    1.929782    0.965926
    193          0           0       -0.224144    1.899418    0.965926
    194          0           0       -0.205335    1.871268    0.965926
    195          0           0       -0.183013    1.845815    0.965926
    196          0           0       -0.157559    1.823492    0.965926
    197          0           0       -0.129410    1.804683    0.965926
    198          0           0       -0.099046    1.789710    0.965926
    199          0           0       -0.066988    1.778827    0.965926
    200          0           0       -0.033783    1.772223    0.965926
    201          0           0        0.000000    1.770008    0.965926
    202          0           0        0.033782    1.772223    0.965926
    203          0           0        0.066987    1.778827    0.965926
    204          0           0        0.099045    1.789710    0.965926
    205          0           0        0.129409    1.804683    0.965926
    206          0           0        0.157559    1.823492    0.965926
    207          0           0        0.183012    1.845815    0.965926
    208          0           0        0.205335    1.871268    0.965926
    209          0           0        0.224144    1.899418    0.965926
    210          0           0        0.239117    1.929782    0.965926
    211          0           0        0.250000    1.961840    0.965926
    212          0           0        0.256604    1.995045    0.965926
    213          0           0        0.382683    2.028827    0.923879
    214          0           0        0.379409    2.078778    0.923879
    215          0           0        0.369643    2.127873    0.923879
    216          0           0        0.353553    2.175274    0.923879
    217          0           0        0.331413    2.220169    0.923879
    218          0           0        0.303603    2.261790    0.923879
    219          0           0        0.270598    2.299425    0.923879
    220          0           0        0.232963    2.332431    0.923879
    221          0           0        0.191341    2.360241    0.923879
    222          0           0        0.146446    2.382381    0.923879
    223          0           0        0.099045    2.398471    0.923879
    224          0           0        0.049950    2.408237    0.923879
    225          0           0        0.000000    2.411511    0.923879
    226          0           0       -0.049951    2.408237    0.923879
    227          0           0       -0.099046    2.398471    0.923879
    228          0           0       -0.146447    2.382381    0.923879
    229          0           0       -0.191342    2.360241    0.923879
    230          0           0       -0.232963    2.332431    0.923879
    231          0           0       -0.270598    2.299425    0.923879
    232          0           0       -0.303604    2.261790    0.923879
    233          0           0       -0.331414    2.220169    0.923879
    234          0           0       -0.353554    2.175274    0.923879
    235          0           0       -0.369644    2.127873    0.923879
    236          0           0       -0.379410    2.078778    0.923879
 ---------------------------------------------------------------------
 Rotational constants (GHZ):      0.4454681      0.2811480      0.1854303
 Leave Link  202 at Tue Sep 15 14:25:34 2020, MaxMem=   131072000 cpu:         0.0
 (Enter /share/programs/GAUSSIAN/64/g09/l301.exe)
 Standard basis: 6-311+G(d,p) (5D, 7F)
 Warning:  center  37 has no basis functions!
 Warning:  center  38 has no basis functions!
 Warning:  center  39 has no basis functions!
 Warning:  center  40 has no basis functions!
 Warning:  center  41 has no basis functions!
 Warning:  center  42 has no basis functions!
 Warning:  center  43 has no basis functions!
 Warning:  center  44 has no basis functions!
 Warning:  center  45 has no basis functions!
 Warning:  center  46 has no basis functions!
 Warning:  center  47 has no basis functions!
 Warning:  center  48 has no basis functions!
 Warning:  center  49 has no basis functions!
 Warning:  center  50 has no basis functions!
 Warning:  center  51 has no basis functions!
 Warning:  center  52 has no basis functions!
 Warning:  center  53 has no basis functions!
 Warning:  center  54 has no basis functions!
 Warning:  center  55 has no basis functions!
 Warning:  center  56 has no basis functions!
 Warning:  center  57 has no basis functions!
 Warning:  center  58 has no basis functions!
 Warning:  center  59 has no basis functions!
 Warning:  center  60 has no basis functions!
 Warning:  center  61 has no basis functions!
 Warning:  center  62 has no basis functions!
 Warning:  center  63 has no basis functions!
 Warning:  center  64 has no basis functions!
 Warning:  center  65 has no basis functions!
 Warning:  center  66 has no basis functions!
 Warning:  center  67 has no basis functions!
 Warning:  center  68 has no basis functions!
 Warning:  center  69 has no basis functions!
 Warning:  center  70 has no basis functions!
 Warning:  center  71 has no basis functions!
 Warning:  center  72 has no basis functions!
 Warning:  center  73 has no basis functions!
 Warning:  center  74 has no basis functions!
 Warning:  center  75 has no basis functions!
 Warning:  center  76 has no basis functions!
 Warning:  center  77 has no basis functions!
 Warning:  center  78 has no basis functions!
 Warning:  center  79 has no basis functions!
 Warning:  center  80 has no basis functions!
 Warning:  center  81 has no basis functions!
 Warning:  center  82 has no basis functions!
 Warning:  center  83 has no basis functions!
 Warning:  center  84 has no basis functions!
 Warning:  center  85 has no basis functions!
 Warning:  center  86 has no basis functions!
 Warning:  center  87 has no basis functions!
 Warning:  center  88 has no basis functions!
 Warning:  center  89 has no basis functions!
 Warning:  center  90 has no basis functions!
 Warning:  center  91 has no basis functions!
 Warning:  center  92 has no basis functions!
 Warning:  center  93 has no basis functions!
 Warning:  center  94 has no basis functions!
 Warning:  center  95 has no basis functions!
 Warning:  center  96 has no basis functions!
 Warning:  center  97 has no basis functions!
 Warning:  center  98 has no basis functions!
 Warning:  center  99 has no basis functions!
 Warning:  center 100 has no basis functions!
 Warning:  center 101 has no basis functions!
 Warning:  center 102 has no basis functions!
 Warning:  center 103 has no basis functions!
 Warning:  center 104 has no basis functions!
 Warning:  center 105 has no basis functions!
 Warning:  center 106 has no basis functions!
 Warning:  center 107 has no basis functions!
 Warning:  center 108 has no basis functions!
 Warning:  center 109 has no basis functions!
 Warning:  center 110 has no basis functions!
 Warning:  center 111 has no basis functions!
 Warning:  center 112 has no basis functions!
 Warning:  center 113 has no basis functions!
 Warning:  center 114 has no basis functions!
 Warning:  center 115 has no basis functions!
 Warning:  center 116 has no basis functions!
 Warning:  center 117 has no basis functions!
 Warning:  center 118 has no basis functions!
 Warning:  center 119 has no basis functions!
 Warning:  center 120 has no basis functions!
 Warning:  center 121 has no basis functions!
 Warning:  center 122 has no basis functions!
 Warning:  center 123 has no basis functions!
 Warning:  center 124 has no basis functions!
 Warning:  center 125 has no basis functions!
 Warning:  center 126 has no basis functions!
 Warning:  center 127 has no basis functions!
 Warning:  center 128 has no basis functions!
 Warning:  center 129 has no basis functions!
 Warning:  center 130 has no basis functions!
 Warning:  center 131 has no basis functions!
 Warning:  center 132 has no basis functions!
 Warning:  center 133 has no basis functions!
 Warning:  center 134 has no basis functions!
 Warning:  center 135 has no basis functions!
 Warning:  center 136 has no basis functions!
 Warning:  center 137 has no basis functions!
 Warning:  center 138 has no basis functions!
 Warning:  center 139 has no basis functions!
 Warning:  center 140 has no basis functions!
 Warning:  center 141 has no basis functions!
 Warning:  center 142 has no basis functions!
 Warning:  center 143 has no basis functions!
 Warning:  center 144 has no basis functions!
 Warning:  center 145 has no basis functions!
 Warning:  center 146 has no basis functions!
 Warning:  center 147 has no basis functions!
 Warning:  center 148 has no basis functions!
 Warning:  center 149 has no basis functions!
 Warning:  center 150 has no basis functions!
 Warning:  center 151 has no basis functions!
 Warning:  center 152 has no basis functions!
 Warning:  center 153 has no basis functions!
 Warning:  center 154 has no basis functions!
 Warning:  center 155 has no basis functions!
 Warning:  center 156 has no basis functions!
 Warning:  center 157 has no basis functions!
 Warning:  center 158 has no basis functions!
 Warning:  center 159 has no basis functions!
 Warning:  center 160 has no basis functions!
 Warning:  center 161 has no basis functions!
 Warning:  center 162 has no basis functions!
 Warning:  center 163 has no basis functions!
 Warning:  center 164 has no basis functions!
 Warning:  center 165 has no basis functions!
 Warning:  center 166 has no basis functions!
 Warning:  center 167 has no basis functions!
 Warning:  center 168 has no basis functions!
 Warning:  center 169 has no basis functions!
 Warning:  center 170 has no basis functions!
 Warning:  center 171 has no basis functions!
 Warning:  center 172 has no basis functions!
 Warning:  center 173 has no basis functions!
 Warning:  center 174 has no basis functions!
 Warning:  center 175 has no basis functions!
 Warning:  center 176 has no basis functions!
 Warning:  center 177 has no basis functions!
 Warning:  center 178 has no basis functions!
 Warning:  center 179 has no basis functions!
 Warning:  center 180 has no basis functions!
 Warning:  center 181 has no basis functions!
 Warning:  center 182 has no basis functions!
 Warning:  center 183 has no basis functions!
 Warning:  center 184 has no basis functions!
 Warning:  center 185 has no basis functions!
 Warning:  center 186 has no basis functions!
 Warning:  center 187 has no basis functions!
 Warning:  center 188 has no basis functions!
 Warning:  center 189 has no basis functions!
 Warning:  center 190 has no basis functions!
 Warning:  center 191 has no basis functions!
 Warning:  center 192 has no basis functions!
 Warning:  center 193 has no basis functions!
 Warning:  center 194 has no basis functions!
 Warning:  center 195 has no basis functions!
 Warning:  center 196 has no basis functions!
 Warning:  center 197 has no basis functions!
 Warning:  center 198 has no basis functions!
 Warning:  center 199 has no basis functions!
 Warning:  center 200 has no basis functions!
 Warning:  center 201 has no basis functions!
 Warning:  center 202 has no basis functions!
 Warning:  center 203 has no basis functions!
 Warning:  center 204 has no basis functions!
 Warning:  center 205 has no basis functions!
 Warning:  center 206 has no basis functions!
 Warning:  center 207 has no basis functions!
 Warning:  center 208 has no basis functions!
 Warning:  center 209 has no basis functions!
 Warning:  center 210 has no basis functions!
 Warning:  center 211 has no basis functions!
 Warning:  center 212 has no basis functions!
 Warning:  center 213 has no basis functions!
 Warning:  center 214 has no basis functions!
 Warning:  center 215 has no basis functions!
 Warning:  center 216 has no basis functions!
 Warning:  center 217 has no basis functions!
 Warning:  center 218 has no basis functions!
 Warning:  center 219 has no basis functions!
 Warning:  center 220 has no basis functions!
 Warning:  center 221 has no basis functions!
 Warning:  center 222 has no basis functions!
 Warning:  center 223 has no basis functions!
 Warning:  center 224 has no basis functions!
 Warning:  center 225 has no basis functions!
 Warning:  center 226 has no basis functions!
 Warning:  center 227 has no basis functions!
 Warning:  center 228 has no basis functions!
 Warning:  center 229 has no basis functions!
 Warning:  center 230 has no basis functions!
 Warning:  center 231 has no basis functions!
 Warning:  center 232 has no basis functions!
 Warning:  center 233 has no basis functions!
 Warning:  center 234 has no basis functions!
 Warning:  center 235 has no basis functions!
 Warning:  center 236 has no basis functions!
 Ernie: Thresh=  0.10000D-02 Tol=  0.10000D-05 Strict=F.
   568 basis functions,   904 primitive gaussians,   590 cartesian basis functions
    73 alpha electrons       73 beta electrons
       nuclear repulsion energy      1599.9156270972 Hartrees.
 IExCor=  402 DFT=T Ex+Corr=B3LYP ExCW=0 ScaHFX=  0.200000
 ScaDFX=  0.800000  0.720000  1.000000  0.810000 ScalE2=  1.000000  1.000000
 IRadAn=      0 IRanWt=     -1 IRanGd=            0 ICorTp=0 IEmpDi=  4
 NAtoms=  236 NActive=  236 NUniq=  236 SFac= 1.00D+00 NAtFMM=   60 NAOKFM=T Big=T
 Integral buffers will be    131072 words long.
 Raffenetti 2 integral format.
 Two-electron integral symmetry is turned off.
 Leave Link  301 at Tue Sep 15 14:25:35 2020, MaxMem=   131072000 cpu:         0.5
 (Enter /share/programs/GAUSSIAN/64/g09/l302.exe)
 NPDir=0 NMtPBC=     1 NCelOv=     1 NCel=       1 NClECP=     1 NCelD=      1
         NCelK=      1 NCelE2=     1 NClLst=     1 CellRange=     0.0.
 One-electron integrals computed using PRISM.
 NBasis=   568 RedAO= T EigKep=  1.01D-06  NBF=   568
 NBsUse=   557 1.00D-06 EigRej=  9.19D-07 NBFU=   557
 Precomputing XC quadrature grid using
 IXCGrd= 4 IRadAn=           0 IRanWt=          -1 IRanGd=           0 AccXCQ= 0.00D+00.
 Generated NRdTot=       0 NPtTot=           0 NUsed=           0 NTot=          32
 NSgBfM=   587   588   588   589   589 MxSgAt=   236 MxSgA2=    36.
 Leave Link  302 at Tue Sep 15 14:25:36 2020, MaxMem=   131072000 cpu:        14.5
 (Enter /share/programs/GAUSSIAN/64/g09/l308.exe)
 Leave Link  308 at Tue Sep 15 14:25:37 2020, MaxMem=   131072000 cpu:         0.9
 (Enter /share/programs/GAUSSIAN/64/g09/l303.exe)
 DipDrv:  MaxL=1.
 Leave Link  303 at Tue Sep 15 14:25:37 2020, MaxMem=   131072000 cpu:         0.6
 (Enter /share/programs/GAUSSIAN/64/g09/l401.exe)
 Initial guess from the checkpoint file:  "/scratch/aartigas.39216/Gau-986.chk"
 Skipping rotation of guess because NAtoms(RWF)=  236 differs from NAtoms(Chk)=   36.
 Guess basis will be translated and rotated to current coordinates.
 JPrj=2 DoOrth=T DoCkMO=T.
 Leave Link  401 at Tue Sep 15 14:25:38 2020, MaxMem=   131072000 cpu:        10.0
 (Enter /share/programs/GAUSSIAN/64/g09/l502.exe)
 Closed shell SCF:
 Using DIIS extrapolation, IDIIS=  1040.
 Two-electron integral symmetry not used.
 IVT=     1071582 IEndB=     1071582 NGot=   131072000 MDV=   130365749
 LenX=   130365749 LenY=   130017059
 Requested convergence on RMS density matrix=1.00D-08 within 128 cycles.
 Requested convergence on MAX density matrix=1.00D-06.
 Requested convergence on             energy=1.00D-06.
 No special actions if energy rises.
 Fock matrices will be formed incrementally for  20 cycles.

 Cycle   1  Pass 1  IDiag  1:
 FoFJK:  IHMeth= 1 ICntrl=       0 DoSepK=F KAlg= 0 I1Cent=   0 FoldK=F
 IRaf= 940000000 NMat=   1 IRICut=       1 DoRegI=T DoRafI=F ISym2E= 0.
 FoFCou: FMM=T IPFlag=           0 FMFlag=      100000 FMFlg1=        2001
         NFxFlg=           0 DoJE=F BraDBF=F KetDBF=F FulRan=T
         wScrn=  0.000000 ICntrl=       0 IOpCl=  0 I1Cent=           0 NGrid=           0
         NMat0=    1 NMatS0=      1 NMatT0=    0 NMatD0=    1 NMtDS0=    0 NMtDT0=    0
 Symmetry not used in FoFCou.
 FMM levels:  10  Number of levels for PrismC:   9
 E= -847.003738666969    
 DIIS: error= 5.05D-08 at cycle   1 NSaved=   1.
 NSaved= 1 IEnMin= 1 EnMin= -847.003738666969     IErMin= 1 ErrMin= 5.05D-08
 ErrMax= 5.05D-08  0.00D+00 EMaxC= 1.00D-01 BMatC= 3.55D-12 BMatP= 3.55D-12
 IDIUse=1 WtCom= 1.00D+00 WtEn= 0.00D+00
 Coeff-Com:  0.100D+01
 Coeff:      0.100D+01
 Gap=     0.151 Goal=   None    Shift=    0.000
 RMSDP=2.88D-07 MaxDP=1.33D-05              OVMax= 3.94D-07

 Cycle   2  Pass 1  IDiag  1:
 RMSU=  2.85D-07    CP:  1.00D+00
 E= -847.003738666769     Delta-E=        0.000000000200 Rises=F Damp=F
 DIIS: error= 1.42D-08 at cycle   2 NSaved=   2.
 NSaved= 2 IEnMin= 1 EnMin= -847.003738666969     IErMin= 2 ErrMin= 1.42D-08
 ErrMax= 1.42D-08  0.00D+00 EMaxC= 1.00D-01 BMatC= 2.13D-13 BMatP= 3.55D-12
 IDIUse=1 WtCom= 1.00D+00 WtEn= 0.00D+00
 Coeff-Com:  0.627D-01 0.937D+00
 Coeff:      0.627D-01 0.937D+00
 Gap=     0.151 Goal=   None    Shift=    0.000
 RMSDP=1.57D-08 MaxDP=7.83D-07 DE= 2.00D-10 OVMax= 3.02D-07

 Cycle   3  Pass 1  IDiag  1:
 RMSU=  1.32D-08    CP:  1.00D+00  1.02D+00
 E= -847.003738666873     Delta-E=       -0.000000000104 Rises=F Damp=F
 DIIS: error= 2.51D-08 at cycle   3 NSaved=   3.
 NSaved= 3 IEnMin= 1 EnMin= -847.003738666969     IErMin= 2 ErrMin= 1.42D-08
 ErrMax= 2.51D-08  0.00D+00 EMaxC= 1.00D-01 BMatC= 5.05D-13 BMatP= 2.13D-13
 IDIUse=1 WtCom= 1.00D+00 WtEn= 0.00D+00
 Coeff-Com: -0.107D-01 0.616D+00 0.395D+00
 Coeff:     -0.107D-01 0.616D+00 0.395D+00
 Gap=     0.151 Goal=   None    Shift=    0.000
 RMSDP=1.03D-08 MaxDP=4.13D-07 DE=-1.04D-10 OVMax= 2.17D-07

 Cycle   4  Pass 1  IDiag  1:
 RMSU=  5.82D-09    CP:  1.00D+00  1.02D+00  3.88D-01
 E= -847.003738666881     Delta-E=       -0.000000000008 Rises=F Damp=F
 DIIS: error= 8.06D-09 at cycle   4 NSaved=   4.
 NSaved= 4 IEnMin= 1 EnMin= -847.003738666969     IErMin= 4 ErrMin= 8.06D-09
 ErrMax= 8.06D-09  0.00D+00 EMaxC= 1.00D-01 BMatC= 2.07D-14 BMatP= 2.13D-13
 IDIUse=1 WtCom= 1.00D+00 WtEn= 0.00D+00
 Coeff-Com: -0.876D-02 0.309D+00 0.241D+00 0.459D+00
 Coeff:     -0.876D-02 0.309D+00 0.241D+00 0.459D+00
 Gap=     0.151 Goal=   None    Shift=    0.000
 RMSDP=4.09D-09 MaxDP=1.53D-07 DE=-8.19D-12 OVMax= 6.88D-08

 SCF Done:  E(RB3LYP) =  -847.003738667     A.U. after    4 cycles
            NFock=  4  Conv=0.41D-08     -V/T= 2.0049
 KE= 8.428349970567D+02 PE=-5.164192584015D+03 EE= 1.874438221195D+03
 Leave Link  502 at Tue Sep 15 14:27:20 2020, MaxMem=   131072000 cpu:       810.4
 (Enter /share/programs/GAUSSIAN/64/g09/l801.exe)
 DoSCS=F DFT=T ScalE2(SS,OS)=  1.000000  1.000000
 Range of M.O.s used for correlation:     1   557
 NBasis=   568 NAE=    73 NBE=    73 NFC=     0 NFV=     0
 NROrb=    557 NOA=    73 NOB=    73 NVA=   484 NVB=   484

 **** Warning!!: The largest alpha MO coefficient is  0.14271945D+03

 Leave Link  801 at Tue Sep 15 14:27:20 2020, MaxMem=   131072000 cpu:         0.2
 (Enter /share/programs/GAUSSIAN/64/g09/l1002.exe)
 Minotr:  Closed shell wavefunction.
          Direct CPHF calculation.
          Differentiating once with respect to magnetic field using GIAOs.
          Electric field/nuclear overlap derivatives assumed to be zero.
          Requested convergence is 1.0D-08 RMS, and 1.0D-07 maximum.
          Secondary convergence is 1.0D-12 RMS, and 1.0D-12 maximum.
          NewPWx=T KeepS1=F KeepF1=F KeepIn=T MapXYZ=F SortEE=F KeepMc=T.
          MDV=     131069551 using IRadAn=       2.
 Generate precomputed XC quadrature information.
          Solving linear equations simultaneously, MaxMat=      72.
 FoFCou: FMM=F IPFlag=           0 FMFlag=      100000 FMFlg1=        2001
         NFxFlg=           0 DoJE=F BraDBF=F KetDBF=T FulRan=T
         wScrn=  0.000000 ICntrl=    6100 IOpCl=  0 I1Cent=           7 NGrid=         236
         NMat0=    1 NMatS0=      1 NMatT0=    0 NMatD0=    1 NMtDS0=    0 NMtDT0=    0
 Symmetry not used in FoFCou.
 FoFJK:  IHMeth= 1 ICntrl=    6127 DoSepK=F KAlg= 0 I1Cent=   0 FoldK=F
 IRaf=         1 NMat=   1 IRICut=       1 DoRegI=T DoRafI=F ISym2E= 0.
          There are     3 degrees of freedom in the 1st order CPHF.  IDoFFX=0 NUNeed=     3.
      3 vectors produced by pass  0 Test12= 1.18D-12 3.33D-08 XBig12= 1.96D+03 8.77D+00.
 AX will form     3 AO Fock derivatives at one time.
      3 vectors produced by pass  1 Test12= 1.18D-12 3.33D-08 XBig12= 3.18D+00 7.58D-01.
      3 vectors produced by pass  2 Test12= 1.18D-12 3.33D-08 XBig12= 1.86D-02 5.85D-02.
      3 vectors produced by pass  3 Test12= 1.18D-12 3.33D-08 XBig12= 4.29D-05 1.35D-03.
      3 vectors produced by pass  4 Test12= 1.18D-12 3.33D-08 XBig12= 9.75D-08 7.22D-05.
      3 vectors produced by pass  5 Test12= 1.18D-12 3.33D-08 XBig12= 3.97D-10 5.92D-06.
      3 vectors produced by pass  6 Test12= 1.18D-12 3.33D-08 XBig12= 1.51D-12 4.40D-07.
 InvSVY:  IOpt=1 It=  1 EMax= 7.11D-15
 Solved reduced A of dimension    21 with     3 vectors.
 Calculating GIAO nuclear magnetic shielding tensors.
 SCF GIAO Magnetic shielding tensor (ppm):
      1  C    Isotropic =    49.6861   Anisotropy =   149.7970
   XX=    46.3088   YX=   -25.0950   ZX=    31.4786
   XY=   -31.1109   YY=   -39.0339   ZY=    13.2621
   XZ=    24.9178   YZ=     8.9888   ZZ=   141.7833
   Eigenvalues:   -49.3507    48.8581   149.5507
      2  C    Isotropic =    49.6861   Anisotropy =   149.7971
   XX=    46.3088   YX=    25.0953   ZX=    31.4786
   XY=    31.1111   YY=   -39.0339   ZY=   -13.2621
   XZ=    24.9177   YZ=    -8.9889   ZZ=   141.7834
   Eigenvalues:   -49.3508    48.8583   149.5509
      3  C    Isotropic =    44.4899   Anisotropy =   204.7372
   XX=   -22.2199   YX=    10.8075   ZX=    51.2710
   XY=     4.9259   YY=   -14.7126   ZY=    14.7921
   XZ=    32.3655   YZ=    21.2392   ZZ=   170.4022
   Eigenvalues:   -31.9593   -15.5523   180.9814
      4  C    Isotropic =    44.4899   Anisotropy =   204.7373
   XX=   -22.2198   YX=   -10.8075   ZX=    51.2710
   XY=    -4.9256   YY=   -14.7126   ZY=   -14.7922
   XZ=    32.3656   YZ=   -21.2393   ZZ=   170.4023
   Eigenvalues:   -31.9592   -15.5524   180.9815
      5  C    Isotropic =    48.5420   Anisotropy =   189.5490
   XX=   -14.6790   YX=     4.7342   ZX=     8.4333
   XY=    20.3759   YY=    -5.5375   ZY=    31.5121
   XZ=    65.1218   YZ=     0.8640   ZZ=   165.8426
   Eigenvalues:   -26.3226    -2.9593   174.9080
      6  C    Isotropic =    48.5421   Anisotropy =   189.5489
   XX=   -14.6789   YX=    -4.7340   ZX=     8.4335
   XY=   -20.3758   YY=    -5.5374   ZY=   -31.5121
   XZ=    65.1218   YZ=    -0.8638   ZZ=   165.8426
   Eigenvalues:   -26.3224    -2.9594   174.9080
      7  C    Isotropic =    50.1907   Anisotropy =   149.2089
   XX=    19.7303   YX=   -44.2755   ZX=    41.2886
   XY=   -38.0437   YY=    -2.7069   ZY=    36.9011
   XZ=    36.5866   YZ=    37.5458   ZZ=   133.5487
   Eigenvalues:   -49.6656    50.5744   149.6633
      8  C    Isotropic =    48.9362   Anisotropy =   152.4339
   XX=   -31.5093   YX=   -11.4921   ZX=    54.7730
   XY=   -19.0468   YY=    46.5898   ZY=    27.5522
   XZ=    42.2451   YZ=    29.8391   ZZ=   131.7282
   Eigenvalues:   -50.1461    46.3960   150.5589
      9  C    Isotropic =    44.4204   Anisotropy =   209.3981
   XX=   -10.1987   YX=    16.7536   ZX=    44.4888
   XY=     8.9342   YY=    -7.7270   ZY=    61.4651
   XZ=    43.3269   YZ=    64.9792   ZZ=   151.1869
   Eigenvalues:   -30.3689   -20.3891   184.0192
     10  C    Isotropic =    45.3894   Anisotropy =   198.3236
   XX=    -5.9706   YX=    23.3819   ZX=    35.6519
   XY=    38.1954   YY=     1.7271   ZY=    73.1370
   XZ=    54.0013   YZ=    45.7045   ZZ=   140.4116
   Eigenvalues:   -33.5315    -7.9055   177.6051
     11  H    Isotropic =    23.8179   Anisotropy =     7.5674
   XX=    27.2191   YX=    -1.9090   ZX=    -2.2602
   XY=    -1.7961   YY=    24.8722   ZY=    -0.1966
   XZ=    -3.3763   YZ=    -0.1950   ZZ=    19.3625
   Eigenvalues:    18.3647    24.2263    28.8628
     12  H    Isotropic =    23.8179   Anisotropy =     7.5674
   XX=    27.2191   YX=     1.9090   ZX=    -2.2602
   XY=     1.7961   YY=    24.8722   ZY=     0.1966
   XZ=    -3.3763   YZ=     0.1950   ZZ=    19.3625
   Eigenvalues:    18.3647    24.2263    28.8628
     13  H    Isotropic =    23.8548   Anisotropy =     7.5124
   XX=    26.7195   YX=    -2.1358   ZX=    -2.0755
   XY=    -2.5603   YY=    25.7083   ZY=    -0.6280
   XZ=    -1.9329   YZ=     0.5158   ZZ=    19.1366
   Eigenvalues:    18.5807    24.1206    28.8631
     14  H    Isotropic =    23.6863   Anisotropy =     7.7303
[...]
   181  Bq   0.000000
   182  Bq   0.000000
   183  Bq   0.000000
   184  Bq   0.000000
   185  Bq   0.000000
   186  Bq   0.000000
   187  Bq   0.000000
   188  Bq   0.000000
   189  Bq   0.000000
   190  Bq   0.000000
   191  Bq   0.000000
   192  Bq   0.000000
   193  Bq   0.000000
   194  Bq   0.000000
   195  Bq   0.000000
   196  Bq   0.000000
   197  Bq   0.000000
   198  Bq   0.000000
   199  Bq   0.000000
   200  Bq   0.000000
   201  Bq   0.000000
   202  Bq   0.000000
   203  Bq   0.000000
   204  Bq   0.000000
   205  Bq   0.000000
   206  Bq   0.000000
   207  Bq   0.000000
   208  Bq   0.000000
   209  Bq   0.000000
   210  Bq   0.000000
   211  Bq   0.000000
   212  Bq   0.000000
   213  Bq   0.000000
   214  Bq   0.000000
   215  Bq   0.000000
   216  Bq   0.000000
   217  Bq   0.000000
   218  Bq   0.000000
   219  Bq   0.000000
   220  Bq   0.000000
   221  Bq   0.000000
   222  Bq   0.000000
   223  Bq   0.000000
   224  Bq   0.000000
   225  Bq   0.000000
   226  Bq   0.000000
   227  Bq   0.000000
   228  Bq   0.000000
   229  Bq   0.000000
   230  Bq   0.000000
   231  Bq   0.000000
   232  Bq   0.000000
   233  Bq   0.000000
   234  Bq   0.000000
   235  Bq   0.000000
   236  Bq   0.000000
 Sum of Mulliken charges =   0.00000
 Mulliken charges with hydrogens summed into heavy atoms:
               1
     1  C   -0.262865
     2  C   -0.262866
     3  C    0.737923
     4  C    0.737922
     5  C   -0.039994
     6  C   -0.040001
     7  C    0.075155
     8  C   -0.330147
     9  C    0.780501
    10  C   -0.200782
    15  C    0.249272
    16  C   -0.533462
    17  C   -0.189404
    18  C   -0.286191
    23  C   -0.330145
    24  C    0.075154
    25  C    0.780496
    26  C   -0.200782
    27  C    0.249273
    28  C   -0.286192
    29  C   -0.189403
    30  C   -0.533462
    37  Bq   0.000000
    38  Bq   0.000000
    39  Bq   0.000000
    40  Bq   0.000000
    41  Bq   0.000000
    42  Bq   0.000000
    43  Bq   0.000000
    44  Bq   0.000000
    45  Bq   0.000000
    46  Bq   0.000000
    47  Bq   0.000000
    48  Bq   0.000000
    49  Bq   0.000000
    50  Bq   0.000000
    51  Bq   0.000000
    52  Bq   0.000000
    53  Bq   0.000000
    54  Bq   0.000000
    55  Bq   0.000000
    56  Bq   0.000000
    57  Bq   0.000000
    58  Bq   0.000000
    59  Bq   0.000000
    60  Bq   0.000000
    61  Bq   0.000000
    62  Bq   0.000000
    63  Bq   0.000000
    64  Bq   0.000000
    65  Bq   0.000000
    66  Bq   0.000000
    67  Bq   0.000000
    68  Bq   0.000000
    69  Bq   0.000000
    70  Bq   0.000000
    71  Bq   0.000000
    72  Bq   0.000000
    73  Bq   0.000000
    74  Bq   0.000000
    75  Bq   0.000000
    76  Bq   0.000000
    77  Bq   0.000000
    78  Bq   0.000000
    79  Bq   0.000000
    80  Bq   0.000000
    81  Bq   0.000000
    82  Bq   0.000000
    83  Bq   0.000000
    84  Bq   0.000000
    85  Bq   0.000000
    86  Bq   0.000000
    87  Bq   0.000000
    88  Bq   0.000000
    89  Bq   0.000000
    90  Bq   0.000000
    91  Bq   0.000000
    92  Bq   0.000000
    93  Bq   0.000000
    94  Bq   0.000000
    95  Bq   0.000000
    96  Bq   0.000000
    97  Bq   0.000000
    98  Bq   0.000000
    99  Bq   0.000000
   100  Bq   0.000000
   101  Bq   0.000000
   102  Bq   0.000000
   103  Bq   0.000000
   104  Bq   0.000000
   105  Bq   0.000000
   106  Bq   0.000000
   107  Bq   0.000000
   108  Bq   0.000000
   109  Bq   0.000000
   110  Bq   0.000000
   111  Bq   0.000000
   112  Bq   0.000000
   113  Bq   0.000000
   114  Bq   0.000000
   115  Bq   0.000000
   116  Bq   0.000000
   117  Bq   0.000000
   118  Bq   0.000000
   119  Bq   0.000000
   120  Bq   0.000000
   121  Bq   0.000000
   122  Bq   0.000000
   123  Bq   0.000000
   124  Bq   0.000000
   125  Bq   0.000000
   126  Bq   0.000000
   127  Bq   0.000000
   128  Bq   0.000000
   129  Bq   0.000000
   130  Bq   0.000000
   131  Bq   0.000000
   132  Bq   0.000000
   133  Bq   0.000000
   134  Bq   0.000000
   135  Bq   0.000000
   136  Bq   0.000000
   137  Bq   0.000000
   138  Bq   0.000000
   139  Bq   0.000000
   140  Bq   0.000000
   141  Bq   0.000000
   142  Bq   0.000000
   143  Bq   0.000000
   144  Bq   0.000000
   145  Bq   0.000000
   146  Bq   0.000000
   147  Bq   0.000000
   148  Bq   0.000000
   149  Bq   0.000000
   150  Bq   0.000000
   151  Bq   0.000000
   152  Bq   0.000000
   153  Bq   0.000000
   154  Bq   0.000000
   155  Bq   0.000000
   156  Bq   0.000000
   157  Bq   0.000000
   158  Bq   0.000000
   159  Bq   0.000000
   160  Bq   0.000000
   161  Bq   0.000000
   162  Bq   0.000000
   163  Bq   0.000000
   164  Bq   0.000000
   165  Bq   0.000000
   166  Bq   0.000000
   167  Bq   0.000000
   168  Bq   0.000000
   169  Bq   0.000000
   170  Bq   0.000000
   171  Bq   0.000000
   172  Bq   0.000000
   173  Bq   0.000000
   174  Bq   0.000000
   175  Bq   0.000000
   176  Bq   0.000000
   177  Bq   0.000000
   178  Bq   0.000000
   179  Bq   0.000000
   180  Bq   0.000000
   181  Bq   0.000000
   182  Bq   0.000000
   183  Bq   0.000000
   184  Bq   0.000000
   185  Bq   0.000000
   186  Bq   0.000000
   187  Bq   0.000000
   188  Bq   0.000000
   189  Bq   0.000000
   190  Bq   0.000000
   191  Bq   0.000000
   192  Bq   0.000000
   193  Bq   0.000000
   194  Bq   0.000000
   195  Bq   0.000000
   196  Bq   0.000000
   197  Bq   0.000000
   198  Bq   0.000000
   199  Bq   0.000000
   200  Bq   0.000000
   201  Bq   0.000000
   202  Bq   0.000000
   203  Bq   0.000000
   204  Bq   0.000000
   205  Bq   0.000000
   206  Bq   0.000000
   207  Bq   0.000000
   208  Bq   0.000000
   209  Bq   0.000000
   210  Bq   0.000000
   211  Bq   0.000000
   212  Bq   0.000000
   213  Bq   0.000000
   214  Bq   0.000000
   215  Bq   0.000000
   216  Bq   0.000000
   217  Bq   0.000000
   218  Bq   0.000000
   219  Bq   0.000000
   220  Bq   0.000000
   221  Bq   0.000000
   222  Bq   0.000000
   223  Bq   0.000000
   224  Bq   0.000000
   225  Bq   0.000000
   226  Bq   0.000000
   227  Bq   0.000000
   228  Bq   0.000000
   229  Bq   0.000000
   230  Bq   0.000000
   231  Bq   0.000000
   232  Bq   0.000000
   233  Bq   0.000000
   234  Bq   0.000000
   235  Bq   0.000000
   236  Bq   0.000000
 Electronic spatial extent (au):  <R**2>=           5804.3227
 Charge=              0.0000 electrons
 Dipole moment (field-independent basis, Debye):
    X=              0.0000    Y=              0.0732    Z=              0.0000  Tot=              0.0732
 Quadrupole moment (field-independent basis, Debye-Ang):
   XX=           -113.9137   YY=           -113.9781   ZZ=           -133.4378
   XY=              0.0000   XZ=             -4.8717   YZ=              0.0000
 Traceless Quadrupole moment (field-independent basis, Debye-Ang):
   XX=              6.5295   YY=              6.4651   ZZ=            -12.9946
   XY=              0.0000   XZ=             -4.8717   YZ=              0.0000
 Octapole moment (field-independent basis, Debye-Ang**2):
  XXX=              0.0000  YYY=             11.7108  ZZZ=              0.0000  XYY=              0.0000
  XXY=             -6.4067  XXZ=              0.0000  XZZ=              0.0000  YZZ=             -7.8695
  YYZ=              0.0000  XYZ=            -16.2862
 Hexadecapole moment (field-independent basis, Debye-Ang**3):
 XXXX=          -4416.4021 YYYY=          -2784.9756 ZZZZ=           -481.5690 XXXY=              0.0001
 XXXZ=           -124.3517 YYYX=             -0.0003 YYYZ=              0.0001 ZZZX=             -4.4782
 ZZZY=              0.0001 XXYY=          -1189.3576 XXZZ=           -942.9016 YYZZ=           -589.4012
 XXYZ=              0.0000 YYXZ=              7.8297 ZZXY=             -0.0001
 N-N= 1.599915627097D+03 E-N=-5.164192587538D+03  KE= 8.428349970567D+02
 Leave Link  601 at Tue Sep 15 14:35:22 2020, MaxMem=   131072000 cpu:         0.7
 (Enter /share/programs/GAUSSIAN/64/g09/l9999.exe)
 1\1\GINC-PAHRY\SP\RB3LYP\6-311+G(d,p)\C22H14\AARTIGAS\15-Sep-2020\0\\#
 P rb3lyp/6-311+g** NMR Guess=Read geom=connectivity\\Title\\0,1\C,0,0.
 653241,3.257859,-0.20251\C,0,-0.653243,3.25786,0.20251\C,0,1.372495,2.
 032956,-0.320807\C,0,-1.372495,2.032956,0.320807\C,0,0.722474,0.795666
 ,-0.050388\C,0,-0.722474,0.795667,0.050387\C,0,2.760385,2.053927,-0.67
 4268\C,0,3.508866,0.913916,-0.671362\C,0,2.955226,-0.309622,-0.177479\
 C,0,1.574722,-0.361114,0.197094\H,0,1.183427,4.19574,-0.384599\H,0,-1.
 183429,4.19574,0.384599\H,0,3.206283,3.012423,-0.951392\H,0,4.560023,0
 .932956,-0.969333\C,0,3.78302,-1.443098,0.028309\C,0,1.137427,-1.50753
 3,0.912109\C,0,1.973691,-2.584349,1.138062\C,0,3.301853,-2.571588,0.66
 1177\H,0,4.825754,-1.39123,-0.295484\H,0,0.124652,-1.532788,1.308472\H
 ,0,1.603586,-3.445682,1.698977\H,0,3.952742,-3.433526,0.825134\C,0,-3.
 508866,0.913915,0.671362\C,0,-2.760386,2.053926,0.674268\C,0,-2.955226
 ,-0.309623,0.177479\C,0,-1.574722,-0.361114,-0.197094\C,0,-3.78302,-1.
 443099,-0.028309\C,0,-3.301852,-2.571589,-0.661177\C,0,-1.97369,-2.584
 349,-1.138061\C,0,-1.137426,-1.507534,-0.912109\H,0,-4.560022,0.932954
 ,0.969334\H,0,-3.206283,3.012421,0.951392\H,0,-4.825754,-1.391232,0.29
 5484\H,0,-3.952741,-3.433528,-0.825134\H,0,-1.603585,-3.445682,-1.6989
 76\H,0,-0.124652,-1.532788,-1.308471\Bq,0,-2.2142912628,0.9673268317,-
 0.7085766947\Bq,0,-2.228487478,0.9578412239,-0.7085766947\Bq,0,-2.2413
 241223,0.946583789,-0.7085766947\Bq,0,-2.2525815573,0.9337471446,-0.70
 85766947\Bq,0,-2.262067165,0.9195509294,-0.7085766947\Bq,0,-2.26961864
 41,0.9042380446,-0.7085766947\Bq,0,-2.2751067867,0.8880704978,-0.70857
 66947\Bq,0,-2.2784376892,0.8713249202,-0.7085766947\Bq,0,-2.2795543589
 ,0.8542878333,-0.7085766947\Bq,0,-2.2784376892,0.8372507465,-0.7085766
 947\Bq,0,-2.2751067867,0.8205051689,-0.7085766947\Bq,0,-2.2696186441,0
 .8043376221,-0.7085766947\Bq,0,-2.262067165,0.7890247372,-0.7085766947
 \Bq,0,-2.2525815573,0.774828522,-0.7085766947\Bq,0,-2.2413241223,0.761
 9918777,-0.7085766947\Bq,0,-2.228487478,0.7507344427,-0.7085766947\Bq,
 0,-2.2142912628,0.741248835,-0.7085766947\Bq,0,-2.1989783779,0.7336973
 559,-0.7085766947\Bq,0,-2.1828108311,0.7282092133,-0.7085766947\Bq,0,-
 2.1660652535,0.7248783108,-0.7085766947\Bq,0,-2.1490281667,0.723761641
 1,-0.7085766947\Bq,0,-2.1319910798,0.7248783108,-0.7085766947\Bq,0,-2.
 1152455022,0.7282092133,-0.7085766947\Bq,0,-2.0990779554,0.7336973559,
 -0.7085766947\Bq,0,-2.0837650706,0.741248835,-0.7085766947\Bq,0,-2.069
 5688554,0.7507344427,-0.7085766947\Bq,0,-2.056732211,0.7619918777,-0.7
 085766947\Bq,0,-2.0454747761,0.774828522,-0.7085766947\Bq,0,-2.0359891
 683,0.7890247372,-0.7085766947\Bq,0,-2.0284376892,0.8043376221,-0.7085
 766947\Bq,0,-2.0229495466,0.8205051689,-0.7085766947\Bq,0,-2.019618644
 1,0.8372507465,-0.7085766947\Bq,0,-0.0000003333,2.0288273333,0.9999998
 333\Bq,0,-0.0000003333,2.0288273333,0.9999998333\Bq,0,-0.0000003333,2.
 0288273333,0.9999998333\Bq,0,-0.0000003333,2.0288273333,0.9999998333\B
 q,0,-0.0000003333,2.0288273333,0.9999998333\Bq,0,-0.0000003333,2.02882
 73333,0.9999998333\Bq,0,-0.0000003333,2.0288273333,0.9999998333\Bq,0,-
 0.0000003333,2.0288273333,0.9999998333\Bq,0,-0.0000003333,2.0288273333
 ,0.9999998333\Bq,0,-0.0000003333,2.0288273333,0.9999998333\Bq,0,-0.000
 0003333,2.0288273333,0.9999998333\Bq,0,-0.0000003333,2.0288273333,0.99
 99998333\Bq,0,-0.0000003333,2.0288273333,0.9999998333\Bq,0,-0.00000033
 33,2.0288273333,0.9999998333\Bq,0,-0.0000003333,2.0288273333,0.9999998
 333\Bq,0,-0.0000003333,2.0288273333,0.9999998333\Bq,0,-0.0000003333,2.
 0288273333,0.9999998333\Bq,0,-0.0000003333,2.0288273333,0.9999998333\B
 q,0,-0.0000003333,2.0288273333,0.9999998333\Bq,0,-0.0000003333,2.02882
 73333,0.9999998333\Bq,0,-0.0000003333,2.0288273333,0.9999998333\Bq,0,-
 0.0000003333,2.0288273333,0.9999998333\Bq,0,-0.0000003333,2.0288273333
 ,0.9999998333\Bq,0,-0.0000003333,2.0288273333,0.9999998333\Bq,0,-0.000
 0003333,2.0288273333,0.9999998333\Bq,0,-0.0000003333,2.0288273333,0.99
 99998333\Bq,0,-0.0000003333,2.0288273333,0.9999998333\Bq,0,-0.00000033
 33,2.0288273333,0.9999998333\Bq,0,-0.0000003333,2.0288273333,0.9999998
 333\Bq,0,-0.0000003333,2.0288273333,0.9999998333\Bq,0,-0.0000003333,2.
 0288273333,0.9999998333\Bq,0,-0.0000003333,2.0288273333,0.9999998333\B
 q,0,-0.0000003333,2.0288273333,0.9999998333\Bq,0,-0.0000003333,2.02882
 73333,0.9999998333\Bq,0,-0.0000003333,2.0288273333,0.9999998333\Bq,0,-
 0.0000003333,2.0288273333,0.9999998333\Bq,0,-0.0000003333,2.0288273333
 ,0.9999998333\Bq,0,-0.0000003333,2.0288273333,0.9999998333\Bq,0,-0.000
 0003333,2.0288273333,0.9999998333\Bq,0,-0.0000003333,2.0288273333,0.99
 99998333\Bq,0,-0.0000003333,2.0288273333,0.9999998333\Bq,0,-0.00000033
 33,2.0288273333,0.9999998333\Bq,0,-0.0000003333,2.0288273333,0.9999998
 333\Bq,0,-0.0000003333,2.0288273333,0.9999998333\Bq,0,-0.0000003333,2.
 0288273333,0.9999998333\Bq,0,-0.0000003333,2.0288273333,0.9999998333\B
 q,0,-0.0000003333,2.0288273333,0.9999998333\Bq,0,-0.0000003333,2.02882
 73333,0.9999998333\Bq,0,0.1305258589,2.0288273333,0.9914446947\Bq,0,0.
 1294091892,2.0458644202,0.9914446947\Bq,0,0.1260782867,2.0626099978,0.
 9914446947\Bq,0,0.1205901441,2.0787775446,0.9914446947\Bq,0,0.11303866
 5,2.0940904294,0.9914446947\Bq,0,0.1035530573,2.1082866446,0.991444694
 7\Bq,0,0.0922956223,2.121123289,0.9914446947\Bq,0,0.079458978,2.132380
 7239,0.9914446947\Bq,0,0.0652627628,2.1418663317,0.9914446947\Bq,0,0.0
 499498779,2.1494178108,0.9914446947\Bq,0,0.0337823311,2.1549059534,0.9
 914446947\Bq,0,0.0170367535,2.1582368559,0.9914446947\Bq,0,-0.00000033
 33,2.1593535256,0.9914446947\Bq,0,-0.0170374202,2.1582368559,0.9914446
 947\Bq,0,-0.0337829978,2.1549059534,0.9914446947\Bq,0,-0.0499505446,2.
 1494178108,0.9914446947\Bq,0,-0.0652634294,2.1418663317,0.9914446947\B
 q,0,-0.0794596446,2.1323807239,0.9914446947\Bq,0,-0.092296289,2.121123
 289,0.9914446947\Bq,0,-0.1035537239,2.1082866446,0.9914446947\Bq,0,-0.
 1130393317,2.0940904294,0.9914446947\Bq,0,-0.1205908108,2.0787775446,0
 .9914446947\Bq,0,-0.1260789534,2.0626099978,0.9914446947\Bq,0,-0.12940
 98559,2.0458644202,0.9914446947\Bq,0,-0.1305265256,2.0288273333,0.9914
 446947\Bq,0,-0.1294098559,2.0117902465,0.9914446947\Bq,0,-0.1260789534
 ,1.9950446689,0.9914446947\Bq,0,-0.1205908108,1.9788771221,0.991444694
 7\Bq,0,-0.1130393317,1.9635642372,0.9914446947\Bq,0,-0.1035537239,1.94
 9368022,0.9914446947\Bq,0,-0.092296289,1.9365313777,0.9914446947\Bq,0,
 -0.0794596446,1.9252739427,0.9914446947\Bq,0,-0.0652634294,1.915788335
 ,0.9914446947\Bq,0,-0.0499505446,1.9082368559,0.9914446947\Bq,0,-0.033
 7829978,1.9027487133,0.9914446947\Bq,0,-0.0170374202,1.8994178108,0.99
 14446947\Bq,0,-0.0000003333,1.8983011411,0.9914446947\Bq,0,0.017036753
 5,1.8994178108,0.9914446947\Bq,0,0.0337823311,1.9027487133,0.991444694
 7\Bq,0,0.0499498779,1.9082368559,0.9914446947\Bq,0,0.0652627628,1.9157
 88335,0.9914446947\Bq,0,0.079458978,1.9252739427,0.9914446947\Bq,0,0.0
 922956223,1.9365313777,0.9914446947\Bq,0,0.1035530573,1.949368022,0.99
 14446947\Bq,0,0.113038665,1.9635642372,0.9914446947\Bq,0,0.1205901441,
 1.9788771221,0.9914446947\Bq,0,0.1260782867,1.9950446689,0.9914446947\
 Bq,0,0.1294091892,2.0117902465,0.9914446947\Bq,0,0.2588187118,2.028827
 3333,0.9659256596\Bq,0,0.256604479,2.0626099978,0.9659256596\Bq,0,0.24
 99996667,2.0958146314,0.9659256596\Bq,0,0.2391172851,2.1278730939,0.96
 59256596\Bq,0,0.2241435347,2.1582368559,0.9659256596\Bq,0,0.2053346206
 ,2.1863863851,0.9659256596\Bq,0,0.1830123686,2.2118400352,0.9659256596
 \Bq,0,0.1575587184,2.2341622873,0.9659256596\Bq,0,0.1294091892,2.25297
 12014,0.9659256596\Bq,0,0.0990454272,2.2679449517,0.9659256596\Bq,0,0.
 0669869648,2.2788273333,0.9659256596\Bq,0,0.0337823311,2.2854321456,0.
 9659256596\Bq,0,-0.0000003333,2.2876463784,0.9659256596\Bq,0,-0.033782
 9978,2.2854321456,0.9659256596\Bq,0,-0.0669876314,2.2788273333,0.96592
 56596\Bq,0,-0.0990460939,2.2679449517,0.9659256596\Bq,0,-0.1294098559,
 2.2529712014,0.9659256596\Bq,0,-0.1575593851,2.2341622873,0.9659256596
 \Bq,0,-0.1830130352,2.2118400352,0.9659256596\Bq,0,-0.2053352873,2.186
 3863851,0.9659256596\Bq,0,-0.2241442014,2.1582368559,0.9659256596\Bq,0
 ,-0.2391179517,2.1278730939,0.9659256596\Bq,0,-0.2500003333,2.09581463
 14,0.9659256596\Bq,0,-0.2566051456,2.0626099978,0.9659256596\Bq,0,-0.2
 588193784,2.0288273333,0.9659256596\Bq,0,-0.2566051456,1.9950446689,0.
 9659256596\Bq,0,-0.2500003333,1.9618400352,0.9659256596\Bq,0,-0.239117
 9517,1.9297815728,0.9659256596\Bq,0,-0.2241442014,1.8994178108,0.96592
 56596\Bq,0,-0.2053352873,1.8712682816,0.9659256596\Bq,0,-0.1830130352,
 1.8458146314,0.9659256596\Bq,0,-0.1575593851,1.8234923794,0.9659256596
 \Bq,0,-0.1294098559,1.8046834653,0.9659256596\Bq,0,-0.0990460939,1.789
 7097149,0.9659256596\Bq,0,-0.0669876314,1.7788273333,0.9659256596\Bq,0
 ,-0.0337829978,1.772222521,0.9659256596\Bq,0,-0.0000003333,1.770008288
 2,0.9659256596\Bq,0,0.0337823311,1.772222521,0.9659256596\Bq,0,0.06698
 69648,1.7788273333,0.9659256596\Bq,0,0.0990454272,1.7897097149,0.96592
 56596\Bq,0,0.1294091892,1.8046834653,0.9659256596\Bq,0,0.1575587184,1.
 8234923794,0.9659256596\Bq,0,0.1830123686,1.8458146314,0.9659256596\Bq
 ,0,0.2053346206,1.8712682816,0.9659256596\Bq,0,0.2241435347,1.89941781
 08,0.9659256596\Bq,0,0.2391172851,1.9297815728,0.9659256596\Bq,0,0.249
 9996667,1.9618400352,0.9659256596\Bq,0,0.256604479,1.9950446689,0.9659
 256596\Bq,0,0.382683099,2.0288273333,0.9238793658\Bq,0,0.3794091892,2.
 0787775446,0.9238793658\Bq,0,0.3696434773,2.1278730939,0.9238793658\Bq
 ,0,0.3535530573,2.1752739427,0.9238793658\Bq,0,0.3314132407,2.22016904
 95,0.9238793658\Bq,0,0.303602846,2.2617902465,0.9238793658\Bq,0,0.2705
 977167,2.2994253834,0.9238793658\Bq,0,0.2329625798,2.3324305127,0.9238
 793658\Bq,0,0.1913413828,2.3602409074,0.9238793658\Bq,0,0.1464462761,2
 .3823807239,0.9238793658\Bq,0,0.0990454272,2.3984711439,0.9238793658\B
 q,0,0.0499498779,2.4082368559,0.9238793658\Bq,0,-0.0000003333,2.411510
 7657,0.9238793658\Bq,0,-0.0499505446,2.4082368559,0.9238793658\Bq,0,-0
 .0990460939,2.3984711439,0.9238793658\Bq,0,-0.1464469427,2.3823807239,
 0.9238793658\Bq,0,-0.1913420495,2.3602409074,0.9238793658\Bq,0,-0.2329
 632465,2.3324305127,0.9238793658\Bq,0,-0.2705983834,2.2994253834,0.923
 8793658\Bq,0,-0.3036035127,2.2617902465,0.9238793658\Bq,0,-0.331413907
 4,2.2201690495,0.9238793658\Bq,0,-0.3535537239,2.1752739427,0.92387936
 58\Bq,0,-0.3696441439,2.1278730939,0.9238793658\Bq,0,-0.3794098559,2.0
 787775446,0.9238793658\\Version=ES64L-G09RevD.01\HF=-847.0037387\RMSD=
 4.087e-09\Dipole=0.0000004,0.0287843,0.0000009\Quadrupole=4.8545288,4.
 8066247,-9.6611535,-0.0000047,-3.6219991,-0.000002\PG=C01 [X(C22H14)]\
 \@


 A ROPE OVER THE TOP OF A FENCE HAS THE SAME LENGTH ON EACH SIDE.
 WEIGHS 1/3 POUND PER FOOT.  ON ONE END HANGS A MONKEY HOLDING A
 BANANA, AND ON THE OTHER END A WEIGHT EQUAL TO THE WEIGHT
 OF THE MONKEY.  THE BANANA WEIGHS TWO OUNCES PER INCH.
 THE ROPE IS AS LONG AS THE AGE OF THE MONKEY, 
 AND THE WEIGHT OF THE MONKEY (IN OUNCES) IS AS MUCH
 AS THE AGE OF THE MONKEY'S MOTHER.  THE COMBINED AGES OF MONKEY
 AND MOTHER ARE THIRTY YEARS.  HALF THE WEIGHT OF THE MONKEY,
  PLUS THE WEIGHT OF THE BANANA, IS ONE FOURTH AS MUCH AS THE WEIGHT
 OF THE WEIGHT AND THE ROPE.
 THE MONKEY'S MOTHER IS HALF AS OLD AS THE MONKEY WILL BE
 WHEN IT IS 3 TIMES AS OLD AS ITS MOTHER WAS WHEN
 SHE WAS HALF AS OLD AS THE MONKEY WILL BE WHEN IT IS
 AS OLD AS ITS MOTHER WILL BE WHEN SHE IS 4 TIMES AS
 OLD AS THE MONKEY WAS WHEN IT WAS TWICE AS OLD AS 
 ITS MOTHER WAS WHEN SHE WAS ONE THIRD AS OLD AS THE
 MONKEY WAS WHEN IT WAS AS OLD AS ITS MOTHER WAS WHEN 
 SHE WAS 3 TIMES AS OLD AS THE MONKEY WAS WHEN IT WAS AS OLD AS ITS
 MOTHER WAS WHEN SHE WAS 3 TIMES AS OLD AS THE MONKEY 
 WAS WHEN IT WAS ONE FOURTH WAS OLD AS IT IS NOW.

 HOW LONG IS THE BANANA?
 Job cpu time:       0 days  1 hours 16 minutes 20.8 seconds.
 File lengths (MBytes):  RWF=    184 Int=      0 D2E=      0 Chk=     21 Scr=      1
 Normal termination of Gaussian 09 at Tue Sep 15 14:35:22 2020.
