 Entering Gaussian System, Link 0=g09
 Input=input_batch_12000.com
 Output=input_batch_12000.log
 Initial command:
 /share/programs/GAUSSIAN/64/g09/l1.exe "/scratch/aartigas.38973/Gau-13274.inp" -scrdir="/scratch/aartigas.38973/"
 Entering Link 1 = /share/programs/GAUSSIAN/64/g09/l1.exe PID=     13275.
  
 Copyright (c) 1988,1990,1992,1993,1995,1998,2003,2009,2013,
            Gaussian, Inc.  All Rights Reserved.
  
 This is part of the Gaussian(R) 09 program.  It is based on
 the Gaussian(R) 03 system (copyright 2003, Gaussian, Inc.),
 the Gaussian(R) 98 system (copyright 1998, Gaussian, Inc.),
 the Gaussian(R) 94 system (copyright 1995, Gaussian, Inc.),
 the Gaussian 92(TM) system (copyright 1992, Gaussian, Inc.),
 the Gaussian 90(TM) system (copyright 1990, Gaussian, Inc.),
 the Gaussian 88(TM) system (copyright 1988, Gaussian, Inc.),
 the Gaussian 86(TM) system (copyright 1986, Carnegie Mellon
 University), and the Gaussian 82(TM) system (copyright 1983,
 Carnegie Mellon University). Gaussian is a federally registered
 trademark of Gaussian, Inc.
  
 This software contains proprietary and confidential information,
 including trade secrets, belonging to Gaussian, Inc.
  
 This software is provided under written license and may be
 used, copied, transmitted, or stored only in accord with that
 written license.
  
 The following legend is applicable only to US Government
 contracts under FAR:
  
                    RESTRICTED RIGHTS LEGEND
  
 Use, reproduction and disclosure by the US Government is
 subject to restrictions as set forth in subparagraphs (a)
 and (c) of the Commercial Computer Software - Restricted
 Rights clause in FAR 52.227-19.
  
 Gaussian, Inc.
 340 Quinnipiac St., Bldg. 40, Wallingford CT 06492
  
  
 ---------------------------------------------------------------
 Warning -- This program may not be used in any manner that
 competes with the business of Gaussian, Inc. or will provide
 assistance to any competitor of Gaussian, Inc.  The licensee
 of this program is prohibited from giving any competitor of
 Gaussian, Inc. access to this program.  By using this program,
 the user acknowledges that Gaussian, Inc. is engaged in the
 business of creating and licensing software in the field of
 computational chemistry and represents and warrants to the
 licensee that it is not a competitor of Gaussian, Inc. and that
 it will not use this program in any manner prohibited above.
 ---------------------------------------------------------------
  

 Cite this work as:
 Gaussian 09, Revision D.01,
 M. J. Frisch, G. W. Trucks, H. B. Schlegel, G. E. Scuseria, 
 M. A. Robb, J. R. Cheeseman, G. Scalmani, V. Barone, B. Mennucci, 
 G. A. Petersson, H. Nakatsuji, M. Caricato, X. Li, H. P. Hratchian, 
 A. F. Izmaylov, J. Bloino, G. Zheng, J. L. Sonnenberg, M. Hada, 
 M. Ehara, K. Toyota, R. Fukuda, J. Hasegawa, M. Ishida, T. Nakajima, 
 Y. Honda, O. Kitao, H. Nakai, T. Vreven, J. A. Montgomery, Jr., 
 J. E. Peralta, F. Ogliaro, M. Bearpark, J. J. Heyd, E. Brothers, 
 K. N. Kudin, V. N. Staroverov, T. Keith, R. Kobayashi, J. Normand, 
 K. Raghavachari, A. Rendell, J. C. Burant, S. S. Iyengar, J. Tomasi, 
 M. Cossi, N. Rega, J. M. Millam, M. Klene, J. E. Knox, J. B. Cross, 
 V. Bakken, C. Adamo, J. Jaramillo, R. Gomperts, R. E. Stratmann, 
 O. Yazyev, A. J. Austin, R. Cammi, C. Pomelli, J. W. Ochterski, 
 R. L. Martin, K. Morokuma, V. G. Zakrzewski, G. A. Voth, 
 P. Salvador, J. J. Dannenberg, S. Dapprich, A. D. Daniels, 
 O. Farkas, J. B. Foresman, J. V. Ortiz, J. Cioslowski, 
 and D. J. Fox, Gaussian, Inc., Wallingford CT, 2013.
 
 ******************************************
 Gaussian 09:  ES64L-G09RevD.01 24-Apr-2013
                15-Sep-2020 
 ******************************************
 %OldChk=/home/aartigas/chk/5_helicene_spe.chk
 %nproc=8
 Will use up to    8 processors via shared memory.
 %mem=1000MB
 Copying data from "/home/aartigas/chk/5_helicene_spe.chk" to current chk file "/scratch/aartigas.38973/Gau-13275.chk".
 ----------------------------------------------------
 #P rb3lyp/6-311+g** NMR Guess=Read geom=connectivity
 ----------------------------------------------------
 1/38=1,57=2/1;
 2/12=2,17=6,18=5,40=1/2;
 3/5=4,6=6,7=111,11=2,16=1,25=1,30=1,74=-5,116=1/1,2,8,3;
 4/5=1/1;
 5/5=2,38=6/2;
 8/6=1,10=90,11=11/1;
 10/13=100,45=16/2;
 6/7=2,8=2,9=2,10=2,28=1/1;
 99/9=1/99;
 Leave Link    1 at Tue Sep 15 11:49:32 2020, MaxMem=   131072000 cpu:         0.5
 (Enter /share/programs/GAUSSIAN/64/g09/l101.exe)
 -----
 Title
 -----
 Symbolic Z-matrix:
 Charge =  0 Multiplicity = 1
 C                     0.65324   3.25786  -0.20251 
 C                    -0.65324   3.25786   0.20251 
 C                     1.3725    2.03296  -0.32081 
 C                    -1.3725    2.03296   0.32081 
 C                     0.72247   0.79567  -0.05039 
 C                    -0.72247   0.79567   0.05039 
 C                     2.76039   2.05393  -0.67427 
 C                     3.50887   0.91392  -0.67136 
 C                     2.95523  -0.30962  -0.17748 
 C                     1.57472  -0.36111   0.19709 
 H                     1.18343   4.19574  -0.3846 
 H                    -1.18343   4.19574   0.3846 
 H                     3.20628   3.01242  -0.95139 
 H                     4.56002   0.93296  -0.96933 
 C                     3.78302  -1.4431    0.02831 
 C                     1.13743  -1.50753   0.91211 
 C                     1.97369  -2.58435   1.13806 
 C                     3.30185  -2.57159   0.66118 
 H                     4.82575  -1.39123  -0.29548 
 H                     0.12465  -1.53279   1.30847 
 H                     1.60359  -3.44568   1.69898 
 H                     3.95274  -3.43353   0.82513 
 C                    -3.50887   0.91392   0.67136 
 C                    -2.76039   2.05393   0.67427 
 C                    -2.95523  -0.30962   0.17748 
 C                    -1.57472  -0.36111  -0.19709 
 C                    -3.78302  -1.4431   -0.02831 
 C                    -3.30185  -2.57159  -0.66118 
 C                    -1.97369  -2.58435  -1.13806 
 C                    -1.13743  -1.50753  -0.91211 
 H                    -4.56002   0.93295   0.96933 
 H                    -3.20628   3.01242   0.95139 
 H                    -4.82575  -1.39123   0.29548 
 H                    -3.95274  -3.43353  -0.82513 
 H                    -1.60359  -3.44568  -1.69898 
 H                    -0.12465  -1.53279  -1.30847 
 Bq                    1.68305  -2.84213   2.49233 
 Bq                    1.60359  -2.83692   2.49233 
 Bq                    1.52413  -2.84213   2.49233 
 Bq                    1.44603  -2.85766   2.49233 
 Bq                    1.37062  -2.88326   2.49233 
 Bq                    1.29921  -2.91848   2.49233 
 Bq                    1.233    -2.96272   2.49233 
 Bq                    1.17313  -3.01522   2.49233 
 Bq                    1.12062  -3.07509   2.49233 
 Bq                    1.07638  -3.1413    2.49233 
 Bq                    1.04116  -3.21272   2.49233 
 Bq                    1.01557  -3.28812   2.49233 
 Bq                    1.00003  -3.36622   2.49233 
 Bq                    0.99482  -3.44568   2.49233 
 Bq                    1.00003  -3.52514   2.49233 
 Bq                    1.01557  -3.60324   2.49233 
 Bq                    1.04116  -3.67864   2.49233 
 Bq                    1.07638  -3.75006   2.49233 
 Bq                    1.12062  -3.81627   2.49233 
 Bq                    1.17313  -3.87614   2.49233 
 Bq                    1.233    -3.92864   2.49233 
 Bq                    1.29921  -3.97288   2.49233 
 Bq                    1.37062  -4.0081    2.49233 
 Bq                    1.44603  -4.0337    2.49233 
 Bq                    1.52413  -4.04924   2.49233 
 Bq                    1.60359  -4.05444   2.49233 
 Bq                    1.68305  -4.04924   2.49233 
 Bq                    1.76115  -4.0337    2.49233 
 Bq                    1.83655  -4.0081    2.49233 
 Bq                    1.90797  -3.97288   2.49233 
 Bq                    1.97418  -3.92864   2.49233 
 Bq                    2.03405  -3.87614   2.49233 
 Bq                    2.08655  -3.81627   2.49233 
 Bq                    2.13079  -3.75006   2.49233 
 Bq                    2.16601  -3.67864   2.49233 
 Bq                    2.1916   -3.60324   2.49233 
 Bq                    2.20714  -3.52514   2.49233 
 Bq                    2.31069  -3.44568   2.40608 
 Bq                    2.30464  -3.35339   2.40608 
 Bq                    2.2866   -3.26267   2.40608 
 Bq                    2.25687  -3.17508   2.40608 
 Bq                    2.21596  -3.09213   2.40608 
 Bq                    2.16457  -3.01522   2.40608 
 Bq                    2.10359  -2.94568   2.40608 
 Bq                    2.03405  -2.8847    2.40608 
 Bq                    1.95714  -2.83331   2.40608 
 Bq                    1.87418  -2.7924    2.40608 
 Bq                    1.7866   -2.76267   2.40608 
 Bq                    1.69588  -2.74462   2.40608 
 Bq                    1.60359  -2.73858   2.40608 
 Bq                    1.51129  -2.74462   2.40608 
 Bq                    1.42057  -2.76267   2.40608 
 Bq                    1.33299  -2.7924    2.40608 
 Bq                    1.25003  -2.83331   2.40608 
 Bq                    1.17313  -2.8847    2.40608 
 Bq                    1.10359  -2.94568   2.40608 
 Bq                    1.0426   -3.01522   2.40608 
 Bq                    0.99121  -3.09213   2.40608 
 Bq                    0.9503   -3.17508   2.40608 
 Bq                    0.92057  -3.26267   2.40608 
 Bq                    0.90253  -3.35339   2.40608 
 Bq                    0.89648  -3.44568   2.40608 
 Bq                    0.90253  -3.53798   2.40608 
 Bq                    0.92057  -3.62869   2.40608 
 Bq                    0.9503   -3.71628   2.40608 
 Bq                    0.99121  -3.79924   2.40608 
 Bq                    1.0426   -3.87614   2.40608 
 Bq                    1.10359  -3.94568   2.40608 
 Bq                    1.17313  -4.00667   2.40608 
 Bq                    1.25003  -4.05805   2.40608 
 Bq                    1.33299  -4.09896   2.40608 
 Bq                    1.42057  -4.12869   2.40608 
 Bq                    1.51129  -4.14674   2.40608 
 Bq                    1.60359  -4.15279   2.40608 
 Bq                    1.69588  -4.14674   2.40608 
 Bq                    1.7866   -4.12869   2.40608 
 Bq                    1.87418  -4.09896   2.40608 
 Bq                    1.95714  -4.05805   2.40608 
 Bq                    2.03405  -4.00667   2.40608 
 Bq                    2.10359  -3.94568   2.40608 
 Bq                    2.16457  -3.87614   2.40608 
 Bq                    2.21596  -3.79924   2.40608 
 Bq                    2.25687  -3.71628   2.40608 
 Bq                    2.2866   -3.62869   2.40608 
 Bq                    2.30464  -3.53798   2.40608 
 Bq                    2.39694  -3.44568   2.30774 
 Bq                    2.39015  -3.34213   2.30774 
 Bq                    2.36991  -3.24035   2.30774 
 Bq                    2.33655  -3.14208   2.30774 
 Bq                    2.29065  -3.04901   2.30774 
 Bq                    2.233    -2.96272   2.30774 
 Bq                    2.16457  -2.8847    2.30774 
 Bq                    2.08655  -2.81627   2.30774 
 Bq                    2.00026  -2.75862   2.30774 
 Bq                    1.90719  -2.71272   2.30774 
 Bq                    1.80892  -2.67936   2.30774 
 Bq                    1.70714  -2.65912   2.30774 
 Bq                    1.60359  -2.65233   2.30774 
 Bq                    1.50003  -2.65912   2.30774 
 Bq                    1.39825  -2.67936   2.30774 
 Bq                    1.29998  -2.71272   2.30774 
 Bq                    1.20691  -2.75862   2.30774 
 Bq                    1.12062  -2.81627   2.30774 
 Bq                    1.0426   -2.8847    2.30774 
 Bq                    0.97418  -2.96272   2.30774 
 Bq                    0.91652  -3.04901   2.30774 
 Bq                    0.87062  -3.14208   2.30774 
 Bq                    0.83727  -3.24035   2.30774 
 Bq                    0.81702  -3.34213   2.30774 
 Bq                    0.81023  -3.44568   2.30774 
 Bq                    0.81702  -3.54924   2.30774 
 Bq                    0.83727  -3.65102   2.30774 
 Bq                    0.87062  -3.74929   2.30774 
 Bq                    0.91652  -3.84236   2.30774 
 Bq                    0.97418  -3.92864   2.30774 
 Bq                    1.0426   -4.00667   2.30774 
 Bq                    1.12062  -4.07509   2.30774 
 Bq                    1.20691  -4.13275   2.30774 
 Bq                    1.29998  -4.17864   2.30774 
 Bq                    1.39825  -4.212     2.30774 
 Bq                    1.50003  -4.23225   2.30774 
 Bq                    1.60359  -4.23904   2.30774 
 Bq                    1.70714  -4.23225   2.30774 
 Bq                    1.80892  -4.212     2.30774 
 Bq                    1.90719  -4.17864   2.30774 
 Bq                    2.00026  -4.13275   2.30774 
 Bq                    2.08655  -4.07509   2.30774 
 Bq                    2.16457  -4.00667   2.30774 
 Bq                    2.233    -3.92864   2.30774 
 Bq                    2.29065  -3.84236   2.30774 
 Bq                    2.33655  -3.74929   2.30774 
 Bq                    2.36991  -3.65102   2.30774 
 Bq                    2.39015  -3.54924   2.30774 
 Bq                    2.46961  -3.44568   2.19898 
 Bq                    2.4622   -3.33264   2.19898 
 Bq                    2.4401   -3.22154   2.19898 
 Bq                    2.40369  -3.11427   2.19898 
 Bq                    2.35359  -3.01267   2.19898 
 Bq                    2.29065  -2.91848   2.19898 
 Bq                    2.21596  -2.83331   2.19898 
 Bq                    2.13079  -2.75862   2.19898 
 Bq                    2.0366   -2.69568   2.19898 
 Bq                    1.935    -2.64558   2.19898 
 Bq                    1.82773  -2.60917   2.19898 
 Bq                    1.71662  -2.58707   2.19898 
 Bq                    1.60359  -2.57966   2.19898 
 Bq                    1.49055  -2.58707   2.19898 
 Bq                    1.37944  -2.60917   2.19898 
 Bq                    1.27217  -2.64558   2.19898 
 Bq                    1.17057  -2.69568   2.19898 
 Bq                    1.07638  -2.75862   2.19898 
 Bq                    0.99121  -2.83331   2.19898 
 Bq                    0.91652  -2.91848   2.19898 
 Bq                    0.85359  -3.01267   2.19898 
 Bq                    0.80348  -3.11427   2.19898 
 Bq                    0.76707  -3.22154   2.19898 
 Bq                    0.74497  -3.33264   2.19898 
 Bq                    0.73756  -3.44568   2.19898 
 Bq                    0.74497  -3.55872   2.19898 
 Bq                    0.76707  -3.66983   2.19898 
 Bq                    0.80348  -3.7771    2.19898 
 Bq                    0.85359  -3.87869   2.19898 
 Bq                    0.91652  -3.97288   2.19898 
 Bq                    0.99121  -4.05805   2.19898 
 Bq                    1.07638  -4.13275   2.19898 
 Bq                    1.17057  -4.19568   2.19898 
 Bq                    1.27217  -4.24579   2.19898 
 Bq                    1.37944  -4.2822    2.19898 
 Bq                    1.49055  -4.3043    2.19898 
 Bq                    1.60359  -4.31171   2.19898 
 Bq                    1.71662  -4.3043    2.19898 
 Bq                    1.82773  -4.2822    2.19898 
 Bq                    1.935    -4.24579   2.19898 
 Bq                    2.0366   -4.19568   2.19898 
 Bq                    2.13079  -4.13275   2.19898 
 Bq                    2.21596  -4.05805   2.19898 
 Bq                    2.29065  -3.97288   2.19898 
 Bq                    2.35359  -3.87869   2.19898 
 Bq                    2.40369  -3.7771    2.19898 
 Bq                    2.4401   -3.66983   2.19898 
 Bq                    2.4622   -3.55872   2.19898 
 Bq                    2.52747  -3.44568   2.08166 
 Bq                    2.51956  -3.32509   2.08166 
 Bq                    2.49599  -3.20656   2.08166 
 Bq                    2.45714  -3.09213   2.08166 
 Bq                    2.40369  -2.98374   2.08166 
 Bq                    2.33655  -2.88326   2.08166 
 Bq                    2.25687  -2.7924    2.08166 
 Bq                    0.9503   -2.7924    2.08166 
 Bq                    0.87062  -2.88326   2.08166 
 Bq                    0.80348  -2.98374   2.08166 
 Bq                    0.75003  -3.09213   2.08166 
 Bq                    0.71119  -3.20656   2.08166 
 Bq                    0.68761  -3.32509   2.08166 
 Bq                    0.67971  -3.44568   2.08166 
 Bq                    0.68761  -3.56627   2.08166 
 Bq                    0.71119  -3.6848    2.08166 
 Bq                    0.75003  -3.79924   2.08166 
 Bq                    0.80348  -3.90762   2.08166 
 Bq                    0.87062  -4.0081    2.08166 
 
 NAtoms=    236 NQM=      236 NQMF=       0 NMMI=      0 NMMIF=      0
                NMic=       0 NMicF=      0.
                    Isotopes and Nuclear Properties:
 (Nuclear quadrupole moments (NQMom) in fm**2, nuclear magnetic moments (NMagM)
  in nuclear magnetons)

  Atom         1           2           3           4           5           6           7           8           9          10
 IAtWgt=          12          12          12          12          12          12          12          12          12          12
 AtmWgt=  12.0000000  12.0000000  12.0000000  12.0000000  12.0000000  12.0000000  12.0000000  12.0000000  12.0000000  12.0000000
 NucSpn=           0           0           0           0           0           0           0           0           0           0
 AtZEff=   0.0000000   0.0000000   0.0000000   0.0000000   0.0000000   0.0000000   0.0000000   0.0000000   0.0000000   0.0000000
 NQMom=    0.0000000   0.0000000   0.0000000   0.0000000   0.0000000   0.0000000   0.0000000   0.0000000   0.0000000   0.0000000
 NMagM=    0.0000000   0.0000000   0.0000000   0.0000000   0.0000000   0.0000000   0.0000000   0.0000000   0.0000000   0.0000000
 AtZNuc=   6.0000000   6.0000000   6.0000000   6.0000000   6.0000000   6.0000000   6.0000000   6.0000000   6.0000000   6.0000000

  Atom        11          12          13          14          15          16          17          18          19          20
 IAtWgt=           1           1           1           1          12          12          12          12           1           1
 AtmWgt=   1.0078250   1.0078250   1.0078250   1.0078250  12.0000000  12.0000000  12.0000000  12.0000000   1.0078250   1.0078250
 NucSpn=           1           1           1           1           0           0           0           0           1           1
 AtZEff=   0.0000000   0.0000000   0.0000000   0.0000000   0.0000000   0.0000000   0.0000000   0.0000000   0.0000000   0.0000000
 NQMom=    0.0000000   0.0000000   0.0000000   0.0000000   0.0000000   0.0000000   0.0000000   0.0000000   0.0000000   0.0000000
 NMagM=    2.7928460   2.7928460   2.7928460   2.7928460   0.0000000   0.0000000   0.0000000   0.0000000   2.7928460   2.7928460
 AtZNuc=   1.0000000   1.0000000   1.0000000   1.0000000   6.0000000   6.0000000   6.0000000   6.0000000   1.0000000   1.0000000

  Atom        21          22          23          24          25          26          27          28          29          30
 IAtWgt=           1           1          12          12          12          12          12          12          12          12
 AtmWgt=   1.0078250   1.0078250  12.0000000  12.0000000  12.0000000  12.0000000  12.0000000  12.0000000  12.0000000  12.0000000
 NucSpn=           1           1           0           0           0           0           0           0           0           0
 AtZEff=   0.0000000   0.0000000   0.0000000   0.0000000   0.0000000   0.0000000   0.0000000   0.0000000   0.0000000   0.0000000
 NQMom=    0.0000000   0.0000000   0.0000000   0.0000000   0.0000000   0.0000000   0.0000000   0.0000000   0.0000000   0.0000000
 NMagM=    2.7928460   2.7928460   0.0000000   0.0000000   0.0000000   0.0000000   0.0000000   0.0000000   0.0000000   0.0000000
 AtZNuc=   1.0000000   1.0000000   6.0000000   6.0000000   6.0000000   6.0000000   6.0000000   6.0000000   6.0000000   6.0000000

  Atom        31          32          33          34          35          36          37          38          39          40
 IAtWgt=           1           1           1           1           1           1           0           0           0           0
 AtmWgt=   1.0078250   1.0078250   1.0078250   1.0078250   1.0078250   1.0078250   0.0000000   0.0000000   0.0000000   0.0000000
 NucSpn=           1           1           1           1           1           1           0           0           0           0
 AtZEff=   0.0000000   0.0000000   0.0000000   0.0000000   0.0000000   0.0000000   0.0000000   0.0000000   0.0000000   0.0000000
 NQMom=    0.0000000   0.0000000   0.0000000   0.0000000   0.0000000   0.0000000   0.0000000   0.0000000   0.0000000   0.0000000
 NMagM=    2.7928460   2.7928460   2.7928460   2.7928460   2.7928460   2.7928460   0.0000000   0.0000000   0.0000000   0.0000000
 AtZNuc=   1.0000000   1.0000000   1.0000000   1.0000000   1.0000000   1.0000000   0.0000000   0.0000000   0.0000000   0.0000000

  Atom        41          42          43          44          45          46          47          48          49          50
 IAtWgt=           0           0           0           0           0           0           0           0           0           0
 AtmWgt=   0.0000000   0.0000000   0.0000000   0.0000000   0.0000000   0.0000000   0.0000000   0.0000000   0.0000000   0.0000000
 NucSpn=           0           0           0           0           0           0           0           0           0           0
 AtZEff=   0.0000000   0.0000000   0.0000000   0.0000000   0.0000000   0.0000000   0.0000000   0.0000000   0.0000000   0.0000000
 NQMom=    0.0000000   0.0000000   0.0000000   0.0000000   0.0000000   0.0000000   0.0000000   0.0000000   0.0000000   0.0000000
 NMagM=    0.0000000   0.0000000   0.0000000   0.0000000   0.0000000   0.0000000   0.0000000   0.0000000   0.0000000   0.0000000
 AtZNuc=   0.0000000   0.0000000   0.0000000   0.0000000   0.0000000   0.0000000   0.0000000   0.0000000   0.0000000   0.0000000

  Atom        51          52          53          54          55          56          57          58          59          60
 IAtWgt=           0           0           0           0           0           0           0           0           0           0
 AtmWgt=   0.0000000   0.0000000   0.0000000   0.0000000   0.0000000   0.0000000   0.0000000   0.0000000   0.0000000   0.0000000
 NucSpn=           0           0           0           0           0           0           0           0           0           0
 AtZEff=   0.0000000   0.0000000   0.0000000   0.0000000   0.0000000   0.0000000   0.0000000   0.0000000   0.0000000   0.0000000
 NQMom=    0.0000000   0.0000000   0.0000000   0.0000000   0.0000000   0.0000000   0.0000000   0.0000000   0.0000000   0.0000000
 NMagM=    0.0000000   0.0000000   0.0000000   0.0000000   0.0000000   0.0000000   0.0000000   0.0000000   0.0000000   0.0000000
 AtZNuc=   0.0000000   0.0000000   0.0000000   0.0000000   0.0000000   0.0000000   0.0000000   0.0000000   0.0000000   0.0000000

  Atom        61          62          63          64          65          66          67          68          69          70
 IAtWgt=           0           0           0           0           0           0           0           0           0           0
 AtmWgt=   0.0000000   0.0000000   0.0000000   0.0000000   0.0000000   0.0000000   0.0000000   0.0000000   0.0000000   0.0000000
 NucSpn=           0           0           0           0           0           0           0           0           0           0
 AtZEff=   0.0000000   0.0000000   0.0000000   0.0000000   0.0000000   0.0000000   0.0000000   0.0000000   0.0000000   0.0000000
 NQMom=    0.0000000   0.0000000   0.0000000   0.0000000   0.0000000   0.0000000   0.0000000   0.0000000   0.0000000   0.0000000
 NMagM=    0.0000000   0.0000000   0.0000000   0.0000000   0.0000000   0.0000000   0.0000000   0.0000000   0.0000000   0.0000000
 AtZNuc=   0.0000000   0.0000000   0.0000000   0.0000000   0.0000000   0.0000000   0.0000000   0.0000000   0.0000000   0.0000000

  Atom        71          72          73          74          75          76          77          78          79          80
 IAtWgt=           0           0           0           0           0           0           0           0           0           0
 AtmWgt=   0.0000000   0.0000000   0.0000000   0.0000000   0.0000000   0.0000000   0.0000000   0.0000000   0.0000000   0.0000000
 NucSpn=           0           0           0           0           0           0           0           0           0           0
 AtZEff=   0.0000000   0.0000000   0.0000000   0.0000000   0.0000000   0.0000000   0.0000000   0.0000000   0.0000000   0.0000000
 NQMom=    0.0000000   0.0000000   0.0000000   0.0000000   0.0000000   0.0000000   0.0000000   0.0000000   0.0000000   0.0000000
 NMagM=    0.0000000   0.0000000   0.0000000   0.0000000   0.0000000   0.0000000   0.0000000   0.0000000   0.0000000   0.0000000
 AtZNuc=   0.0000000   0.0000000   0.0000000   0.0000000   0.0000000   0.0000000   0.0000000   0.0000000   0.0000000   0.0000000

  Atom        81          82          83          84          85          86          87          88          89          90
 IAtWgt=           0           0           0           0           0           0           0           0           0           0
 AtmWgt=   0.0000000   0.0000000   0.0000000   0.0000000   0.0000000   0.0000000   0.0000000   0.0000000   0.0000000   0.0000000
 NucSpn=           0           0           0           0           0           0           0           0           0           0
 AtZEff=   0.0000000   0.0000000   0.0000000   0.0000000   0.0000000   0.0000000   0.0000000   0.0000000   0.0000000   0.0000000
 NQMom=    0.0000000   0.0000000   0.0000000   0.0000000   0.0000000   0.0000000   0.0000000   0.0000000   0.0000000   0.0000000
 NMagM=    0.0000000   0.0000000   0.0000000   0.0000000   0.0000000   0.0000000   0.0000000   0.0000000   0.0000000   0.0000000
 AtZNuc=   0.0000000   0.0000000   0.0000000   0.0000000   0.0000000   0.0000000   0.0000000   0.0000000   0.0000000   0.0000000

  Atom        91          92          93          94          95          96          97          98          99         100
 IAtWgt=           0           0           0           0           0           0           0           0           0           0
 AtmWgt=   0.0000000   0.0000000   0.0000000   0.0000000   0.0000000   0.0000000   0.0000000   0.0000000   0.0000000   0.0000000
 NucSpn=           0           0           0           0           0           0           0           0           0           0
 AtZEff=   0.0000000   0.0000000   0.0000000   0.0000000   0.0000000   0.0000000   0.0000000   0.0000000   0.0000000   0.0000000
 NQMom=    0.0000000   0.0000000   0.0000000   0.0000000   0.0000000   0.0000000   0.0000000   0.0000000   0.0000000   0.0000000
 NMagM=    0.0000000   0.0000000   0.0000000   0.0000000   0.0000000   0.0000000   0.0000000   0.0000000   0.0000000   0.0000000
 AtZNuc=   0.0000000   0.0000000   0.0000000   0.0000000   0.0000000   0.0000000   0.0000000   0.0000000   0.0000000   0.0000000

  Atom       101         102         103         104         105         106         107         108         109         110
 IAtWgt=           0           0           0           0           0           0           0           0           0           0
 AtmWgt=   0.0000000   0.0000000   0.0000000   0.0000000   0.0000000   0.0000000   0.0000000   0.0000000   0.0000000   0.0000000
 NucSpn=           0           0           0           0           0           0           0           0           0           0
 AtZEff=   0.0000000   0.0000000   0.0000000   0.0000000   0.0000000   0.0000000   0.0000000   0.0000000   0.0000000   0.0000000
 NQMom=    0.0000000   0.0000000   0.0000000   0.0000000   0.0000000   0.0000000   0.0000000   0.0000000   0.0000000   0.0000000
 NMagM=    0.0000000   0.0000000   0.0000000   0.0000000   0.0000000   0.0000000   0.0000000   0.0000000   0.0000000   0.0000000
 AtZNuc=   0.0000000   0.0000000   0.0000000   0.0000000   0.0000000   0.0000000   0.0000000   0.0000000   0.0000000   0.0000000

  Atom       111         112         113         114         115         116         117         118         119         120
 IAtWgt=           0           0           0           0           0           0           0           0           0           0
 AtmWgt=   0.0000000   0.0000000   0.0000000   0.0000000   0.0000000   0.0000000   0.0000000   0.0000000   0.0000000   0.0000000
 NucSpn=           0           0           0           0           0           0           0           0           0           0
 AtZEff=   0.0000000   0.0000000   0.0000000   0.0000000   0.0000000   0.0000000   0.0000000   0.0000000   0.0000000   0.0000000
 NQMom=    0.0000000   0.0000000   0.0000000   0.0000000   0.0000000   0.0000000   0.0000000   0.0000000   0.0000000   0.0000000
 NMagM=    0.0000000   0.0000000   0.0000000   0.0000000   0.0000000   0.0000000   0.0000000   0.0000000   0.0000000   0.0000000
 AtZNuc=   0.0000000   0.0000000   0.0000000   0.0000000   0.0000000   0.0000000   0.0000000   0.0000000   0.0000000   0.0000000

  Atom       121         122         123         124         125         126         127         128         129         130
 IAtWgt=           0           0           0           0           0           0           0           0           0           0
 AtmWgt=   0.0000000   0.0000000   0.0000000   0.0000000   0.0000000   0.0000000   0.0000000   0.0000000   0.0000000   0.0000000
 NucSpn=           0           0           0           0           0           0           0           0           0           0
 AtZEff=   0.0000000   0.0000000   0.0000000   0.0000000   0.0000000   0.0000000   0.0000000   0.0000000   0.0000000   0.0000000
 NQMom=    0.0000000   0.0000000   0.0000000   0.0000000   0.0000000   0.0000000   0.0000000   0.0000000   0.0000000   0.0000000
 NMagM=    0.0000000   0.0000000   0.0000000   0.0000000   0.0000000   0.0000000   0.0000000   0.0000000   0.0000000   0.0000000
 AtZNuc=   0.0000000   0.0000000   0.0000000   0.0000000   0.0000000   0.0000000   0.0000000   0.0000000   0.0000000   0.0000000

  Atom       131         132         133         134         135         136         137         138         139         140
 IAtWgt=           0           0           0           0           0           0           0           0           0           0
 AtmWgt=   0.0000000   0.0000000   0.0000000   0.0000000   0.0000000   0.0000000   0.0000000   0.0000000   0.0000000   0.0000000
 NucSpn=           0           0           0           0           0           0           0           0           0           0
 AtZEff=   0.0000000   0.0000000   0.0000000   0.0000000   0.0000000   0.0000000   0.0000000   0.0000000   0.0000000   0.0000000
 NQMom=    0.0000000   0.0000000   0.0000000   0.0000000   0.0000000   0.0000000   0.0000000   0.0000000   0.0000000   0.0000000
 NMagM=    0.0000000   0.0000000   0.0000000   0.0000000   0.0000000   0.0000000   0.0000000   0.0000000   0.0000000   0.0000000
 AtZNuc=   0.0000000   0.0000000   0.0000000   0.0000000   0.0000000   0.0000000   0.0000000   0.0000000   0.0000000   0.0000000

  Atom       141         142         143         144         145         146         147         148         149         150
 IAtWgt=           0           0           0           0           0           0           0           0           0           0
 AtmWgt=   0.0000000   0.0000000   0.0000000   0.0000000   0.0000000   0.0000000   0.0000000   0.0000000   0.0000000   0.0000000
 NucSpn=           0           0           0           0           0           0           0           0           0           0
 AtZEff=   0.0000000   0.0000000   0.0000000   0.0000000   0.0000000   0.0000000   0.0000000   0.0000000   0.0000000   0.0000000
 NQMom=    0.0000000   0.0000000   0.0000000   0.0000000   0.0000000   0.0000000   0.0000000   0.0000000   0.0000000   0.0000000
 NMagM=    0.0000000   0.0000000   0.0000000   0.0000000   0.0000000   0.0000000   0.0000000   0.0000000   0.0000000   0.0000000
 AtZNuc=   0.0000000   0.0000000   0.0000000   0.0000000   0.0000000   0.0000000   0.0000000   0.0000000   0.0000000   0.0000000

  Atom       151         152         153         154         155         156         157         158         159         160
 IAtWgt=           0           0           0           0           0           0           0           0           0           0
 AtmWgt=   0.0000000   0.0000000   0.0000000   0.0000000   0.0000000   0.0000000   0.0000000   0.0000000   0.0000000   0.0000000
 NucSpn=           0           0           0           0           0           0           0           0           0           0
 AtZEff=   0.0000000   0.0000000   0.0000000   0.0000000   0.0000000   0.0000000   0.0000000   0.0000000   0.0000000   0.0000000
 NQMom=    0.0000000   0.0000000   0.0000000   0.0000000   0.0000000   0.0000000   0.0000000   0.0000000   0.0000000   0.0000000
 NMagM=    0.0000000   0.0000000   0.0000000   0.0000000   0.0000000   0.0000000   0.0000000   0.0000000   0.0000000   0.0000000
 AtZNuc=   0.0000000   0.0000000   0.0000000   0.0000000   0.0000000   0.0000000   0.0000000   0.0000000   0.0000000   0.0000000

  Atom       161         162         163         164         165         166         167         168         169         170
 IAtWgt=           0           0           0           0           0           0           0           0           0           0
 AtmWgt=   0.0000000   0.0000000   0.0000000   0.0000000   0.0000000   0.0000000   0.0000000   0.0000000   0.0000000   0.0000000
 NucSpn=           0           0           0           0           0           0           0           0           0           0
 AtZEff=   0.0000000   0.0000000   0.0000000   0.0000000   0.0000000   0.0000000   0.0000000   0.0000000   0.0000000   0.0000000
 NQMom=    0.0000000   0.0000000   0.0000000   0.0000000   0.0000000   0.0000000   0.0000000   0.0000000   0.0000000   0.0000000
 NMagM=    0.0000000   0.0000000   0.0000000   0.0000000   0.0000000   0.0000000   0.0000000   0.0000000   0.0000000   0.0000000
 AtZNuc=   0.0000000   0.0000000   0.0000000   0.0000000   0.0000000   0.0000000   0.0000000   0.0000000   0.0000000   0.0000000

  Atom       171         172         173         174         175         176         177         178         179         180
 IAtWgt=           0           0           0           0           0           0           0           0           0           0
 AtmWgt=   0.0000000   0.0000000   0.0000000   0.0000000   0.0000000   0.0000000   0.0000000   0.0000000   0.0000000   0.0000000
 NucSpn=           0           0           0           0           0           0           0           0           0           0
 AtZEff=   0.0000000   0.0000000   0.0000000   0.0000000   0.0000000   0.0000000   0.0000000   0.0000000   0.0000000   0.0000000
 NQMom=    0.0000000   0.0000000   0.0000000   0.0000000   0.0000000   0.0000000   0.0000000   0.0000000   0.0000000   0.0000000
 NMagM=    0.0000000   0.0000000   0.0000000   0.0000000   0.0000000   0.0000000   0.0000000   0.0000000   0.0000000   0.0000000
 AtZNuc=   0.0000000   0.0000000   0.0000000   0.0000000   0.0000000   0.0000000   0.0000000   0.0000000   0.0000000   0.0000000

  Atom       181         182         183         184         185         186         187         188         189         190
 IAtWgt=           0           0           0           0           0           0           0           0           0           0
 AtmWgt=   0.0000000   0.0000000   0.0000000   0.0000000   0.0000000   0.0000000   0.0000000   0.0000000   0.0000000   0.0000000
 NucSpn=           0           0           0           0           0           0           0           0           0           0
 AtZEff=   0.0000000   0.0000000   0.0000000   0.0000000   0.0000000   0.0000000   0.0000000   0.0000000   0.0000000   0.0000000
 NQMom=    0.0000000   0.0000000   0.0000000   0.0000000   0.0000000   0.0000000   0.0000000   0.0000000   0.0000000   0.0000000
 NMagM=    0.0000000   0.0000000   0.0000000   0.0000000   0.0000000   0.0000000   0.0000000   0.0000000   0.0000000   0.0000000
 AtZNuc=   0.0000000   0.0000000   0.0000000   0.0000000   0.0000000   0.0000000   0.0000000   0.0000000   0.0000000   0.0000000

  Atom       191         192         193         194         195         196         197         198         199         200
 IAtWgt=           0           0           0           0           0           0           0           0           0           0
 AtmWgt=   0.0000000   0.0000000   0.0000000   0.0000000   0.0000000   0.0000000   0.0000000   0.0000000   0.0000000   0.0000000
 NucSpn=           0           0           0           0           0           0           0           0           0           0
 AtZEff=   0.0000000   0.0000000   0.0000000   0.0000000   0.0000000   0.0000000   0.0000000   0.0000000   0.0000000   0.0000000
 NQMom=    0.0000000   0.0000000   0.0000000   0.0000000   0.0000000   0.0000000   0.0000000   0.0000000   0.0000000   0.0000000
 NMagM=    0.0000000   0.0000000   0.0000000   0.0000000   0.0000000   0.0000000   0.0000000   0.0000000   0.0000000   0.0000000
 AtZNuc=   0.0000000   0.0000000   0.0000000   0.0000000   0.0000000   0.0000000   0.0000000   0.0000000   0.0000000   0.0000000

  Atom       201         202         203         204         205         206         207         208         209         210
 IAtWgt=           0           0           0           0           0           0           0           0           0           0
 AtmWgt=   0.0000000   0.0000000   0.0000000   0.0000000   0.0000000   0.0000000   0.0000000   0.0000000   0.0000000   0.0000000
 NucSpn=           0           0           0           0           0           0           0           0           0           0
 AtZEff=   0.0000000   0.0000000   0.0000000   0.0000000   0.0000000   0.0000000   0.0000000   0.0000000   0.0000000   0.0000000
 NQMom=    0.0000000   0.0000000   0.0000000   0.0000000   0.0000000   0.0000000   0.0000000   0.0000000   0.0000000   0.0000000
 NMagM=    0.0000000   0.0000000   0.0000000   0.0000000   0.0000000   0.0000000   0.0000000   0.0000000   0.0000000   0.0000000
 AtZNuc=   0.0000000   0.0000000   0.0000000   0.0000000   0.0000000   0.0000000   0.0000000   0.0000000   0.0000000   0.0000000

  Atom       211         212         213         214         215         216         217         218         219         220
 IAtWgt=           0           0           0           0           0           0           0           0           0           0
 AtmWgt=   0.0000000   0.0000000   0.0000000   0.0000000   0.0000000   0.0000000   0.0000000   0.0000000   0.0000000   0.0000000
 NucSpn=           0           0           0           0           0           0           0           0           0           0
 AtZEff=   0.0000000   0.0000000   0.0000000   0.0000000   0.0000000   0.0000000   0.0000000   0.0000000   0.0000000   0.0000000
 NQMom=    0.0000000   0.0000000   0.0000000   0.0000000   0.0000000   0.0000000   0.0000000   0.0000000   0.0000000   0.0000000
 NMagM=    0.0000000   0.0000000   0.0000000   0.0000000   0.0000000   0.0000000   0.0000000   0.0000000   0.0000000   0.0000000
 AtZNuc=   0.0000000   0.0000000   0.0000000   0.0000000   0.0000000   0.0000000   0.0000000   0.0000000   0.0000000   0.0000000

  Atom       221         222         223         224         225         226         227         228         229         230
 IAtWgt=           0           0           0           0           0           0           0           0           0           0
 AtmWgt=   0.0000000   0.0000000   0.0000000   0.0000000   0.0000000   0.0000000   0.0000000   0.0000000   0.0000000   0.0000000
 NucSpn=           0           0           0           0           0           0           0           0           0           0
 AtZEff=   0.0000000   0.0000000   0.0000000   0.0000000   0.0000000   0.0000000   0.0000000   0.0000000   0.0000000   0.0000000
 NQMom=    0.0000000   0.0000000   0.0000000   0.0000000   0.0000000   0.0000000   0.0000000   0.0000000   0.0000000   0.0000000
 NMagM=    0.0000000   0.0000000   0.0000000   0.0000000   0.0000000   0.0000000   0.0000000   0.0000000   0.0000000   0.0000000
 AtZNuc=   0.0000000   0.0000000   0.0000000   0.0000000   0.0000000   0.0000000   0.0000000   0.0000000   0.0000000   0.0000000

  Atom       231         232         233         234         235         236
 IAtWgt=           0           0           0           0           0           0
 AtmWgt=   0.0000000   0.0000000   0.0000000   0.0000000   0.0000000   0.0000000
 NucSpn=           0           0           0           0           0           0
 AtZEff=   0.0000000   0.0000000   0.0000000   0.0000000   0.0000000   0.0000000
 NQMom=    0.0000000   0.0000000   0.0000000   0.0000000   0.0000000   0.0000000
 NMagM=    0.0000000   0.0000000   0.0000000   0.0000000   0.0000000   0.0000000
 AtZNuc=   0.0000000   0.0000000   0.0000000   0.0000000   0.0000000   0.0000000
 Leave Link  101 at Tue Sep 15 11:49:33 2020, MaxMem=   131072000 cpu:         3.2
 (Enter /share/programs/GAUSSIAN/64/g09/l202.exe)
 Symmetry turned off:
 Cannot cope with ghost atoms or with translation vectors.
 Stoichiometry    C22H14
 Framework group  C1[X(C22H14)]
 NUMDOF-- NAT=    36 NAtoms=   236
 Deg. of freedom     0
 Full point group                 C1      NOp   1
                          Input orientation:                          
 ---------------------------------------------------------------------
 Center     Atomic      Atomic             Coordinates (Angstroms)
 Number     Number       Type             X           Y           Z
 ---------------------------------------------------------------------
      1          6           0        0.653241    3.257859   -0.202510
      2          6           0       -0.653243    3.257860    0.202510
      3          6           0        1.372495    2.032956   -0.320807
      4          6           0       -1.372495    2.032956    0.320807
      5          6           0        0.722474    0.795666   -0.050388
      6          6           0       -0.722474    0.795667    0.050387
      7          6           0        2.760385    2.053927   -0.674268
      8          6           0        3.508866    0.913916   -0.671362
      9          6           0        2.955226   -0.309622   -0.177479
     10          6           0        1.574722   -0.361114    0.197094
     11          1           0        1.183427    4.195740   -0.384599
     12          1           0       -1.183429    4.195740    0.384599
     13          1           0        3.206283    3.012423   -0.951392
     14          1           0        4.560023    0.932956   -0.969333
     15          6           0        3.783020   -1.443098    0.028309
     16          6           0        1.137427   -1.507533    0.912109
     17          6           0        1.973691   -2.584349    1.138062
     18          6           0        3.301853   -2.571588    0.661177
     19          1           0        4.825754   -1.391230   -0.295484
     20          1           0        0.124652   -1.532788    1.308472
     21          1           0        1.603586   -3.445682    1.698977
     22          1           0        3.952742   -3.433526    0.825134
     23          6           0       -3.508866    0.913915    0.671362
     24          6           0       -2.760386    2.053926    0.674268
     25          6           0       -2.955226   -0.309623    0.177479
     26          6           0       -1.574722   -0.361114   -0.197094
     27          6           0       -3.783020   -1.443099   -0.028309
     28          6           0       -3.301852   -2.571589   -0.661177
     29          6           0       -1.973690   -2.584349   -1.138061
     30          6           0       -1.137426   -1.507534   -0.912109
     31          1           0       -4.560022    0.932954    0.969334
     32          1           0       -3.206283    3.012421    0.951392
     33          1           0       -4.825754   -1.391232    0.295484
     34          1           0       -3.952741   -3.433528   -0.825134
     35          1           0       -1.603585   -3.445682   -1.698976
     36          1           0       -0.124652   -1.532788   -1.308471
     37          0           0        1.683045   -2.842129    2.492330
     38          0           0        1.603586   -2.836921    2.492330
     39          0           0        1.524127   -2.842129    2.492330
     40          0           0        1.446027   -2.857664    2.492330
     41          0           0        1.370623   -2.883260    2.492330
     42          0           0        1.299205   -2.918479    2.492330
     43          0           0        1.232996   -2.962719    2.492330
     44          0           0        1.173127   -3.015223    2.492330
     45          0           0        1.120623   -3.075092    2.492330
     46          0           0        1.076383   -3.141301    2.492330
     47          0           0        1.041164   -3.212719    2.492330
     48          0           0        1.015568   -3.288123    2.492330
     49          0           0        1.000033   -3.366223    2.492330
     50          0           0        0.994825   -3.445682    2.492330
     51          0           0        1.000033   -3.525141    2.492330
     52          0           0        1.015568   -3.603241    2.492330
     53          0           0        1.041164   -3.678645    2.492330
     54          0           0        1.076383   -3.750063    2.492330
     55          0           0        1.120623   -3.816272    2.492330
     56          0           0        1.173127   -3.876141    2.492330
     57          0           0        1.232996   -3.928645    2.492330
     58          0           0        1.299205   -3.972885    2.492330
     59          0           0        1.370623   -4.008104    2.492330
     60          0           0        1.446027   -4.033700    2.492330
     61          0           0        1.524127   -4.049235    2.492330
     62          0           0        1.603586   -4.054443    2.492330
     63          0           0        1.683045   -4.049235    2.492330
     64          0           0        1.761145   -4.033700    2.492330
     65          0           0        1.836549   -4.008104    2.492330
     66          0           0        1.907967   -3.972885    2.492330
     67          0           0        1.974176   -3.928645    2.492330
     68          0           0        2.034045   -3.876141    2.492330
     69          0           0        2.086549   -3.816272    2.492330
     70          0           0        2.130789   -3.750063    2.492330
     71          0           0        2.166008   -3.678645    2.492330
     72          0           0        2.191604   -3.603241    2.492330
     73          0           0        2.207139   -3.525141    2.492330
     74          0           0        2.310693   -3.445682    2.406084
     75          0           0        2.304643   -3.353386    2.406084
     76          0           0        2.286599   -3.262669    2.406084
     77          0           0        2.256867   -3.175084    2.406084
     78          0           0        2.215958   -3.092129    2.406084
     79          0           0        2.164572   -3.015223    2.406084
     80          0           0        2.103586   -2.945682    2.406084
     81          0           0        2.034045   -2.884696    2.406084
     82          0           0        1.957139   -2.833310    2.406084
     83          0           0        1.874184   -2.792401    2.406084
     84          0           0        1.786599   -2.762669    2.406084
     85          0           0        1.695882   -2.744625    2.406084
     86          0           0        1.603586   -2.738575    2.406084
     87          0           0        1.511290   -2.744625    2.406084
     88          0           0        1.420573   -2.762669    2.406084
     89          0           0        1.332988   -2.792401    2.406084
     90          0           0        1.250033   -2.833310    2.406084
     91          0           0        1.173127   -2.884696    2.406084
     92          0           0        1.103586   -2.945682    2.406084
     93          0           0        1.042600   -3.015223    2.406084
     94          0           0        0.991214   -3.092129    2.406084
     95          0           0        0.950305   -3.175084    2.406084
     96          0           0        0.920573   -3.262669    2.406084
     97          0           0        0.902529   -3.353386    2.406084
     98          0           0        0.896479   -3.445682    2.406084
     99          0           0        0.902529   -3.537978    2.406084
    100          0           0        0.920573   -3.628695    2.406084
    101          0           0        0.950305   -3.716280    2.406084
    102          0           0        0.991214   -3.799235    2.406084
    103          0           0        1.042600   -3.876141    2.406084
    104          0           0        1.103586   -3.945682    2.406084
    105          0           0        1.173127   -4.006668    2.406084
    106          0           0        1.250033   -4.058054    2.406084
    107          0           0        1.332988   -4.098963    2.406084
    108          0           0        1.420573   -4.128695    2.406084
    109          0           0        1.511290   -4.146739    2.406084
    110          0           0        1.603586   -4.152789    2.406084
    111          0           0        1.695882   -4.146739    2.406084
    112          0           0        1.786599   -4.128695    2.406084
    113          0           0        1.874184   -4.098963    2.406084
    114          0           0        1.957139   -4.058054    2.406084
    115          0           0        2.034045   -4.006668    2.406084
    116          0           0        2.103586   -3.945682    2.406084
    117          0           0        2.164572   -3.876141    2.406084
    118          0           0        2.215958   -3.799235    2.406084
    119          0           0        2.256867   -3.716280    2.406084
    120          0           0        2.286599   -3.628695    2.406084
    121          0           0        2.304643   -3.537978    2.406084
    122          0           0        2.396939   -3.445682    2.307738
    123          0           0        2.390152   -3.342129    2.307738
    124          0           0        2.369906   -3.240347    2.307738
    125          0           0        2.336549   -3.142079    2.307738
    126          0           0        2.290650   -3.049005    2.307738
    127          0           0        2.232996   -2.962719    2.307738
    128          0           0        2.164572   -2.884696    2.307738
    129          0           0        2.086549   -2.816272    2.307738
    130          0           0        2.000263   -2.758618    2.307738
    131          0           0        1.907189   -2.712719    2.307738
    132          0           0        1.808921   -2.679362    2.307738
    133          0           0        1.707139   -2.659116    2.307738
    134          0           0        1.603586   -2.652329    2.307738
    135          0           0        1.500033   -2.659116    2.307738
    136          0           0        1.398251   -2.679362    2.307738
    137          0           0        1.299983   -2.712719    2.307738
    138          0           0        1.206909   -2.758618    2.307738
    139          0           0        1.120623   -2.816272    2.307738
    140          0           0        1.042600   -2.884696    2.307738
    141          0           0        0.974176   -2.962719    2.307738
    142          0           0        0.916522   -3.049005    2.307738
    143          0           0        0.870623   -3.142079    2.307738
    144          0           0        0.837266   -3.240347    2.307738
    145          0           0        0.817020   -3.342129    2.307738
    146          0           0        0.810233   -3.445682    2.307738
    147          0           0        0.817020   -3.549235    2.307738
    148          0           0        0.837266   -3.651017    2.307738
    149          0           0        0.870623   -3.749285    2.307738
    150          0           0        0.916522   -3.842359    2.307738
    151          0           0        0.974176   -3.928645    2.307738
    152          0           0        1.042600   -4.006668    2.307738
    153          0           0        1.120623   -4.075092    2.307738
    154          0           0        1.206909   -4.132746    2.307738
    155          0           0        1.299983   -4.178645    2.307738
    156          0           0        1.398251   -4.212002    2.307738
    157          0           0        1.500033   -4.232248    2.307738
    158          0           0        1.603586   -4.239035    2.307738
    159          0           0        1.707139   -4.232248    2.307738
    160          0           0        1.808921   -4.212002    2.307738
    161          0           0        1.907189   -4.178645    2.307738
    162          0           0        2.000263   -4.132746    2.307738
    163          0           0        2.086549   -4.075092    2.307738
    164          0           0        2.164572   -4.006668    2.307738
    165          0           0        2.232996   -3.928645    2.307738
    166          0           0        2.290650   -3.842359    2.307738
    167          0           0        2.336549   -3.749285    2.307738
    168          0           0        2.369906   -3.651017    2.307738
    169          0           0        2.390152   -3.549235    2.307738
    170          0           0        2.469611   -3.445682    2.198977
    171          0           0        2.462202   -3.332643    2.198977
    172          0           0        2.440102   -3.221538    2.198977
    173          0           0        2.403689   -3.114268    2.198977
    174          0           0        2.353586   -3.012669    2.198977
    175          0           0        2.290650   -2.918479    2.198977
    176          0           0        2.215958   -2.833310    2.198977
    177          0           0        2.130789   -2.758618    2.198977
    178          0           0        2.036599   -2.695682    2.198977
    179          0           0        1.935000   -2.645579    2.198977
    180          0           0        1.827730   -2.609166    2.198977
    181          0           0        1.716625   -2.587066    2.198977
    182          0           0        1.603586   -2.579657    2.198977
    183          0           0        1.490547   -2.587066    2.198977
    184          0           0        1.379442   -2.609166    2.198977
    185          0           0        1.272172   -2.645579    2.198977
    186          0           0        1.170573   -2.695682    2.198977
    187          0           0        1.076383   -2.758618    2.198977
    188          0           0        0.991214   -2.833310    2.198977
    189          0           0        0.916522   -2.918479    2.198977
    190          0           0        0.853586   -3.012669    2.198977
    191          0           0        0.803483   -3.114268    2.198977
    192          0           0        0.767070   -3.221538    2.198977
    193          0           0        0.744970   -3.332643    2.198977
    194          0           0        0.737561   -3.445682    2.198977
    195          0           0        0.744970   -3.558721    2.198977
    196          0           0        0.767070   -3.669826    2.198977
    197          0           0        0.803483   -3.777096    2.198977
    198          0           0        0.853586   -3.878695    2.198977
    199          0           0        0.916522   -3.972885    2.198977
    200          0           0        0.991214   -4.058054    2.198977
    201          0           0        1.076383   -4.132746    2.198977
    202          0           0        1.170573   -4.195682    2.198977
    203          0           0        1.272172   -4.245785    2.198977
    204          0           0        1.379442   -4.282198    2.198977
    205          0           0        1.490547   -4.304298    2.198977
    206          0           0        1.603586   -4.311707    2.198977
    207          0           0        1.716625   -4.304298    2.198977
    208          0           0        1.827730   -4.282198    2.198977
    209          0           0        1.935000   -4.245785    2.198977
    210          0           0        2.036599   -4.195682    2.198977
    211          0           0        2.130789   -4.132746    2.198977
    212          0           0        2.215958   -4.058054    2.198977
    213          0           0        2.290650   -3.972885    2.198977
    214          0           0        2.353586   -3.878695    2.198977
    215          0           0        2.403689   -3.777096    2.198977
    216          0           0        2.440102   -3.669826    2.198977
    217          0           0        2.462202   -3.558721    2.198977
    218          0           0        2.527466   -3.445682    2.081660
    219          0           0        2.519562   -3.325092    2.081660
    220          0           0        2.495985   -3.206564    2.081660
    221          0           0        2.457139   -3.092129    2.081660
    222          0           0        2.403689   -2.983742    2.081660
    223          0           0        2.336549   -2.883260    2.081660
    224          0           0        2.256867   -2.792401    2.081660
    225          0           0        0.950305   -2.792401    2.081660
    226          0           0        0.870623   -2.883260    2.081660
    227          0           0        0.803483   -2.983742    2.081660
    228          0           0        0.750033   -3.092129    2.081660
    229          0           0        0.711187   -3.206564    2.081660
    230          0           0        0.687610   -3.325092    2.081660
    231          0           0        0.679706   -3.445682    2.081660
    232          0           0        0.687610   -3.566272    2.081660
    233          0           0        0.711187   -3.684800    2.081660
    234          0           0        0.750033   -3.799235    2.081660
    235          0           0        0.803483   -3.907622    2.081660
    236          0           0        0.870623   -4.008104    2.081660
 ---------------------------------------------------------------------
 Rotational constants (GHZ):      0.4454681      0.2811480      0.1854303
 Leave Link  202 at Tue Sep 15 11:49:33 2020, MaxMem=   131072000 cpu:         0.0
 (Enter /share/programs/GAUSSIAN/64/g09/l301.exe)
 Standard basis: 6-311+G(d,p) (5D, 7F)
 Warning:  center  37 has no basis functions!
 Warning:  center  38 has no basis functions!
 Warning:  center  39 has no basis functions!
 Warning:  center  40 has no basis functions!
 Warning:  center  41 has no basis functions!
 Warning:  center  42 has no basis functions!
 Warning:  center  43 has no basis functions!
 Warning:  center  44 has no basis functions!
 Warning:  center  45 has no basis functions!
 Warning:  center  46 has no basis functions!
 Warning:  center  47 has no basis functions!
 Warning:  center  48 has no basis functions!
 Warning:  center  49 has no basis functions!
 Warning:  center  50 has no basis functions!
 Warning:  center  51 has no basis functions!
 Warning:  center  52 has no basis functions!
 Warning:  center  53 has no basis functions!
 Warning:  center  54 has no basis functions!
 Warning:  center  55 has no basis functions!
 Warning:  center  56 has no basis functions!
 Warning:  center  57 has no basis functions!
 Warning:  center  58 has no basis functions!
 Warning:  center  59 has no basis functions!
 Warning:  center  60 has no basis functions!
 Warning:  center  61 has no basis functions!
 Warning:  center  62 has no basis functions!
 Warning:  center  63 has no basis functions!
 Warning:  center  64 has no basis functions!
 Warning:  center  65 has no basis functions!
 Warning:  center  66 has no basis functions!
 Warning:  center  67 has no basis functions!
 Warning:  center  68 has no basis functions!
 Warning:  center  69 has no basis functions!
 Warning:  center  70 has no basis functions!
 Warning:  center  71 has no basis functions!
 Warning:  center  72 has no basis functions!
 Warning:  center  73 has no basis functions!
 Warning:  center  74 has no basis functions!
 Warning:  center  75 has no basis functions!
 Warning:  center  76 has no basis functions!
 Warning:  center  77 has no basis functions!
 Warning:  center  78 has no basis functions!
 Warning:  center  79 has no basis functions!
 Warning:  center  80 has no basis functions!
 Warning:  center  81 has no basis functions!
 Warning:  center  82 has no basis functions!
 Warning:  center  83 has no basis functions!
 Warning:  center  84 has no basis functions!
 Warning:  center  85 has no basis functions!
 Warning:  center  86 has no basis functions!
 Warning:  center  87 has no basis functions!
 Warning:  center  88 has no basis functions!
 Warning:  center  89 has no basis functions!
 Warning:  center  90 has no basis functions!
 Warning:  center  91 has no basis functions!
 Warning:  center  92 has no basis functions!
 Warning:  center  93 has no basis functions!
 Warning:  center  94 has no basis functions!
 Warning:  center  95 has no basis functions!
 Warning:  center  96 has no basis functions!
 Warning:  center  97 has no basis functions!
 Warning:  center  98 has no basis functions!
 Warning:  center  99 has no basis functions!
 Warning:  center 100 has no basis functions!
 Warning:  center 101 has no basis functions!
 Warning:  center 102 has no basis functions!
 Warning:  center 103 has no basis functions!
 Warning:  center 104 has no basis functions!
 Warning:  center 105 has no basis functions!
 Warning:  center 106 has no basis functions!
 Warning:  center 107 has no basis functions!
 Warning:  center 108 has no basis functions!
 Warning:  center 109 has no basis functions!
 Warning:  center 110 has no basis functions!
 Warning:  center 111 has no basis functions!
 Warning:  center 112 has no basis functions!
 Warning:  center 113 has no basis functions!
 Warning:  center 114 has no basis functions!
 Warning:  center 115 has no basis functions!
 Warning:  center 116 has no basis functions!
 Warning:  center 117 has no basis functions!
 Warning:  center 118 has no basis functions!
 Warning:  center 119 has no basis functions!
 Warning:  center 120 has no basis functions!
 Warning:  center 121 has no basis functions!
 Warning:  center 122 has no basis functions!
 Warning:  center 123 has no basis functions!
 Warning:  center 124 has no basis functions!
 Warning:  center 125 has no basis functions!
 Warning:  center 126 has no basis functions!
 Warning:  center 127 has no basis functions!
 Warning:  center 128 has no basis functions!
 Warning:  center 129 has no basis functions!
 Warning:  center 130 has no basis functions!
 Warning:  center 131 has no basis functions!
 Warning:  center 132 has no basis functions!
 Warning:  center 133 has no basis functions!
 Warning:  center 134 has no basis functions!
 Warning:  center 135 has no basis functions!
 Warning:  center 136 has no basis functions!
 Warning:  center 137 has no basis functions!
 Warning:  center 138 has no basis functions!
 Warning:  center 139 has no basis functions!
 Warning:  center 140 has no basis functions!
 Warning:  center 141 has no basis functions!
 Warning:  center 142 has no basis functions!
 Warning:  center 143 has no basis functions!
 Warning:  center 144 has no basis functions!
 Warning:  center 145 has no basis functions!
 Warning:  center 146 has no basis functions!
 Warning:  center 147 has no basis functions!
 Warning:  center 148 has no basis functions!
 Warning:  center 149 has no basis functions!
 Warning:  center 150 has no basis functions!
 Warning:  center 151 has no basis functions!
 Warning:  center 152 has no basis functions!
 Warning:  center 153 has no basis functions!
 Warning:  center 154 has no basis functions!
 Warning:  center 155 has no basis functions!
 Warning:  center 156 has no basis functions!
 Warning:  center 157 has no basis functions!
 Warning:  center 158 has no basis functions!
 Warning:  center 159 has no basis functions!
 Warning:  center 160 has no basis functions!
 Warning:  center 161 has no basis functions!
 Warning:  center 162 has no basis functions!
 Warning:  center 163 has no basis functions!
 Warning:  center 164 has no basis functions!
 Warning:  center 165 has no basis functions!
 Warning:  center 166 has no basis functions!
 Warning:  center 167 has no basis functions!
 Warning:  center 168 has no basis functions!
 Warning:  center 169 has no basis functions!
 Warning:  center 170 has no basis functions!
 Warning:  center 171 has no basis functions!
 Warning:  center 172 has no basis functions!
 Warning:  center 173 has no basis functions!
 Warning:  center 174 has no basis functions!
 Warning:  center 175 has no basis functions!
 Warning:  center 176 has no basis functions!
 Warning:  center 177 has no basis functions!
 Warning:  center 178 has no basis functions!
 Warning:  center 179 has no basis functions!
 Warning:  center 180 has no basis functions!
 Warning:  center 181 has no basis functions!
 Warning:  center 182 has no basis functions!
 Warning:  center 183 has no basis functions!
 Warning:  center 184 has no basis functions!
 Warning:  center 185 has no basis functions!
 Warning:  center 186 has no basis functions!
 Warning:  center 187 has no basis functions!
 Warning:  center 188 has no basis functions!
 Warning:  center 189 has no basis functions!
 Warning:  center 190 has no basis functions!
 Warning:  center 191 has no basis functions!
 Warning:  center 192 has no basis functions!
 Warning:  center 193 has no basis functions!
 Warning:  center 194 has no basis functions!
 Warning:  center 195 has no basis functions!
 Warning:  center 196 has no basis functions!
 Warning:  center 197 has no basis functions!
 Warning:  center 198 has no basis functions!
 Warning:  center 199 has no basis functions!
 Warning:  center 200 has no basis functions!
 Warning:  center 201 has no basis functions!
 Warning:  center 202 has no basis functions!
 Warning:  center 203 has no basis functions!
 Warning:  center 204 has no basis functions!
 Warning:  center 205 has no basis functions!
 Warning:  center 206 has no basis functions!
 Warning:  center 207 has no basis functions!
 Warning:  center 208 has no basis functions!
 Warning:  center 209 has no basis functions!
 Warning:  center 210 has no basis functions!
 Warning:  center 211 has no basis functions!
 Warning:  center 212 has no basis functions!
 Warning:  center 213 has no basis functions!
 Warning:  center 214 has no basis functions!
 Warning:  center 215 has no basis functions!
 Warning:  center 216 has no basis functions!
 Warning:  center 217 has no basis functions!
 Warning:  center 218 has no basis functions!
 Warning:  center 219 has no basis functions!
 Warning:  center 220 has no basis functions!
 Warning:  center 221 has no basis functions!
 Warning:  center 222 has no basis functions!
 Warning:  center 223 has no basis functions!
 Warning:  center 224 has no basis functions!
 Warning:  center 225 has no basis functions!
 Warning:  center 226 has no basis functions!
 Warning:  center 227 has no basis functions!
 Warning:  center 228 has no basis functions!
 Warning:  center 229 has no basis functions!
 Warning:  center 230 has no basis functions!
 Warning:  center 231 has no basis functions!
 Warning:  center 232 has no basis functions!
 Warning:  center 233 has no basis functions!
 Warning:  center 234 has no basis functions!
 Warning:  center 235 has no basis functions!
 Warning:  center 236 has no basis functions!
 Ernie: Thresh=  0.10000D-02 Tol=  0.10000D-05 Strict=F.
   568 basis functions,   904 primitive gaussians,   590 cartesian basis functions
    73 alpha electrons       73 beta electrons
       nuclear repulsion energy      1599.9156270972 Hartrees.
 IExCor=  402 DFT=T Ex+Corr=B3LYP ExCW=0 ScaHFX=  0.200000
 ScaDFX=  0.800000  0.720000  1.000000  0.810000 ScalE2=  1.000000  1.000000
 IRadAn=      0 IRanWt=     -1 IRanGd=            0 ICorTp=0 IEmpDi=  4
 NAtoms=  236 NActive=  236 NUniq=  236 SFac= 1.00D+00 NAtFMM=   60 NAOKFM=T Big=T
 Integral buffers will be    131072 words long.
 Raffenetti 2 integral format.
 Two-electron integral symmetry is turned off.
 Leave Link  301 at Tue Sep 15 11:49:33 2020, MaxMem=   131072000 cpu:         0.6
 (Enter /share/programs/GAUSSIAN/64/g09/l302.exe)
 NPDir=0 NMtPBC=     1 NCelOv=     1 NCel=       1 NClECP=     1 NCelD=      1
         NCelK=      1 NCelE2=     1 NClLst=     1 CellRange=     0.0.
 One-electron integrals computed using PRISM.
 NBasis=   568 RedAO= T EigKep=  1.01D-06  NBF=   568
 NBsUse=   557 1.00D-06 EigRej=  9.19D-07 NBFU=   557
 Precomputing XC quadrature grid using
 IXCGrd= 4 IRadAn=           0 IRanWt=          -1 IRanGd=           0 AccXCQ= 0.00D+00.
 Generated NRdTot=       0 NPtTot=           0 NUsed=           0 NTot=          32
 NSgBfM=   587   588   588   589   589 MxSgAt=   236 MxSgA2=    36.
 Leave Link  302 at Tue Sep 15 11:49:35 2020, MaxMem=   131072000 cpu:        15.4
 (Enter /share/programs/GAUSSIAN/64/g09/l308.exe)
 Leave Link  308 at Tue Sep 15 11:49:35 2020, MaxMem=   131072000 cpu:         1.2
 (Enter /share/programs/GAUSSIAN/64/g09/l303.exe)
 DipDrv:  MaxL=1.
 Leave Link  303 at Tue Sep 15 11:49:35 2020, MaxMem=   131072000 cpu:         0.9
 (Enter /share/programs/GAUSSIAN/64/g09/l401.exe)
 Initial guess from the checkpoint file:  "/scratch/aartigas.38973/Gau-13275.chk"
 Skipping rotation of guess because NAtoms(RWF)=  236 differs from NAtoms(Chk)=   36.
 Guess basis will be translated and rotated to current coordinates.
 JPrj=2 DoOrth=T DoCkMO=T.
 Leave Link  401 at Tue Sep 15 11:49:37 2020, MaxMem=   131072000 cpu:        10.5
 (Enter /share/programs/GAUSSIAN/64/g09/l502.exe)
 Closed shell SCF:
 Using DIIS extrapolation, IDIIS=  1040.
 Two-electron integral symmetry not used.
 IVT=     1071582 IEndB=     1071582 NGot=   131072000 MDV=   130365749
 LenX=   130365749 LenY=   130017059
 Requested convergence on RMS density matrix=1.00D-08 within 128 cycles.
 Requested convergence on MAX density matrix=1.00D-06.
 Requested convergence on             energy=1.00D-06.
 No special actions if energy rises.
 Fock matrices will be formed incrementally for  20 cycles.

 Cycle   1  Pass 1  IDiag  1:
 FoFJK:  IHMeth= 1 ICntrl=       0 DoSepK=F KAlg= 0 I1Cent=   0 FoldK=F
 IRaf= 940000000 NMat=   1 IRICut=       1 DoRegI=T DoRafI=F ISym2E= 0.
 FoFCou: FMM=T IPFlag=           0 FMFlag=      100000 FMFlg1=        2001
         NFxFlg=           0 DoJE=F BraDBF=F KetDBF=F FulRan=T
         wScrn=  0.000000 ICntrl=       0 IOpCl=  0 I1Cent=           0 NGrid=           0
         NMat0=    1 NMatS0=      1 NMatT0=    0 NMatD0=    1 NMtDS0=    0 NMtDT0=    0
 Symmetry not used in FoFCou.
 FMM levels:  10  Number of levels for PrismC:   9
 E= -847.003738666969    
 DIIS: error= 5.05D-08 at cycle   1 NSaved=   1.
 NSaved= 1 IEnMin= 1 EnMin= -847.003738666969     IErMin= 1 ErrMin= 5.05D-08
 ErrMax= 5.05D-08  0.00D+00 EMaxC= 1.00D-01 BMatC= 3.55D-12 BMatP= 3.55D-12
 IDIUse=1 WtCom= 1.00D+00 WtEn= 0.00D+00
 Coeff-Com:  0.100D+01
 Coeff:      0.100D+01
 Gap=     0.151 Goal=   None    Shift=    0.000
 RMSDP=2.89D-07 MaxDP=1.34D-05              OVMax= 3.94D-07

 Cycle   2  Pass 1  IDiag  1:
 RMSU=  2.85D-07    CP:  1.00D+00
 E= -847.003738666850     Delta-E=        0.000000000119 Rises=F Damp=F
 DIIS: error= 1.42D-08 at cycle   2 NSaved=   2.
 NSaved= 2 IEnMin= 1 EnMin= -847.003738666969     IErMin= 2 ErrMin= 1.42D-08
 ErrMax= 1.42D-08  0.00D+00 EMaxC= 1.00D-01 BMatC= 2.13D-13 BMatP= 3.55D-12
 IDIUse=1 WtCom= 1.00D+00 WtEn= 0.00D+00
 Coeff-Com:  0.627D-01 0.937D+00
 Coeff:      0.627D-01 0.937D+00
 Gap=     0.151 Goal=   None    Shift=    0.000
 RMSDP=1.57D-08 MaxDP=7.93D-07 DE= 1.19D-10 OVMax= 3.02D-07

 Cycle   3  Pass 1  IDiag  1:
 RMSU=  1.32D-08    CP:  1.00D+00  1.02D+00
 E= -847.003738666811     Delta-E=        0.000000000039 Rises=F Damp=F
 DIIS: error= 2.51D-08 at cycle   3 NSaved=   3.
 NSaved= 3 IEnMin= 1 EnMin= -847.003738666969     IErMin= 2 ErrMin= 1.42D-08
 ErrMax= 2.51D-08  0.00D+00 EMaxC= 1.00D-01 BMatC= 5.05D-13 BMatP= 2.13D-13
 IDIUse=1 WtCom= 1.00D+00 WtEn= 0.00D+00
 Coeff-Com: -0.107D-01 0.616D+00 0.395D+00
 Coeff:     -0.107D-01 0.616D+00 0.395D+00
 Gap=     0.151 Goal=   None    Shift=    0.000
 RMSDP=1.03D-08 MaxDP=4.15D-07 DE= 3.91D-11 OVMax= 2.17D-07

 Cycle   4  Pass 1  IDiag  1:
 RMSU=  5.86D-09    CP:  1.00D+00  1.02D+00  3.91D-01
 E= -847.003738666813     Delta-E=       -0.000000000002 Rises=F Damp=F
 DIIS: error= 8.06D-09 at cycle   4 NSaved=   4.
 NSaved= 4 IEnMin= 1 EnMin= -847.003738666969     IErMin= 4 ErrMin= 8.06D-09
 ErrMax= 8.06D-09  0.00D+00 EMaxC= 1.00D-01 BMatC= 2.07D-14 BMatP= 2.13D-13
 IDIUse=1 WtCom= 1.00D+00 WtEn= 0.00D+00
 Coeff-Com: -0.876D-02 0.309D+00 0.241D+00 0.459D+00
 Coeff:     -0.876D-02 0.309D+00 0.241D+00 0.459D+00
 Gap=     0.151 Goal=   None    Shift=    0.000
 RMSDP=3.96D-09 MaxDP=1.52D-07 DE=-1.82D-12 OVMax= 6.88D-08

 SCF Done:  E(RB3LYP) =  -847.003738667     A.U. after    4 cycles
            NFock=  4  Conv=0.40D-08     -V/T= 2.0049
 KE= 8.428349970566D+02 PE=-5.164192584015D+03 EE= 1.874438221195D+03
 Leave Link  502 at Tue Sep 15 11:51:48 2020, MaxMem=   131072000 cpu:      1044.4
 (Enter /share/programs/GAUSSIAN/64/g09/l801.exe)
 DoSCS=F DFT=T ScalE2(SS,OS)=  1.000000  1.000000
 Range of M.O.s used for correlation:     1   557
 NBasis=   568 NAE=    73 NBE=    73 NFC=     0 NFV=     0
 NROrb=    557 NOA=    73 NOB=    73 NVA=   484 NVB=   484

 **** Warning!!: The largest alpha MO coefficient is  0.14271946D+03

 Leave Link  801 at Tue Sep 15 11:51:48 2020, MaxMem=   131072000 cpu:         0.3
 (Enter /share/programs/GAUSSIAN/64/g09/l1002.exe)
 Minotr:  Closed shell wavefunction.
          Direct CPHF calculation.
          Differentiating once with respect to magnetic field using GIAOs.
          Electric field/nuclear overlap derivatives assumed to be zero.
          Requested convergence is 1.0D-08 RMS, and 1.0D-07 maximum.
          Secondary convergence is 1.0D-12 RMS, and 1.0D-12 maximum.
          NewPWx=T KeepS1=F KeepF1=F KeepIn=T MapXYZ=F SortEE=F KeepMc=T.
          MDV=     131069551 using IRadAn=       2.
 Generate precomputed XC quadrature information.
          Solving linear equations simultaneously, MaxMat=      72.
 FoFCou: FMM=F IPFlag=           0 FMFlag=      100000 FMFlg1=        2001
         NFxFlg=           0 DoJE=F BraDBF=F KetDBF=T FulRan=T
         wScrn=  0.000000 ICntrl=    6100 IOpCl=  0 I1Cent=           7 NGrid=         236
         NMat0=    1 NMatS0=      1 NMatT0=    0 NMatD0=    1 NMtDS0=    0 NMtDT0=    0
 Symmetry not used in FoFCou.
 FoFJK:  IHMeth= 1 ICntrl=    6127 DoSepK=F KAlg= 0 I1Cent=   0 FoldK=F
 IRaf=         1 NMat=   1 IRICut=       1 DoRegI=T DoRafI=F ISym2E= 0.
          There are     3 degrees of freedom in the 1st order CPHF.  IDoFFX=0 NUNeed=     3.
      3 vectors produced by pass  0 Test12= 1.18D-12 3.33D-08 XBig12= 1.96D+03 8.77D+00.
 AX will form     3 AO Fock derivatives at one time.
      3 vectors produced by pass  1 Test12= 1.18D-12 3.33D-08 XBig12= 3.18D+00 7.58D-01.
      3 vectors produced by pass  2 Test12= 1.18D-12 3.33D-08 XBig12= 1.86D-02 5.85D-02.
      3 vectors produced by pass  3 Test12= 1.18D-12 3.33D-08 XBig12= 4.29D-05 1.35D-03.
      3 vectors produced by pass  4 Test12= 1.18D-12 3.33D-08 XBig12= 9.75D-08 7.22D-05.
      3 vectors produced by pass  5 Test12= 1.18D-12 3.33D-08 XBig12= 3.97D-10 5.92D-06.
      3 vectors produced by pass  6 Test12= 1.18D-12 3.33D-08 XBig12= 1.51D-12 4.40D-07.
 InvSVY:  IOpt=1 It=  1 EMax= 7.11D-15
 Solved reduced A of dimension    21 with     3 vectors.
 Calculating GIAO nuclear magnetic shielding tensors.
 SCF GIAO Magnetic shielding tensor (ppm):
      1  C    Isotropic =    49.6861   Anisotropy =   149.7970
   XX=    46.3088   YX=   -25.0950   ZX=    31.4786
   XY=   -31.1109   YY=   -39.0339   ZY=    13.2621
   XZ=    24.9178   YZ=     8.9888   ZZ=   141.7833
   Eigenvalues:   -49.3507    48.8581   149.5507
      2  C    Isotropic =    49.6861   Anisotropy =   149.7971
   XX=    46.3088   YX=    25.0953   ZX=    31.4786
   XY=    31.1111   YY=   -39.0339   ZY=   -13.2621
   XZ=    24.9177   YZ=    -8.9889   ZZ=   141.7834
   Eigenvalues:   -49.3508    48.8583   149.5509
      3  C    Isotropic =    44.4899   Anisotropy =   204.7372
   XX=   -22.2199   YX=    10.8075   ZX=    51.2710
   XY=     4.9259   YY=   -14.7126   ZY=    14.7921
   XZ=    32.3655   YZ=    21.2392   ZZ=   170.4022
   Eigenvalues:   -31.9593   -15.5523   180.9814
      4  C    Isotropic =    44.4899   Anisotropy =   204.7373
   XX=   -22.2198   YX=   -10.8075   ZX=    51.2710
   XY=    -4.9256   YY=   -14.7126   ZY=   -14.7922
   XZ=    32.3656   YZ=   -21.2393   ZZ=   170.4023
   Eigenvalues:   -31.9592   -15.5524   180.9815
      5  C    Isotropic =    48.5420   Anisotropy =   189.5490
   XX=   -14.6790   YX=     4.7342   ZX=     8.4333
   XY=    20.3759   YY=    -5.5375   ZY=    31.5121
   XZ=    65.1218   YZ=     0.8640   ZZ=   165.8426
   Eigenvalues:   -26.3226    -2.9593   174.9080
      6  C    Isotropic =    48.5421   Anisotropy =   189.5489
   XX=   -14.6789   YX=    -4.7340   ZX=     8.4335
   XY=   -20.3758   YY=    -5.5374   ZY=   -31.5121
   XZ=    65.1218   YZ=    -0.8638   ZZ=   165.8426
   Eigenvalues:   -26.3224    -2.9594   174.9080
      7  C    Isotropic =    50.1907   Anisotropy =   149.2089
   XX=    19.7303   YX=   -44.2755   ZX=    41.2886
   XY=   -38.0437   YY=    -2.7069   ZY=    36.9011
   XZ=    36.5866   YZ=    37.5458   ZZ=   133.5487
   Eigenvalues:   -49.6656    50.5744   149.6633
      8  C    Isotropic =    48.9362   Anisotropy =   152.4339
   XX=   -31.5093   YX=   -11.4921   ZX=    54.7730
   XY=   -19.0468   YY=    46.5898   ZY=    27.5522
   XZ=    42.2451   YZ=    29.8391   ZZ=   131.7282
   Eigenvalues:   -50.1461    46.3960   150.5589
      9  C    Isotropic =    44.4204   Anisotropy =   209.3981
   XX=   -10.1987   YX=    16.7536   ZX=    44.4888
   XY=     8.9342   YY=    -7.7270   ZY=    61.4651
   XZ=    43.3269   YZ=    64.9792   ZZ=   151.1869
   Eigenvalues:   -30.3689   -20.3891   184.0192
     10  C    Isotropic =    45.3894   Anisotropy =   198.3236
   XX=    -5.9706   YX=    23.3819   ZX=    35.6519
   XY=    38.1954   YY=     1.7271   ZY=    73.1370
   XZ=    54.0013   YZ=    45.7045   ZZ=   140.4116
   Eigenvalues:   -33.5315    -7.9055   177.6051
     11  H    Isotropic =    23.8179   Anisotropy =     7.5674
   XX=    27.2191   YX=    -1.9090   ZX=    -2.2602
   XY=    -1.7961   YY=    24.8722   ZY=    -0.1966
   XZ=    -3.3763   YZ=    -0.1950   ZZ=    19.3625
   Eigenvalues:    18.3647    24.2263    28.8628
     12  H    Isotropic =    23.8179   Anisotropy =     7.5674
   XX=    27.2191   YX=     1.9090   ZX=    -2.2602
   XY=     1.7961   YY=    24.8722   ZY=     0.1966
   XZ=    -3.3763   YZ=     0.1950   ZZ=    19.3625
   Eigenvalues:    18.3647    24.2263    28.8628
     13  H    Isotropic =    23.8548   Anisotropy =     7.5124
[...]
   126  Bq   0.000000
   127  Bq   0.000000
   128  Bq   0.000000
   129  Bq   0.000000
   130  Bq   0.000000
   131  Bq   0.000000
   132  Bq   0.000000
   133  Bq   0.000000
   134  Bq   0.000000
   135  Bq   0.000000
   136  Bq   0.000000
   137  Bq   0.000000
   138  Bq   0.000000
   139  Bq   0.000000
   140  Bq   0.000000
   141  Bq   0.000000
   142  Bq   0.000000
   143  Bq   0.000000
   144  Bq   0.000000
   145  Bq   0.000000
   146  Bq   0.000000
   147  Bq   0.000000
   148  Bq   0.000000
   149  Bq   0.000000
   150  Bq   0.000000
   151  Bq   0.000000
   152  Bq   0.000000
   153  Bq   0.000000
   154  Bq   0.000000
   155  Bq   0.000000
   156  Bq   0.000000
   157  Bq   0.000000
   158  Bq   0.000000
   159  Bq   0.000000
   160  Bq   0.000000
   161  Bq   0.000000
   162  Bq   0.000000
   163  Bq   0.000000
   164  Bq   0.000000
   165  Bq   0.000000
   166  Bq   0.000000
   167  Bq   0.000000
   168  Bq   0.000000
   169  Bq   0.000000
   170  Bq   0.000000
   171  Bq   0.000000
   172  Bq   0.000000
   173  Bq   0.000000
   174  Bq   0.000000
   175  Bq   0.000000
   176  Bq   0.000000
   177  Bq   0.000000
   178  Bq   0.000000
   179  Bq   0.000000
   180  Bq   0.000000
   181  Bq   0.000000
   182  Bq   0.000000
   183  Bq   0.000000
   184  Bq   0.000000
   185  Bq   0.000000
   186  Bq   0.000000
   187  Bq   0.000000
   188  Bq   0.000000
   189  Bq   0.000000
   190  Bq   0.000000
   191  Bq   0.000000
   192  Bq   0.000000
   193  Bq   0.000000
   194  Bq   0.000000
   195  Bq   0.000000
   196  Bq   0.000000
   197  Bq   0.000000
   198  Bq   0.000000
   199  Bq   0.000000
   200  Bq   0.000000
   201  Bq   0.000000
   202  Bq   0.000000
   203  Bq   0.000000
   204  Bq   0.000000
   205  Bq   0.000000
   206  Bq   0.000000
   207  Bq   0.000000
   208  Bq   0.000000
   209  Bq   0.000000
   210  Bq   0.000000
   211  Bq   0.000000
   212  Bq   0.000000
   213  Bq   0.000000
   214  Bq   0.000000
   215  Bq   0.000000
   216  Bq   0.000000
   217  Bq   0.000000
   218  Bq   0.000000
   219  Bq   0.000000
   220  Bq   0.000000
   221  Bq   0.000000
   222  Bq   0.000000
   223  Bq   0.000000
   224  Bq   0.000000
   225  Bq   0.000000
   226  Bq   0.000000
   227  Bq   0.000000
   228  Bq   0.000000
   229  Bq   0.000000
   230  Bq   0.000000
   231  Bq   0.000000
   232  Bq   0.000000
   233  Bq   0.000000
   234  Bq   0.000000
   235  Bq   0.000000
   236  Bq   0.000000
 Sum of Mulliken charges =   0.00000
 Mulliken charges with hydrogens summed into heavy atoms:
               1
     1  C   -0.262865
     2  C   -0.262866
     3  C    0.737923
     4  C    0.737922
     5  C   -0.039994
     6  C   -0.040001
     7  C    0.075155
     8  C   -0.330147
     9  C    0.780501
    10  C   -0.200782
    15  C    0.249272
    16  C   -0.533462
    17  C   -0.313984
    18  C   -0.286191
    23  C   -0.330145
    24  C    0.075154
    25  C    0.780496
    26  C   -0.200782
    27  C    0.249273
    28  C   -0.286192
    29  C   -0.189403
    30  C   -0.533462
    37  Bq   0.000000
    38  Bq   0.000000
    39  Bq   0.000000
    40  Bq   0.000000
    41  Bq   0.000000
    42  Bq   0.000000
    43  Bq   0.000000
    44  Bq   0.000000
    45  Bq   0.000000
    46  Bq   0.000000
    47  Bq   0.000000
    48  Bq   0.000000
    49  Bq   0.000000
    50  Bq   0.000000
    51  Bq   0.000000
    52  Bq   0.000000
    53  Bq   0.000000
    54  Bq   0.000000
    55  Bq   0.000000
    56  Bq   0.000000
    57  Bq   0.000000
    58  Bq   0.000000
    59  Bq   0.000000
    60  Bq   0.000000
    61  Bq   0.000000
    62  Bq   0.000000
    63  Bq   0.000000
    64  Bq   0.000000
    65  Bq   0.000000
    66  Bq   0.000000
    67  Bq   0.000000
    68  Bq   0.000000
    69  Bq   0.000000
    70  Bq   0.000000
    71  Bq   0.000000
    72  Bq   0.000000
    73  Bq   0.000000
    74  Bq   0.000000
    75  Bq   0.000000
    76  Bq   0.000000
    77  Bq   0.000000
    78  Bq   0.000000
    79  Bq   0.000000
    80  Bq   0.000000
    81  Bq   0.000000
    82  Bq   0.000000
    83  Bq   0.000000
    84  Bq   0.000000
    85  Bq   0.000000
    86  Bq   0.000000
    87  Bq   0.000000
    88  Bq   0.000000
    89  Bq   0.000000
    90  Bq   0.000000
    91  Bq   0.000000
    92  Bq   0.000000
    93  Bq   0.000000
    94  Bq   0.000000
    95  Bq   0.000000
    96  Bq   0.000000
    97  Bq   0.000000
    98  Bq   0.000000
    99  Bq   0.000000
   100  Bq   0.000000
   101  Bq   0.000000
   102  Bq   0.000000
   103  Bq   0.000000
   104  Bq   0.000000
   105  Bq   0.000000
   106  Bq   0.000000
   107  Bq   0.000000
   108  Bq   0.000000
   109  Bq   0.000000
   110  Bq   0.000000
   111  Bq   0.000000
   112  Bq   0.000000
   113  Bq   0.000000
   114  Bq   0.000000
   115  Bq   0.000000
   116  Bq   0.000000
   117  Bq   0.000000
   118  Bq   0.000000
   119  Bq   0.000000
   120  Bq   0.000000
   121  Bq   0.000000
   122  Bq   0.000000
   123  Bq   0.000000
   124  Bq   0.000000
   125  Bq   0.124580
   126  Bq   0.000000
   127  Bq   0.000000
   128  Bq   0.000000
   129  Bq   0.000000
   130  Bq   0.000000
   131  Bq   0.000000
   132  Bq   0.000000
   133  Bq   0.000000
   134  Bq   0.000000
   135  Bq   0.000000
   136  Bq   0.000000
   137  Bq   0.000000
   138  Bq   0.000000
   139  Bq   0.000000
   140  Bq   0.000000
   141  Bq   0.000000
   142  Bq   0.000000
   143  Bq   0.000000
   144  Bq   0.000000
   145  Bq   0.000000
   146  Bq   0.000000
   147  Bq   0.000000
   148  Bq   0.000000
   149  Bq   0.000000
   150  Bq   0.000000
   151  Bq   0.000000
   152  Bq   0.000000
   153  Bq   0.000000
   154  Bq   0.000000
   155  Bq   0.000000
   156  Bq   0.000000
   157  Bq   0.000000
   158  Bq   0.000000
   159  Bq   0.000000
   160  Bq   0.000000
   161  Bq   0.000000
   162  Bq   0.000000
   163  Bq   0.000000
   164  Bq   0.000000
   165  Bq   0.000000
   166  Bq   0.000000
   167  Bq   0.000000
   168  Bq   0.000000
   169  Bq   0.000000
   170  Bq   0.000000
   171  Bq   0.000000
   172  Bq   0.000000
   173  Bq   0.000000
   174  Bq   0.000000
   175  Bq   0.000000
   176  Bq   0.000000
   177  Bq   0.000000
   178  Bq   0.000000
   179  Bq   0.000000
   180  Bq   0.000000
   181  Bq   0.000000
   182  Bq   0.000000
   183  Bq   0.000000
   184  Bq   0.000000
   185  Bq   0.000000
   186  Bq   0.000000
   187  Bq   0.000000
   188  Bq   0.000000
   189  Bq   0.000000
   190  Bq   0.000000
   191  Bq   0.000000
   192  Bq   0.000000
   193  Bq   0.000000
   194  Bq   0.000000
   195  Bq   0.000000
   196  Bq   0.000000
   197  Bq   0.000000
   198  Bq   0.000000
   199  Bq   0.000000
   200  Bq   0.000000
   201  Bq   0.000000
   202  Bq   0.000000
   203  Bq   0.000000
   204  Bq   0.000000
   205  Bq   0.000000
   206  Bq   0.000000
   207  Bq   0.000000
   208  Bq   0.000000
   209  Bq   0.000000
   210  Bq   0.000000
   211  Bq   0.000000
   212  Bq   0.000000
   213  Bq   0.000000
   214  Bq   0.000000
   215  Bq   0.000000
   216  Bq   0.000000
   217  Bq   0.000000
   218  Bq   0.000000
   219  Bq   0.000000
   220  Bq   0.000000
   221  Bq   0.000000
   222  Bq   0.000000
   223  Bq   0.000000
   224  Bq   0.000000
   225  Bq   0.000000
   226  Bq   0.000000
   227  Bq   0.000000
   228  Bq   0.000000
   229  Bq   0.000000
   230  Bq   0.000000
   231  Bq   0.000000
   232  Bq   0.000000
   233  Bq   0.000000
   234  Bq   0.000000
   235  Bq   0.000000
   236  Bq   0.000000
 Electronic spatial extent (au):  <R**2>=           5804.3227
 Charge=              0.0000 electrons
 Dipole moment (field-independent basis, Debye):
    X=              0.0000    Y=              0.0732    Z=              0.0000  Tot=              0.0732
 Quadrupole moment (field-independent basis, Debye-Ang):
   XX=           -113.9137   YY=           -113.9781   ZZ=           -133.4378
   XY=              0.0000   XZ=             -4.8717   YZ=              0.0000
 Traceless Quadrupole moment (field-independent basis, Debye-Ang):
   XX=              6.5295   YY=              6.4651   ZZ=            -12.9946
   XY=              0.0000   XZ=             -4.8717   YZ=              0.0000
 Octapole moment (field-independent basis, Debye-Ang**2):
  XXX=              0.0000  YYY=             11.7108  ZZZ=              0.0000  XYY=              0.0000
  XXY=             -6.4067  XXZ=              0.0000  XZZ=              0.0000  YZZ=             -7.8695
  YYZ=              0.0000  XYZ=            -16.2862
 Hexadecapole moment (field-independent basis, Debye-Ang**3):
 XXXX=          -4416.4021 YYYY=          -2784.9756 ZZZZ=           -481.5690 XXXY=              0.0001
 XXXZ=           -124.3517 YYYX=             -0.0003 YYYZ=              0.0001 ZZZX=             -4.4782
 ZZZY=              0.0001 XXYY=          -1189.3576 XXZZ=           -942.9016 YYZZ=           -589.4012
 XXYZ=              0.0000 YYXZ=              7.8297 ZZXY=             -0.0001
 N-N= 1.599915627097D+03 E-N=-5.164192587538D+03  KE= 8.428349970566D+02
 Leave Link  601 at Tue Sep 15 12:02:38 2020, MaxMem=   131072000 cpu:         0.8
 (Enter /share/programs/GAUSSIAN/64/g09/l9999.exe)
 1\1\GINC-URBICANDE\SP\RB3LYP\6-311+G(d,p)\C22H14\AARTIGAS\15-Sep-2020\
 0\\#P rb3lyp/6-311+g** NMR Guess=Read geom=connectivity\\Title\\0,1\C,
 0,0.653241,3.257859,-0.20251\C,0,-0.653243,3.25786,0.20251\C,0,1.37249
 5,2.032956,-0.320807\C,0,-1.372495,2.032956,0.320807\C,0,0.722474,0.79
 5666,-0.050388\C,0,-0.722474,0.795667,0.050387\C,0,2.760385,2.053927,-
 0.674268\C,0,3.508866,0.913916,-0.671362\C,0,2.955226,-0.309622,-0.177
 479\C,0,1.574722,-0.361114,0.197094\H,0,1.183427,4.19574,-0.384599\H,0
 ,-1.183429,4.19574,0.384599\H,0,3.206283,3.012423,-0.951392\H,0,4.5600
 23,0.932956,-0.969333\C,0,3.78302,-1.443098,0.028309\C,0,1.137427,-1.5
 07533,0.912109\C,0,1.973691,-2.584349,1.138062\C,0,3.301853,-2.571588,
 0.661177\H,0,4.825754,-1.39123,-0.295484\H,0,0.124652,-1.532788,1.3084
 72\H,0,1.603586,-3.445682,1.698977\H,0,3.952742,-3.433526,0.825134\C,0
 ,-3.508866,0.913915,0.671362\C,0,-2.760386,2.053926,0.674268\C,0,-2.95
 5226,-0.309623,0.177479\C,0,-1.574722,-0.361114,-0.197094\C,0,-3.78302
 ,-1.443099,-0.028309\C,0,-3.301852,-2.571589,-0.661177\C,0,-1.97369,-2
 .584349,-1.138061\C,0,-1.137426,-1.507534,-0.912109\H,0,-4.560022,0.93
 2954,0.969334\H,0,-3.206283,3.012421,0.951392\H,0,-4.825754,-1.391232,
 0.295484\H,0,-3.952741,-3.433528,-0.825134\H,0,-1.603585,-3.445682,-1.
 698976\H,0,-0.124652,-1.532788,-1.308471\Bq,0,1.6830453113,-2.84212860
 94,2.4923303403\Bq,0,1.603586,-2.836920571,2.4923303403\Bq,0,1.5241266
 887,-2.8421286094,2.4923303403\Bq,0,1.4460269482,-2.8576636137,2.49233
 03403\Bq,0,1.3706230869,-2.8832597756,2.4923303403\Bq,0,1.2992052855,-
 2.9184791376,2.4923303403\Bq,0,1.2329955226,-2.9627190869,2.4923303403
 \Bq,0,1.1731266654,-3.0152226654,2.4923303403\Bq,0,1.1206230869,-3.075
 0915226,2.4923303403\Bq,0,1.0763831376,-3.1413012855,2.4923303403\Bq,0
 ,1.0411637756,-3.2127190869,2.4923303403\Bq,0,1.0155676137,-3.28812294
 82,2.4923303403\Bq,0,1.0000326094,-3.3662226887,2.4923303403\Bq,0,0.99
 4824571,-3.445682,2.4923303403\Bq,0,1.0000326094,-3.5251413113,2.49233
 03403\Bq,0,1.0155676137,-3.6032410518,2.4923303403\Bq,0,1.0411637756,-
 3.6786449131,2.4923303403\Bq,0,1.0763831376,-3.7500627145,2.4923303403
 \Bq,0,1.1206230869,-3.8162724774,2.4923303403\Bq,0,1.1731266654,-3.876
 1413346,2.4923303403\Bq,0,1.2329955226,-3.9286449131,2.4923303403\Bq,0
 ,1.2992052855,-3.9728848624,2.4923303403\Bq,0,1.3706230869,-4.00810422
 44,2.4923303403\Bq,0,1.4460269482,-4.0337003863,2.4923303403\Bq,0,1.52
 41266887,-4.0492353906,2.4923303403\Bq,0,1.603586,-4.054443429,2.49233
 03403\Bq,0,1.6830453113,-4.0492353906,2.4923303403\Bq,0,1.7611450518,-
 4.0337003863,2.4923303403\Bq,0,1.8365489131,-4.0081042244,2.4923303403
 \Bq,0,1.9079667145,-3.9728848624,2.4923303403\Bq,0,1.9741764774,-3.928
 6449131,2.4923303403\Bq,0,2.0340453346,-3.8761413346,2.4923303403\Bq,0
 ,2.0865489131,-3.8162724774,2.4923303403\Bq,0,2.1307888624,-3.75006271
 45,2.4923303403\Bq,0,2.1660082244,-3.6786449131,2.4923303403\Bq,0,2.19
 16043863,-3.6032410518,2.4923303403\Bq,0,2.2071393906,-3.5251413113,2.
 4923303403\Bq,0,2.3106927812,-3.445682,2.4060837812\Bq,0,2.3046433846,
 -3.3533860444,2.4060837812\Bq,0,2.2865987019,-3.2626692981,2.406083781
 2\Bq,0,2.2568674824,-3.1750839499,2.4060837812\Bq,0,2.2159584357,-3.09
 21286094,2.4060837812\Bq,0,2.1645715268,-3.0152226654,2.4060837812\Bq,
 0,2.103586,-2.945682,2.4060837812\Bq,0,2.0340453346,-2.8846964732,2.40
 60837812\Bq,0,1.9571393906,-2.8333095643,2.4060837812\Bq,0,1.874184050
 1,-2.7924005176,2.4060837812\Bq,0,1.7865987019,-2.7626692981,2.4060837
 812\Bq,0,1.6958819556,-2.7446246154,2.4060837812\Bq,0,1.603586,-2.7385
 752188,2.4060837812\Bq,0,1.5112900444,-2.7446246154,2.4060837812\Bq,0,
 1.4205732981,-2.7626692981,2.4060837812\Bq,0,1.3329879499,-2.792400517
 6,2.4060837812\Bq,0,1.2500326094,-2.8333095643,2.4060837812\Bq,0,1.173
 1266654,-2.8846964732,2.4060837812\Bq,0,1.103586,-2.945682,2.406083781
 2\Bq,0,1.0426004732,-3.0152226654,2.4060837812\Bq,0,0.9912135643,-3.09
 21286094,2.4060837812\Bq,0,0.9503045176,-3.1750839499,2.4060837812\Bq,
 0,0.9205732981,-3.2626692981,2.4060837812\Bq,0,0.9025286154,-3.3533860
 444,2.4060837812\Bq,0,0.8964792188,-3.445682,2.4060837812\Bq,0,0.90252
 86154,-3.5379779556,2.4060837812\Bq,0,0.9205732981,-3.6286947019,2.406
 0837812\Bq,0,0.9503045176,-3.7162800501,2.4060837812\Bq,0,0.9912135643
 ,-3.7992353906,2.4060837812\Bq,0,1.0426004732,-3.8761413346,2.40608378
 12\Bq,0,1.103586,-3.945682,2.4060837812\Bq,0,1.1731266654,-4.006667526
 8,2.4060837812\Bq,0,1.2500326094,-4.0580544357,2.4060837812\Bq,0,1.332
 9879499,-4.0989634824,2.4060837812\Bq,0,1.4205732981,-4.1286947019,2.4
 060837812\Bq,0,1.5112900444,-4.1467393846,2.4060837812\Bq,0,1.603586,-
 4.1527887812,2.4060837812\Bq,0,1.6958819556,-4.1467393846,2.4060837812
 \Bq,0,1.7865987019,-4.1286947019,2.4060837812\Bq,0,1.8741840501,-4.098
 9634824,2.4060837812\Bq,0,1.9571393906,-4.0580544357,2.4060837812\Bq,0
 ,2.0340453346,-4.0066675268,2.4060837812\Bq,0,2.103586,-3.945682,2.406
 0837812\Bq,0,2.1645715268,-3.8761413346,2.4060837812\Bq,0,2.2159584357
 ,-3.7992353906,2.4060837812\Bq,0,2.2568674824,-3.7162800501,2.40608378
 12\Bq,0,2.2865987019,-3.6286947019,2.4060837812\Bq,0,2.3046433846,-3.5
 379779556,2.4060837812\Bq,0,2.3969393403,-3.445682,2.307738429\Bq,0,2.
 3901520925,-3.3421286094,2.307738429\Bq,0,2.3699064808,-3.240347046,2.
 307738429\Bq,0,2.3365489131,-3.1420788207,2.307738429\Bq,0,2.290650146
 9,-3.0490053299,2.307738429\Bq,0,2.2329955226,-2.9627190869,2.30773842
 9\Bq,0,2.1645715268,-2.8846964732,2.307738429\Bq,0,2.0865489131,-2.816
 2724774,2.307738429\Bq,0,2.0002626701,-2.7586178531,2.307738429\Bq,0,1
 .9071891793,-2.7127190869,2.307738429\Bq,0,1.808920954,-2.6793615192,2
 .307738429\Bq,0,1.7071393906,-2.6591159075,2.307738429\Bq,0,1.603586,-
 2.6523286597,2.307738429\Bq,0,1.5000326094,-2.6591159075,2.307738429\B
 q,0,1.398251046,-2.6793615192,2.307738429\Bq,0,1.2999828207,-2.7127190
 869,2.307738429\Bq,0,1.2069093299,-2.7586178531,2.307738429\Bq,0,1.120
 6230869,-2.8162724774,2.307738429\Bq,0,1.0426004732,-2.8846964732,2.30
 7738429\Bq,0,0.9741764774,-2.9627190869,2.307738429\Bq,0,0.9165218531,
 -3.0490053299,2.307738429\Bq,0,0.8706230869,-3.1420788207,2.307738429\
 Bq,0,0.8372655192,-3.240347046,2.307738429\Bq,0,0.8170199075,-3.342128
 6094,2.307738429\Bq,0,0.8102326597,-3.445682,2.307738429\Bq,0,0.817019
 9075,-3.5492353906,2.307738429\Bq,0,0.8372655192,-3.651016954,2.307738
 429\Bq,0,0.8706230869,-3.7492851793,2.307738429\Bq,0,0.9165218531,-3.8
 423586701,2.307738429\Bq,0,0.9741764774,-3.9286449131,2.307738429\Bq,0
 ,1.0426004732,-4.0066675268,2.307738429\Bq,0,1.1206230869,-4.075091522
 6,2.307738429\Bq,0,1.2069093299,-4.1327461469,2.307738429\Bq,0,1.29998
 28207,-4.1786449131,2.307738429\Bq,0,1.398251046,-4.2120024808,2.30773
 8429\Bq,0,1.5000326094,-4.2322480925,2.307738429\Bq,0,1.603586,-4.2390
 353403,2.307738429\Bq,0,1.7071393906,-4.2322480925,2.307738429\Bq,0,1.
 808920954,-4.2120024808,2.307738429\Bq,0,1.9071891793,-4.1786449131,2.
 307738429\Bq,0,2.0002626701,-4.1327461469,2.307738429\Bq,0,2.086548913
 1,-4.0750915226,2.307738429\Bq,0,2.1645715268,-4.0066675268,2.30773842
 9\Bq,0,2.2329955226,-3.9286449131,2.307738429\Bq,0,2.2906501469,-3.842
 3586701,2.307738429\Bq,0,2.3365489131,-3.7492851793,2.307738429\Bq,0,2
 .3699064808,-3.651016954,2.307738429\Bq,0,2.3901520925,-3.5492353906,2
 .307738429\Bq,0,2.4696114038,-3.445682,2.198977\Bq,0,2.4622024364,-3.3
 326430017,2.198977\Bq,0,2.4401023037,-3.221538132,2.198977\Bq,0,2.4036
 891452,-3.114268426,2.198977\Bq,0,2.353586,-3.0126692981,2.198977\Bq,0
 ,2.2906501469,-2.9184791376,2.198977\Bq,0,2.2159584357,-2.8333095643,2
 .198977\Bq,0,2.1307888624,-2.7586178531,2.198977\Bq,0,2.0365987019,-2.
 695682,2.198977\Bq,0,1.934999574,-2.6455788548,2.198977\Bq,0,1.8277298
 68,-2.6091656963,2.198977\Bq,0,1.7166249983,-2.5870655636,2.198977\Bq,
 0,1.603586,-2.5796565962,2.198977\Bq,0,1.4905470017,-2.5870655636,2.19
 8977\Bq,0,1.379442132,-2.6091656963,2.198977\Bq,0,1.272172426,-2.64557
 88548,2.198977\Bq,0,1.1705732981,-2.695682,2.198977\Bq,0,1.0763831376,
 -2.7586178531,2.198977\Bq,0,0.9912135643,-2.8333095643,2.198977\Bq,0,0
 .9165218531,-2.9184791376,2.198977\Bq,0,0.853586,-3.0126692981,2.19897
 7\Bq,0,0.8034828548,-3.114268426,2.198977\Bq,0,0.7670696963,-3.2215381
 32,2.198977\Bq,0,0.7449695636,-3.3326430017,2.198977\Bq,0,0.7375605962
 ,-3.445682,2.198977\Bq,0,0.7449695636,-3.5587209983,2.198977\Bq,0,0.76
 70696963,-3.669825868,2.198977\Bq,0,0.8034828548,-3.777095574,2.198977
 \Bq,0,0.853586,-3.8786947019,2.198977\Bq,0,0.9165218531,-3.9728848624,
 2.198977\Bq,0,0.9912135643,-4.0580544357,2.198977\Bq,0,1.0763831376,-4
 .1327461469,2.198977\Bq,0,1.1705732981,-4.195682,2.198977\Bq,0,1.27217
 2426,-4.2457851452,2.198977\Bq,0,1.379442132,-4.2821983037,2.198977\Bq
 ,0,1.4905470017,-4.3042984364,2.198977\Bq,0,1.603586,-4.3117074038,2.1
 98977\Bq,0,1.7166249983,-4.3042984364,2.198977\Bq,0,1.827729868,-4.282
 1983037,2.198977\Bq,0,1.934999574,-4.2457851452,2.198977\Bq,0,2.036598
 7019,-4.195682,2.198977\Bq,0,2.1307888624,-4.1327461469,2.198977\Bq,0,
 2.2159584357,-4.0580544357,2.198977\Bq,0,2.2906501469,-3.9728848624,2.
 198977\Bq,0,2.353586,-3.8786947019,2.198977\Bq,0,2.4036891452,-3.77709
 5574,2.198977\Bq,0,2.4401023037,-3.669825868,2.198977\Bq,0,2.462202436
 4,-3.5587209983,2.198977\Bq,0,2.5274655325,-3.445682,2.0816604324\Bq,0
 ,2.519561615,-3.3250915226,2.0816604324\Bq,0,2.4959851008,-3.206564381
 6,2.0816604324\Bq,0,2.4571393906,-3.0921286094,2.0816604324\Bq,0,2.403
 6891452,-2.9837422337,2.0816604324\Bq,0,2.3365489131,-2.8832597756,2.0
 816604324\Bq,0,2.2568674824,-2.7924005176,2.0816604324\Bq,0,0.95030451
 76,-2.7924005176,2.0816604324\Bq,0,0.8706230869,-2.8832597756,2.081660
 4324\Bq,0,0.8034828548,-2.9837422337,2.0816604324\Bq,0,0.7500326094,-3
 .0921286094,2.0816604324\Bq,0,0.7111868992,-3.2065643816,2.0816604324\
 Bq,0,0.687610385,-3.3250915226,2.0816604324\Bq,0,0.6797064675,-3.44568
 2,2.0816604324\Bq,0,0.687610385,-3.5662724774,2.0816604324\Bq,0,0.7111
 868992,-3.6847996184,2.0816604324\Bq,0,0.7500326094,-3.7992353906,2.08
 16604324\Bq,0,0.8034828548,-3.9076217663,2.0816604324\Bq,0,0.870623086
 9,-4.0081042244,2.0816604324\\Version=ES64L-G09RevD.01\HF=-847.0037387
 \RMSD=3.963e-09\Dipole=0.0000004,0.0287843,0.0000009\Quadrupole=4.8545
 288,4.8066247,-9.6611535,-0.0000047,-3.6219991,-0.000002\PG=C01 [X(C22
 H14)]\\@


 IT PROBABLY IS NOT POSSIBLE FOR A SCIENTIST TO INTERROGATE NATURE 
 FROM A WHOLLY DISINTERESTED VIEWPOINT.
 EVEN IF HE HAS NO PARTICULAR AXE TO GRIND, HE IS LIKELY TO HAVE 
 A DISTINCTIVE WAY OF VIEWING NATURE.

                                                   -- JOHN LOSEE
 Job cpu time:       0 days  1 hours 42 minutes  6.0 seconds.
 File lengths (MBytes):  RWF=    184 Int=      0 D2E=      0 Chk=     21 Scr=      1
 Normal termination of Gaussian 09 at Tue Sep 15 12:02:38 2020.
