 Entering Gaussian System, Link 0=g09
 Input=input_batch_07800.com
 Output=input_batch_07800.log
 Initial command:
 /share/programs/GAUSSIAN/64/g09/l1.exe "/scratch/aartigas.38872/Gau-3253870.inp" -scrdir="/scratch/aartigas.38872/"
 Entering Link 1 = /share/programs/GAUSSIAN/64/g09/l1.exe PID=   3253871.
  
 Copyright (c) 1988,1990,1992,1993,1995,1998,2003,2009,2013,
            Gaussian, Inc.  All Rights Reserved.
  
 This is part of the Gaussian(R) 09 program.  It is based on
 the Gaussian(R) 03 system (copyright 2003, Gaussian, Inc.),
 the Gaussian(R) 98 system (copyright 1998, Gaussian, Inc.),
 the Gaussian(R) 94 system (copyright 1995, Gaussian, Inc.),
 the Gaussian 92(TM) system (copyright 1992, Gaussian, Inc.),
 the Gaussian 90(TM) system (copyright 1990, Gaussian, Inc.),
 the Gaussian 88(TM) system (copyright 1988, Gaussian, Inc.),
 the Gaussian 86(TM) system (copyright 1986, Carnegie Mellon
 University), and the Gaussian 82(TM) system (copyright 1983,
 Carnegie Mellon University). Gaussian is a federally registered
 trademark of Gaussian, Inc.
  
 This software contains proprietary and confidential information,
 including trade secrets, belonging to Gaussian, Inc.
  
 This software is provided under written license and may be
 used, copied, transmitted, or stored only in accord with that
 written license.
  
 The following legend is applicable only to US Government
 contracts under FAR:
  
                    RESTRICTED RIGHTS LEGEND
  
 Use, reproduction and disclosure by the US Government is
 subject to restrictions as set forth in subparagraphs (a)
 and (c) of the Commercial Computer Software - Restricted
 Rights clause in FAR 52.227-19.
  
 Gaussian, Inc.
 340 Quinnipiac St., Bldg. 40, Wallingford CT 06492
  
  
 ---------------------------------------------------------------
 Warning -- This program may not be used in any manner that
 competes with the business of Gaussian, Inc. or will provide
 assistance to any competitor of Gaussian, Inc.  The licensee
 of this program is prohibited from giving any competitor of
 Gaussian, Inc. access to this program.  By using this program,
 the user acknowledges that Gaussian, Inc. is engaged in the
 business of creating and licensing software in the field of
 computational chemistry and represents and warrants to the
 licensee that it is not a competitor of Gaussian, Inc. and that
 it will not use this program in any manner prohibited above.
 ---------------------------------------------------------------
  

 Cite this work as:
 Gaussian 09, Revision D.01,
 M. J. Frisch, G. W. Trucks, H. B. Schlegel, G. E. Scuseria, 
 M. A. Robb, J. R. Cheeseman, G. Scalmani, V. Barone, B. Mennucci, 
 G. A. Petersson, H. Nakatsuji, M. Caricato, X. Li, H. P. Hratchian, 
 A. F. Izmaylov, J. Bloino, G. Zheng, J. L. Sonnenberg, M. Hada, 
 M. Ehara, K. Toyota, R. Fukuda, J. Hasegawa, M. Ishida, T. Nakajima, 
 Y. Honda, O. Kitao, H. Nakai, T. Vreven, J. A. Montgomery, Jr., 
 J. E. Peralta, F. Ogliaro, M. Bearpark, J. J. Heyd, E. Brothers, 
 K. N. Kudin, V. N. Staroverov, T. Keith, R. Kobayashi, J. Normand, 
 K. Raghavachari, A. Rendell, J. C. Burant, S. S. Iyengar, J. Tomasi, 
 M. Cossi, N. Rega, J. M. Millam, M. Klene, J. E. Knox, J. B. Cross, 
 V. Bakken, C. Adamo, J. Jaramillo, R. Gomperts, R. E. Stratmann, 
 O. Yazyev, A. J. Austin, R. Cammi, C. Pomelli, J. W. Ochterski, 
 R. L. Martin, K. Morokuma, V. G. Zakrzewski, G. A. Voth, 
 P. Salvador, J. J. Dannenberg, S. Dapprich, A. D. Daniels, 
 O. Farkas, J. B. Foresman, J. V. Ortiz, J. Cioslowski, 
 and D. J. Fox, Gaussian, Inc., Wallingford CT, 2013.
 
 ******************************************
 Gaussian 09:  ES64L-G09RevD.01 24-Apr-2013
                15-Sep-2020 
 ******************************************
 %OldChk=/home/aartigas/chk/5_helicene_spe.chk
 %nproc=8
 Will use up to    8 processors via shared memory.
 %mem=1000MB
 Copying data from "/home/aartigas/chk/5_helicene_spe.chk" to current chk file "/scratch/aartigas.38872/Gau-3253871.chk".
 ----------------------------------------------------
 #P rb3lyp/6-311+g** NMR Guess=Read geom=connectivity
 ----------------------------------------------------
 1/38=1,57=2/1;
 2/12=2,17=6,18=5,40=1/2;
 3/5=4,6=6,7=111,11=2,16=1,25=1,30=1,74=-5,116=1/1,2,8,3;
 4/5=1/1;
 5/5=2,38=6/2;
 8/6=1,10=90,11=11/1;
 10/13=100,45=16/2;
 6/7=2,8=2,9=2,10=2,28=1/1;
 99/9=1/99;
 Leave Link    1 at Tue Sep 15 11:11:27 2020, MaxMem=   131072000 cpu:         0.5
 (Enter /share/programs/GAUSSIAN/64/g09/l101.exe)
 -----
 Title
 -----
 Symbolic Z-matrix:
 Charge =  0 Multiplicity = 1
 C                     0.65324   3.25786  -0.20251 
 C                    -0.65324   3.25786   0.20251 
 C                     1.3725    2.03296  -0.32081 
 C                    -1.3725    2.03296   0.32081 
 C                     0.72247   0.79567  -0.05039 
 C                    -0.72247   0.79567   0.05039 
 C                     2.76039   2.05393  -0.67427 
 C                     3.50887   0.91392  -0.67136 
 C                     2.95523  -0.30962  -0.17748 
 C                     1.57472  -0.36111   0.19709 
 H                     1.18343   4.19574  -0.3846 
 H                    -1.18343   4.19574   0.3846 
 H                     3.20628   3.01242  -0.95139 
 H                     4.56002   0.93296  -0.96933 
 C                     3.78302  -1.4431    0.02831 
 C                     1.13743  -1.50753   0.91211 
 C                     1.97369  -2.58435   1.13806 
 C                     3.30185  -2.57159   0.66118 
 H                     4.82575  -1.39123  -0.29548 
 H                     0.12465  -1.53279   1.30847 
 H                     1.60359  -3.44568   1.69898 
 H                     3.95274  -3.43353   0.82513 
 C                    -3.50887   0.91392   0.67136 
 C                    -2.76039   2.05393   0.67427 
 C                    -2.95523  -0.30962   0.17748 
 C                    -1.57472  -0.36111  -0.19709 
 C                    -3.78302  -1.4431   -0.02831 
 C                    -3.30185  -2.57159  -0.66118 
 C                    -1.97369  -2.58435  -1.13806 
 C                    -1.13743  -1.50753  -0.91211 
 H                    -4.56002   0.93295   0.96933 
 H                    -3.20628   3.01242   0.95139 
 H                    -4.82575  -1.39123   0.29548 
 H                    -3.95274  -3.43353  -0.82513 
 H                    -1.60359  -3.44568  -1.69898 
 H                    -0.12465  -1.53279  -1.30847 
 Bq                    4.59381   0.80688   0.02211 
 Bq                    4.60997   0.81237   0.02211 
 Bq                    4.62529   0.81992   0.02211 
 Bq                    4.63948   0.8294    0.02211 
 Bq                    4.65232   0.84066   0.02211 
 Bq                    4.66358   0.8535    0.02211 
 Bq                    4.67306   0.86769   0.02211 
 Bq                    4.68061   0.88301   0.02211 
 Bq                    4.6861    0.89917   0.02211 
 Bq                    4.68943   0.91592   0.02211 
 Bq                    4.81884   0.93296  -0.00341 
 Bq                    4.81663   0.96674  -0.00341 
 Bq                    4.81002   0.99994  -0.00341 
 Bq                    4.79914   1.032    -0.00341 
 Bq                    4.78417   1.06237  -0.00341 
 Bq                    4.76536   1.09052  -0.00341 
 Bq                    4.74304   1.11597  -0.00341 
 Bq                    4.71758   1.13829  -0.00341 
 Bq                    4.68943   1.1571   -0.00341 
 Bq                    4.65907   1.17207  -0.00341 
 Bq                    4.62701   1.18296  -0.00341 
 Bq                    4.59381   1.18956  -0.00341 
 Bq                    4.56002   1.19178  -0.00341 
 Bq                    4.52624   1.18956  -0.00341 
 Bq                    4.49304   1.18296  -0.00341 
 Bq                    4.46098   1.17207  -0.00341 
 Bq                    4.43061   1.1571   -0.00341 
 Bq                    4.40246   1.13829  -0.00341 
 Bq                    4.37701   1.11597  -0.00341 
 Bq                    4.35469   1.09052  -0.00341 
 Bq                    4.33588   1.06237  -0.00341 
 Bq                    4.32091   1.032    -0.00341 
 Bq                    4.31002   0.99994  -0.00341 
 Bq                    4.30342   0.96674  -0.00341 
 Bq                    4.3012    0.93296  -0.00341 
 Bq                    4.30342   0.89917  -0.00341 
 Bq                    4.31002   0.86597  -0.00341 
 Bq                    4.32091   0.83391  -0.00341 
 Bq                    4.33588   0.80355  -0.00341 
 Bq                    4.35469   0.7754   -0.00341 
 Bq                    4.37701   0.74994  -0.00341 
 Bq                    4.40246   0.72762  -0.00341 
 Bq                    4.43061   0.70881  -0.00341 
 Bq                    4.46098   0.69384  -0.00341 
 Bq                    4.49304   0.68296  -0.00341 
 Bq                    4.52624   0.67635  -0.00341 
 Bq                    4.56002   0.67414  -0.00341 
 Bq                    4.59381   0.67635  -0.00341 
 Bq                    4.62701   0.68296  -0.00341 
 Bq                    4.65907   0.69384  -0.00341 
 Bq                    4.68943   0.70881  -0.00341 
 Bq                    4.71758   0.72762  -0.00341 
 Bq                    4.74304   0.74994  -0.00341 
 Bq                    4.76536   0.7754   -0.00341 
 Bq                    4.78417   0.80355  -0.00341 
 Bq                    4.79914   0.83391  -0.00341 
 Bq                    4.81002   0.86597  -0.00341 
 Bq                    4.81663   0.89917  -0.00341 
 Bq                    4.94271   0.93296  -0.04545 
 Bq                    4.93943   0.98291  -0.04545 
 Bq                    4.92967   1.032    -0.04545 
 Bq                    4.91358   1.0794   -0.04545 
 Bq                    4.89144   1.1243   -0.04545 
 Bq                    4.86363   1.16592  -0.04545 
 Bq                    4.83062   1.20355  -0.04545 
 Bq                    4.79299   1.23656  -0.04545 
 Bq                    4.75136   1.26437  -0.04545 
 Bq                    4.70647   1.28651  -0.04545 
 Bq                    4.65907   1.3026   -0.04545 
 Bq                    4.60997   1.31237  -0.04545 
 Bq                    4.56002   1.31564  -0.04545 
 Bq                    4.51007   1.31237  -0.04545 
 Bq                    4.46098   1.3026   -0.04545 
 Bq                    4.41358   1.28651  -0.04545 
 Bq                    4.36868   1.26437  -0.04545 
 Bq                    4.32706   1.23656  -0.04545 
 Bq                    4.28942   1.20355  -0.04545 
 Bq                    4.25642   1.16592  -0.04545 
 Bq                    4.28942   0.66236  -0.04545 
 Bq                    4.32706   0.62935  -0.04545 
 Bq                    4.36868   0.60154  -0.04545 
 Bq                    4.41358   0.5794   -0.04545 
 Bq                    4.46098   0.56331  -0.04545 
 Bq                    4.51007   0.55355  -0.04545 
 Bq                    4.56002   0.55027  -0.04545 
 Bq                    4.60997   0.55355  -0.04545 
 Bq                    4.65907   0.56331  -0.04545 
 Bq                    4.70647   0.5794   -0.04545 
 Bq                    4.75136   0.60154  -0.04545 
 Bq                    4.79299   0.62935  -0.04545 
 Bq                    4.83062   0.66236  -0.04545 
 Bq                    4.86363   0.69999  -0.04545 
 Bq                    4.89144   0.74161  -0.04545 
 Bq                    4.91358   0.78651  -0.04545 
 Bq                    4.92967   0.83391  -0.04545 
 Bq                    4.93943   0.88301  -0.04545 
 Bq                    5.06002   0.93296  -0.10331 
 Bq                    5.05575   0.99822  -0.10331 
 Bq                    5.04299   1.06237  -0.10331 
 Bq                    5.02196   1.1243   -0.10331 
 Bq                    4.99304   1.18296  -0.10331 
 Bq                    4.9567    1.23734  -0.10331 
 Bq                    4.91358   1.28651  -0.10331 
 Bq                    4.8644    1.32963  -0.10331 
 Bq                    4.81002   1.36597  -0.10331 
 Bq                    4.75136   1.3949   -0.10331 
 Bq                    4.68943   1.41592  -0.10331 
 Bq                    4.62529   1.42868  -0.10331 
 Bq                    4.56002   1.43296  -0.10331 
 Bq                    4.49476   1.42868  -0.10331 
 Bq                    4.43061   1.41592  -0.10331 
 Bq                    4.36868   1.3949   -0.10331 
 Bq                    4.31002   1.36597  -0.10331 
 Bq                    4.25564   1.32963  -0.10331 
 Bq                    4.62529   0.43723  -0.10331 
 Bq                    4.68943   0.44999  -0.10331 
 Bq                    4.75136   0.47102  -0.10331 
 Bq                    4.81002   0.49994  -0.10331 
 Bq                    4.8644    0.53628  -0.10331 
 Bq                    4.91358   0.5794   -0.10331 
 Bq                    4.9567    0.62858  -0.10331 
 Bq                    4.99304   0.68296  -0.10331 
 Bq                    5.02196   0.74161  -0.10331 
 Bq                    5.04299   0.80355  -0.10331 
 Bq                    5.05575   0.86769  -0.10331 
 Bq                    5.16878   0.93296  -0.17598 
 Bq                    5.16358   1.01242  -0.17598 
 Bq                    5.14804   1.09052  -0.17598 
 Bq                    5.12245   1.16592  -0.17598 
 Bq                    5.08723   1.23734  -0.17598 
 Bq                    5.04299   1.30355  -0.17598 
 Bq                    4.99048   1.36342  -0.17598 
 Bq                    4.93061   1.41592  -0.17598 
 Bq                    4.8644    1.46016  -0.17598 
 Bq                    4.79299   1.49538  -0.17598 
 Bq                    4.71758   1.52097  -0.17598 
 Bq                    4.63948   1.53651  -0.17598 
 Bq                    4.56002   1.54172  -0.17598 
 Bq                    4.48056   1.53651  -0.17598 
 Bq                    4.40246   1.52097  -0.17598 
 Bq                    4.32706   1.49538  -0.17598 
 Bq                    4.25564   1.46016  -0.17598 
 Bq                    4.71758   0.34494  -0.17598 
 Bq                    4.79299   0.37053  -0.17598 
 Bq                    4.8644    0.40575  -0.17598 
 Bq                    4.93061   0.44999  -0.17598 
 Bq                    4.99048   0.5025   -0.17598 
 Bq                    5.04299   0.56237  -0.17598 
 Bq                    5.08723   0.62858  -0.17598 
 Bq                    5.12245   0.69999  -0.17598 
 Bq                    5.14804   0.7754   -0.17598 
 Bq                    5.16358   0.8535   -0.17598 
 Bq                    5.26713   0.93296  -0.26223 
 Bq                    5.26108   1.02525  -0.26223 
 Bq                    5.24304   1.11597  -0.26223 
 Bq                    5.2133    1.20355  -0.26223 
 Bq                    5.1724    1.28651  -0.26223 
 Bq                    5.12101   1.36342  -0.26223 
 Bq                    5.06002   1.43296  -0.26223 
 Bq                    4.99048   1.49394  -0.26223 
 Bq                    4.91358   1.54533  -0.26223 
 Bq                    4.83062   1.58624  -0.26223 
 Bq                    4.74304   1.61597  -0.26223 
 Bq                    4.65232   1.63401  -0.26223 
 Bq                    4.56002   1.64006  -0.26223 
 Bq                    4.46773   1.63401  -0.26223 
 Bq                    4.37701   1.61597  -0.26223 
 Bq                    4.83062   0.27967  -0.26223 
 Bq                    4.91358   0.32058  -0.26223 
 Bq                    4.99048   0.37197  -0.26223 
 Bq                    5.06002   0.43296  -0.26223 
 Bq                    5.12101   0.5025   -0.26223 
 Bq                    5.1724    0.5794   -0.26223 
 Bq                    5.2133    0.66236  -0.26223 
 Bq                    5.24304   0.74994  -0.26223 
 Bq                    5.26108   0.84066  -0.26223 
 Bq                    5.35338   0.93296  -0.36057 
 Bq                    5.34659   1.03651  -0.36057 
 Bq                    5.32634   1.13829  -0.36057 
 Bq                    5.29299   1.23656  -0.36057 
 Bq                    5.24709   1.32963  -0.36057 
 Bq                    5.18943   1.41592  -0.36057 
 Bq                    5.12101   1.49394  -0.36057 
 Bq                    5.04299   1.56237  -0.36057 
 Bq                    4.9567    1.62002  -0.36057 
 Bq                    4.86363   1.66592  -0.36057 
 Bq                    4.76536   1.69928  -0.36057 
 Bq                    4.66358   1.71952  -0.36057 
 Bq                    4.56002   1.72631  -0.36057 
 Bq                    4.45647   1.71952  -0.36057 
 Bq                    4.86363   0.19999  -0.36057 
 Bq                    4.9567    0.24589  -0.36057 
 Bq                    5.04299   0.30355  -0.36057 
 Bq                    5.12101   0.37197  -0.36057 
 Bq                    5.18943   0.44999  -0.36057 
 Bq                    5.24709   0.53628  -0.36057 
 Bq                    5.29299   0.62935  -0.36057 
 Bq                    5.32634   0.72762  -0.36057 
 Bq                    5.34659   0.8294   -0.36057 
 Bq                    5.42605   0.93296  -0.46933 
 
 NAtoms=    236 NQM=      236 NQMF=       0 NMMI=      0 NMMIF=      0
                NMic=       0 NMicF=      0.
                    Isotopes and Nuclear Properties:
 (Nuclear quadrupole moments (NQMom) in fm**2, nuclear magnetic moments (NMagM)
  in nuclear magnetons)

  Atom         1           2           3           4           5           6           7           8           9          10
 IAtWgt=          12          12          12          12          12          12          12          12          12          12
 AtmWgt=  12.0000000  12.0000000  12.0000000  12.0000000  12.0000000  12.0000000  12.0000000  12.0000000  12.0000000  12.0000000
 NucSpn=           0           0           0           0           0           0           0           0           0           0
 AtZEff=   0.0000000   0.0000000   0.0000000   0.0000000   0.0000000   0.0000000   0.0000000   0.0000000   0.0000000   0.0000000
 NQMom=    0.0000000   0.0000000   0.0000000   0.0000000   0.0000000   0.0000000   0.0000000   0.0000000   0.0000000   0.0000000
 NMagM=    0.0000000   0.0000000   0.0000000   0.0000000   0.0000000   0.0000000   0.0000000   0.0000000   0.0000000   0.0000000
 AtZNuc=   6.0000000   6.0000000   6.0000000   6.0000000   6.0000000   6.0000000   6.0000000   6.0000000   6.0000000   6.0000000

  Atom        11          12          13          14          15          16          17          18          19          20
 IAtWgt=           1           1           1           1          12          12          12          12           1           1
 AtmWgt=   1.0078250   1.0078250   1.0078250   1.0078250  12.0000000  12.0000000  12.0000000  12.0000000   1.0078250   1.0078250
 NucSpn=           1           1           1           1           0           0           0           0           1           1
 AtZEff=   0.0000000   0.0000000   0.0000000   0.0000000   0.0000000   0.0000000   0.0000000   0.0000000   0.0000000   0.0000000
 NQMom=    0.0000000   0.0000000   0.0000000   0.0000000   0.0000000   0.0000000   0.0000000   0.0000000   0.0000000   0.0000000
 NMagM=    2.7928460   2.7928460   2.7928460   2.7928460   0.0000000   0.0000000   0.0000000   0.0000000   2.7928460   2.7928460
 AtZNuc=   1.0000000   1.0000000   1.0000000   1.0000000   6.0000000   6.0000000   6.0000000   6.0000000   1.0000000   1.0000000

  Atom        21          22          23          24          25          26          27          28          29          30
 IAtWgt=           1           1          12          12          12          12          12          12          12          12
 AtmWgt=   1.0078250   1.0078250  12.0000000  12.0000000  12.0000000  12.0000000  12.0000000  12.0000000  12.0000000  12.0000000
 NucSpn=           1           1           0           0           0           0           0           0           0           0
 AtZEff=   0.0000000   0.0000000   0.0000000   0.0000000   0.0000000   0.0000000   0.0000000   0.0000000   0.0000000   0.0000000
 NQMom=    0.0000000   0.0000000   0.0000000   0.0000000   0.0000000   0.0000000   0.0000000   0.0000000   0.0000000   0.0000000
 NMagM=    2.7928460   2.7928460   0.0000000   0.0000000   0.0000000   0.0000000   0.0000000   0.0000000   0.0000000   0.0000000
 AtZNuc=   1.0000000   1.0000000   6.0000000   6.0000000   6.0000000   6.0000000   6.0000000   6.0000000   6.0000000   6.0000000

  Atom        31          32          33          34          35          36          37          38          39          40
 IAtWgt=           1           1           1           1           1           1           0           0           0           0
 AtmWgt=   1.0078250   1.0078250   1.0078250   1.0078250   1.0078250   1.0078250   0.0000000   0.0000000   0.0000000   0.0000000
 NucSpn=           1           1           1           1           1           1           0           0           0           0
 AtZEff=   0.0000000   0.0000000   0.0000000   0.0000000   0.0000000   0.0000000   0.0000000   0.0000000   0.0000000   0.0000000
 NQMom=    0.0000000   0.0000000   0.0000000   0.0000000   0.0000000   0.0000000   0.0000000   0.0000000   0.0000000   0.0000000
 NMagM=    2.7928460   2.7928460   2.7928460   2.7928460   2.7928460   2.7928460   0.0000000   0.0000000   0.0000000   0.0000000
 AtZNuc=   1.0000000   1.0000000   1.0000000   1.0000000   1.0000000   1.0000000   0.0000000   0.0000000   0.0000000   0.0000000

  Atom        41          42          43          44          45          46          47          48          49          50
 IAtWgt=           0           0           0           0           0           0           0           0           0           0
 AtmWgt=   0.0000000   0.0000000   0.0000000   0.0000000   0.0000000   0.0000000   0.0000000   0.0000000   0.0000000   0.0000000
 NucSpn=           0           0           0           0           0           0           0           0           0           0
 AtZEff=   0.0000000   0.0000000   0.0000000   0.0000000   0.0000000   0.0000000   0.0000000   0.0000000   0.0000000   0.0000000
 NQMom=    0.0000000   0.0000000   0.0000000   0.0000000   0.0000000   0.0000000   0.0000000   0.0000000   0.0000000   0.0000000
 NMagM=    0.0000000   0.0000000   0.0000000   0.0000000   0.0000000   0.0000000   0.0000000   0.0000000   0.0000000   0.0000000
 AtZNuc=   0.0000000   0.0000000   0.0000000   0.0000000   0.0000000   0.0000000   0.0000000   0.0000000   0.0000000   0.0000000

  Atom        51          52          53          54          55          56          57          58          59          60
 IAtWgt=           0           0           0           0           0           0           0           0           0           0
 AtmWgt=   0.0000000   0.0000000   0.0000000   0.0000000   0.0000000   0.0000000   0.0000000   0.0000000   0.0000000   0.0000000
 NucSpn=           0           0           0           0           0           0           0           0           0           0
 AtZEff=   0.0000000   0.0000000   0.0000000   0.0000000   0.0000000   0.0000000   0.0000000   0.0000000   0.0000000   0.0000000
 NQMom=    0.0000000   0.0000000   0.0000000   0.0000000   0.0000000   0.0000000   0.0000000   0.0000000   0.0000000   0.0000000
 NMagM=    0.0000000   0.0000000   0.0000000   0.0000000   0.0000000   0.0000000   0.0000000   0.0000000   0.0000000   0.0000000
 AtZNuc=   0.0000000   0.0000000   0.0000000   0.0000000   0.0000000   0.0000000   0.0000000   0.0000000   0.0000000   0.0000000

  Atom        61          62          63          64          65          66          67          68          69          70
 IAtWgt=           0           0           0           0           0           0           0           0           0           0
 AtmWgt=   0.0000000   0.0000000   0.0000000   0.0000000   0.0000000   0.0000000   0.0000000   0.0000000   0.0000000   0.0000000
 NucSpn=           0           0           0           0           0           0           0           0           0           0
 AtZEff=   0.0000000   0.0000000   0.0000000   0.0000000   0.0000000   0.0000000   0.0000000   0.0000000   0.0000000   0.0000000
 NQMom=    0.0000000   0.0000000   0.0000000   0.0000000   0.0000000   0.0000000   0.0000000   0.0000000   0.0000000   0.0000000
 NMagM=    0.0000000   0.0000000   0.0000000   0.0000000   0.0000000   0.0000000   0.0000000   0.0000000   0.0000000   0.0000000
 AtZNuc=   0.0000000   0.0000000   0.0000000   0.0000000   0.0000000   0.0000000   0.0000000   0.0000000   0.0000000   0.0000000

  Atom        71          72          73          74          75          76          77          78          79          80
 IAtWgt=           0           0           0           0           0           0           0           0           0           0
 AtmWgt=   0.0000000   0.0000000   0.0000000   0.0000000   0.0000000   0.0000000   0.0000000   0.0000000   0.0000000   0.0000000
 NucSpn=           0           0           0           0           0           0           0           0           0           0
 AtZEff=   0.0000000   0.0000000   0.0000000   0.0000000   0.0000000   0.0000000   0.0000000   0.0000000   0.0000000   0.0000000
 NQMom=    0.0000000   0.0000000   0.0000000   0.0000000   0.0000000   0.0000000   0.0000000   0.0000000   0.0000000   0.0000000
 NMagM=    0.0000000   0.0000000   0.0000000   0.0000000   0.0000000   0.0000000   0.0000000   0.0000000   0.0000000   0.0000000
 AtZNuc=   0.0000000   0.0000000   0.0000000   0.0000000   0.0000000   0.0000000   0.0000000   0.0000000   0.0000000   0.0000000

  Atom        81          82          83          84          85          86          87          88          89          90
 IAtWgt=           0           0           0           0           0           0           0           0           0           0
 AtmWgt=   0.0000000   0.0000000   0.0000000   0.0000000   0.0000000   0.0000000   0.0000000   0.0000000   0.0000000   0.0000000
 NucSpn=           0           0           0           0           0           0           0           0           0           0
 AtZEff=   0.0000000   0.0000000   0.0000000   0.0000000   0.0000000   0.0000000   0.0000000   0.0000000   0.0000000   0.0000000
 NQMom=    0.0000000   0.0000000   0.0000000   0.0000000   0.0000000   0.0000000   0.0000000   0.0000000   0.0000000   0.0000000
 NMagM=    0.0000000   0.0000000   0.0000000   0.0000000   0.0000000   0.0000000   0.0000000   0.0000000   0.0000000   0.0000000
 AtZNuc=   0.0000000   0.0000000   0.0000000   0.0000000   0.0000000   0.0000000   0.0000000   0.0000000   0.0000000   0.0000000

  Atom        91          92          93          94          95          96          97          98          99         100
 IAtWgt=           0           0           0           0           0           0           0           0           0           0
 AtmWgt=   0.0000000   0.0000000   0.0000000   0.0000000   0.0000000   0.0000000   0.0000000   0.0000000   0.0000000   0.0000000
 NucSpn=           0           0           0           0           0           0           0           0           0           0
 AtZEff=   0.0000000   0.0000000   0.0000000   0.0000000   0.0000000   0.0000000   0.0000000   0.0000000   0.0000000   0.0000000
 NQMom=    0.0000000   0.0000000   0.0000000   0.0000000   0.0000000   0.0000000   0.0000000   0.0000000   0.0000000   0.0000000
 NMagM=    0.0000000   0.0000000   0.0000000   0.0000000   0.0000000   0.0000000   0.0000000   0.0000000   0.0000000   0.0000000
 AtZNuc=   0.0000000   0.0000000   0.0000000   0.0000000   0.0000000   0.0000000   0.0000000   0.0000000   0.0000000   0.0000000

  Atom       101         102         103         104         105         106         107         108         109         110
 IAtWgt=           0           0           0           0           0           0           0           0           0           0
 AtmWgt=   0.0000000   0.0000000   0.0000000   0.0000000   0.0000000   0.0000000   0.0000000   0.0000000   0.0000000   0.0000000
 NucSpn=           0           0           0           0           0           0           0           0           0           0
 AtZEff=   0.0000000   0.0000000   0.0000000   0.0000000   0.0000000   0.0000000   0.0000000   0.0000000   0.0000000   0.0000000
 NQMom=    0.0000000   0.0000000   0.0000000   0.0000000   0.0000000   0.0000000   0.0000000   0.0000000   0.0000000   0.0000000
 NMagM=    0.0000000   0.0000000   0.0000000   0.0000000   0.0000000   0.0000000   0.0000000   0.0000000   0.0000000   0.0000000
 AtZNuc=   0.0000000   0.0000000   0.0000000   0.0000000   0.0000000   0.0000000   0.0000000   0.0000000   0.0000000   0.0000000

  Atom       111         112         113         114         115         116         117         118         119         120
 IAtWgt=           0           0           0           0           0           0           0           0           0           0
 AtmWgt=   0.0000000   0.0000000   0.0000000   0.0000000   0.0000000   0.0000000   0.0000000   0.0000000   0.0000000   0.0000000
 NucSpn=           0           0           0           0           0           0           0           0           0           0
 AtZEff=   0.0000000   0.0000000   0.0000000   0.0000000   0.0000000   0.0000000   0.0000000   0.0000000   0.0000000   0.0000000
 NQMom=    0.0000000   0.0000000   0.0000000   0.0000000   0.0000000   0.0000000   0.0000000   0.0000000   0.0000000   0.0000000
 NMagM=    0.0000000   0.0000000   0.0000000   0.0000000   0.0000000   0.0000000   0.0000000   0.0000000   0.0000000   0.0000000
 AtZNuc=   0.0000000   0.0000000   0.0000000   0.0000000   0.0000000   0.0000000   0.0000000   0.0000000   0.0000000   0.0000000

  Atom       121         122         123         124         125         126         127         128         129         130
 IAtWgt=           0           0           0           0           0           0           0           0           0           0
 AtmWgt=   0.0000000   0.0000000   0.0000000   0.0000000   0.0000000   0.0000000   0.0000000   0.0000000   0.0000000   0.0000000
 NucSpn=           0           0           0           0           0           0           0           0           0           0
 AtZEff=   0.0000000   0.0000000   0.0000000   0.0000000   0.0000000   0.0000000   0.0000000   0.0000000   0.0000000   0.0000000
 NQMom=    0.0000000   0.0000000   0.0000000   0.0000000   0.0000000   0.0000000   0.0000000   0.0000000   0.0000000   0.0000000
 NMagM=    0.0000000   0.0000000   0.0000000   0.0000000   0.0000000   0.0000000   0.0000000   0.0000000   0.0000000   0.0000000
 AtZNuc=   0.0000000   0.0000000   0.0000000   0.0000000   0.0000000   0.0000000   0.0000000   0.0000000   0.0000000   0.0000000

  Atom       131         132         133         134         135         136         137         138         139         140
 IAtWgt=           0           0           0           0           0           0           0           0           0           0
 AtmWgt=   0.0000000   0.0000000   0.0000000   0.0000000   0.0000000   0.0000000   0.0000000   0.0000000   0.0000000   0.0000000
 NucSpn=           0           0           0           0           0           0           0           0           0           0
 AtZEff=   0.0000000   0.0000000   0.0000000   0.0000000   0.0000000   0.0000000   0.0000000   0.0000000   0.0000000   0.0000000
 NQMom=    0.0000000   0.0000000   0.0000000   0.0000000   0.0000000   0.0000000   0.0000000   0.0000000   0.0000000   0.0000000
 NMagM=    0.0000000   0.0000000   0.0000000   0.0000000   0.0000000   0.0000000   0.0000000   0.0000000   0.0000000   0.0000000
 AtZNuc=   0.0000000   0.0000000   0.0000000   0.0000000   0.0000000   0.0000000   0.0000000   0.0000000   0.0000000   0.0000000

  Atom       141         142         143         144         145         146         147         148         149         150
 IAtWgt=           0           0           0           0           0           0           0           0           0           0
 AtmWgt=   0.0000000   0.0000000   0.0000000   0.0000000   0.0000000   0.0000000   0.0000000   0.0000000   0.0000000   0.0000000
 NucSpn=           0           0           0           0           0           0           0           0           0           0
 AtZEff=   0.0000000   0.0000000   0.0000000   0.0000000   0.0000000   0.0000000   0.0000000   0.0000000   0.0000000   0.0000000
 NQMom=    0.0000000   0.0000000   0.0000000   0.0000000   0.0000000   0.0000000   0.0000000   0.0000000   0.0000000   0.0000000
 NMagM=    0.0000000   0.0000000   0.0000000   0.0000000   0.0000000   0.0000000   0.0000000   0.0000000   0.0000000   0.0000000
 AtZNuc=   0.0000000   0.0000000   0.0000000   0.0000000   0.0000000   0.0000000   0.0000000   0.0000000   0.0000000   0.0000000

  Atom       151         152         153         154         155         156         157         158         159         160
 IAtWgt=           0           0           0           0           0           0           0           0           0           0
 AtmWgt=   0.0000000   0.0000000   0.0000000   0.0000000   0.0000000   0.0000000   0.0000000   0.0000000   0.0000000   0.0000000
 NucSpn=           0           0           0           0           0           0           0           0           0           0
 AtZEff=   0.0000000   0.0000000   0.0000000   0.0000000   0.0000000   0.0000000   0.0000000   0.0000000   0.0000000   0.0000000
 NQMom=    0.0000000   0.0000000   0.0000000   0.0000000   0.0000000   0.0000000   0.0000000   0.0000000   0.0000000   0.0000000
 NMagM=    0.0000000   0.0000000   0.0000000   0.0000000   0.0000000   0.0000000   0.0000000   0.0000000   0.0000000   0.0000000
 AtZNuc=   0.0000000   0.0000000   0.0000000   0.0000000   0.0000000   0.0000000   0.0000000   0.0000000   0.0000000   0.0000000

  Atom       161         162         163         164         165         166         167         168         169         170
 IAtWgt=           0           0           0           0           0           0           0           0           0           0
 AtmWgt=   0.0000000   0.0000000   0.0000000   0.0000000   0.0000000   0.0000000   0.0000000   0.0000000   0.0000000   0.0000000
 NucSpn=           0           0           0           0           0           0           0           0           0           0
 AtZEff=   0.0000000   0.0000000   0.0000000   0.0000000   0.0000000   0.0000000   0.0000000   0.0000000   0.0000000   0.0000000
 NQMom=    0.0000000   0.0000000   0.0000000   0.0000000   0.0000000   0.0000000   0.0000000   0.0000000   0.0000000   0.0000000
 NMagM=    0.0000000   0.0000000   0.0000000   0.0000000   0.0000000   0.0000000   0.0000000   0.0000000   0.0000000   0.0000000
 AtZNuc=   0.0000000   0.0000000   0.0000000   0.0000000   0.0000000   0.0000000   0.0000000   0.0000000   0.0000000   0.0000000

  Atom       171         172         173         174         175         176         177         178         179         180
 IAtWgt=           0           0           0           0           0           0           0           0           0           0
 AtmWgt=   0.0000000   0.0000000   0.0000000   0.0000000   0.0000000   0.0000000   0.0000000   0.0000000   0.0000000   0.0000000
 NucSpn=           0           0           0           0           0           0           0           0           0           0
 AtZEff=   0.0000000   0.0000000   0.0000000   0.0000000   0.0000000   0.0000000   0.0000000   0.0000000   0.0000000   0.0000000
 NQMom=    0.0000000   0.0000000   0.0000000   0.0000000   0.0000000   0.0000000   0.0000000   0.0000000   0.0000000   0.0000000
 NMagM=    0.0000000   0.0000000   0.0000000   0.0000000   0.0000000   0.0000000   0.0000000   0.0000000   0.0000000   0.0000000
 AtZNuc=   0.0000000   0.0000000   0.0000000   0.0000000   0.0000000   0.0000000   0.0000000   0.0000000   0.0000000   0.0000000

  Atom       181         182         183         184         185         186         187         188         189         190
 IAtWgt=           0           0           0           0           0           0           0           0           0           0
 AtmWgt=   0.0000000   0.0000000   0.0000000   0.0000000   0.0000000   0.0000000   0.0000000   0.0000000   0.0000000   0.0000000
 NucSpn=           0           0           0           0           0           0           0           0           0           0
 AtZEff=   0.0000000   0.0000000   0.0000000   0.0000000   0.0000000   0.0000000   0.0000000   0.0000000   0.0000000   0.0000000
 NQMom=    0.0000000   0.0000000   0.0000000   0.0000000   0.0000000   0.0000000   0.0000000   0.0000000   0.0000000   0.0000000
 NMagM=    0.0000000   0.0000000   0.0000000   0.0000000   0.0000000   0.0000000   0.0000000   0.0000000   0.0000000   0.0000000
 AtZNuc=   0.0000000   0.0000000   0.0000000   0.0000000   0.0000000   0.0000000   0.0000000   0.0000000   0.0000000   0.0000000

  Atom       191         192         193         194         195         196         197         198         199         200
 IAtWgt=           0           0           0           0           0           0           0           0           0           0
 AtmWgt=   0.0000000   0.0000000   0.0000000   0.0000000   0.0000000   0.0000000   0.0000000   0.0000000   0.0000000   0.0000000
 NucSpn=           0           0           0           0           0           0           0           0           0           0
 AtZEff=   0.0000000   0.0000000   0.0000000   0.0000000   0.0000000   0.0000000   0.0000000   0.0000000   0.0000000   0.0000000
 NQMom=    0.0000000   0.0000000   0.0000000   0.0000000   0.0000000   0.0000000   0.0000000   0.0000000   0.0000000   0.0000000
 NMagM=    0.0000000   0.0000000   0.0000000   0.0000000   0.0000000   0.0000000   0.0000000   0.0000000   0.0000000   0.0000000
 AtZNuc=   0.0000000   0.0000000   0.0000000   0.0000000   0.0000000   0.0000000   0.0000000   0.0000000   0.0000000   0.0000000

  Atom       201         202         203         204         205         206         207         208         209         210
 IAtWgt=           0           0           0           0           0           0           0           0           0           0
 AtmWgt=   0.0000000   0.0000000   0.0000000   0.0000000   0.0000000   0.0000000   0.0000000   0.0000000   0.0000000   0.0000000
 NucSpn=           0           0           0           0           0           0           0           0           0           0
 AtZEff=   0.0000000   0.0000000   0.0000000   0.0000000   0.0000000   0.0000000   0.0000000   0.0000000   0.0000000   0.0000000
 NQMom=    0.0000000   0.0000000   0.0000000   0.0000000   0.0000000   0.0000000   0.0000000   0.0000000   0.0000000   0.0000000
 NMagM=    0.0000000   0.0000000   0.0000000   0.0000000   0.0000000   0.0000000   0.0000000   0.0000000   0.0000000   0.0000000
 AtZNuc=   0.0000000   0.0000000   0.0000000   0.0000000   0.0000000   0.0000000   0.0000000   0.0000000   0.0000000   0.0000000

  Atom       211         212         213         214         215         216         217         218         219         220
 IAtWgt=           0           0           0           0           0           0           0           0           0           0
 AtmWgt=   0.0000000   0.0000000   0.0000000   0.0000000   0.0000000   0.0000000   0.0000000   0.0000000   0.0000000   0.0000000
 NucSpn=           0           0           0           0           0           0           0           0           0           0
 AtZEff=   0.0000000   0.0000000   0.0000000   0.0000000   0.0000000   0.0000000   0.0000000   0.0000000   0.0000000   0.0000000
 NQMom=    0.0000000   0.0000000   0.0000000   0.0000000   0.0000000   0.0000000   0.0000000   0.0000000   0.0000000   0.0000000
 NMagM=    0.0000000   0.0000000   0.0000000   0.0000000   0.0000000   0.0000000   0.0000000   0.0000000   0.0000000   0.0000000
 AtZNuc=   0.0000000   0.0000000   0.0000000   0.0000000   0.0000000   0.0000000   0.0000000   0.0000000   0.0000000   0.0000000

  Atom       221         222         223         224         225         226         227         228         229         230
 IAtWgt=           0           0           0           0           0           0           0           0           0           0
 AtmWgt=   0.0000000   0.0000000   0.0000000   0.0000000   0.0000000   0.0000000   0.0000000   0.0000000   0.0000000   0.0000000
 NucSpn=           0           0           0           0           0           0           0           0           0           0
 AtZEff=   0.0000000   0.0000000   0.0000000   0.0000000   0.0000000   0.0000000   0.0000000   0.0000000   0.0000000   0.0000000
 NQMom=    0.0000000   0.0000000   0.0000000   0.0000000   0.0000000   0.0000000   0.0000000   0.0000000   0.0000000   0.0000000
 NMagM=    0.0000000   0.0000000   0.0000000   0.0000000   0.0000000   0.0000000   0.0000000   0.0000000   0.0000000   0.0000000
 AtZNuc=   0.0000000   0.0000000   0.0000000   0.0000000   0.0000000   0.0000000   0.0000000   0.0000000   0.0000000   0.0000000

  Atom       231         232         233         234         235         236
 IAtWgt=           0           0           0           0           0           0
 AtmWgt=   0.0000000   0.0000000   0.0000000   0.0000000   0.0000000   0.0000000
 NucSpn=           0           0           0           0           0           0
 AtZEff=   0.0000000   0.0000000   0.0000000   0.0000000   0.0000000   0.0000000
 NQMom=    0.0000000   0.0000000   0.0000000   0.0000000   0.0000000   0.0000000
 NMagM=    0.0000000   0.0000000   0.0000000   0.0000000   0.0000000   0.0000000
 AtZNuc=   0.0000000   0.0000000   0.0000000   0.0000000   0.0000000   0.0000000
 Leave Link  101 at Tue Sep 15 11:11:27 2020, MaxMem=   131072000 cpu:         4.4
 (Enter /share/programs/GAUSSIAN/64/g09/l202.exe)
 Symmetry turned off:
 Cannot cope with ghost atoms or with translation vectors.
 Stoichiometry    C22H14
 Framework group  C1[X(C22H14)]
 NUMDOF-- NAT=    36 NAtoms=   236
 Deg. of freedom     0
 Full point group                 C1      NOp   1
                          Input orientation:                          
 ---------------------------------------------------------------------
 Center     Atomic      Atomic             Coordinates (Angstroms)
 Number     Number       Type             X           Y           Z
 ---------------------------------------------------------------------
      1          6           0        0.653241    3.257859   -0.202510
      2          6           0       -0.653243    3.257860    0.202510
      3          6           0        1.372495    2.032956   -0.320807
      4          6           0       -1.372495    2.032956    0.320807
      5          6           0        0.722474    0.795666   -0.050388
      6          6           0       -0.722474    0.795667    0.050387
      7          6           0        2.760385    2.053927   -0.674268
      8          6           0        3.508866    0.913916   -0.671362
      9          6           0        2.955226   -0.309622   -0.177479
     10          6           0        1.574722   -0.361114    0.197094
     11          1           0        1.183427    4.195740   -0.384599
     12          1           0       -1.183429    4.195740    0.384599
     13          1           0        3.206283    3.012423   -0.951392
     14          1           0        4.560023    0.932956   -0.969333
     15          6           0        3.783020   -1.443098    0.028309
     16          6           0        1.137427   -1.507533    0.912109
     17          6           0        1.973691   -2.584349    1.138062
     18          6           0        3.301853   -2.571588    0.661177
     19          1           0        4.825754   -1.391230   -0.295484
     20          1           0        0.124652   -1.532788    1.308472
     21          1           0        1.603586   -3.445682    1.698977
     22          1           0        3.952742   -3.433526    0.825134
     23          6           0       -3.508866    0.913915    0.671362
     24          6           0       -2.760386    2.053926    0.674268
     25          6           0       -2.955226   -0.309623    0.177479
     26          6           0       -1.574722   -0.361114   -0.197094
     27          6           0       -3.783020   -1.443099   -0.028309
     28          6           0       -3.301852   -2.571589   -0.661177
     29          6           0       -1.973690   -2.584349   -1.138061
     30          6           0       -1.137426   -1.507534   -0.912109
     31          1           0       -4.560022    0.932954    0.969334
     32          1           0       -3.206283    3.012421    0.951392
     33          1           0       -4.825754   -1.391232    0.295484
     34          1           0       -3.952741   -3.433528   -0.825134
     35          1           0       -1.603585   -3.445682   -1.698976
     36          1           0       -0.124652   -1.532788   -1.308471
     37          0           0        4.593806    0.806877    0.022112
     38          0           0        4.609973    0.812366    0.022112
     39          0           0        4.625286    0.819917    0.022112
     40          0           0        4.639482    0.829403    0.022112
     41          0           0        4.652319    0.840660    0.022112
     42          0           0        4.663576    0.853497    0.022112
     43          0           0        4.673062    0.867693    0.022112
     44          0           0        4.680613    0.883006    0.022112
     45          0           0        4.686102    0.899173    0.022112
     46          0           0        4.689433    0.915919    0.022112
     47          0           0        4.818842    0.932956   -0.003407
     48          0           0        4.816628    0.966739   -0.003407
     49          0           0        4.810023    0.999943   -0.003407
     50          0           0        4.799141    1.032002   -0.003407
     51          0           0        4.784167    1.062366   -0.003407
     52          0           0        4.765358    1.090515   -0.003407
     53          0           0        4.743036    1.115969   -0.003407
     54          0           0        4.717582    1.138291   -0.003407
     55          0           0        4.689433    1.157100   -0.003407
     56          0           0        4.659069    1.172074   -0.003407
     57          0           0        4.627010    1.182956   -0.003407
     58          0           0        4.593806    1.189561   -0.003407
     59          0           0        4.560023    1.191775   -0.003407
     60          0           0        4.526240    1.189561   -0.003407
     61          0           0        4.493036    1.182956   -0.003407
     62          0           0        4.460977    1.172074   -0.003407
     63          0           0        4.430613    1.157100   -0.003407
     64          0           0        4.402464    1.138291   -0.003407
     65          0           0        4.377010    1.115969   -0.003407
     66          0           0        4.354688    1.090515   -0.003407
     67          0           0        4.335879    1.062366   -0.003407
     68          0           0        4.320905    1.032002   -0.003407
     69          0           0        4.310023    0.999943   -0.003407
     70          0           0        4.303418    0.966739   -0.003407
     71          0           0        4.301204    0.932956   -0.003407
     72          0           0        4.303418    0.899173   -0.003407
     73          0           0        4.310023    0.865969   -0.003407
     74          0           0        4.320905    0.833910   -0.003407
     75          0           0        4.335879    0.803546   -0.003407
     76          0           0        4.354688    0.775397   -0.003407
     77          0           0        4.377010    0.749943   -0.003407
     78          0           0        4.402464    0.727621   -0.003407
     79          0           0        4.430613    0.708812   -0.003407
     80          0           0        4.460977    0.693838   -0.003407
     81          0           0        4.493036    0.682956   -0.003407
     82          0           0        4.526240    0.676351   -0.003407
     83          0           0        4.560023    0.674137   -0.003407
     84          0           0        4.593806    0.676351   -0.003407
     85          0           0        4.627010    0.682956   -0.003407
     86          0           0        4.659069    0.693838   -0.003407
     87          0           0        4.689433    0.708812   -0.003407
     88          0           0        4.717582    0.727621   -0.003407
     89          0           0        4.743036    0.749943   -0.003407
     90          0           0        4.765358    0.775397   -0.003407
     91          0           0        4.784167    0.803546   -0.003407
     92          0           0        4.799141    0.833910   -0.003407
     93          0           0        4.810023    0.865969   -0.003407
     94          0           0        4.816628    0.899173   -0.003407
     95          0           0        4.942706    0.932956   -0.045453
     96          0           0        4.939433    0.982906   -0.045453
     97          0           0        4.929667    1.032002   -0.045453
     98          0           0        4.913576    1.079403   -0.045453
     99          0           0        4.891437    1.124298   -0.045453
    100          0           0        4.863626    1.165919   -0.045453
    101          0           0        4.830621    1.203554   -0.045453
    102          0           0        4.792986    1.236559   -0.045453
    103          0           0        4.751365    1.264370   -0.045453
    104          0           0        4.706470    1.286509   -0.045453
    105          0           0        4.659069    1.302600   -0.045453
    106          0           0        4.609973    1.312366   -0.045453
    107          0           0        4.560023    1.315639   -0.045453
    108          0           0        4.510073    1.312366   -0.045453
    109          0           0        4.460977    1.302600   -0.045453
    110          0           0        4.413576    1.286509   -0.045453
    111          0           0        4.368681    1.264370   -0.045453
    112          0           0        4.327060    1.236559   -0.045453
    113          0           0        4.289425    1.203554   -0.045453
    114          0           0        4.256420    1.165919   -0.045453
    115          0           0        4.289425    0.662358   -0.045453
    116          0           0        4.327060    0.629353   -0.045453
    117          0           0        4.368681    0.601542   -0.045453
    118          0           0        4.413576    0.579403   -0.045453
    119          0           0        4.460977    0.563312   -0.045453
    120          0           0        4.510073    0.553546   -0.045453
    121          0           0        4.560023    0.550273   -0.045453
    122          0           0        4.609973    0.553546   -0.045453
    123          0           0        4.659069    0.563312   -0.045453
    124          0           0        4.706470    0.579403   -0.045453
    125          0           0        4.751365    0.601542   -0.045453
    126          0           0        4.792986    0.629353   -0.045453
    127          0           0        4.830621    0.662358   -0.045453
    128          0           0        4.863626    0.699993   -0.045453
    129          0           0        4.891437    0.741614   -0.045453
    130          0           0        4.913576    0.786509   -0.045453
    131          0           0        4.929667    0.833910   -0.045453
    132          0           0        4.939433    0.883006   -0.045453
    133          0           0        5.060023    0.932956   -0.103308
    134          0           0        5.055745    0.998219   -0.103308
    135          0           0        5.042986    1.062366   -0.103308
    136          0           0        5.021963    1.124298   -0.103308
    137          0           0        4.993036    1.182956   -0.103308
    138          0           0        4.956700    1.237337   -0.103308
    139          0           0        4.913576    1.286509   -0.103308
    140          0           0        4.864404    1.329633   -0.103308
    141          0           0        4.810023    1.365969   -0.103308
    142          0           0        4.751365    1.394896   -0.103308
    143          0           0        4.689433    1.415919   -0.103308
    144          0           0        4.625286    1.428678   -0.103308
    145          0           0        4.560023    1.432956   -0.103308
    146          0           0        4.494760    1.428678   -0.103308
    147          0           0        4.430613    1.415919   -0.103308
    148          0           0        4.368681    1.394896   -0.103308
    149          0           0        4.310023    1.365969   -0.103308
    150          0           0        4.255642    1.329633   -0.103308
    151          0           0        4.625286    0.437234   -0.103308
    152          0           0        4.689433    0.449993   -0.103308
    153          0           0        4.751365    0.471016   -0.103308
    154          0           0        4.810023    0.499943   -0.103308
    155          0           0        4.864404    0.536279   -0.103308
    156          0           0        4.913576    0.579403   -0.103308
    157          0           0        4.956700    0.628575   -0.103308
    158          0           0        4.993036    0.682956   -0.103308
    159          0           0        5.021963    0.741614   -0.103308
    160          0           0        5.042986    0.803546   -0.103308
    161          0           0        5.055745    0.867693   -0.103308
    162          0           0        5.168784    0.932956   -0.175980
    163          0           0        5.163576    1.012415   -0.175980
    164          0           0        5.148041    1.090515   -0.175980
    165          0           0        5.122445    1.165919   -0.175980
    166          0           0        5.087226    1.237337   -0.175980
    167          0           0        5.042986    1.303546   -0.175980
    168          0           0        4.990482    1.363415   -0.175980
    169          0           0        4.930613    1.415919   -0.175980
    170          0           0        4.864404    1.460159   -0.175980
    171          0           0        4.792986    1.495378   -0.175980
    172          0           0        4.717582    1.520974   -0.175980
    173          0           0        4.639482    1.536509   -0.175980
    174          0           0        4.560023    1.541717   -0.175980
    175          0           0        4.480564    1.536509   -0.175980
    176          0           0        4.402464    1.520974   -0.175980
    177          0           0        4.327060    1.495378   -0.175980
    178          0           0        4.255642    1.460159   -0.175980
    179          0           0        4.717582    0.344938   -0.175980
    180          0           0        4.792986    0.370534   -0.175980
    181          0           0        4.864404    0.405753   -0.175980
    182          0           0        4.930613    0.449993   -0.175980
    183          0           0        4.990482    0.502497   -0.175980
    184          0           0        5.042986    0.562366   -0.175980
    185          0           0        5.087226    0.628575   -0.175980
    186          0           0        5.122445    0.699993   -0.175980
    187          0           0        5.148041    0.775397   -0.175980
    188          0           0        5.163576    0.853497   -0.175980
    189          0           0        5.267130    0.932956   -0.262226
    190          0           0        5.261080    1.025252   -0.262226
    191          0           0        5.243036    1.115969   -0.262226
    192          0           0        5.213304    1.203554   -0.262226
    193          0           0        5.172395    1.286509   -0.262226
    194          0           0        5.121009    1.363415   -0.262226
    195          0           0        5.060023    1.432956   -0.262226
    196          0           0        4.990482    1.493942   -0.262226
    197          0           0        4.913576    1.545328   -0.262226
    198          0           0        4.830621    1.586237   -0.262226
    199          0           0        4.743036    1.615969   -0.262226
    200          0           0        4.652319    1.634013   -0.262226
    201          0           0        4.560023    1.640063   -0.262226
    202          0           0        4.467727    1.634013   -0.262226
    203          0           0        4.377010    1.615969   -0.262226
    204          0           0        4.830621    0.279675   -0.262226
    205          0           0        4.913576    0.320584   -0.262226
    206          0           0        4.990482    0.371970   -0.262226
    207          0           0        5.060023    0.432956   -0.262226
    208          0           0        5.121009    0.502497   -0.262226
    209          0           0        5.172395    0.579403   -0.262226
    210          0           0        5.213304    0.662358   -0.262226
    211          0           0        5.243036    0.749943   -0.262226
    212          0           0        5.261080    0.840660   -0.262226
    213          0           0        5.353376    0.932956   -0.360572
    214          0           0        5.346589    1.036509   -0.360572
    215          0           0        5.326343    1.138291   -0.360572
    216          0           0        5.292986    1.236559   -0.360572
    217          0           0        5.247087    1.329633   -0.360572
    218          0           0        5.189433    1.415919   -0.360572
    219          0           0        5.121009    1.493942   -0.360572
    220          0           0        5.042986    1.562366   -0.360572
    221          0           0        4.956700    1.620020   -0.360572
    222          0           0        4.863626    1.665919   -0.360572
    223          0           0        4.765358    1.699276   -0.360572
    224          0           0        4.663576    1.719522   -0.360572
    225          0           0        4.560023    1.726309   -0.360572
    226          0           0        4.456470    1.719522   -0.360572
    227          0           0        4.863626    0.199993   -0.360572
    228          0           0        4.956700    0.245892   -0.360572
    229          0           0        5.042986    0.303546   -0.360572
    230          0           0        5.121009    0.371970   -0.360572
    231          0           0        5.189433    0.449993   -0.360572
    232          0           0        5.247087    0.536279   -0.360572
    233          0           0        5.292986    0.629353   -0.360572
    234          0           0        5.326343    0.727621   -0.360572
    235          0           0        5.346589    0.829403   -0.360572
    236          0           0        5.426048    0.932956   -0.469333
 ---------------------------------------------------------------------
 Rotational constants (GHZ):      0.4454681      0.2811480      0.1854303
 Leave Link  202 at Tue Sep 15 11:11:27 2020, MaxMem=   131072000 cpu:         0.0
 (Enter /share/programs/GAUSSIAN/64/g09/l301.exe)
 Standard basis: 6-311+G(d,p) (5D, 7F)
 Warning:  center  37 has no basis functions!
 Warning:  center  38 has no basis functions!
 Warning:  center  39 has no basis functions!
 Warning:  center  40 has no basis functions!
 Warning:  center  41 has no basis functions!
 Warning:  center  42 has no basis functions!
 Warning:  center  43 has no basis functions!
 Warning:  center  44 has no basis functions!
 Warning:  center  45 has no basis functions!
 Warning:  center  46 has no basis functions!
 Warning:  center  47 has no basis functions!
 Warning:  center  48 has no basis functions!
 Warning:  center  49 has no basis functions!
 Warning:  center  50 has no basis functions!
 Warning:  center  51 has no basis functions!
 Warning:  center  52 has no basis functions!
 Warning:  center  53 has no basis functions!
 Warning:  center  54 has no basis functions!
 Warning:  center  55 has no basis functions!
 Warning:  center  56 has no basis functions!
 Warning:  center  57 has no basis functions!
 Warning:  center  58 has no basis functions!
 Warning:  center  59 has no basis functions!
 Warning:  center  60 has no basis functions!
 Warning:  center  61 has no basis functions!
 Warning:  center  62 has no basis functions!
 Warning:  center  63 has no basis functions!
 Warning:  center  64 has no basis functions!
 Warning:  center  65 has no basis functions!
 Warning:  center  66 has no basis functions!
 Warning:  center  67 has no basis functions!
 Warning:  center  68 has no basis functions!
 Warning:  center  69 has no basis functions!
 Warning:  center  70 has no basis functions!
 Warning:  center  71 has no basis functions!
 Warning:  center  72 has no basis functions!
 Warning:  center  73 has no basis functions!
 Warning:  center  74 has no basis functions!
 Warning:  center  75 has no basis functions!
 Warning:  center  76 has no basis functions!
 Warning:  center  77 has no basis functions!
 Warning:  center  78 has no basis functions!
 Warning:  center  79 has no basis functions!
 Warning:  center  80 has no basis functions!
 Warning:  center  81 has no basis functions!
 Warning:  center  82 has no basis functions!
 Warning:  center  83 has no basis functions!
 Warning:  center  84 has no basis functions!
 Warning:  center  85 has no basis functions!
 Warning:  center  86 has no basis functions!
 Warning:  center  87 has no basis functions!
 Warning:  center  88 has no basis functions!
 Warning:  center  89 has no basis functions!
 Warning:  center  90 has no basis functions!
 Warning:  center  91 has no basis functions!
 Warning:  center  92 has no basis functions!
 Warning:  center  93 has no basis functions!
 Warning:  center  94 has no basis functions!
 Warning:  center  95 has no basis functions!
 Warning:  center  96 has no basis functions!
 Warning:  center  97 has no basis functions!
 Warning:  center  98 has no basis functions!
 Warning:  center  99 has no basis functions!
 Warning:  center 100 has no basis functions!
 Warning:  center 101 has no basis functions!
 Warning:  center 102 has no basis functions!
 Warning:  center 103 has no basis functions!
 Warning:  center 104 has no basis functions!
 Warning:  center 105 has no basis functions!
 Warning:  center 106 has no basis functions!
 Warning:  center 107 has no basis functions!
 Warning:  center 108 has no basis functions!
 Warning:  center 109 has no basis functions!
 Warning:  center 110 has no basis functions!
 Warning:  center 111 has no basis functions!
 Warning:  center 112 has no basis functions!
 Warning:  center 113 has no basis functions!
 Warning:  center 114 has no basis functions!
 Warning:  center 115 has no basis functions!
 Warning:  center 116 has no basis functions!
 Warning:  center 117 has no basis functions!
 Warning:  center 118 has no basis functions!
 Warning:  center 119 has no basis functions!
 Warning:  center 120 has no basis functions!
 Warning:  center 121 has no basis functions!
 Warning:  center 122 has no basis functions!
 Warning:  center 123 has no basis functions!
 Warning:  center 124 has no basis functions!
 Warning:  center 125 has no basis functions!
 Warning:  center 126 has no basis functions!
 Warning:  center 127 has no basis functions!
 Warning:  center 128 has no basis functions!
 Warning:  center 129 has no basis functions!
 Warning:  center 130 has no basis functions!
 Warning:  center 131 has no basis functions!
 Warning:  center 132 has no basis functions!
 Warning:  center 133 has no basis functions!
 Warning:  center 134 has no basis functions!
 Warning:  center 135 has no basis functions!
 Warning:  center 136 has no basis functions!
 Warning:  center 137 has no basis functions!
 Warning:  center 138 has no basis functions!
 Warning:  center 139 has no basis functions!
 Warning:  center 140 has no basis functions!
 Warning:  center 141 has no basis functions!
 Warning:  center 142 has no basis functions!
 Warning:  center 143 has no basis functions!
 Warning:  center 144 has no basis functions!
 Warning:  center 145 has no basis functions!
 Warning:  center 146 has no basis functions!
 Warning:  center 147 has no basis functions!
 Warning:  center 148 has no basis functions!
 Warning:  center 149 has no basis functions!
 Warning:  center 150 has no basis functions!
 Warning:  center 151 has no basis functions!
 Warning:  center 152 has no basis functions!
 Warning:  center 153 has no basis functions!
 Warning:  center 154 has no basis functions!
 Warning:  center 155 has no basis functions!
 Warning:  center 156 has no basis functions!
 Warning:  center 157 has no basis functions!
 Warning:  center 158 has no basis functions!
 Warning:  center 159 has no basis functions!
 Warning:  center 160 has no basis functions!
 Warning:  center 161 has no basis functions!
 Warning:  center 162 has no basis functions!
 Warning:  center 163 has no basis functions!
 Warning:  center 164 has no basis functions!
 Warning:  center 165 has no basis functions!
 Warning:  center 166 has no basis functions!
 Warning:  center 167 has no basis functions!
 Warning:  center 168 has no basis functions!
 Warning:  center 169 has no basis functions!
 Warning:  center 170 has no basis functions!
 Warning:  center 171 has no basis functions!
 Warning:  center 172 has no basis functions!
 Warning:  center 173 has no basis functions!
 Warning:  center 174 has no basis functions!
 Warning:  center 175 has no basis functions!
 Warning:  center 176 has no basis functions!
 Warning:  center 177 has no basis functions!
 Warning:  center 178 has no basis functions!
 Warning:  center 179 has no basis functions!
 Warning:  center 180 has no basis functions!
 Warning:  center 181 has no basis functions!
 Warning:  center 182 has no basis functions!
 Warning:  center 183 has no basis functions!
 Warning:  center 184 has no basis functions!
 Warning:  center 185 has no basis functions!
 Warning:  center 186 has no basis functions!
 Warning:  center 187 has no basis functions!
 Warning:  center 188 has no basis functions!
 Warning:  center 189 has no basis functions!
 Warning:  center 190 has no basis functions!
 Warning:  center 191 has no basis functions!
 Warning:  center 192 has no basis functions!
 Warning:  center 193 has no basis functions!
 Warning:  center 194 has no basis functions!
 Warning:  center 195 has no basis functions!
 Warning:  center 196 has no basis functions!
 Warning:  center 197 has no basis functions!
 Warning:  center 198 has no basis functions!
 Warning:  center 199 has no basis functions!
 Warning:  center 200 has no basis functions!
 Warning:  center 201 has no basis functions!
 Warning:  center 202 has no basis functions!
 Warning:  center 203 has no basis functions!
 Warning:  center 204 has no basis functions!
 Warning:  center 205 has no basis functions!
 Warning:  center 206 has no basis functions!
 Warning:  center 207 has no basis functions!
 Warning:  center 208 has no basis functions!
 Warning:  center 209 has no basis functions!
 Warning:  center 210 has no basis functions!
 Warning:  center 211 has no basis functions!
 Warning:  center 212 has no basis functions!
 Warning:  center 213 has no basis functions!
 Warning:  center 214 has no basis functions!
 Warning:  center 215 has no basis functions!
 Warning:  center 216 has no basis functions!
 Warning:  center 217 has no basis functions!
 Warning:  center 218 has no basis functions!
 Warning:  center 219 has no basis functions!
 Warning:  center 220 has no basis functions!
 Warning:  center 221 has no basis functions!
 Warning:  center 222 has no basis functions!
 Warning:  center 223 has no basis functions!
 Warning:  center 224 has no basis functions!
 Warning:  center 225 has no basis functions!
 Warning:  center 226 has no basis functions!
 Warning:  center 227 has no basis functions!
 Warning:  center 228 has no basis functions!
 Warning:  center 229 has no basis functions!
 Warning:  center 230 has no basis functions!
 Warning:  center 231 has no basis functions!
 Warning:  center 232 has no basis functions!
 Warning:  center 233 has no basis functions!
 Warning:  center 234 has no basis functions!
 Warning:  center 235 has no basis functions!
 Warning:  center 236 has no basis functions!
 Ernie: Thresh=  0.10000D-02 Tol=  0.10000D-05 Strict=F.
   568 basis functions,   904 primitive gaussians,   590 cartesian basis functions
    73 alpha electrons       73 beta electrons
       nuclear repulsion energy      1599.9156270972 Hartrees.
 IExCor=  402 DFT=T Ex+Corr=B3LYP ExCW=0 ScaHFX=  0.200000
 ScaDFX=  0.800000  0.720000  1.000000  0.810000 ScalE2=  1.000000  1.000000
 IRadAn=      0 IRanWt=     -1 IRanGd=            0 ICorTp=0 IEmpDi=  4
 NAtoms=  236 NActive=  236 NUniq=  236 SFac= 1.00D+00 NAtFMM=   60 NAOKFM=T Big=T
 Integral buffers will be    131072 words long.
 Raffenetti 2 integral format.
 Two-electron integral symmetry is turned off.
 Leave Link  301 at Tue Sep 15 11:11:27 2020, MaxMem=   131072000 cpu:         0.6
 (Enter /share/programs/GAUSSIAN/64/g09/l302.exe)
 NPDir=0 NMtPBC=     1 NCelOv=     1 NCel=       1 NClECP=     1 NCelD=      1
         NCelK=      1 NCelE2=     1 NClLst=     1 CellRange=     0.0.
 One-electron integrals computed using PRISM.
 NBasis=   568 RedAO= T EigKep=  1.01D-06  NBF=   568
 NBsUse=   557 1.00D-06 EigRej=  9.19D-07 NBFU=   557
 Precomputing XC quadrature grid using
 IXCGrd= 4 IRadAn=           0 IRanWt=          -1 IRanGd=           0 AccXCQ= 0.00D+00.
 Generated NRdTot=       0 NPtTot=           0 NUsed=           0 NTot=          32
 NSgBfM=   587   588   588   589   589 MxSgAt=   236 MxSgA2=    36.
 Leave Link  302 at Tue Sep 15 11:11:30 2020, MaxMem=   131072000 cpu:        21.7
 (Enter /share/programs/GAUSSIAN/64/g09/l308.exe)
 Leave Link  308 at Tue Sep 15 11:11:30 2020, MaxMem=   131072000 cpu:         1.1
 (Enter /share/programs/GAUSSIAN/64/g09/l303.exe)
 DipDrv:  MaxL=1.
 Leave Link  303 at Tue Sep 15 11:11:30 2020, MaxMem=   131072000 cpu:         0.8
 (Enter /share/programs/GAUSSIAN/64/g09/l401.exe)
 Initial guess from the checkpoint file:  "/scratch/aartigas.38872/Gau-3253871.chk"
 Skipping rotation of guess because NAtoms(RWF)=  236 differs from NAtoms(Chk)=   36.
 Guess basis will be translated and rotated to current coordinates.
 JPrj=2 DoOrth=T DoCkMO=T.
 Leave Link  401 at Tue Sep 15 11:11:34 2020, MaxMem=   131072000 cpu:        21.5
 (Enter /share/programs/GAUSSIAN/64/g09/l502.exe)
 Closed shell SCF:
 Using DIIS extrapolation, IDIIS=  1040.
 Two-electron integral symmetry not used.
 IVT=     1071582 IEndB=     1071582 NGot=   131072000 MDV=   130365749
 LenX=   130365749 LenY=   130017059
 Requested convergence on RMS density matrix=1.00D-08 within 128 cycles.
 Requested convergence on MAX density matrix=1.00D-06.
 Requested convergence on             energy=1.00D-06.
 No special actions if energy rises.
 Fock matrices will be formed incrementally for  20 cycles.

 Cycle   1  Pass 1  IDiag  1:
 FoFJK:  IHMeth= 1 ICntrl=       0 DoSepK=F KAlg= 0 I1Cent=   0 FoldK=F
 IRaf= 940000000 NMat=   1 IRICut=       1 DoRegI=T DoRafI=F ISym2E= 0.
 FoFCou: FMM=T IPFlag=           0 FMFlag=      100000 FMFlg1=        2001
         NFxFlg=           0 DoJE=F BraDBF=F KetDBF=F FulRan=T
         wScrn=  0.000000 ICntrl=       0 IOpCl=  0 I1Cent=           0 NGrid=           0
         NMat0=    1 NMatS0=      1 NMatT0=    0 NMatD0=    1 NMtDS0=    0 NMtDT0=    0
 Symmetry not used in FoFCou.
 FMM levels:  10  Number of levels for PrismC:   9
 E= -847.003738666968    
 DIIS: error= 5.05D-08 at cycle   1 NSaved=   1.
 NSaved= 1 IEnMin= 1 EnMin= -847.003738666968     IErMin= 1 ErrMin= 5.05D-08
 ErrMax= 5.05D-08  0.00D+00 EMaxC= 1.00D-01 BMatC= 3.55D-12 BMatP= 3.55D-12
 IDIUse=1 WtCom= 1.00D+00 WtEn= 0.00D+00
 Coeff-Com:  0.100D+01
 Coeff:      0.100D+01
 Gap=     0.151 Goal=   None    Shift=    0.000
 RMSDP=2.88D-07 MaxDP=1.33D-05              OVMax= 3.94D-07

 Cycle   2  Pass 1  IDiag  1:
 RMSU=  2.85D-07    CP:  1.00D+00
 E= -847.003738666870     Delta-E=        0.000000000098 Rises=F Damp=F
 DIIS: error= 1.42D-08 at cycle   2 NSaved=   2.
 NSaved= 2 IEnMin= 1 EnMin= -847.003738666968     IErMin= 2 ErrMin= 1.42D-08
 ErrMax= 1.42D-08  0.00D+00 EMaxC= 1.00D-01 BMatC= 2.13D-13 BMatP= 3.55D-12
 IDIUse=1 WtCom= 1.00D+00 WtEn= 0.00D+00
 Coeff-Com:  0.627D-01 0.937D+00
 Coeff:      0.627D-01 0.937D+00
 Gap=     0.151 Goal=   None    Shift=    0.000
 RMSDP=1.58D-08 MaxDP=7.87D-07 DE= 9.82D-11 OVMax= 3.02D-07

 Cycle   3  Pass 1  IDiag  1:
 RMSU=  1.33D-08    CP:  1.00D+00  1.02D+00
 E= -847.003738666904     Delta-E=       -0.000000000034 Rises=F Damp=F
 DIIS: error= 2.51D-08 at cycle   3 NSaved=   3.
 NSaved= 3 IEnMin= 1 EnMin= -847.003738666968     IErMin= 2 ErrMin= 1.42D-08
 ErrMax= 2.51D-08  0.00D+00 EMaxC= 1.00D-01 BMatC= 5.05D-13 BMatP= 2.13D-13
 IDIUse=1 WtCom= 1.00D+00 WtEn= 0.00D+00
 Coeff-Com: -0.107D-01 0.616D+00 0.395D+00
 Coeff:     -0.107D-01 0.616D+00 0.395D+00
 Gap=     0.151 Goal=   None    Shift=    0.000
 RMSDP=1.03D-08 MaxDP=4.19D-07 DE=-3.41D-11 OVMax= 2.17D-07

 Cycle   4  Pass 1  IDiag  1:
 RMSU=  5.83D-09    CP:  1.00D+00  1.03D+00  3.92D-01
 E= -847.003738666846     Delta-E=        0.000000000059 Rises=F Damp=F
 DIIS: error= 8.06D-09 at cycle   4 NSaved=   4.
 NSaved= 4 IEnMin= 1 EnMin= -847.003738666968     IErMin= 4 ErrMin= 8.06D-09
 ErrMax= 8.06D-09  0.00D+00 EMaxC= 1.00D-01 BMatC= 2.07D-14 BMatP= 2.13D-13
 IDIUse=1 WtCom= 1.00D+00 WtEn= 0.00D+00
 Coeff-Com: -0.876D-02 0.309D+00 0.241D+00 0.459D+00
 Coeff:     -0.876D-02 0.309D+00 0.241D+00 0.459D+00
 Gap=     0.151 Goal=   None    Shift=    0.000
 RMSDP=4.16D-09 MaxDP=1.62D-07 DE= 5.87D-11 OVMax= 6.88D-08

 SCF Done:  E(RB3LYP) =  -847.003738667     A.U. after    4 cycles
            NFock=  4  Conv=0.42D-08     -V/T= 2.0049
 KE= 8.428349970567D+02 PE=-5.164192584015D+03 EE= 1.874438221195D+03
 Leave Link  502 at Tue Sep 15 11:13:31 2020, MaxMem=   131072000 cpu:       929.0
 (Enter /share/programs/GAUSSIAN/64/g09/l801.exe)
 DoSCS=F DFT=T ScalE2(SS,OS)=  1.000000  1.000000
 Range of M.O.s used for correlation:     1   557
 NBasis=   568 NAE=    73 NBE=    73 NFC=     0 NFV=     0
 NROrb=    557 NOA=    73 NOB=    73 NVA=   484 NVB=   484

 **** Warning!!: The largest alpha MO coefficient is  0.14271944D+03

 Leave Link  801 at Tue Sep 15 11:13:31 2020, MaxMem=   131072000 cpu:         0.2
 (Enter /share/programs/GAUSSIAN/64/g09/l1002.exe)
 Minotr:  Closed shell wavefunction.
          Direct CPHF calculation.
          Differentiating once with respect to magnetic field using GIAOs.
          Electric field/nuclear overlap derivatives assumed to be zero.
          Requested convergence is 1.0D-08 RMS, and 1.0D-07 maximum.
          Secondary convergence is 1.0D-12 RMS, and 1.0D-12 maximum.
          NewPWx=T KeepS1=F KeepF1=F KeepIn=T MapXYZ=F SortEE=F KeepMc=T.
          MDV=     131069551 using IRadAn=       2.
 Generate precomputed XC quadrature information.
          Solving linear equations simultaneously, MaxMat=      72.
 FoFCou: FMM=F IPFlag=           0 FMFlag=      100000 FMFlg1=        2001
         NFxFlg=           0 DoJE=F BraDBF=F KetDBF=T FulRan=T
         wScrn=  0.000000 ICntrl=    6100 IOpCl=  0 I1Cent=           7 NGrid=         236
         NMat0=    1 NMatS0=      1 NMatT0=    0 NMatD0=    1 NMtDS0=    0 NMtDT0=    0
 Symmetry not used in FoFCou.
 FoFJK:  IHMeth= 1 ICntrl=    6127 DoSepK=F KAlg= 0 I1Cent=   0 FoldK=F
 IRaf=         1 NMat=   1 IRICut=       1 DoRegI=T DoRafI=F ISym2E= 0.
          There are     3 degrees of freedom in the 1st order CPHF.  IDoFFX=0 NUNeed=     3.
      3 vectors produced by pass  0 Test12= 1.18D-12 3.33D-08 XBig12= 1.96D+03 8.77D+00.
 AX will form     3 AO Fock derivatives at one time.
      3 vectors produced by pass  1 Test12= 1.18D-12 3.33D-08 XBig12= 3.18D+00 7.58D-01.
      3 vectors produced by pass  2 Test12= 1.18D-12 3.33D-08 XBig12= 1.86D-02 5.85D-02.
      3 vectors produced by pass  3 Test12= 1.18D-12 3.33D-08 XBig12= 4.29D-05 1.35D-03.
      3 vectors produced by pass  4 Test12= 1.18D-12 3.33D-08 XBig12= 9.75D-08 7.22D-05.
      3 vectors produced by pass  5 Test12= 1.18D-12 3.33D-08 XBig12= 3.97D-10 5.92D-06.
      3 vectors produced by pass  6 Test12= 1.18D-12 3.33D-08 XBig12= 1.51D-12 4.40D-07.
 InvSVY:  IOpt=1 It=  1 EMax= 3.55D-15
 Solved reduced A of dimension    21 with     3 vectors.
 Calculating GIAO nuclear magnetic shielding tensors.
 SCF GIAO Magnetic shielding tensor (ppm):
      1  C    Isotropic =    49.6861   Anisotropy =   149.7970
   XX=    46.3088   YX=   -25.0950   ZX=    31.4786
   XY=   -31.1109   YY=   -39.0339   ZY=    13.2621
   XZ=    24.9178   YZ=     8.9888   ZZ=   141.7833
   Eigenvalues:   -49.3507    48.8581   149.5507
      2  C    Isotropic =    49.6861   Anisotropy =   149.7971
   XX=    46.3088   YX=    25.0953   ZX=    31.4786
   XY=    31.1111   YY=   -39.0339   ZY=   -13.2621
   XZ=    24.9177   YZ=    -8.9889   ZZ=   141.7834
   Eigenvalues:   -49.3508    48.8583   149.5509
      3  C    Isotropic =    44.4899   Anisotropy =   204.7372
   XX=   -22.2199   YX=    10.8075   ZX=    51.2710
   XY=     4.9259   YY=   -14.7126   ZY=    14.7921
   XZ=    32.3655   YZ=    21.2392   ZZ=   170.4022
   Eigenvalues:   -31.9593   -15.5523   180.9814
      4  C    Isotropic =    44.4899   Anisotropy =   204.7373
   XX=   -22.2198   YX=   -10.8075   ZX=    51.2710
   XY=    -4.9256   YY=   -14.7126   ZY=   -14.7922
   XZ=    32.3656   YZ=   -21.2393   ZZ=   170.4023
   Eigenvalues:   -31.9592   -15.5524   180.9815
      5  C    Isotropic =    48.5420   Anisotropy =   189.5490
   XX=   -14.6790   YX=     4.7342   ZX=     8.4333
   XY=    20.3759   YY=    -5.5375   ZY=    31.5121
   XZ=    65.1218   YZ=     0.8640   ZZ=   165.8426
   Eigenvalues:   -26.3226    -2.9593   174.9080
      6  C    Isotropic =    48.5421   Anisotropy =   189.5489
   XX=   -14.6789   YX=    -4.7340   ZX=     8.4335
   XY=   -20.3758   YY=    -5.5374   ZY=   -31.5121
   XZ=    65.1218   YZ=    -0.8638   ZZ=   165.8426
   Eigenvalues:   -26.3224    -2.9594   174.9080
      7  C    Isotropic =    50.1907   Anisotropy =   149.2089
   XX=    19.7303   YX=   -44.2755   ZX=    41.2886
   XY=   -38.0437   YY=    -2.7069   ZY=    36.9011
   XZ=    36.5866   YZ=    37.5458   ZZ=   133.5487
   Eigenvalues:   -49.6656    50.5744   149.6633
      8  C    Isotropic =    48.9362   Anisotropy =   152.4339
   XX=   -31.5093   YX=   -11.4921   ZX=    54.7730
   XY=   -19.0468   YY=    46.5898   ZY=    27.5522
   XZ=    42.2451   YZ=    29.8391   ZZ=   131.7282
   Eigenvalues:   -50.1461    46.3960   150.5589
      9  C    Isotropic =    44.4204   Anisotropy =   209.3981
   XX=   -10.1987   YX=    16.7536   ZX=    44.4888
   XY=     8.9342   YY=    -7.7270   ZY=    61.4651
   XZ=    43.3269   YZ=    64.9792   ZZ=   151.1869
   Eigenvalues:   -30.3689   -20.3891   184.0192
     10  C    Isotropic =    45.3894   Anisotropy =   198.3236
   XX=    -5.9706   YX=    23.3819   ZX=    35.6519
   XY=    38.1954   YY=     1.7271   ZY=    73.1370
   XZ=    54.0013   YZ=    45.7045   ZZ=   140.4116
   Eigenvalues:   -33.5315    -7.9055   177.6051
     11  H    Isotropic =    23.8179   Anisotropy =     7.5674
   XX=    27.2191   YX=    -1.9090   ZX=    -2.2602
   XY=    -1.7961   YY=    24.8722   ZY=    -0.1966
   XZ=    -3.3763   YZ=    -0.1950   ZZ=    19.3625
   Eigenvalues:    18.3647    24.2263    28.8628
     12  H    Isotropic =    23.8179   Anisotropy =     7.5674
   XX=    27.2191   YX=     1.9090   ZX=    -2.2602
   XY=     1.7961   YY=    24.8722   ZY=     0.1966
   XZ=    -3.3763   YZ=     0.1950   ZZ=    19.3625
   Eigenvalues:    18.3647    24.2263    28.8628
     13  H    Isotropic =    23.8548   Anisotropy =     7.5124
[...]
   132  Bq   0.000000
   133  Bq   0.000000
   134  Bq   0.000000
   135  Bq   0.000000
   136  Bq   0.000000
   137  Bq   0.000000
   138  Bq   0.000000
   139  Bq   0.000000
   140  Bq   0.000000
   141  Bq   0.000000
   142  Bq   0.000000
   143  Bq   0.000000
   144  Bq   0.000000
   145  Bq   0.000000
   146  Bq   0.000000
   147  Bq   0.000000
   148  Bq   0.000000
   149  Bq   0.000000
   150  Bq   0.000000
   151  Bq   0.000000
   152  Bq   0.000000
   153  Bq   0.000000
   154  Bq   0.000000
   155  Bq   0.000000
   156  Bq   0.000000
   157  Bq   0.000000
   158  Bq   0.000000
   159  Bq   0.000000
   160  Bq   0.000000
   161  Bq   0.000000
   162  Bq   0.000000
   163  Bq   0.000000
   164  Bq   0.000000
   165  Bq   0.000000
   166  Bq   0.000000
   167  Bq   0.000000
   168  Bq   0.000000
   169  Bq   0.000000
   170  Bq   0.000000
   171  Bq   0.000000
   172  Bq   0.000000
   173  Bq   0.000000
   174  Bq   0.000000
   175  Bq   0.000000
   176  Bq   0.000000
   177  Bq   0.000000
   178  Bq   0.000000
   179  Bq   0.000000
   180  Bq   0.000000
   181  Bq   0.000000
   182  Bq   0.000000
   183  Bq   0.000000
   184  Bq   0.000000
   185  Bq   0.000000
   186  Bq   0.000000
   187  Bq   0.000000
   188  Bq   0.000000
   189  Bq   0.000000
   190  Bq   0.000000
   191  Bq   0.000000
   192  Bq   0.000000
   193  Bq   0.000000
   194  Bq   0.000000
   195  Bq   0.000000
   196  Bq   0.000000
   197  Bq   0.000000
   198  Bq   0.000000
   199  Bq   0.000000
   200  Bq   0.000000
   201  Bq   0.000000
   202  Bq   0.000000
   203  Bq   0.000000
   204  Bq   0.000000
   205  Bq   0.000000
   206  Bq   0.000000
   207  Bq   0.000000
   208  Bq   0.000000
   209  Bq   0.000000
   210  Bq   0.000000
   211  Bq   0.000000
   212  Bq   0.000000
   213  Bq   0.000000
   214  Bq   0.000000
   215  Bq   0.000000
   216  Bq   0.000000
   217  Bq   0.000000
   218  Bq   0.000000
   219  Bq   0.000000
   220  Bq   0.000000
   221  Bq   0.000000
   222  Bq   0.000000
   223  Bq   0.000000
   224  Bq   0.000000
   225  Bq   0.000000
   226  Bq   0.000000
   227  Bq   0.000000
   228  Bq   0.000000
   229  Bq   0.000000
   230  Bq   0.000000
   231  Bq   0.000000
   232  Bq   0.000000
   233  Bq   0.000000
   234  Bq   0.000000
   235  Bq   0.000000
   236  Bq   0.000000
 Sum of Mulliken charges =   0.00000
 Mulliken charges with hydrogens summed into heavy atoms:
               1
     1  C   -0.262865
     2  C   -0.262866
     3  C    0.737923
     4  C    0.737922
     5  C   -0.039994
     6  C   -0.040001
     7  C    0.075155
     8  C   -0.449359
     9  C    0.780501
    10  C   -0.200782
    15  C    0.249272
    16  C   -0.533462
    17  C   -0.189405
    18  C   -0.286191
    23  C   -0.330145
    24  C    0.075154
    25  C    0.780496
    26  C   -0.200782
    27  C    0.249273
    28  C   -0.286192
    29  C   -0.189403
    30  C   -0.533462
    37  Bq   0.000000
    38  Bq   0.000000
    39  Bq   0.000000
    40  Bq   0.000000
    41  Bq   0.000000
    42  Bq   0.000000
    43  Bq   0.000000
    44  Bq   0.000000
    45  Bq   0.000000
    46  Bq   0.000000
    47  Bq   0.000000
    48  Bq   0.000000
    49  Bq   0.000000
    50  Bq   0.000000
    51  Bq   0.000000
    52  Bq   0.000000
    53  Bq   0.000000
    54  Bq   0.000000
    55  Bq   0.000000
    56  Bq   0.000000
    57  Bq   0.000000
    58  Bq   0.000000
    59  Bq   0.000000
    60  Bq   0.000000
    61  Bq   0.000000
    62  Bq   0.000000
    63  Bq   0.000000
    64  Bq   0.000000
    65  Bq   0.000000
    66  Bq   0.000000
    67  Bq   0.000000
    68  Bq   0.000000
    69  Bq   0.000000
    70  Bq   0.000000
    71  Bq   0.000000
    72  Bq   0.000000
    73  Bq   0.000000
    74  Bq   0.000000
    75  Bq   0.000000
    76  Bq   0.000000
    77  Bq   0.000000
    78  Bq   0.000000
    79  Bq   0.000000
    80  Bq   0.000000
    81  Bq   0.000000
    82  Bq   0.000000
    83  Bq   0.000000
    84  Bq   0.000000
    85  Bq   0.000000
    86  Bq   0.000000
    87  Bq   0.000000
    88  Bq   0.000000
    89  Bq   0.000000
    90  Bq   0.000000
    91  Bq   0.000000
    92  Bq   0.000000
    93  Bq   0.000000
    94  Bq   0.000000
    95  Bq   0.000000
    96  Bq   0.000000
    97  Bq   0.000000
    98  Bq   0.000000
    99  Bq   0.000000
   100  Bq   0.000000
   101  Bq   0.000000
   102  Bq   0.000000
   103  Bq   0.000000
   104  Bq   0.000000
   105  Bq   0.000000
   106  Bq   0.000000
   107  Bq   0.000000
   108  Bq   0.000000
   109  Bq   0.000000
   110  Bq   0.000000
   111  Bq   0.000000
   112  Bq   0.000000
   113  Bq   0.000000
   114  Bq   0.000000
   115  Bq   0.000000
   116  Bq   0.000000
   117  Bq   0.000000
   118  Bq   0.000000
   119  Bq   0.000000
   120  Bq   0.000000
   121  Bq   0.000000
   122  Bq   0.000000
   123  Bq   0.000000
   124  Bq   0.000000
   125  Bq   0.000000
   126  Bq   0.000000
   127  Bq   0.000000
   128  Bq   0.000000
   129  Bq   0.000000
   130  Bq   0.000000
   131  Bq   0.000000
   132  Bq   0.000000
   133  Bq   0.000000
   134  Bq   0.000000
   135  Bq   0.000000
   136  Bq   0.000000
   137  Bq   0.000000
   138  Bq   0.000000
   139  Bq   0.000000
   140  Bq   0.000000
   141  Bq   0.000000
   142  Bq   0.000000
   143  Bq   0.000000
   144  Bq   0.000000
   145  Bq   0.000000
   146  Bq   0.000000
   147  Bq   0.000000
   148  Bq   0.000000
   149  Bq   0.000000
   150  Bq   0.000000
   151  Bq   0.000000
   152  Bq   0.000000
   153  Bq   0.000000
   154  Bq   0.000000
   155  Bq   0.000000
   156  Bq   0.000000
   157  Bq   0.000000
   158  Bq   0.000000
   159  Bq   0.000000
   160  Bq   0.000000
   161  Bq   0.000000
   162  Bq   0.000000
   163  Bq   0.000000
   164  Bq   0.000000
   165  Bq   0.000000
   166  Bq   0.000000
   167  Bq   0.000000
   168  Bq   0.000000
   169  Bq   0.000000
   170  Bq   0.000000
   171  Bq   0.000000
   172  Bq   0.000000
   173  Bq   0.000000
   174  Bq   0.000000
   175  Bq   0.000000
   176  Bq   0.000000
   177  Bq   0.000000
   178  Bq   0.000000
   179  Bq   0.000000
   180  Bq   0.000000
   181  Bq   0.000000
   182  Bq   0.000000
   183  Bq   0.000000
   184  Bq   0.000000
   185  Bq   0.000000
   186  Bq   0.000000
   187  Bq   0.000000
   188  Bq   0.000000
   189  Bq   0.000000
   190  Bq   0.000000
   191  Bq   0.000000
   192  Bq   0.000000
   193  Bq   0.000000
   194  Bq   0.000000
   195  Bq   0.000000
   196  Bq   0.000000
   197  Bq   0.000000
   198  Bq   0.000000
   199  Bq   0.000000
   200  Bq   0.000000
   201  Bq   0.000000
   202  Bq   0.000000
   203  Bq   0.000000
   204  Bq   0.000000
   205  Bq   0.000000
   206  Bq   0.000000
   207  Bq   0.000000
   208  Bq   0.000000
   209  Bq   0.000000
   210  Bq   0.000000
   211  Bq   0.000000
   212  Bq   0.000000
   213  Bq   0.000000
   214  Bq   0.000000
   215  Bq   0.000000
   216  Bq   0.119212
   217  Bq   0.000000
   218  Bq   0.000000
   219  Bq   0.000000
   220  Bq   0.000000
   221  Bq   0.000000
   222  Bq   0.000000
   223  Bq   0.000000
   224  Bq   0.000000
   225  Bq   0.000000
   226  Bq   0.000000
   227  Bq   0.000000
   228  Bq   0.000000
   229  Bq   0.000000
   230  Bq   0.000000
   231  Bq   0.000000
   232  Bq   0.000000
   233  Bq   0.000000
   234  Bq   0.000000
   235  Bq   0.000000
   236  Bq   0.000000
 Electronic spatial extent (au):  <R**2>=           5804.3227
 Charge=              0.0000 electrons
 Dipole moment (field-independent basis, Debye):
    X=              0.0000    Y=              0.0732    Z=              0.0000  Tot=              0.0732
 Quadrupole moment (field-independent basis, Debye-Ang):
   XX=           -113.9137   YY=           -113.9781   ZZ=           -133.4378
   XY=              0.0000   XZ=             -4.8717   YZ=              0.0000
 Traceless Quadrupole moment (field-independent basis, Debye-Ang):
   XX=              6.5295   YY=              6.4651   ZZ=            -12.9946
   XY=              0.0000   XZ=             -4.8717   YZ=              0.0000
 Octapole moment (field-independent basis, Debye-Ang**2):
  XXX=              0.0000  YYY=             11.7108  ZZZ=              0.0000  XYY=              0.0000
  XXY=             -6.4067  XXZ=              0.0000  XZZ=              0.0000  YZZ=             -7.8695
  YYZ=              0.0000  XYZ=            -16.2862
 Hexadecapole moment (field-independent basis, Debye-Ang**3):
 XXXX=          -4416.4021 YYYY=          -2784.9756 ZZZZ=           -481.5690 XXXY=              0.0001
 XXXZ=           -124.3517 YYYX=             -0.0003 YYYZ=              0.0001 ZZZX=             -4.4782
 ZZZY=              0.0001 XXYY=          -1189.3576 XXZZ=           -942.9016 YYZZ=           -589.4012
 XXYZ=              0.0000 YYXZ=              7.8297 ZZXY=             -0.0001
 N-N= 1.599915627097D+03 E-N=-5.164192587538D+03  KE= 8.428349970567D+02
 Leave Link  601 at Tue Sep 15 11:20:43 2020, MaxMem=   131072000 cpu:         0.8
 (Enter /share/programs/GAUSSIAN/64/g09/l9999.exe)
 1\1\GINC-PLANA\SP\RB3LYP\6-311+G(d,p)\C22H14\AARTIGAS\15-Sep-2020\0\\#
 P rb3lyp/6-311+g** NMR Guess=Read geom=connectivity\\Title\\0,1\C,0,0.
 653241,3.257859,-0.20251\C,0,-0.653243,3.25786,0.20251\C,0,1.372495,2.
 032956,-0.320807\C,0,-1.372495,2.032956,0.320807\C,0,0.722474,0.795666
 ,-0.050388\C,0,-0.722474,0.795667,0.050387\C,0,2.760385,2.053927,-0.67
 4268\C,0,3.508866,0.913916,-0.671362\C,0,2.955226,-0.309622,-0.177479\
 C,0,1.574722,-0.361114,0.197094\H,0,1.183427,4.19574,-0.384599\H,0,-1.
 183429,4.19574,0.384599\H,0,3.206283,3.012423,-0.951392\H,0,4.560023,0
 .932956,-0.969333\C,0,3.78302,-1.443098,0.028309\C,0,1.137427,-1.50753
 3,0.912109\C,0,1.973691,-2.584349,1.138062\C,0,3.301853,-2.571588,0.66
 1177\H,0,4.825754,-1.39123,-0.295484\H,0,0.124652,-1.532788,1.308472\H
 ,0,1.603586,-3.445682,1.698977\H,0,3.952742,-3.433526,0.825134\C,0,-3.
 508866,0.913915,0.671362\C,0,-2.760386,2.053926,0.674268\C,0,-2.955226
 ,-0.309623,0.177479\C,0,-1.574722,-0.361114,-0.197094\C,0,-3.78302,-1.
 443099,-0.028309\C,0,-3.301852,-2.571589,-0.661177\C,0,-1.97369,-2.584
 349,-1.138061\C,0,-1.137426,-1.507534,-0.912109\H,0,-4.560022,0.932954
 ,0.969334\H,0,-3.206283,3.012421,0.951392\H,0,-4.825754,-1.391232,0.29
 5484\H,0,-3.952741,-3.433528,-0.825134\H,0,-1.603585,-3.445682,-1.6989
 76\H,0,-0.124652,-1.532788,-1.308471\Bq,0,4.5938056644,0.8068773799,0.
 0221118614\Bq,0,4.6099732113,0.8123655226,0.0221118614\Bq,0,4.62528609
 61,0.8199170017,0.0221118614\Bq,0,4.6394823113,0.8294026094,0.02211186
 14\Bq,0,4.6523189556,0.8406600444,0.0221118614\Bq,0,4.6635763906,0.853
 4966887,0.0221118614\Bq,0,4.6730619983,0.8676929039,0.0221118614\Bq,0,
 4.6806134774,0.8830057887,0.0221118614\Bq,0,4.6861016201,0.8991733356,
 0.0221118614\Bq,0,4.6894325226,0.9159189131,0.0221118614\Bq,0,4.818842
 0451,0.932956,-0.0034071737\Bq,0,4.8166278123,0.9667386644,-0.00340717
 37\Bq,0,4.810023,0.9999432981,-0.0034071737\Bq,0,4.7991406184,1.032001
 7605,-0.0034071737\Bq,0,4.784166868,1.0623655226,-0.0034071737\Bq,0,4.
 765357954,1.0905150518,-0.0034071737\Bq,0,4.7430357019,1.1159687019,-0
 .0034071737\Bq,0,4.7175820518,1.138290954,-0.0034071737\Bq,0,4.6894325
 226,1.157099868,-0.0034071737\Bq,0,4.6590687605,1.1720736184,-0.003407
 1737\Bq,0,4.6270102981,1.182956,-0.0034071737\Bq,0,4.5938056644,1.1895
 608123,-0.0034071737\Bq,0,4.560023,1.1917750451,-0.0034071737\Bq,0,4.5
 262403356,1.1895608123,-0.0034071737\Bq,0,4.4930357019,1.182956,-0.003
 4071737\Bq,0,4.4609772395,1.1720736184,-0.0034071737\Bq,0,4.4306134774
 ,1.157099868,-0.0034071737\Bq,0,4.4024639482,1.138290954,-0.0034071737
 \Bq,0,4.3770102981,1.1159687019,-0.0034071737\Bq,0,4.354688046,1.09051
 50518,-0.0034071737\Bq,0,4.335879132,1.0623655226,-0.0034071737\Bq,0,4
 .3209053816,1.0320017605,-0.0034071737\Bq,0,4.310023,0.9999432981,-0.0
 034071737\Bq,0,4.3034181877,0.9667386644,-0.0034071737\Bq,0,4.30120395
 49,0.932956,-0.0034071737\Bq,0,4.3034181877,0.8991733356,-0.0034071737
 \Bq,0,4.310023,0.8659687019,-0.0034071737\Bq,0,4.3209053816,0.83391023
 95,-0.0034071737\Bq,0,4.335879132,0.8035464774,-0.0034071737\Bq,0,4.35
 4688046,0.7753969482,-0.0034071737\Bq,0,4.3770102981,0.7499432981,-0.0
 034071737\Bq,0,4.4024639482,0.727621046,-0.0034071737\Bq,0,4.430613477
 4,0.708812132,-0.0034071737\Bq,0,4.4609772395,0.6938383816,-0.00340717
 37\Bq,0,4.4930357019,0.682956,-0.0034071737\Bq,0,4.5262403356,0.676351
 1877,-0.0034071737\Bq,0,4.560023,0.6741369549,-0.0034071737\Bq,0,4.593
 8056644,0.6763511877,-0.0034071737\Bq,0,4.6270102981,0.682956,-0.00340
 71737\Bq,0,4.6590687605,0.6938383816,-0.0034071737\Bq,0,4.6894325226,0
 .708812132,-0.0034071737\Bq,0,4.7175820518,0.727621046,-0.0034071737\B
 q,0,4.7430357019,0.7499432981,-0.0034071737\Bq,0,4.765357954,0.7753969
 482,-0.0034071737\Bq,0,4.784166868,0.8035464774,-0.0034071737\Bq,0,4.7
 991406184,0.8339102395,-0.0034071737\Bq,0,4.810023,0.8659687019,-0.003
 4071737\Bq,0,4.8166278123,0.8991733356,-0.0034071737\Bq,0,4.9427064324
 ,0.932956,-0.0454534675\Bq,0,4.9394325226,0.9829062113,-0.0454534675\B
 q,0,4.9296668106,1.0320017605,-0.0454534675\Bq,0,4.9135763906,1.079402
 6094,-0.0454534675\Bq,0,4.891436574,1.1242977162,-0.0454534675\Bq,0,4.
 8636261793,1.1659189131,-0.0454534675\Bq,0,4.8306210501,1.2035540501,-
 0.0454534675\Bq,0,4.7929859131,1.2365591793,-0.0454534675\Bq,0,4.75136
 47162,1.264369574,-0.0454534675\Bq,0,4.7064696094,1.2865093906,-0.0454
 534675\Bq,0,4.6590687605,1.3025998106,-0.0454534675\Bq,0,4.6099732113,
 1.3123655226,-0.0454534675\Bq,0,4.560023,1.3156394324,-0.0454534675\Bq
 ,0,4.5100727887,1.3123655226,-0.0454534675\Bq,0,4.4609772395,1.3025998
 106,-0.0454534675\Bq,0,4.4135763906,1.2865093906,-0.0454534675\Bq,0,4.
 3686812838,1.264369574,-0.0454534675\Bq,0,4.3270600869,1.2365591793,-0
 .0454534675\Bq,0,4.2894249499,1.2035540501,-0.0454534675\Bq,0,4.256419
 8207,1.1659189131,-0.0454534675\Bq,0,4.2894249499,0.6623579499,-0.0454
 534675\Bq,0,4.3270600869,0.6293528207,-0.0454534675\Bq,0,4.3686812838,
 0.601542426,-0.0454534675\Bq,0,4.4135763906,0.5794026094,-0.0454534675
 \Bq,0,4.4609772395,0.5633121894,-0.0454534675\Bq,0,4.5100727887,0.5535
 464774,-0.0454534675\Bq,0,4.560023,0.5502725676,-0.0454534675\Bq,0,4.6
 099732113,0.5535464774,-0.0454534675\Bq,0,4.6590687605,0.5633121894,-0
 .0454534675\Bq,0,4.7064696094,0.5794026094,-0.0454534675\Bq,0,4.751364
 7162,0.601542426,-0.0454534675\Bq,0,4.7929859131,0.6293528207,-0.04545
 34675\Bq,0,4.8306210501,0.6623579499,-0.0454534675\Bq,0,4.8636261793,0
 .6999930869,-0.0454534675\Bq,0,4.891436574,0.7416142838,-0.0454534675\
 Bq,0,4.9135763906,0.7865093906,-0.0454534675\Bq,0,4.9296668106,0.83391
 02395,-0.0454534675\Bq,0,4.9394325226,0.8830057887,-0.0454534675\Bq,0,
 5.060023,0.932956,-0.1033075962\Bq,0,5.0557454307,0.9982190961,-0.1033
 075962\Bq,0,5.0429859131,1.0623655226,-0.1033075962\Bq,0,5.0219627663,
 1.1242977162,-0.1033075962\Bq,0,4.9930357019,1.182956,-0.1033075962\Bq
 ,0,4.9566996701,1.2373367145,-0.1033075962\Bq,0,4.9135763906,1.2865093
 906,-0.1033075962\Bq,0,4.8644037145,1.3296326701,-0.1033075962\Bq,0,4.
 810023,1.3659687019,-0.1033075962\Bq,0,4.7513647162,1.3948957663,-0.10
 33075962\Bq,0,4.6894325226,1.4159189131,-0.1033075962\Bq,0,4.625286096
 1,1.4286784307,-0.1033075962\Bq,0,4.560023,1.432956,-0.1033075962\Bq,0
 ,4.4947599039,1.4286784307,-0.1033075962\Bq,0,4.4306134774,1.415918913
 1,-0.1033075962\Bq,0,4.3686812838,1.3948957663,-0.1033075962\Bq,0,4.31
 0023,1.3659687019,-0.1033075962\Bq,0,4.2556422855,1.3296326701,-0.1033
 075962\Bq,0,4.6252860961,0.4372335693,-0.1033075962\Bq,0,4.6894325226,
 0.4499930869,-0.1033075962\Bq,0,4.7513647162,0.4710162337,-0.103307596
 2\Bq,0,4.810023,0.4999432981,-0.1033075962\Bq,0,4.8644037145,0.5362793
 299,-0.1033075962\Bq,0,4.9135763906,0.5794026094,-0.1033075962\Bq,0,4.
 9566996701,0.6285752855,-0.1033075962\Bq,0,4.9930357019,0.682956,-0.10
 33075962\Bq,0,5.0219627663,0.7416142838,-0.1033075962\Bq,0,5.042985913
 1,0.8035464774,-0.1033075962\Bq,0,5.0557454307,0.8676929039,-0.1033075
 962\Bq,0,5.168784429,0.932956,-0.1759796597\Bq,0,5.1635763906,1.012415
 3113,-0.1759796597\Bq,0,5.1480413863,1.0905150518,-0.1759796597\Bq,0,5
 .1224452244,1.1659189131,-0.1759796597\Bq,0,5.0872258624,1.2373367145,
 -0.1759796597\Bq,0,5.0429859131,1.3035464774,-0.1759796597\Bq,0,4.9904
 823346,1.3634153346,-0.1759796597\Bq,0,4.9306134774,1.4159189131,-0.17
 59796597\Bq,0,4.8644037145,1.4601588624,-0.1759796597\Bq,0,4.792985913
 1,1.4953782244,-0.1759796597\Bq,0,4.7175820518,1.5209743863,-0.1759796
 597\Bq,0,4.6394823113,1.5365093906,-0.1759796597\Bq,0,4.560023,1.54171
 7429,-0.1759796597\Bq,0,4.4805636887,1.5365093906,-0.1759796597\Bq,0,4
 .4024639482,1.5209743863,-0.1759796597\Bq,0,4.3270600869,1.4953782244,
 -0.1759796597\Bq,0,4.2556422855,1.4601588624,-0.1759796597\Bq,0,4.7175
 820518,0.3449376137,-0.1759796597\Bq,0,4.7929859131,0.3705337756,-0.17
 59796597\Bq,0,4.8644037145,0.4057531376,-0.1759796597\Bq,0,4.930613477
 4,0.4499930869,-0.1759796597\Bq,0,4.9904823346,0.5024966654,-0.1759796
 597\Bq,0,5.0429859131,0.5623655226,-0.1759796597\Bq,0,5.0872258624,0.6
 285752855,-0.1759796597\Bq,0,5.1224452244,0.6999930869,-0.1759796597\B
 q,0,5.1480413863,0.7753969482,-0.1759796597\Bq,0,5.1635763906,0.853496
 6887,-0.1759796597\Bq,0,5.2671297812,0.932956,-0.2622262188\Bq,0,5.261
 0803846,1.0252519556,-0.2622262188\Bq,0,5.2430357019,1.1159687019,-0.2
 622262188\Bq,0,5.2133044824,1.2035540501,-0.2622262188\Bq,0,5.17239543
 57,1.2865093906,-0.2622262188\Bq,0,5.1210085268,1.3634153346,-0.262226
 2188\Bq,0,5.060023,1.432956,-0.2622262188\Bq,0,4.9904823346,1.49394152
 68,-0.2622262188\Bq,0,4.9135763906,1.5453284357,-0.2622262188\Bq,0,4.8
 306210501,1.5862374824,-0.2622262188\Bq,0,4.7430357019,1.6159687019,-0
 .2622262188\Bq,0,4.6523189556,1.6340133846,-0.2622262188\Bq,0,4.560023
 ,1.6400627812,-0.2622262188\Bq,0,4.4677270444,1.6340133846,-0.26222621
 88\Bq,0,4.3770102981,1.6159687019,-0.2622262188\Bq,0,4.8306210501,0.27
 96745176,-0.2622262188\Bq,0,4.9135763906,0.3205835643,-0.2622262188\Bq
 ,0,4.9904823346,0.3719704732,-0.2622262188\Bq,0,5.060023,0.432956,-0.2
 622262188\Bq,0,5.1210085268,0.5024966654,-0.2622262188\Bq,0,5.17239543
 57,0.5794026094,-0.2622262188\Bq,0,5.2133044824,0.6623579499,-0.262226
 2188\Bq,0,5.2430357019,0.7499432981,-0.2622262188\Bq,0,5.2610803846,0.
 8406600444,-0.2622262188\Bq,0,5.3533763403,0.932956,-0.360571571\Bq,0,
 5.3465890925,1.0365093906,-0.360571571\Bq,0,5.3263434808,1.138290954,-
 0.360571571\Bq,0,5.2929859131,1.2365591793,-0.360571571\Bq,0,5.2470871
 469,1.3296326701,-0.360571571\Bq,0,5.1894325226,1.4159189131,-0.360571
 571\Bq,0,5.1210085268,1.4939415268,-0.360571571\Bq,0,5.0429859131,1.56
 23655226,-0.360571571\Bq,0,4.9566996701,1.6200201469,-0.360571571\Bq,0
 ,4.8636261793,1.6659189131,-0.360571571\Bq,0,4.765357954,1.6992764808,
 -0.360571571\Bq,0,4.6635763906,1.7195220925,-0.360571571\Bq,0,4.560023
 ,1.7263093403,-0.360571571\Bq,0,4.4564696094,1.7195220925,-0.360571571
 \Bq,0,4.8636261793,0.1999930869,-0.360571571\Bq,0,4.9566996701,0.24589
 18531,-0.360571571\Bq,0,5.0429859131,0.3035464774,-0.360571571\Bq,0,5.
 1210085268,0.3719704732,-0.360571571\Bq,0,5.1894325226,0.4499930869,-0
 .360571571\Bq,0,5.2470871469,0.5362793299,-0.360571571\Bq,0,5.29298591
 31,0.6293528207,-0.360571571\Bq,0,5.3263434808,0.727621046,-0.36057157
 1\Bq,0,5.3465890925,0.8294026094,-0.360571571\Bq,0,5.4260484038,0.9329
 56,-0.469333\\Version=ES64L-G09RevD.01\HF=-847.0037387\RMSD=4.161e-09\
 Dipole=0.0000004,0.0287843,0.0000009\Quadrupole=4.8545288,4.8066247,-9
 .6611535,-0.0000047,-3.6219991,-0.000002\PG=C01 [X(C22H14)]\\@


 "WHERE SHALL I START, PLEASE YOUR MAJESTY?" HE ASKED.
 "BEGIN AT THE BEGINNING," THE KING SAID GRAVELY,
 "AND GO ON TILL YOU COME TO THE END: THEN STOP." 

                                      -- LEWIS CARROLL
 Job cpu time:       0 days  1 hours 12 minutes  7.9 seconds.
 File lengths (MBytes):  RWF=    184 Int=      0 D2E=      0 Chk=     21 Scr=      1
 Normal termination of Gaussian 09 at Tue Sep 15 11:20:43 2020.
