 Entering Gaussian System, Link 0=g09
 Input=input_batch_19600.com
 Output=input_batch_19600.log
 Initial command:
 /share/programs/GAUSSIAN/64/g09/l1.exe "/scratch/aartigas.39122/Gau-39240.inp" -scrdir="/scratch/aartigas.39122/"
 Entering Link 1 = /share/programs/GAUSSIAN/64/g09/l1.exe PID=     39241.
  
 Copyright (c) 1988,1990,1992,1993,1995,1998,2003,2009,2013,
            Gaussian, Inc.  All Rights Reserved.
  
 This is part of the Gaussian(R) 09 program.  It is based on
 the Gaussian(R) 03 system (copyright 2003, Gaussian, Inc.),
 the Gaussian(R) 98 system (copyright 1998, Gaussian, Inc.),
 the Gaussian(R) 94 system (copyright 1995, Gaussian, Inc.),
 the Gaussian 92(TM) system (copyright 1992, Gaussian, Inc.),
 the Gaussian 90(TM) system (copyright 1990, Gaussian, Inc.),
 the Gaussian 88(TM) system (copyright 1988, Gaussian, Inc.),
 the Gaussian 86(TM) system (copyright 1986, Carnegie Mellon
 University), and the Gaussian 82(TM) system (copyright 1983,
 Carnegie Mellon University). Gaussian is a federally registered
 trademark of Gaussian, Inc.
  
 This software contains proprietary and confidential information,
 including trade secrets, belonging to Gaussian, Inc.
  
 This software is provided under written license and may be
 used, copied, transmitted, or stored only in accord with that
 written license.
  
 The following legend is applicable only to US Government
 contracts under FAR:
  
                    RESTRICTED RIGHTS LEGEND
  
 Use, reproduction and disclosure by the US Government is
 subject to restrictions as set forth in subparagraphs (a)
 and (c) of the Commercial Computer Software - Restricted
 Rights clause in FAR 52.227-19.
  
 Gaussian, Inc.
 340 Quinnipiac St., Bldg. 40, Wallingford CT 06492
  
  
 ---------------------------------------------------------------
 Warning -- This program may not be used in any manner that
 competes with the business of Gaussian, Inc. or will provide
 assistance to any competitor of Gaussian, Inc.  The licensee
 of this program is prohibited from giving any competitor of
 Gaussian, Inc. access to this program.  By using this program,
 the user acknowledges that Gaussian, Inc. is engaged in the
 business of creating and licensing software in the field of
 computational chemistry and represents and warrants to the
 licensee that it is not a competitor of Gaussian, Inc. and that
 it will not use this program in any manner prohibited above.
 ---------------------------------------------------------------
  

 Cite this work as:
 Gaussian 09, Revision D.01,
 M. J. Frisch, G. W. Trucks, H. B. Schlegel, G. E. Scuseria, 
 M. A. Robb, J. R. Cheeseman, G. Scalmani, V. Barone, B. Mennucci, 
 G. A. Petersson, H. Nakatsuji, M. Caricato, X. Li, H. P. Hratchian, 
 A. F. Izmaylov, J. Bloino, G. Zheng, J. L. Sonnenberg, M. Hada, 
 M. Ehara, K. Toyota, R. Fukuda, J. Hasegawa, M. Ishida, T. Nakajima, 
 Y. Honda, O. Kitao, H. Nakai, T. Vreven, J. A. Montgomery, Jr., 
 J. E. Peralta, F. Ogliaro, M. Bearpark, J. J. Heyd, E. Brothers, 
 K. N. Kudin, V. N. Staroverov, T. Keith, R. Kobayashi, J. Normand, 
 K. Raghavachari, A. Rendell, J. C. Burant, S. S. Iyengar, J. Tomasi, 
 M. Cossi, N. Rega, J. M. Millam, M. Klene, J. E. Knox, J. B. Cross, 
 V. Bakken, C. Adamo, J. Jaramillo, R. Gomperts, R. E. Stratmann, 
 O. Yazyev, A. J. Austin, R. Cammi, C. Pomelli, J. W. Ochterski, 
 R. L. Martin, K. Morokuma, V. G. Zakrzewski, G. A. Voth, 
 P. Salvador, J. J. Dannenberg, S. Dapprich, A. D. Daniels, 
 O. Farkas, J. B. Foresman, J. V. Ortiz, J. Cioslowski, 
 and D. J. Fox, Gaussian, Inc., Wallingford CT, 2013.
 
 ******************************************
 Gaussian 09:  ES64L-G09RevD.01 24-Apr-2013
                15-Sep-2020 
 ******************************************
 %OldChk=/home/aartigas/chk/5_helicene_spe.chk
 %nproc=8
 Will use up to    8 processors via shared memory.
 %mem=1000MB
 Copying data from "/home/aartigas/chk/5_helicene_spe.chk" to current chk file "/scratch/aartigas.39122/Gau-39241.chk".
 ----------------------------------------------------
 #P rb3lyp/6-311+g** NMR Guess=Read geom=connectivity
 ----------------------------------------------------
 1/38=1,57=2/1;
 2/12=2,17=6,18=5,40=1/2;
 3/5=4,6=6,7=111,11=2,16=1,25=1,30=1,74=-5,116=1/1,2,8,3;
 4/5=1/1;
 5/5=2,38=6/2;
 8/6=1,10=90,11=11/1;
 10/13=100,45=16/2;
 6/7=2,8=2,9=2,10=2,28=1/1;
 99/9=1/99;
 Leave Link    1 at Tue Sep 15 12:56:47 2020, MaxMem=   131072000 cpu:         0.3
 (Enter /share/programs/GAUSSIAN/64/g09/l101.exe)
 -----
 Title
 -----
 Symbolic Z-matrix:
 Charge =  0 Multiplicity = 1
 C                     0.65324   3.25786  -0.20251 
 C                    -0.65324   3.25786   0.20251 
 C                     1.3725    2.03296  -0.32081 
 C                    -1.3725    2.03296   0.32081 
 C                     0.72247   0.79567  -0.05039 
 C                    -0.72247   0.79567   0.05039 
 C                     2.76039   2.05393  -0.67427 
 C                     3.50887   0.91392  -0.67136 
 C                     2.95523  -0.30962  -0.17748 
 C                     1.57472  -0.36111   0.19709 
 H                     1.18343   4.19574  -0.3846 
 H                    -1.18343   4.19574   0.3846 
 H                     3.20628   3.01242  -0.95139 
 H                     4.56002   0.93296  -0.96933 
 C                     3.78302  -1.4431    0.02831 
 C                     1.13743  -1.50753   0.91211 
 C                     1.97369  -2.58435   1.13806 
 C                     3.30185  -2.57159   0.66118 
 H                     4.82575  -1.39123  -0.29548 
 H                     0.12465  -1.53279   1.30847 
 H                     1.60359  -3.44568   1.69898 
 H                     3.95274  -3.43353   0.82513 
 C                    -3.50887   0.91392   0.67136 
 C                    -2.76039   2.05393   0.67427 
 C                    -2.95523  -0.30962   0.17748 
 C                    -1.57472  -0.36111  -0.19709 
 C                    -3.78302  -1.4431   -0.02831 
 C                    -3.30185  -2.57159  -0.66118 
 C                    -1.97369  -2.58435  -1.13806 
 C                    -1.13743  -1.50753  -0.91211 
 H                    -4.56002   0.93295   0.96933 
 H                    -3.20628   3.01242   0.95139 
 H                    -4.82575  -1.39123   0.29548 
 H                    -3.95274  -3.43353  -0.82513 
 H                    -1.60359  -3.44568  -1.69898 
 H                    -0.12465  -1.53279  -1.30847 
 Bq                   -3.71362  -3.33448   0.14079 
 Bq                   -3.7286   -3.30412   0.14079 
 Bq                   -3.74741  -3.27597   0.14079 
 Bq                   -3.76973  -3.25052   0.14079 
 Bq                   -3.79518  -3.22819   0.14079 
 Bq                   -3.82333  -3.20938   0.14079 
 Bq                   -3.8537   -3.19441   0.14079 
 Bq                   -3.88575  -3.18353   0.14079 
 Bq                   -3.91896  -3.17692   0.14079 
 Bq                   -3.95274  -3.17471   0.14079 
 Bq                   -3.98652  -3.17692   0.14079 
 Bq                   -4.01973  -3.18353   0.14079 
 Bq                   -4.05179  -3.19441   0.14079 
 Bq                   -4.08215  -3.20938   0.14079 
 Bq                   -4.1103   -3.22819   0.14079 
 Bq                   -4.13575  -3.25052   0.14079 
 Bq                   -4.15808  -3.27597   0.14079 
 Bq                   -4.17688  -3.30412   0.14079 
 Bq                   -4.19186  -3.33448   0.14079 
 Bq                   -4.20274  -3.36654   0.14079 
 Bq                   -4.20935  -3.39975   0.14079 
 Bq                   -4.21156  -3.43353   0.14079 
 Bq                   -4.20935  -3.46731   0.14079 
 Bq                   -4.20274  -3.50052   0.14079 
 Bq                   -4.19186  -3.53257   0.14079 
 Bq                   -4.17688  -3.56294   0.14079 
 Bq                   -4.15808  -3.59109   0.14079 
 Bq                   -4.13575  -3.61654   0.14079 
 Bq                   -4.1103   -3.63886   0.14079 
 Bq                   -4.08215  -3.65767   0.14079 
 Bq                   -4.05179  -3.67265   0.14079 
 Bq                   -4.01973  -3.68353   0.14079 
 Bq                   -3.98652  -3.69013   0.14079 
 Bq                   -3.95274  -3.69235   0.14079 
 Bq                   -3.91896  -3.69013   0.14079 
 Bq                   -3.88575  -3.68353   0.14079 
 Bq                   -3.8537   -3.67265   0.14079 
 Bq                   -3.82333  -3.65767   0.14079 
 Bq                   -3.79518  -3.63886   0.14079 
 Bq                   -3.76973  -3.61654   0.14079 
 Bq                   -3.74741  -3.59109   0.14079 
 Bq                   -3.7286   -3.56294   0.14079 
 Bq                   -3.71362  -3.53257   0.14079 
 Bq                   -3.70274  -3.50052   0.14079 
 Bq                   -3.69614  -3.46731   0.14079 
 Bq                   -3.57006  -3.43353   0.09875 
 Bq                   -3.57333  -3.38358   0.09875 
 Bq                   -3.5831   -3.33448   0.09875 
 Bq                   -3.59919  -3.28708   0.09875 
 Bq                   -3.62133  -3.24219   0.09875 
 Bq                   -3.64914  -3.20057   0.09875 
 Bq                   -3.68214  -3.16293   0.09875 
 Bq                   -3.71978  -3.12992   0.09875 
 Bq                   -3.7614   -3.10211   0.09875 
 Bq                   -4.1857   -3.12992   0.09875 
 Bq                   -4.22334  -3.16293   0.09875 
 Bq                   -4.25634  -3.20057   0.09875 
 Bq                   -4.28415  -3.24219   0.09875 
 Bq                   -4.30629  -3.28708   0.09875 
 Bq                   -4.32238  -3.33448   0.09875 
 Bq                   -4.33215  -3.38358   0.09875 
 Bq                   -4.33542  -3.43353   0.09875 
 Bq                   -4.33215  -3.48348   0.09875 
 Bq                   -4.32238  -3.53257   0.09875 
 Bq                   -4.30629  -3.57997   0.09875 
 Bq                   -4.28415  -3.62487   0.09875 
 Bq                   -4.25634  -3.66649   0.09875 
 Bq                   -4.22334  -3.70413   0.09875 
 Bq                   -4.1857   -3.73713   0.09875 
 Bq                   -4.14408  -3.76494   0.09875 
 Bq                   -4.09919  -3.78708   0.09875 
 Bq                   -4.05179  -3.80317   0.09875 
 Bq                   -4.00269  -3.81294   0.09875 
 Bq                   -3.95274  -3.81621   0.09875 
 Bq                   -3.90279  -3.81294   0.09875 
 Bq                   -3.8537   -3.80317   0.09875 
 Bq                   -3.80629  -3.78708   0.09875 
 Bq                   -3.7614   -3.76494   0.09875 
 Bq                   -3.71978  -3.73713   0.09875 
 Bq                   -3.68214  -3.70413   0.09875 
 Bq                   -3.64914  -3.66649   0.09875 
 Bq                   -3.62133  -3.62487   0.09875 
 Bq                   -3.59919  -3.57997   0.09875 
 Bq                   -3.5831   -3.53257   0.09875 
 Bq                   -3.57333  -3.48348   0.09875 
 Bq                   -3.45274  -3.43353   0.04089 
 Bq                   -3.45702  -3.36826   0.04089 
 Bq                   -3.46978  -3.30412   0.04089 
 Bq                   -4.34942  -3.12915   0.04089 
 Bq                   -4.38575  -3.18353   0.04089 
 Bq                   -4.41468  -3.24219   0.04089 
 Bq                   -4.4357   -3.30412   0.04089 
 Bq                   -4.44846  -3.36826   0.04089 
 Bq                   -4.45274  -3.43353   0.04089 
 Bq                   -4.44846  -3.49879   0.04089 
 Bq                   -4.4357   -3.56294   0.04089 
 Bq                   -4.41468  -3.62487   0.04089 
 Bq                   -4.38575  -3.68353   0.04089 
 Bq                   -4.34942  -3.73791   0.04089 
 Bq                   -4.30629  -3.78708   0.04089 
 Bq                   -4.25712  -3.8302    0.04089 
 Bq                   -4.20274  -3.86654   0.04089 
 Bq                   -4.14408  -3.89547   0.04089 
 Bq                   -4.08215  -3.91649   0.04089 
 Bq                   -4.018    -3.92925   0.04089 
 Bq                   -3.95274  -3.93353   0.04089 
 Bq                   -3.88748  -3.92925   0.04089 
 Bq                   -3.82333  -3.91649   0.04089 
 Bq                   -3.7614   -3.89547   0.04089 
 Bq                   -3.70274  -3.86654   0.04089 
 Bq                   -3.64836  -3.8302    0.04089 
 Bq                   -3.59919  -3.78708   0.04089 
 Bq                   -3.55606  -3.73791   0.04089 
 Bq                   -3.51973  -3.68353   0.04089 
 Bq                   -3.4908   -3.62487   0.04089 
 Bq                   -3.46978  -3.56294   0.04089 
 Bq                   -3.45702  -3.49879   0.04089 
 Bq                   -3.34398  -3.43353  -0.03178 
 Bq                   -3.34919  -3.35407  -0.03178 
 Bq                   -4.4357   -3.06294  -0.03178 
 Bq                   -4.47994  -3.12915  -0.03178 
 Bq                   -4.51516  -3.20057  -0.03178 
 Bq                   -4.54076  -3.27597  -0.03178 
 Bq                   -4.55629  -3.35407  -0.03178 
 Bq                   -4.5615   -3.43353  -0.03178 
 Bq                   -4.55629  -3.51299  -0.03178 
 Bq                   -4.54076  -3.59109  -0.03178 
 Bq                   -4.51516  -3.66649  -0.03178 
 Bq                   -4.47994  -3.73791  -0.03178 
 Bq                   -4.4357   -3.80412  -0.03178 
 Bq                   -4.3832   -3.86399  -0.03178 
 Bq                   -4.32333  -3.91649  -0.03178 
 Bq                   -4.25712  -3.96073  -0.03178 
 Bq                   -4.1857   -3.99595  -0.03178 
 Bq                   -4.1103   -4.02155  -0.03178 
 Bq                   -4.0322   -4.03708  -0.03178 
 Bq                   -3.95274  -4.04229  -0.03178 
 Bq                   -3.87328  -4.03708  -0.03178 
 Bq                   -3.79518  -4.02155  -0.03178 
 Bq                   -3.71978  -3.99595  -0.03178 
 Bq                   -3.64836  -3.96073  -0.03178 
 Bq                   -3.58215  -3.91649  -0.03178 
 Bq                   -3.52228  -3.86399  -0.03178 
 Bq                   -3.46978  -3.80412  -0.03178 
 Bq                   -3.42554  -3.73791  -0.03178 
 Bq                   -3.39032  -3.66649  -0.03178 
 Bq                   -3.36472  -3.59109  -0.03178 
 Bq                   -3.34919  -3.51299  -0.03178 
 Bq                   -3.24563  -3.43353  -0.11803 
 Bq                   -4.56511  -3.07997  -0.11803 
 Bq                   -4.60602  -3.16293  -0.11803 
 Bq                   -4.63575  -3.25052  -0.11803 
 Bq                   -4.6538   -3.34123  -0.11803 
 Bq                   -4.65985  -3.43353  -0.11803 
 Bq                   -4.6538   -3.52582  -0.11803 
 Bq                   -4.63575  -3.61654  -0.11803 
 Bq                   -4.60602  -3.70413  -0.11803 
 Bq                   -4.56511  -3.78708  -0.11803 
 Bq                   -4.51373  -3.86399  -0.11803 
 Bq                   -4.45274  -3.93353  -0.11803 
 Bq                   -4.3832   -3.99451  -0.11803 
 Bq                   -4.30629  -4.0459   -0.11803 
 Bq                   -4.22334  -4.08681  -0.11803 
 Bq                   -4.13575  -4.11654  -0.11803 
 Bq                   -4.04504  -4.13459  -0.11803 
 Bq                   -3.95274  -4.14063  -0.11803 
 Bq                   -3.86045  -4.13459  -0.11803 
 Bq                   -3.76973  -4.11654  -0.11803 
 Bq                   -3.68214  -4.08681  -0.11803 
 Bq                   -3.59919  -4.0459   -0.11803 
 Bq                   -3.52228  -3.99451  -0.11803 
 Bq                   -3.45274  -3.93353  -0.11803 
 Bq                   -3.39176  -3.86399  -0.11803 
 Bq                   -3.34037  -3.78708  -0.11803 
 Bq                   -3.29946  -3.70413  -0.11803 
 Bq                   -3.26973  -3.61654  -0.11803 
 Bq                   -3.25168  -3.52582  -0.11803 
 Bq                   -4.63981  -3.03685  -0.21637 
 Bq                   -4.6857   -3.12992  -0.21637 
 Bq                   -4.71906  -3.22819  -0.21637 
 Bq                   -4.73931  -3.32997  -0.21637 
 Bq                   -4.74609  -3.43353  -0.21637 
 Bq                   -4.73931  -3.53708  -0.21637 
 Bq                   -4.71906  -3.63886  -0.21637 
 Bq                   -4.6857   -3.73713  -0.21637 
 Bq                   -4.63981  -3.8302   -0.21637 
 Bq                   -4.58215  -3.91649  -0.21637 
 Bq                   -4.51373  -3.99451  -0.21637 
 Bq                   -4.4357   -4.06294  -0.21637 
 Bq                   -4.34942  -4.12059  -0.21637 
 Bq                   -4.25634  -4.16649  -0.21637 
 Bq                   -4.15808  -4.19985  -0.21637 
 Bq                   -4.05629  -4.22009  -0.21637 
 Bq                   -3.95274  -4.22688  -0.21637 
 Bq                   -3.84919  -4.22009  -0.21637 
 Bq                   -3.74741  -4.19985  -0.21637 
 Bq                   -3.64914  -4.16649  -0.21637 
 Bq                   -3.55606  -4.12059  -0.21637 
 Bq                   -3.46978  -4.06294  -0.21637 
 Bq                   -3.39176  -3.99451  -0.21637 
 
 NAtoms=    236 NQM=      236 NQMF=       0 NMMI=      0 NMMIF=      0
                NMic=       0 NMicF=      0.
                    Isotopes and Nuclear Properties:
 (Nuclear quadrupole moments (NQMom) in fm**2, nuclear magnetic moments (NMagM)
  in nuclear magnetons)

  Atom         1           2           3           4           5           6           7           8           9          10
 IAtWgt=          12          12          12          12          12          12          12          12          12          12
 AtmWgt=  12.0000000  12.0000000  12.0000000  12.0000000  12.0000000  12.0000000  12.0000000  12.0000000  12.0000000  12.0000000
 NucSpn=           0           0           0           0           0           0           0           0           0           0
 AtZEff=   0.0000000   0.0000000   0.0000000   0.0000000   0.0000000   0.0000000   0.0000000   0.0000000   0.0000000   0.0000000
 NQMom=    0.0000000   0.0000000   0.0000000   0.0000000   0.0000000   0.0000000   0.0000000   0.0000000   0.0000000   0.0000000
 NMagM=    0.0000000   0.0000000   0.0000000   0.0000000   0.0000000   0.0000000   0.0000000   0.0000000   0.0000000   0.0000000
 AtZNuc=   6.0000000   6.0000000   6.0000000   6.0000000   6.0000000   6.0000000   6.0000000   6.0000000   6.0000000   6.0000000

  Atom        11          12          13          14          15          16          17          18          19          20
 IAtWgt=           1           1           1           1          12          12          12          12           1           1
 AtmWgt=   1.0078250   1.0078250   1.0078250   1.0078250  12.0000000  12.0000000  12.0000000  12.0000000   1.0078250   1.0078250
 NucSpn=           1           1           1           1           0           0           0           0           1           1
 AtZEff=   0.0000000   0.0000000   0.0000000   0.0000000   0.0000000   0.0000000   0.0000000   0.0000000   0.0000000   0.0000000
 NQMom=    0.0000000   0.0000000   0.0000000   0.0000000   0.0000000   0.0000000   0.0000000   0.0000000   0.0000000   0.0000000
 NMagM=    2.7928460   2.7928460   2.7928460   2.7928460   0.0000000   0.0000000   0.0000000   0.0000000   2.7928460   2.7928460
 AtZNuc=   1.0000000   1.0000000   1.0000000   1.0000000   6.0000000   6.0000000   6.0000000   6.0000000   1.0000000   1.0000000

  Atom        21          22          23          24          25          26          27          28          29          30
 IAtWgt=           1           1          12          12          12          12          12          12          12          12
 AtmWgt=   1.0078250   1.0078250  12.0000000  12.0000000  12.0000000  12.0000000  12.0000000  12.0000000  12.0000000  12.0000000
 NucSpn=           1           1           0           0           0           0           0           0           0           0
 AtZEff=   0.0000000   0.0000000   0.0000000   0.0000000   0.0000000   0.0000000   0.0000000   0.0000000   0.0000000   0.0000000
 NQMom=    0.0000000   0.0000000   0.0000000   0.0000000   0.0000000   0.0000000   0.0000000   0.0000000   0.0000000   0.0000000
 NMagM=    2.7928460   2.7928460   0.0000000   0.0000000   0.0000000   0.0000000   0.0000000   0.0000000   0.0000000   0.0000000
 AtZNuc=   1.0000000   1.0000000   6.0000000   6.0000000   6.0000000   6.0000000   6.0000000   6.0000000   6.0000000   6.0000000

  Atom        31          32          33          34          35          36          37          38          39          40
 IAtWgt=           1           1           1           1           1           1           0           0           0           0
 AtmWgt=   1.0078250   1.0078250   1.0078250   1.0078250   1.0078250   1.0078250   0.0000000   0.0000000   0.0000000   0.0000000
 NucSpn=           1           1           1           1           1           1           0           0           0           0
 AtZEff=   0.0000000   0.0000000   0.0000000   0.0000000   0.0000000   0.0000000   0.0000000   0.0000000   0.0000000   0.0000000
 NQMom=    0.0000000   0.0000000   0.0000000   0.0000000   0.0000000   0.0000000   0.0000000   0.0000000   0.0000000   0.0000000
 NMagM=    2.7928460   2.7928460   2.7928460   2.7928460   2.7928460   2.7928460   0.0000000   0.0000000   0.0000000   0.0000000
 AtZNuc=   1.0000000   1.0000000   1.0000000   1.0000000   1.0000000   1.0000000   0.0000000   0.0000000   0.0000000   0.0000000

  Atom        41          42          43          44          45          46          47          48          49          50
 IAtWgt=           0           0           0           0           0           0           0           0           0           0
 AtmWgt=   0.0000000   0.0000000   0.0000000   0.0000000   0.0000000   0.0000000   0.0000000   0.0000000   0.0000000   0.0000000
 NucSpn=           0           0           0           0           0           0           0           0           0           0
 AtZEff=   0.0000000   0.0000000   0.0000000   0.0000000   0.0000000   0.0000000   0.0000000   0.0000000   0.0000000   0.0000000
 NQMom=    0.0000000   0.0000000   0.0000000   0.0000000   0.0000000   0.0000000   0.0000000   0.0000000   0.0000000   0.0000000
 NMagM=    0.0000000   0.0000000   0.0000000   0.0000000   0.0000000   0.0000000   0.0000000   0.0000000   0.0000000   0.0000000
 AtZNuc=   0.0000000   0.0000000   0.0000000   0.0000000   0.0000000   0.0000000   0.0000000   0.0000000   0.0000000   0.0000000

  Atom        51          52          53          54          55          56          57          58          59          60
 IAtWgt=           0           0           0           0           0           0           0           0           0           0
 AtmWgt=   0.0000000   0.0000000   0.0000000   0.0000000   0.0000000   0.0000000   0.0000000   0.0000000   0.0000000   0.0000000
 NucSpn=           0           0           0           0           0           0           0           0           0           0
 AtZEff=   0.0000000   0.0000000   0.0000000   0.0000000   0.0000000   0.0000000   0.0000000   0.0000000   0.0000000   0.0000000
 NQMom=    0.0000000   0.0000000   0.0000000   0.0000000   0.0000000   0.0000000   0.0000000   0.0000000   0.0000000   0.0000000
 NMagM=    0.0000000   0.0000000   0.0000000   0.0000000   0.0000000   0.0000000   0.0000000   0.0000000   0.0000000   0.0000000
 AtZNuc=   0.0000000   0.0000000   0.0000000   0.0000000   0.0000000   0.0000000   0.0000000   0.0000000   0.0000000   0.0000000

  Atom        61          62          63          64          65          66          67          68          69          70
 IAtWgt=           0           0           0           0           0           0           0           0           0           0
 AtmWgt=   0.0000000   0.0000000   0.0000000   0.0000000   0.0000000   0.0000000   0.0000000   0.0000000   0.0000000   0.0000000
 NucSpn=           0           0           0           0           0           0           0           0           0           0
 AtZEff=   0.0000000   0.0000000   0.0000000   0.0000000   0.0000000   0.0000000   0.0000000   0.0000000   0.0000000   0.0000000
 NQMom=    0.0000000   0.0000000   0.0000000   0.0000000   0.0000000   0.0000000   0.0000000   0.0000000   0.0000000   0.0000000
 NMagM=    0.0000000   0.0000000   0.0000000   0.0000000   0.0000000   0.0000000   0.0000000   0.0000000   0.0000000   0.0000000
 AtZNuc=   0.0000000   0.0000000   0.0000000   0.0000000   0.0000000   0.0000000   0.0000000   0.0000000   0.0000000   0.0000000

  Atom        71          72          73          74          75          76          77          78          79          80
 IAtWgt=           0           0           0           0           0           0           0           0           0           0
 AtmWgt=   0.0000000   0.0000000   0.0000000   0.0000000   0.0000000   0.0000000   0.0000000   0.0000000   0.0000000   0.0000000
 NucSpn=           0           0           0           0           0           0           0           0           0           0
 AtZEff=   0.0000000   0.0000000   0.0000000   0.0000000   0.0000000   0.0000000   0.0000000   0.0000000   0.0000000   0.0000000
 NQMom=    0.0000000   0.0000000   0.0000000   0.0000000   0.0000000   0.0000000   0.0000000   0.0000000   0.0000000   0.0000000
 NMagM=    0.0000000   0.0000000   0.0000000   0.0000000   0.0000000   0.0000000   0.0000000   0.0000000   0.0000000   0.0000000
 AtZNuc=   0.0000000   0.0000000   0.0000000   0.0000000   0.0000000   0.0000000   0.0000000   0.0000000   0.0000000   0.0000000

  Atom        81          82          83          84          85          86          87          88          89          90
 IAtWgt=           0           0           0           0           0           0           0           0           0           0
 AtmWgt=   0.0000000   0.0000000   0.0000000   0.0000000   0.0000000   0.0000000   0.0000000   0.0000000   0.0000000   0.0000000
 NucSpn=           0           0           0           0           0           0           0           0           0           0
 AtZEff=   0.0000000   0.0000000   0.0000000   0.0000000   0.0000000   0.0000000   0.0000000   0.0000000   0.0000000   0.0000000
 NQMom=    0.0000000   0.0000000   0.0000000   0.0000000   0.0000000   0.0000000   0.0000000   0.0000000   0.0000000   0.0000000
 NMagM=    0.0000000   0.0000000   0.0000000   0.0000000   0.0000000   0.0000000   0.0000000   0.0000000   0.0000000   0.0000000
 AtZNuc=   0.0000000   0.0000000   0.0000000   0.0000000   0.0000000   0.0000000   0.0000000   0.0000000   0.0000000   0.0000000

  Atom        91          92          93          94          95          96          97          98          99         100
 IAtWgt=           0           0           0           0           0           0           0           0           0           0
 AtmWgt=   0.0000000   0.0000000   0.0000000   0.0000000   0.0000000   0.0000000   0.0000000   0.0000000   0.0000000   0.0000000
 NucSpn=           0           0           0           0           0           0           0           0           0           0
 AtZEff=   0.0000000   0.0000000   0.0000000   0.0000000   0.0000000   0.0000000   0.0000000   0.0000000   0.0000000   0.0000000
 NQMom=    0.0000000   0.0000000   0.0000000   0.0000000   0.0000000   0.0000000   0.0000000   0.0000000   0.0000000   0.0000000
 NMagM=    0.0000000   0.0000000   0.0000000   0.0000000   0.0000000   0.0000000   0.0000000   0.0000000   0.0000000   0.0000000
 AtZNuc=   0.0000000   0.0000000   0.0000000   0.0000000   0.0000000   0.0000000   0.0000000   0.0000000   0.0000000   0.0000000

  Atom       101         102         103         104         105         106         107         108         109         110
 IAtWgt=           0           0           0           0           0           0           0           0           0           0
 AtmWgt=   0.0000000   0.0000000   0.0000000   0.0000000   0.0000000   0.0000000   0.0000000   0.0000000   0.0000000   0.0000000
 NucSpn=           0           0           0           0           0           0           0           0           0           0
 AtZEff=   0.0000000   0.0000000   0.0000000   0.0000000   0.0000000   0.0000000   0.0000000   0.0000000   0.0000000   0.0000000
 NQMom=    0.0000000   0.0000000   0.0000000   0.0000000   0.0000000   0.0000000   0.0000000   0.0000000   0.0000000   0.0000000
 NMagM=    0.0000000   0.0000000   0.0000000   0.0000000   0.0000000   0.0000000   0.0000000   0.0000000   0.0000000   0.0000000
 AtZNuc=   0.0000000   0.0000000   0.0000000   0.0000000   0.0000000   0.0000000   0.0000000   0.0000000   0.0000000   0.0000000

  Atom       111         112         113         114         115         116         117         118         119         120
 IAtWgt=           0           0           0           0           0           0           0           0           0           0
 AtmWgt=   0.0000000   0.0000000   0.0000000   0.0000000   0.0000000   0.0000000   0.0000000   0.0000000   0.0000000   0.0000000
 NucSpn=           0           0           0           0           0           0           0           0           0           0
 AtZEff=   0.0000000   0.0000000   0.0000000   0.0000000   0.0000000   0.0000000   0.0000000   0.0000000   0.0000000   0.0000000
 NQMom=    0.0000000   0.0000000   0.0000000   0.0000000   0.0000000   0.0000000   0.0000000   0.0000000   0.0000000   0.0000000
 NMagM=    0.0000000   0.0000000   0.0000000   0.0000000   0.0000000   0.0000000   0.0000000   0.0000000   0.0000000   0.0000000
 AtZNuc=   0.0000000   0.0000000   0.0000000   0.0000000   0.0000000   0.0000000   0.0000000   0.0000000   0.0000000   0.0000000

  Atom       121         122         123         124         125         126         127         128         129         130
 IAtWgt=           0           0           0           0           0           0           0           0           0           0
 AtmWgt=   0.0000000   0.0000000   0.0000000   0.0000000   0.0000000   0.0000000   0.0000000   0.0000000   0.0000000   0.0000000
 NucSpn=           0           0           0           0           0           0           0           0           0           0
 AtZEff=   0.0000000   0.0000000   0.0000000   0.0000000   0.0000000   0.0000000   0.0000000   0.0000000   0.0000000   0.0000000
 NQMom=    0.0000000   0.0000000   0.0000000   0.0000000   0.0000000   0.0000000   0.0000000   0.0000000   0.0000000   0.0000000
 NMagM=    0.0000000   0.0000000   0.0000000   0.0000000   0.0000000   0.0000000   0.0000000   0.0000000   0.0000000   0.0000000
 AtZNuc=   0.0000000   0.0000000   0.0000000   0.0000000   0.0000000   0.0000000   0.0000000   0.0000000   0.0000000   0.0000000

  Atom       131         132         133         134         135         136         137         138         139         140
 IAtWgt=           0           0           0           0           0           0           0           0           0           0
 AtmWgt=   0.0000000   0.0000000   0.0000000   0.0000000   0.0000000   0.0000000   0.0000000   0.0000000   0.0000000   0.0000000
 NucSpn=           0           0           0           0           0           0           0           0           0           0
 AtZEff=   0.0000000   0.0000000   0.0000000   0.0000000   0.0000000   0.0000000   0.0000000   0.0000000   0.0000000   0.0000000
 NQMom=    0.0000000   0.0000000   0.0000000   0.0000000   0.0000000   0.0000000   0.0000000   0.0000000   0.0000000   0.0000000
 NMagM=    0.0000000   0.0000000   0.0000000   0.0000000   0.0000000   0.0000000   0.0000000   0.0000000   0.0000000   0.0000000
 AtZNuc=   0.0000000   0.0000000   0.0000000   0.0000000   0.0000000   0.0000000   0.0000000   0.0000000   0.0000000   0.0000000

  Atom       141         142         143         144         145         146         147         148         149         150
 IAtWgt=           0           0           0           0           0           0           0           0           0           0
 AtmWgt=   0.0000000   0.0000000   0.0000000   0.0000000   0.0000000   0.0000000   0.0000000   0.0000000   0.0000000   0.0000000
 NucSpn=           0           0           0           0           0           0           0           0           0           0
 AtZEff=   0.0000000   0.0000000   0.0000000   0.0000000   0.0000000   0.0000000   0.0000000   0.0000000   0.0000000   0.0000000
 NQMom=    0.0000000   0.0000000   0.0000000   0.0000000   0.0000000   0.0000000   0.0000000   0.0000000   0.0000000   0.0000000
 NMagM=    0.0000000   0.0000000   0.0000000   0.0000000   0.0000000   0.0000000   0.0000000   0.0000000   0.0000000   0.0000000
 AtZNuc=   0.0000000   0.0000000   0.0000000   0.0000000   0.0000000   0.0000000   0.0000000   0.0000000   0.0000000   0.0000000

  Atom       151         152         153         154         155         156         157         158         159         160
 IAtWgt=           0           0           0           0           0           0           0           0           0           0
 AtmWgt=   0.0000000   0.0000000   0.0000000   0.0000000   0.0000000   0.0000000   0.0000000   0.0000000   0.0000000   0.0000000
 NucSpn=           0           0           0           0           0           0           0           0           0           0
 AtZEff=   0.0000000   0.0000000   0.0000000   0.0000000   0.0000000   0.0000000   0.0000000   0.0000000   0.0000000   0.0000000
 NQMom=    0.0000000   0.0000000   0.0000000   0.0000000   0.0000000   0.0000000   0.0000000   0.0000000   0.0000000   0.0000000
 NMagM=    0.0000000   0.0000000   0.0000000   0.0000000   0.0000000   0.0000000   0.0000000   0.0000000   0.0000000   0.0000000
 AtZNuc=   0.0000000   0.0000000   0.0000000   0.0000000   0.0000000   0.0000000   0.0000000   0.0000000   0.0000000   0.0000000

  Atom       161         162         163         164         165         166         167         168         169         170
 IAtWgt=           0           0           0           0           0           0           0           0           0           0
 AtmWgt=   0.0000000   0.0000000   0.0000000   0.0000000   0.0000000   0.0000000   0.0000000   0.0000000   0.0000000   0.0000000
 NucSpn=           0           0           0           0           0           0           0           0           0           0
 AtZEff=   0.0000000   0.0000000   0.0000000   0.0000000   0.0000000   0.0000000   0.0000000   0.0000000   0.0000000   0.0000000
 NQMom=    0.0000000   0.0000000   0.0000000   0.0000000   0.0000000   0.0000000   0.0000000   0.0000000   0.0000000   0.0000000
 NMagM=    0.0000000   0.0000000   0.0000000   0.0000000   0.0000000   0.0000000   0.0000000   0.0000000   0.0000000   0.0000000
 AtZNuc=   0.0000000   0.0000000   0.0000000   0.0000000   0.0000000   0.0000000   0.0000000   0.0000000   0.0000000   0.0000000

  Atom       171         172         173         174         175         176         177         178         179         180
 IAtWgt=           0           0           0           0           0           0           0           0           0           0
 AtmWgt=   0.0000000   0.0000000   0.0000000   0.0000000   0.0000000   0.0000000   0.0000000   0.0000000   0.0000000   0.0000000
 NucSpn=           0           0           0           0           0           0           0           0           0           0
 AtZEff=   0.0000000   0.0000000   0.0000000   0.0000000   0.0000000   0.0000000   0.0000000   0.0000000   0.0000000   0.0000000
 NQMom=    0.0000000   0.0000000   0.0000000   0.0000000   0.0000000   0.0000000   0.0000000   0.0000000   0.0000000   0.0000000
 NMagM=    0.0000000   0.0000000   0.0000000   0.0000000   0.0000000   0.0000000   0.0000000   0.0000000   0.0000000   0.0000000
 AtZNuc=   0.0000000   0.0000000   0.0000000   0.0000000   0.0000000   0.0000000   0.0000000   0.0000000   0.0000000   0.0000000

  Atom       181         182         183         184         185         186         187         188         189         190
 IAtWgt=           0           0           0           0           0           0           0           0           0           0
 AtmWgt=   0.0000000   0.0000000   0.0000000   0.0000000   0.0000000   0.0000000   0.0000000   0.0000000   0.0000000   0.0000000
 NucSpn=           0           0           0           0           0           0           0           0           0           0
 AtZEff=   0.0000000   0.0000000   0.0000000   0.0000000   0.0000000   0.0000000   0.0000000   0.0000000   0.0000000   0.0000000
 NQMom=    0.0000000   0.0000000   0.0000000   0.0000000   0.0000000   0.0000000   0.0000000   0.0000000   0.0000000   0.0000000
 NMagM=    0.0000000   0.0000000   0.0000000   0.0000000   0.0000000   0.0000000   0.0000000   0.0000000   0.0000000   0.0000000
 AtZNuc=   0.0000000   0.0000000   0.0000000   0.0000000   0.0000000   0.0000000   0.0000000   0.0000000   0.0000000   0.0000000

  Atom       191         192         193         194         195         196         197         198         199         200
 IAtWgt=           0           0           0           0           0           0           0           0           0           0
 AtmWgt=   0.0000000   0.0000000   0.0000000   0.0000000   0.0000000   0.0000000   0.0000000   0.0000000   0.0000000   0.0000000
 NucSpn=           0           0           0           0           0           0           0           0           0           0
 AtZEff=   0.0000000   0.0000000   0.0000000   0.0000000   0.0000000   0.0000000   0.0000000   0.0000000   0.0000000   0.0000000
 NQMom=    0.0000000   0.0000000   0.0000000   0.0000000   0.0000000   0.0000000   0.0000000   0.0000000   0.0000000   0.0000000
 NMagM=    0.0000000   0.0000000   0.0000000   0.0000000   0.0000000   0.0000000   0.0000000   0.0000000   0.0000000   0.0000000
 AtZNuc=   0.0000000   0.0000000   0.0000000   0.0000000   0.0000000   0.0000000   0.0000000   0.0000000   0.0000000   0.0000000

  Atom       201         202         203         204         205         206         207         208         209         210
 IAtWgt=           0           0           0           0           0           0           0           0           0           0
 AtmWgt=   0.0000000   0.0000000   0.0000000   0.0000000   0.0000000   0.0000000   0.0000000   0.0000000   0.0000000   0.0000000
 NucSpn=           0           0           0           0           0           0           0           0           0           0
 AtZEff=   0.0000000   0.0000000   0.0000000   0.0000000   0.0000000   0.0000000   0.0000000   0.0000000   0.0000000   0.0000000
 NQMom=    0.0000000   0.0000000   0.0000000   0.0000000   0.0000000   0.0000000   0.0000000   0.0000000   0.0000000   0.0000000
 NMagM=    0.0000000   0.0000000   0.0000000   0.0000000   0.0000000   0.0000000   0.0000000   0.0000000   0.0000000   0.0000000
 AtZNuc=   0.0000000   0.0000000   0.0000000   0.0000000   0.0000000   0.0000000   0.0000000   0.0000000   0.0000000   0.0000000

  Atom       211         212         213         214         215         216         217         218         219         220
 IAtWgt=           0           0           0           0           0           0           0           0           0           0
 AtmWgt=   0.0000000   0.0000000   0.0000000   0.0000000   0.0000000   0.0000000   0.0000000   0.0000000   0.0000000   0.0000000
 NucSpn=           0           0           0           0           0           0           0           0           0           0
 AtZEff=   0.0000000   0.0000000   0.0000000   0.0000000   0.0000000   0.0000000   0.0000000   0.0000000   0.0000000   0.0000000
 NQMom=    0.0000000   0.0000000   0.0000000   0.0000000   0.0000000   0.0000000   0.0000000   0.0000000   0.0000000   0.0000000
 NMagM=    0.0000000   0.0000000   0.0000000   0.0000000   0.0000000   0.0000000   0.0000000   0.0000000   0.0000000   0.0000000
 AtZNuc=   0.0000000   0.0000000   0.0000000   0.0000000   0.0000000   0.0000000   0.0000000   0.0000000   0.0000000   0.0000000

  Atom       221         222         223         224         225         226         227         228         229         230
 IAtWgt=           0           0           0           0           0           0           0           0           0           0
 AtmWgt=   0.0000000   0.0000000   0.0000000   0.0000000   0.0000000   0.0000000   0.0000000   0.0000000   0.0000000   0.0000000
 NucSpn=           0           0           0           0           0           0           0           0           0           0
 AtZEff=   0.0000000   0.0000000   0.0000000   0.0000000   0.0000000   0.0000000   0.0000000   0.0000000   0.0000000   0.0000000
 NQMom=    0.0000000   0.0000000   0.0000000   0.0000000   0.0000000   0.0000000   0.0000000   0.0000000   0.0000000   0.0000000
 NMagM=    0.0000000   0.0000000   0.0000000   0.0000000   0.0000000   0.0000000   0.0000000   0.0000000   0.0000000   0.0000000
 AtZNuc=   0.0000000   0.0000000   0.0000000   0.0000000   0.0000000   0.0000000   0.0000000   0.0000000   0.0000000   0.0000000

  Atom       231         232         233         234         235         236
 IAtWgt=           0           0           0           0           0           0
 AtmWgt=   0.0000000   0.0000000   0.0000000   0.0000000   0.0000000   0.0000000
 NucSpn=           0           0           0           0           0           0
 AtZEff=   0.0000000   0.0000000   0.0000000   0.0000000   0.0000000   0.0000000
 NQMom=    0.0000000   0.0000000   0.0000000   0.0000000   0.0000000   0.0000000
 NMagM=    0.0000000   0.0000000   0.0000000   0.0000000   0.0000000   0.0000000
 AtZNuc=   0.0000000   0.0000000   0.0000000   0.0000000   0.0000000   0.0000000
 Leave Link  101 at Tue Sep 15 12:56:47 2020, MaxMem=   131072000 cpu:         3.0
 (Enter /share/programs/GAUSSIAN/64/g09/l202.exe)
 Symmetry turned off:
 Cannot cope with ghost atoms or with translation vectors.
 Stoichiometry    C22H14
 Framework group  C1[X(C22H14)]
 NUMDOF-- NAT=    36 NAtoms=   236
 Deg. of freedom     0
 Full point group                 C1      NOp   1
                          Input orientation:                          
 ---------------------------------------------------------------------
 Center     Atomic      Atomic             Coordinates (Angstroms)
 Number     Number       Type             X           Y           Z
 ---------------------------------------------------------------------
      1          6           0        0.653241    3.257859   -0.202510
      2          6           0       -0.653243    3.257860    0.202510
      3          6           0        1.372495    2.032956   -0.320807
      4          6           0       -1.372495    2.032956    0.320807
      5          6           0        0.722474    0.795666   -0.050388
      6          6           0       -0.722474    0.795667    0.050387
      7          6           0        2.760385    2.053927   -0.674268
      8          6           0        3.508866    0.913916   -0.671362
      9          6           0        2.955226   -0.309622   -0.177479
     10          6           0        1.574722   -0.361114    0.197094
     11          1           0        1.183427    4.195740   -0.384599
     12          1           0       -1.183429    4.195740    0.384599
     13          1           0        3.206283    3.012423   -0.951392
     14          1           0        4.560023    0.932956   -0.969333
     15          6           0        3.783020   -1.443098    0.028309
     16          6           0        1.137427   -1.507533    0.912109
     17          6           0        1.973691   -2.584349    1.138062
     18          6           0        3.301853   -2.571588    0.661177
     19          1           0        4.825754   -1.391230   -0.295484
     20          1           0        0.124652   -1.532788    1.308472
     21          1           0        1.603586   -3.445682    1.698977
     22          1           0        3.952742   -3.433526    0.825134
     23          6           0       -3.508866    0.913915    0.671362
     24          6           0       -2.760386    2.053926    0.674268
     25          6           0       -2.955226   -0.309623    0.177479
     26          6           0       -1.574722   -0.361114   -0.197094
     27          6           0       -3.783020   -1.443099   -0.028309
     28          6           0       -3.301852   -2.571589   -0.661177
     29          6           0       -1.973690   -2.584349   -1.138061
     30          6           0       -1.137426   -1.507534   -0.912109
     31          1           0       -4.560022    0.932954    0.969334
     32          1           0       -3.206283    3.012421    0.951392
     33          1           0       -4.825754   -1.391232    0.295484
     34          1           0       -3.952741   -3.433528   -0.825134
     35          1           0       -1.603585   -3.445682   -1.698976
     36          1           0       -0.124652   -1.532788   -1.308471
     37          0           0       -3.713623   -3.334482    0.140792
     38          0           0       -3.728597   -3.304118    0.140792
     39          0           0       -3.747406   -3.275969    0.140792
     40          0           0       -3.769728   -3.250515    0.140792
     41          0           0       -3.795182   -3.228193    0.140792
     42          0           0       -3.823331   -3.209384    0.140792
     43          0           0       -3.853695   -3.194410    0.140792
     44          0           0       -3.885754   -3.183528    0.140792
     45          0           0       -3.918958   -3.176923    0.140792
     46          0           0       -3.952741   -3.174709    0.140792
     47          0           0       -3.986524   -3.176923    0.140792
     48          0           0       -4.019728   -3.183528    0.140792
     49          0           0       -4.051787   -3.194410    0.140792
     50          0           0       -4.082151   -3.209384    0.140792
     51          0           0       -4.110300   -3.228193    0.140792
     52          0           0       -4.135754   -3.250515    0.140792
     53          0           0       -4.158076   -3.275969    0.140792
     54          0           0       -4.176885   -3.304118    0.140792
     55          0           0       -4.191859   -3.334482    0.140792
     56          0           0       -4.202741   -3.366541    0.140792
     57          0           0       -4.209346   -3.399745    0.140792
     58          0           0       -4.211560   -3.433528    0.140792
     59          0           0       -4.209346   -3.467311    0.140792
     60          0           0       -4.202741   -3.500515    0.140792
     61          0           0       -4.191859   -3.532574    0.140792
     62          0           0       -4.176885   -3.562938    0.140792
     63          0           0       -4.158076   -3.591087    0.140792
     64          0           0       -4.135754   -3.616541    0.140792
     65          0           0       -4.110300   -3.638863    0.140792
     66          0           0       -4.082151   -3.657672    0.140792
     67          0           0       -4.051787   -3.672646    0.140792
     68          0           0       -4.019728   -3.683528    0.140792
     69          0           0       -3.986524   -3.690133    0.140792
     70          0           0       -3.952741   -3.692347    0.140792
     71          0           0       -3.918958   -3.690133    0.140792
     72          0           0       -3.885754   -3.683528    0.140792
     73          0           0       -3.853695   -3.672646    0.140792
     74          0           0       -3.823331   -3.657672    0.140792
     75          0           0       -3.795182   -3.638863    0.140792
     76          0           0       -3.769728   -3.616541    0.140792
     77          0           0       -3.747406   -3.591087    0.140792
     78          0           0       -3.728597   -3.562938    0.140792
     79          0           0       -3.713623   -3.532574    0.140792
     80          0           0       -3.702741   -3.500515    0.140792
     81          0           0       -3.696136   -3.467311    0.140792
     82          0           0       -3.570058   -3.433528    0.098746
     83          0           0       -3.573331   -3.383578    0.098746
     84          0           0       -3.583097   -3.334482    0.098746
     85          0           0       -3.599188   -3.287081    0.098746
     86          0           0       -3.621327   -3.242186    0.098746
     87          0           0       -3.649138   -3.200565    0.098746
     88          0           0       -3.682143   -3.162930    0.098746
     89          0           0       -3.719778   -3.129925    0.098746
     90          0           0       -3.761399   -3.102114    0.098746
     91          0           0       -4.185704   -3.129925    0.098746
     92          0           0       -4.223339   -3.162930    0.098746
     93          0           0       -4.256344   -3.200565    0.098746
     94          0           0       -4.284155   -3.242186    0.098746
     95          0           0       -4.306294   -3.287081    0.098746
     96          0           0       -4.322385   -3.334482    0.098746
     97          0           0       -4.332151   -3.383578    0.098746
     98          0           0       -4.335424   -3.433528    0.098746
     99          0           0       -4.332151   -3.483478    0.098746
    100          0           0       -4.322385   -3.532574    0.098746
    101          0           0       -4.306294   -3.579975    0.098746
    102          0           0       -4.284155   -3.624870    0.098746
    103          0           0       -4.256344   -3.666491    0.098746
    104          0           0       -4.223339   -3.704126    0.098746
    105          0           0       -4.185704   -3.737131    0.098746
    106          0           0       -4.144083   -3.764942    0.098746
    107          0           0       -4.099188   -3.787081    0.098746
    108          0           0       -4.051787   -3.803172    0.098746
    109          0           0       -4.002691   -3.812938    0.098746
    110          0           0       -3.952741   -3.816211    0.098746
    111          0           0       -3.902791   -3.812938    0.098746
    112          0           0       -3.853695   -3.803172    0.098746
    113          0           0       -3.806294   -3.787081    0.098746
    114          0           0       -3.761399   -3.764942    0.098746
    115          0           0       -3.719778   -3.737131    0.098746
    116          0           0       -3.682143   -3.704126    0.098746
    117          0           0       -3.649138   -3.666491    0.098746
    118          0           0       -3.621327   -3.624870    0.098746
    119          0           0       -3.599188   -3.579975    0.098746
    120          0           0       -3.583097   -3.532574    0.098746
    121          0           0       -3.573331   -3.483478    0.098746
    122          0           0       -3.452741   -3.433528    0.040891
    123          0           0       -3.457019   -3.368265    0.040891
    124          0           0       -3.469778   -3.304118    0.040891
    125          0           0       -4.349418   -3.129147    0.040891
    126          0           0       -4.385754   -3.183528    0.040891
    127          0           0       -4.414681   -3.242186    0.040891
    128          0           0       -4.435704   -3.304118    0.040891
    129          0           0       -4.448463   -3.368265    0.040891
    130          0           0       -4.452741   -3.433528    0.040891
    131          0           0       -4.448463   -3.498791    0.040891
    132          0           0       -4.435704   -3.562938    0.040891
    133          0           0       -4.414681   -3.624870    0.040891
    134          0           0       -4.385754   -3.683528    0.040891
    135          0           0       -4.349418   -3.737909    0.040891
    136          0           0       -4.306294   -3.787081    0.040891
    137          0           0       -4.257122   -3.830205    0.040891
    138          0           0       -4.202741   -3.866541    0.040891
    139          0           0       -4.144083   -3.895468    0.040891
    140          0           0       -4.082151   -3.916491    0.040891
    141          0           0       -4.018004   -3.929250    0.040891
    142          0           0       -3.952741   -3.933528    0.040891
    143          0           0       -3.887478   -3.929250    0.040891
    144          0           0       -3.823331   -3.916491    0.040891
    145          0           0       -3.761399   -3.895468    0.040891
    146          0           0       -3.702741   -3.866541    0.040891
    147          0           0       -3.648360   -3.830205    0.040891
    148          0           0       -3.599188   -3.787081    0.040891
    149          0           0       -3.556064   -3.737909    0.040891
    150          0           0       -3.519728   -3.683528    0.040891
    151          0           0       -3.490801   -3.624870    0.040891
    152          0           0       -3.469778   -3.562938    0.040891
    153          0           0       -3.457019   -3.498791    0.040891
    154          0           0       -3.343980   -3.433528   -0.031781
    155          0           0       -3.349188   -3.354069   -0.031781
    156          0           0       -4.435704   -3.062938   -0.031781
    157          0           0       -4.479944   -3.129147   -0.031781
    158          0           0       -4.515163   -3.200565   -0.031781
    159          0           0       -4.540759   -3.275969   -0.031781
    160          0           0       -4.556294   -3.354069   -0.031781
    161          0           0       -4.561502   -3.433528   -0.031781
    162          0           0       -4.556294   -3.512987   -0.031781
    163          0           0       -4.540759   -3.591087   -0.031781
    164          0           0       -4.515163   -3.666491   -0.031781
    165          0           0       -4.479944   -3.737909   -0.031781
    166          0           0       -4.435704   -3.804118   -0.031781
    167          0           0       -4.383200   -3.863987   -0.031781
    168          0           0       -4.323331   -3.916491   -0.031781
    169          0           0       -4.257122   -3.960731   -0.031781
    170          0           0       -4.185704   -3.995950   -0.031781
    171          0           0       -4.110300   -4.021546   -0.031781
    172          0           0       -4.032200   -4.037081   -0.031781
    173          0           0       -3.952741   -4.042289   -0.031781
    174          0           0       -3.873282   -4.037081   -0.031781
    175          0           0       -3.795182   -4.021546   -0.031781
    176          0           0       -3.719778   -3.995950   -0.031781
    177          0           0       -3.648360   -3.960731   -0.031781
    178          0           0       -3.582151   -3.916491   -0.031781
    179          0           0       -3.522282   -3.863987   -0.031781
    180          0           0       -3.469778   -3.804118   -0.031781
    181          0           0       -3.425538   -3.737909   -0.031781
    182          0           0       -3.390319   -3.666491   -0.031781
    183          0           0       -3.364723   -3.591087   -0.031781
    184          0           0       -3.349188   -3.512987   -0.031781
    185          0           0       -3.245634   -3.433528   -0.118027
    186          0           0       -4.565113   -3.079975   -0.118027
    187          0           0       -4.606022   -3.162930   -0.118027
    188          0           0       -4.635754   -3.250515   -0.118027
    189          0           0       -4.653798   -3.341232   -0.118027
    190          0           0       -4.659848   -3.433528   -0.118027
    191          0           0       -4.653798   -3.525824   -0.118027
    192          0           0       -4.635754   -3.616541   -0.118027
    193          0           0       -4.606022   -3.704126   -0.118027
    194          0           0       -4.565113   -3.787081   -0.118027
    195          0           0       -4.513727   -3.863987   -0.118027
    196          0           0       -4.452741   -3.933528   -0.118027
    197          0           0       -4.383200   -3.994514   -0.118027
    198          0           0       -4.306294   -4.045900   -0.118027
    199          0           0       -4.223339   -4.086809   -0.118027
    200          0           0       -4.135754   -4.116541   -0.118027
    201          0           0       -4.045037   -4.134585   -0.118027
    202          0           0       -3.952741   -4.140635   -0.118027
    203          0           0       -3.860445   -4.134585   -0.118027
    204          0           0       -3.769728   -4.116541   -0.118027
    205          0           0       -3.682143   -4.086809   -0.118027
    206          0           0       -3.599188   -4.045900   -0.118027
    207          0           0       -3.522282   -3.994514   -0.118027
    208          0           0       -3.452741   -3.933528   -0.118027
    209          0           0       -3.391755   -3.863987   -0.118027
    210          0           0       -3.340369   -3.787081   -0.118027
    211          0           0       -3.299460   -3.704126   -0.118027
    212          0           0       -3.269728   -3.616541   -0.118027
    213          0           0       -3.251684   -3.525824   -0.118027
    214          0           0       -4.639805   -3.036851   -0.216373
    215          0           0       -4.685704   -3.129925   -0.216373
    216          0           0       -4.719061   -3.228193   -0.216373
    217          0           0       -4.739307   -3.329975   -0.216373
    218          0           0       -4.746094   -3.433528   -0.216373
    219          0           0       -4.739307   -3.537081   -0.216373
    220          0           0       -4.719061   -3.638863   -0.216373
    221          0           0       -4.685704   -3.737131   -0.216373
    222          0           0       -4.639805   -3.830205   -0.216373
    223          0           0       -4.582151   -3.916491   -0.216373
    224          0           0       -4.513727   -3.994514   -0.216373
    225          0           0       -4.435704   -4.062938   -0.216373
    226          0           0       -4.349418   -4.120592   -0.216373
    227          0           0       -4.256344   -4.166491   -0.216373
    228          0           0       -4.158076   -4.199848   -0.216373
    229          0           0       -4.056294   -4.220094   -0.216373
    230          0           0       -3.952741   -4.226881   -0.216373
    231          0           0       -3.849188   -4.220094   -0.216373
    232          0           0       -3.747406   -4.199848   -0.216373
    233          0           0       -3.649138   -4.166491   -0.216373
    234          0           0       -3.556064   -4.120592   -0.216373
    235          0           0       -3.469778   -4.062938   -0.216373
    236          0           0       -3.391755   -3.994514   -0.216373
 ---------------------------------------------------------------------
 Rotational constants (GHZ):      0.4454681      0.2811480      0.1854303
 Leave Link  202 at Tue Sep 15 12:56:48 2020, MaxMem=   131072000 cpu:         0.0
 (Enter /share/programs/GAUSSIAN/64/g09/l301.exe)
 Standard basis: 6-311+G(d,p) (5D, 7F)
 Warning:  center  37 has no basis functions!
 Warning:  center  38 has no basis functions!
 Warning:  center  39 has no basis functions!
 Warning:  center  40 has no basis functions!
 Warning:  center  41 has no basis functions!
 Warning:  center  42 has no basis functions!
 Warning:  center  43 has no basis functions!
 Warning:  center  44 has no basis functions!
 Warning:  center  45 has no basis functions!
 Warning:  center  46 has no basis functions!
 Warning:  center  47 has no basis functions!
 Warning:  center  48 has no basis functions!
 Warning:  center  49 has no basis functions!
 Warning:  center  50 has no basis functions!
 Warning:  center  51 has no basis functions!
 Warning:  center  52 has no basis functions!
 Warning:  center  53 has no basis functions!
 Warning:  center  54 has no basis functions!
 Warning:  center  55 has no basis functions!
 Warning:  center  56 has no basis functions!
 Warning:  center  57 has no basis functions!
 Warning:  center  58 has no basis functions!
 Warning:  center  59 has no basis functions!
 Warning:  center  60 has no basis functions!
 Warning:  center  61 has no basis functions!
 Warning:  center  62 has no basis functions!
 Warning:  center  63 has no basis functions!
 Warning:  center  64 has no basis functions!
 Warning:  center  65 has no basis functions!
 Warning:  center  66 has no basis functions!
 Warning:  center  67 has no basis functions!
 Warning:  center  68 has no basis functions!
 Warning:  center  69 has no basis functions!
 Warning:  center  70 has no basis functions!
 Warning:  center  71 has no basis functions!
 Warning:  center  72 has no basis functions!
 Warning:  center  73 has no basis functions!
 Warning:  center  74 has no basis functions!
 Warning:  center  75 has no basis functions!
 Warning:  center  76 has no basis functions!
 Warning:  center  77 has no basis functions!
 Warning:  center  78 has no basis functions!
 Warning:  center  79 has no basis functions!
 Warning:  center  80 has no basis functions!
 Warning:  center  81 has no basis functions!
 Warning:  center  82 has no basis functions!
 Warning:  center  83 has no basis functions!
 Warning:  center  84 has no basis functions!
 Warning:  center  85 has no basis functions!
 Warning:  center  86 has no basis functions!
 Warning:  center  87 has no basis functions!
 Warning:  center  88 has no basis functions!
 Warning:  center  89 has no basis functions!
 Warning:  center  90 has no basis functions!
 Warning:  center  91 has no basis functions!
 Warning:  center  92 has no basis functions!
 Warning:  center  93 has no basis functions!
 Warning:  center  94 has no basis functions!
 Warning:  center  95 has no basis functions!
 Warning:  center  96 has no basis functions!
 Warning:  center  97 has no basis functions!
 Warning:  center  98 has no basis functions!
 Warning:  center  99 has no basis functions!
 Warning:  center 100 has no basis functions!
 Warning:  center 101 has no basis functions!
 Warning:  center 102 has no basis functions!
 Warning:  center 103 has no basis functions!
 Warning:  center 104 has no basis functions!
 Warning:  center 105 has no basis functions!
 Warning:  center 106 has no basis functions!
 Warning:  center 107 has no basis functions!
 Warning:  center 108 has no basis functions!
 Warning:  center 109 has no basis functions!
 Warning:  center 110 has no basis functions!
 Warning:  center 111 has no basis functions!
 Warning:  center 112 has no basis functions!
 Warning:  center 113 has no basis functions!
 Warning:  center 114 has no basis functions!
 Warning:  center 115 has no basis functions!
 Warning:  center 116 has no basis functions!
 Warning:  center 117 has no basis functions!
 Warning:  center 118 has no basis functions!
 Warning:  center 119 has no basis functions!
 Warning:  center 120 has no basis functions!
 Warning:  center 121 has no basis functions!
 Warning:  center 122 has no basis functions!
 Warning:  center 123 has no basis functions!
 Warning:  center 124 has no basis functions!
 Warning:  center 125 has no basis functions!
 Warning:  center 126 has no basis functions!
 Warning:  center 127 has no basis functions!
 Warning:  center 128 has no basis functions!
 Warning:  center 129 has no basis functions!
 Warning:  center 130 has no basis functions!
 Warning:  center 131 has no basis functions!
 Warning:  center 132 has no basis functions!
 Warning:  center 133 has no basis functions!
 Warning:  center 134 has no basis functions!
 Warning:  center 135 has no basis functions!
 Warning:  center 136 has no basis functions!
 Warning:  center 137 has no basis functions!
 Warning:  center 138 has no basis functions!
 Warning:  center 139 has no basis functions!
 Warning:  center 140 has no basis functions!
 Warning:  center 141 has no basis functions!
 Warning:  center 142 has no basis functions!
 Warning:  center 143 has no basis functions!
 Warning:  center 144 has no basis functions!
 Warning:  center 145 has no basis functions!
 Warning:  center 146 has no basis functions!
 Warning:  center 147 has no basis functions!
 Warning:  center 148 has no basis functions!
 Warning:  center 149 has no basis functions!
 Warning:  center 150 has no basis functions!
 Warning:  center 151 has no basis functions!
 Warning:  center 152 has no basis functions!
 Warning:  center 153 has no basis functions!
 Warning:  center 154 has no basis functions!
 Warning:  center 155 has no basis functions!
 Warning:  center 156 has no basis functions!
 Warning:  center 157 has no basis functions!
 Warning:  center 158 has no basis functions!
 Warning:  center 159 has no basis functions!
 Warning:  center 160 has no basis functions!
 Warning:  center 161 has no basis functions!
 Warning:  center 162 has no basis functions!
 Warning:  center 163 has no basis functions!
 Warning:  center 164 has no basis functions!
 Warning:  center 165 has no basis functions!
 Warning:  center 166 has no basis functions!
 Warning:  center 167 has no basis functions!
 Warning:  center 168 has no basis functions!
 Warning:  center 169 has no basis functions!
 Warning:  center 170 has no basis functions!
 Warning:  center 171 has no basis functions!
 Warning:  center 172 has no basis functions!
 Warning:  center 173 has no basis functions!
 Warning:  center 174 has no basis functions!
 Warning:  center 175 has no basis functions!
 Warning:  center 176 has no basis functions!
 Warning:  center 177 has no basis functions!
 Warning:  center 178 has no basis functions!
 Warning:  center 179 has no basis functions!
 Warning:  center 180 has no basis functions!
 Warning:  center 181 has no basis functions!
 Warning:  center 182 has no basis functions!
 Warning:  center 183 has no basis functions!
 Warning:  center 184 has no basis functions!
 Warning:  center 185 has no basis functions!
 Warning:  center 186 has no basis functions!
 Warning:  center 187 has no basis functions!
 Warning:  center 188 has no basis functions!
 Warning:  center 189 has no basis functions!
 Warning:  center 190 has no basis functions!
 Warning:  center 191 has no basis functions!
 Warning:  center 192 has no basis functions!
 Warning:  center 193 has no basis functions!
 Warning:  center 194 has no basis functions!
 Warning:  center 195 has no basis functions!
 Warning:  center 196 has no basis functions!
 Warning:  center 197 has no basis functions!
 Warning:  center 198 has no basis functions!
 Warning:  center 199 has no basis functions!
 Warning:  center 200 has no basis functions!
 Warning:  center 201 has no basis functions!
 Warning:  center 202 has no basis functions!
 Warning:  center 203 has no basis functions!
 Warning:  center 204 has no basis functions!
 Warning:  center 205 has no basis functions!
 Warning:  center 206 has no basis functions!
 Warning:  center 207 has no basis functions!
 Warning:  center 208 has no basis functions!
 Warning:  center 209 has no basis functions!
 Warning:  center 210 has no basis functions!
 Warning:  center 211 has no basis functions!
 Warning:  center 212 has no basis functions!
 Warning:  center 213 has no basis functions!
 Warning:  center 214 has no basis functions!
 Warning:  center 215 has no basis functions!
 Warning:  center 216 has no basis functions!
 Warning:  center 217 has no basis functions!
 Warning:  center 218 has no basis functions!
 Warning:  center 219 has no basis functions!
 Warning:  center 220 has no basis functions!
 Warning:  center 221 has no basis functions!
 Warning:  center 222 has no basis functions!
 Warning:  center 223 has no basis functions!
 Warning:  center 224 has no basis functions!
 Warning:  center 225 has no basis functions!
 Warning:  center 226 has no basis functions!
 Warning:  center 227 has no basis functions!
 Warning:  center 228 has no basis functions!
 Warning:  center 229 has no basis functions!
 Warning:  center 230 has no basis functions!
 Warning:  center 231 has no basis functions!
 Warning:  center 232 has no basis functions!
 Warning:  center 233 has no basis functions!
 Warning:  center 234 has no basis functions!
 Warning:  center 235 has no basis functions!
 Warning:  center 236 has no basis functions!
 Ernie: Thresh=  0.10000D-02 Tol=  0.10000D-05 Strict=F.
   568 basis functions,   904 primitive gaussians,   590 cartesian basis functions
    73 alpha electrons       73 beta electrons
       nuclear repulsion energy      1599.9156270972 Hartrees.
 IExCor=  402 DFT=T Ex+Corr=B3LYP ExCW=0 ScaHFX=  0.200000
 ScaDFX=  0.800000  0.720000  1.000000  0.810000 ScalE2=  1.000000  1.000000
 IRadAn=      0 IRanWt=     -1 IRanGd=            0 ICorTp=0 IEmpDi=  4
 NAtoms=  236 NActive=  236 NUniq=  236 SFac= 1.00D+00 NAtFMM=   60 NAOKFM=T Big=T
 Integral buffers will be    131072 words long.
 Raffenetti 2 integral format.
 Two-electron integral symmetry is turned off.
 Leave Link  301 at Tue Sep 15 12:56:48 2020, MaxMem=   131072000 cpu:         0.5
 (Enter /share/programs/GAUSSIAN/64/g09/l302.exe)
 NPDir=0 NMtPBC=     1 NCelOv=     1 NCel=       1 NClECP=     1 NCelD=      1
         NCelK=      1 NCelE2=     1 NClLst=     1 CellRange=     0.0.
 One-electron integrals computed using PRISM.
 NBasis=   568 RedAO= T EigKep=  1.01D-06  NBF=   568
 NBsUse=   557 1.00D-06 EigRej=  9.19D-07 NBFU=   557
 Precomputing XC quadrature grid using
 IXCGrd= 4 IRadAn=           0 IRanWt=          -1 IRanGd=           0 AccXCQ= 0.00D+00.
 Generated NRdTot=       0 NPtTot=           0 NUsed=           0 NTot=          32
 NSgBfM=   587   588   588   589   589 MxSgAt=   236 MxSgA2=    36.
 Leave Link  302 at Tue Sep 15 12:56:49 2020, MaxMem=   131072000 cpu:        14.5
 (Enter /share/programs/GAUSSIAN/64/g09/l308.exe)
 Leave Link  308 at Tue Sep 15 12:56:50 2020, MaxMem=   131072000 cpu:         0.9
 (Enter /share/programs/GAUSSIAN/64/g09/l303.exe)
 DipDrv:  MaxL=1.
 Leave Link  303 at Tue Sep 15 12:56:50 2020, MaxMem=   131072000 cpu:         0.7
 (Enter /share/programs/GAUSSIAN/64/g09/l401.exe)
 Initial guess from the checkpoint file:  "/scratch/aartigas.39122/Gau-39241.chk"
 Skipping rotation of guess because NAtoms(RWF)=  236 differs from NAtoms(Chk)=   36.
 Guess basis will be translated and rotated to current coordinates.
 JPrj=2 DoOrth=T DoCkMO=T.
 Leave Link  401 at Tue Sep 15 12:56:51 2020, MaxMem=   131072000 cpu:         9.7
 (Enter /share/programs/GAUSSIAN/64/g09/l502.exe)
 Closed shell SCF:
 Using DIIS extrapolation, IDIIS=  1040.
 Two-electron integral symmetry not used.
 IVT=     1071582 IEndB=     1071582 NGot=   131072000 MDV=   130365749
 LenX=   130365749 LenY=   130017059
 Requested convergence on RMS density matrix=1.00D-08 within 128 cycles.
 Requested convergence on MAX density matrix=1.00D-06.
 Requested convergence on             energy=1.00D-06.
 No special actions if energy rises.
 Fock matrices will be formed incrementally for  20 cycles.

 Cycle   1  Pass 1  IDiag  1:
 FoFJK:  IHMeth= 1 ICntrl=       0 DoSepK=F KAlg= 0 I1Cent=   0 FoldK=F
 IRaf= 940000000 NMat=   1 IRICut=       1 DoRegI=T DoRafI=F ISym2E= 0.
 FoFCou: FMM=T IPFlag=           0 FMFlag=      100000 FMFlg1=        2001
         NFxFlg=           0 DoJE=F BraDBF=F KetDBF=F FulRan=T
         wScrn=  0.000000 ICntrl=       0 IOpCl=  0 I1Cent=           0 NGrid=           0
         NMat0=    1 NMatS0=      1 NMatT0=    0 NMatD0=    1 NMtDS0=    0 NMtDT0=    0
 Symmetry not used in FoFCou.
 FMM levels:  10  Number of levels for PrismC:   9
 E= -847.003738666969    
 DIIS: error= 5.05D-08 at cycle   1 NSaved=   1.
 NSaved= 1 IEnMin= 1 EnMin= -847.003738666969     IErMin= 1 ErrMin= 5.05D-08
 ErrMax= 5.05D-08  0.00D+00 EMaxC= 1.00D-01 BMatC= 3.55D-12 BMatP= 3.55D-12
 IDIUse=1 WtCom= 1.00D+00 WtEn= 0.00D+00
 Coeff-Com:  0.100D+01
 Coeff:      0.100D+01
 Gap=     0.151 Goal=   None    Shift=    0.000
 RMSDP=2.88D-07 MaxDP=1.33D-05              OVMax= 3.94D-07

 Cycle   2  Pass 1  IDiag  1:
 RMSU=  2.85D-07    CP:  1.00D+00
 E= -847.003738666830     Delta-E=        0.000000000140 Rises=F Damp=F
 DIIS: error= 1.42D-08 at cycle   2 NSaved=   2.
 NSaved= 2 IEnMin= 1 EnMin= -847.003738666969     IErMin= 2 ErrMin= 1.42D-08
 ErrMax= 1.42D-08  0.00D+00 EMaxC= 1.00D-01 BMatC= 2.13D-13 BMatP= 3.55D-12
 IDIUse=1 WtCom= 1.00D+00 WtEn= 0.00D+00
 Coeff-Com:  0.627D-01 0.937D+00
 Coeff:      0.627D-01 0.937D+00
 Gap=     0.151 Goal=   None    Shift=    0.000
 RMSDP=1.57D-08 MaxDP=7.88D-07 DE= 1.40D-10 OVMax= 3.02D-07

 Cycle   3  Pass 1  IDiag  1:
 RMSU=  1.32D-08    CP:  1.00D+00  1.02D+00
 E= -847.003738666792     Delta-E=        0.000000000038 Rises=F Damp=F
 DIIS: error= 2.51D-08 at cycle   3 NSaved=   3.
 NSaved= 3 IEnMin= 1 EnMin= -847.003738666969     IErMin= 2 ErrMin= 1.42D-08
 ErrMax= 2.51D-08  0.00D+00 EMaxC= 1.00D-01 BMatC= 5.05D-13 BMatP= 2.13D-13
 IDIUse=1 WtCom= 1.00D+00 WtEn= 0.00D+00
 Coeff-Com: -0.107D-01 0.616D+00 0.395D+00
 Coeff:     -0.107D-01 0.616D+00 0.395D+00
 Gap=     0.151 Goal=   None    Shift=    0.000
 RMSDP=1.03D-08 MaxDP=4.16D-07 DE= 3.77D-11 OVMax= 2.17D-07

 Cycle   4  Pass 1  IDiag  1:
 RMSU=  5.85D-09    CP:  1.00D+00  1.02D+00  3.90D-01
 E= -847.003738666823     Delta-E=       -0.000000000031 Rises=F Damp=F
 DIIS: error= 8.06D-09 at cycle   4 NSaved=   4.
 NSaved= 4 IEnMin= 1 EnMin= -847.003738666969     IErMin= 4 ErrMin= 8.06D-09
 ErrMax= 8.06D-09  0.00D+00 EMaxC= 1.00D-01 BMatC= 2.06D-14 BMatP= 2.13D-13
 IDIUse=1 WtCom= 1.00D+00 WtEn= 0.00D+00
 Coeff-Com: -0.876D-02 0.309D+00 0.241D+00 0.459D+00
 Coeff:     -0.876D-02 0.309D+00 0.241D+00 0.459D+00
 Gap=     0.151 Goal=   None    Shift=    0.000
 RMSDP=4.03D-09 MaxDP=1.51D-07 DE=-3.14D-11 OVMax= 6.88D-08

 SCF Done:  E(RB3LYP) =  -847.003738667     A.U. after    4 cycles
            NFock=  4  Conv=0.40D-08     -V/T= 2.0049
 KE= 8.428349970566D+02 PE=-5.164192584015D+03 EE= 1.874438221195D+03
 Leave Link  502 at Tue Sep 15 12:58:33 2020, MaxMem=   131072000 cpu:       815.6
 (Enter /share/programs/GAUSSIAN/64/g09/l801.exe)
 DoSCS=F DFT=T ScalE2(SS,OS)=  1.000000  1.000000
 Range of M.O.s used for correlation:     1   557
 NBasis=   568 NAE=    73 NBE=    73 NFC=     0 NFV=     0
 NROrb=    557 NOA=    73 NOB=    73 NVA=   484 NVB=   484

 **** Warning!!: The largest alpha MO coefficient is  0.14271948D+03

 Leave Link  801 at Tue Sep 15 12:58:34 2020, MaxMem=   131072000 cpu:         0.1
 (Enter /share/programs/GAUSSIAN/64/g09/l1002.exe)
 Minotr:  Closed shell wavefunction.
          Direct CPHF calculation.
          Differentiating once with respect to magnetic field using GIAOs.
          Electric field/nuclear overlap derivatives assumed to be zero.
          Requested convergence is 1.0D-08 RMS, and 1.0D-07 maximum.
          Secondary convergence is 1.0D-12 RMS, and 1.0D-12 maximum.
          NewPWx=T KeepS1=F KeepF1=F KeepIn=T MapXYZ=F SortEE=F KeepMc=T.
          MDV=     131069551 using IRadAn=       2.
 Generate precomputed XC quadrature information.
          Solving linear equations simultaneously, MaxMat=      72.
 FoFCou: FMM=F IPFlag=           0 FMFlag=      100000 FMFlg1=        2001
         NFxFlg=           0 DoJE=F BraDBF=F KetDBF=T FulRan=T
         wScrn=  0.000000 ICntrl=    6100 IOpCl=  0 I1Cent=           7 NGrid=         236
         NMat0=    1 NMatS0=      1 NMatT0=    0 NMatD0=    1 NMtDS0=    0 NMtDT0=    0
 Symmetry not used in FoFCou.
 FoFJK:  IHMeth= 1 ICntrl=    6127 DoSepK=F KAlg= 0 I1Cent=   0 FoldK=F
 IRaf=         1 NMat=   1 IRICut=       1 DoRegI=T DoRafI=F ISym2E= 0.
          There are     3 degrees of freedom in the 1st order CPHF.  IDoFFX=0 NUNeed=     3.
      3 vectors produced by pass  0 Test12= 1.18D-12 3.33D-08 XBig12= 1.96D+03 8.77D+00.
 AX will form     3 AO Fock derivatives at one time.
      3 vectors produced by pass  1 Test12= 1.18D-12 3.33D-08 XBig12= 3.18D+00 7.58D-01.
      3 vectors produced by pass  2 Test12= 1.18D-12 3.33D-08 XBig12= 1.86D-02 5.85D-02.
      3 vectors produced by pass  3 Test12= 1.18D-12 3.33D-08 XBig12= 4.29D-05 1.35D-03.
      3 vectors produced by pass  4 Test12= 1.18D-12 3.33D-08 XBig12= 9.75D-08 7.22D-05.
      3 vectors produced by pass  5 Test12= 1.18D-12 3.33D-08 XBig12= 3.97D-10 5.92D-06.
      3 vectors produced by pass  6 Test12= 1.18D-12 3.33D-08 XBig12= 1.51D-12 4.40D-07.
 InvSVY:  IOpt=1 It=  1 EMax= 3.55D-15
 Solved reduced A of dimension    21 with     3 vectors.
 Calculating GIAO nuclear magnetic shielding tensors.
 SCF GIAO Magnetic shielding tensor (ppm):
      1  C    Isotropic =    49.6861   Anisotropy =   149.7970
   XX=    46.3088   YX=   -25.0950   ZX=    31.4786
   XY=   -31.1109   YY=   -39.0339   ZY=    13.2621
   XZ=    24.9178   YZ=     8.9888   ZZ=   141.7833
   Eigenvalues:   -49.3507    48.8581   149.5507
      2  C    Isotropic =    49.6861   Anisotropy =   149.7971
   XX=    46.3088   YX=    25.0953   ZX=    31.4786
   XY=    31.1111   YY=   -39.0339   ZY=   -13.2621
   XZ=    24.9177   YZ=    -8.9889   ZZ=   141.7834
   Eigenvalues:   -49.3508    48.8583   149.5509
      3  C    Isotropic =    44.4899   Anisotropy =   204.7372
   XX=   -22.2199   YX=    10.8075   ZX=    51.2710
   XY=     4.9259   YY=   -14.7126   ZY=    14.7921
   XZ=    32.3655   YZ=    21.2392   ZZ=   170.4022
   Eigenvalues:   -31.9593   -15.5523   180.9814
      4  C    Isotropic =    44.4899   Anisotropy =   204.7373
   XX=   -22.2198   YX=   -10.8075   ZX=    51.2710
   XY=    -4.9256   YY=   -14.7126   ZY=   -14.7922
   XZ=    32.3656   YZ=   -21.2393   ZZ=   170.4023
   Eigenvalues:   -31.9592   -15.5524   180.9815
      5  C    Isotropic =    48.5420   Anisotropy =   189.5490
   XX=   -14.6790   YX=     4.7342   ZX=     8.4333
   XY=    20.3759   YY=    -5.5375   ZY=    31.5121
   XZ=    65.1218   YZ=     0.8640   ZZ=   165.8426
   Eigenvalues:   -26.3226    -2.9593   174.9080
      6  C    Isotropic =    48.5421   Anisotropy =   189.5489
   XX=   -14.6789   YX=    -4.7340   ZX=     8.4335
   XY=   -20.3758   YY=    -5.5374   ZY=   -31.5121
   XZ=    65.1218   YZ=    -0.8638   ZZ=   165.8426
   Eigenvalues:   -26.3224    -2.9594   174.9080
      7  C    Isotropic =    50.1907   Anisotropy =   149.2089
   XX=    19.7303   YX=   -44.2755   ZX=    41.2886
   XY=   -38.0437   YY=    -2.7069   ZY=    36.9011
   XZ=    36.5866   YZ=    37.5458   ZZ=   133.5487
   Eigenvalues:   -49.6656    50.5744   149.6633
      8  C    Isotropic =    48.9362   Anisotropy =   152.4339
   XX=   -31.5093   YX=   -11.4921   ZX=    54.7730
   XY=   -19.0468   YY=    46.5898   ZY=    27.5522
   XZ=    42.2451   YZ=    29.8391   ZZ=   131.7282
   Eigenvalues:   -50.1461    46.3960   150.5589
      9  C    Isotropic =    44.4204   Anisotropy =   209.3981
   XX=   -10.1987   YX=    16.7536   ZX=    44.4888
   XY=     8.9342   YY=    -7.7270   ZY=    61.4651
   XZ=    43.3269   YZ=    64.9792   ZZ=   151.1869
   Eigenvalues:   -30.3689   -20.3891   184.0192
     10  C    Isotropic =    45.3894   Anisotropy =   198.3236
   XX=    -5.9706   YX=    23.3819   ZX=    35.6519
   XY=    38.1954   YY=     1.7271   ZY=    73.1370
   XZ=    54.0013   YZ=    45.7045   ZZ=   140.4116
   Eigenvalues:   -33.5315    -7.9055   177.6051
     11  H    Isotropic =    23.8179   Anisotropy =     7.5674
   XX=    27.2191   YX=    -1.9090   ZX=    -2.2602
   XY=    -1.7961   YY=    24.8722   ZY=    -0.1966
   XZ=    -3.3763   YZ=    -0.1950   ZZ=    19.3625
   Eigenvalues:    18.3647    24.2263    28.8628
     12  H    Isotropic =    23.8179   Anisotropy =     7.5674
   XX=    27.2191   YX=     1.9090   ZX=    -2.2602
   XY=     1.7961   YY=    24.8722   ZY=     0.1966
   XZ=    -3.3763   YZ=     0.1950   ZZ=    19.3625
   Eigenvalues:    18.3647    24.2263    28.8628
     13  H    Isotropic =    23.8548   Anisotropy =     7.5124
[...]
   144  Bq   0.000000
   145  Bq   0.000000
   146  Bq   0.000000
   147  Bq   0.000000
   148  Bq   0.000000
   149  Bq   0.000000
   150  Bq   0.000000
   151  Bq   0.000000
   152  Bq   0.000000
   153  Bq   0.000000
   154  Bq   0.000000
   155  Bq   0.000000
   156  Bq   0.000000
   157  Bq   0.000000
   158  Bq   0.000000
   159  Bq   0.000000
   160  Bq   0.000000
   161  Bq   0.000000
   162  Bq   0.000000
   163  Bq   0.000000
   164  Bq   0.000000
   165  Bq   0.000000
   166  Bq   0.000000
   167  Bq   0.000000
   168  Bq   0.000000
   169  Bq   0.000000
   170  Bq   0.000000
   171  Bq   0.000000
   172  Bq   0.000000
   173  Bq   0.000000
   174  Bq   0.000000
   175  Bq   0.000000
   176  Bq   0.000000
   177  Bq   0.000000
   178  Bq   0.000000
   179  Bq   0.000000
   180  Bq   0.000000
   181  Bq   0.000000
   182  Bq   0.000000
   183  Bq   0.000000
   184  Bq   0.000000
   185  Bq   0.000000
   186  Bq   0.000000
   187  Bq   0.000000
   188  Bq   0.000000
   189  Bq   0.000000
   190  Bq   0.000000
   191  Bq   0.000000
   192  Bq   0.000000
   193  Bq   0.000000
   194  Bq   0.000000
   195  Bq   0.000000
   196  Bq   0.000000
   197  Bq   0.000000
   198  Bq   0.000000
   199  Bq   0.000000
   200  Bq   0.000000
   201  Bq   0.000000
   202  Bq   0.000000
   203  Bq   0.000000
   204  Bq   0.000000
   205  Bq   0.000000
   206  Bq   0.000000
   207  Bq   0.000000
   208  Bq   0.000000
   209  Bq   0.000000
   210  Bq   0.000000
   211  Bq   0.000000
   212  Bq   0.000000
   213  Bq   0.000000
   214  Bq   0.000000
   215  Bq   0.000000
   216  Bq   0.000000
   217  Bq   0.000000
   218  Bq   0.000000
   219  Bq   0.000000
   220  Bq   0.000000
   221  Bq   0.000000
   222  Bq   0.000000
   223  Bq   0.000000
   224  Bq   0.000000
   225  Bq   0.000000
   226  Bq   0.000000
   227  Bq   0.000000
   228  Bq   0.000000
   229  Bq   0.000000
   230  Bq   0.000000
   231  Bq   0.000000
   232  Bq   0.000000
   233  Bq   0.000000
   234  Bq   0.000000
   235  Bq   0.000000
   236  Bq   0.000000
 Sum of Mulliken charges =   0.00000
 Mulliken charges with hydrogens summed into heavy atoms:
               1
     1  C   -0.262865
     2  C   -0.262866
     3  C    0.737923
     4  C    0.737922
     5  C   -0.039994
     6  C   -0.040001
     7  C    0.075155
     8  C   -0.330147
     9  C    0.780501
    10  C   -0.200782
    15  C    0.249272
    16  C   -0.533462
    17  C   -0.189404
    18  C   -0.286191
    23  C   -0.330145
    24  C    0.075154
    25  C    0.780496
    26  C   -0.200782
    27  C    0.249273
    28  C   -0.412303
    29  C   -0.189403
    30  C   -0.533462
    37  Bq   0.000000
    38  Bq   0.000000
    39  Bq   0.000000
    40  Bq   0.000000
    41  Bq   0.000000
    42  Bq   0.000000
    43  Bq   0.000000
    44  Bq   0.000000
    45  Bq   0.000000
    46  Bq   0.000000
    47  Bq   0.000000
    48  Bq   0.000000
    49  Bq   0.000000
    50  Bq   0.000000
    51  Bq   0.000000
    52  Bq   0.000000
    53  Bq   0.000000
    54  Bq   0.000000
    55  Bq   0.000000
    56  Bq   0.000000
    57  Bq   0.000000
    58  Bq   0.000000
    59  Bq   0.000000
    60  Bq   0.000000
    61  Bq   0.000000
    62  Bq   0.000000
    63  Bq   0.000000
    64  Bq   0.000000
    65  Bq   0.000000
    66  Bq   0.000000
    67  Bq   0.000000
    68  Bq   0.000000
    69  Bq   0.000000
    70  Bq   0.000000
    71  Bq   0.000000
    72  Bq   0.000000
    73  Bq   0.000000
    74  Bq   0.000000
    75  Bq   0.000000
    76  Bq   0.000000
    77  Bq   0.000000
    78  Bq   0.000000
    79  Bq   0.000000
    80  Bq   0.000000
    81  Bq   0.000000
    82  Bq   0.000000
    83  Bq   0.000000
    84  Bq   0.000000
    85  Bq   0.000000
    86  Bq   0.000000
    87  Bq   0.000000
    88  Bq   0.000000
    89  Bq   0.000000
    90  Bq   0.000000
    91  Bq   0.000000
    92  Bq   0.000000
    93  Bq   0.000000
    94  Bq   0.000000
    95  Bq   0.000000
    96  Bq   0.000000
    97  Bq   0.000000
    98  Bq   0.000000
    99  Bq   0.000000
   100  Bq   0.000000
   101  Bq   0.000000
   102  Bq   0.000000
   103  Bq   0.000000
   104  Bq   0.000000
   105  Bq   0.000000
   106  Bq   0.000000
   107  Bq   0.000000
   108  Bq   0.000000
   109  Bq   0.000000
   110  Bq   0.000000
   111  Bq   0.000000
   112  Bq   0.000000
   113  Bq   0.000000
   114  Bq   0.000000
   115  Bq   0.000000
   116  Bq   0.000000
   117  Bq   0.000000
   118  Bq   0.000000
   119  Bq   0.000000
   120  Bq   0.000000
   121  Bq   0.000000
   122  Bq   0.000000
   123  Bq   0.000000
   124  Bq   0.000000
   125  Bq   0.000000
   126  Bq   0.000000
   127  Bq   0.000000
   128  Bq   0.000000
   129  Bq   0.000000
   130  Bq   0.000000
   131  Bq   0.000000
   132  Bq   0.000000
   133  Bq   0.000000
   134  Bq   0.000000
   135  Bq   0.000000
   136  Bq   0.000000
   137  Bq   0.000000
   138  Bq   0.000000
   139  Bq   0.000000
   140  Bq   0.000000
   141  Bq   0.000000
   142  Bq   0.000000
   143  Bq   0.000000
   144  Bq   0.000000
   145  Bq   0.000000
   146  Bq   0.000000
   147  Bq   0.000000
   148  Bq   0.000000
   149  Bq   0.000000
   150  Bq   0.000000
   151  Bq   0.000000
   152  Bq   0.000000
   153  Bq   0.000000
   154  Bq   0.000000
   155  Bq   0.000000
   156  Bq   0.000000
   157  Bq   0.000000
   158  Bq   0.000000
   159  Bq   0.000000
   160  Bq   0.000000
   161  Bq   0.000000
   162  Bq   0.000000
   163  Bq   0.000000
   164  Bq   0.000000
   165  Bq   0.000000
   166  Bq   0.000000
   167  Bq   0.000000
   168  Bq   0.000000
   169  Bq   0.000000
   170  Bq   0.000000
   171  Bq   0.000000
   172  Bq   0.000000
   173  Bq   0.000000
   174  Bq   0.000000
   175  Bq   0.000000
   176  Bq   0.000000
   177  Bq   0.000000
   178  Bq   0.000000
   179  Bq   0.000000
   180  Bq   0.000000
   181  Bq   0.000000
   182  Bq   0.000000
   183  Bq   0.000000
   184  Bq   0.000000
   185  Bq   0.000000
   186  Bq   0.000000
   187  Bq   0.000000
   188  Bq   0.000000
   189  Bq   0.000000
   190  Bq   0.000000
   191  Bq   0.000000
   192  Bq   0.000000
   193  Bq   0.000000
   194  Bq   0.000000
   195  Bq   0.000000
   196  Bq   0.000000
   197  Bq   0.000000
   198  Bq   0.000000
   199  Bq   0.000000
   200  Bq   0.000000
   201  Bq   0.000000
   202  Bq   0.000000
   203  Bq   0.000000
   204  Bq   0.000000
   205  Bq   0.000000
   206  Bq   0.000000
   207  Bq   0.000000
   208  Bq   0.000000
   209  Bq   0.000000
   210  Bq   0.000000
   211  Bq   0.000000
   212  Bq   0.000000
   213  Bq   0.000000
   214  Bq   0.000000
   215  Bq   0.000000
   216  Bq   0.000000
   217  Bq   0.000000
   218  Bq   0.000000
   219  Bq   0.000000
   220  Bq   0.000000
   221  Bq   0.126111
   222  Bq   0.000000
   223  Bq   0.000000
   224  Bq   0.000000
   225  Bq   0.000000
   226  Bq   0.000000
   227  Bq   0.000000
   228  Bq   0.000000
   229  Bq   0.000000
   230  Bq   0.000000
   231  Bq   0.000000
   232  Bq   0.000000
   233  Bq   0.000000
   234  Bq   0.000000
   235  Bq   0.000000
   236  Bq   0.000000
 Electronic spatial extent (au):  <R**2>=           5804.3227
 Charge=              0.0000 electrons
 Dipole moment (field-independent basis, Debye):
    X=              0.0000    Y=              0.0732    Z=              0.0000  Tot=              0.0732
 Quadrupole moment (field-independent basis, Debye-Ang):
   XX=           -113.9137   YY=           -113.9781   ZZ=           -133.4378
   XY=              0.0000   XZ=             -4.8717   YZ=              0.0000
 Traceless Quadrupole moment (field-independent basis, Debye-Ang):
   XX=              6.5295   YY=              6.4651   ZZ=            -12.9946
   XY=              0.0000   XZ=             -4.8717   YZ=              0.0000
 Octapole moment (field-independent basis, Debye-Ang**2):
  XXX=              0.0000  YYY=             11.7108  ZZZ=              0.0000  XYY=              0.0000
  XXY=             -6.4067  XXZ=              0.0000  XZZ=              0.0000  YZZ=             -7.8695
  YYZ=              0.0000  XYZ=            -16.2862
 Hexadecapole moment (field-independent basis, Debye-Ang**3):
 XXXX=          -4416.4021 YYYY=          -2784.9756 ZZZZ=           -481.5690 XXXY=              0.0001
 XXXZ=           -124.3517 YYYX=             -0.0003 YYYZ=              0.0001 ZZZX=             -4.4782
 ZZZY=              0.0001 XXYY=          -1189.3576 XXZZ=           -942.9016 YYZZ=           -589.4012
 XXYZ=              0.0000 YYXZ=              7.8297 ZZXY=             -0.0001
 N-N= 1.599915627097D+03 E-N=-5.164192587538D+03  KE= 8.428349970566D+02
 Leave Link  601 at Tue Sep 15 13:06:33 2020, MaxMem=   131072000 cpu:         0.6
 (Enter /share/programs/GAUSSIAN/64/g09/l9999.exe)
 1\1\GINC-PAHRY\SP\RB3LYP\6-311+G(d,p)\C22H14\AARTIGAS\15-Sep-2020\0\\#
 P rb3lyp/6-311+g** NMR Guess=Read geom=connectivity\\Title\\0,1\C,0,0.
 653241,3.257859,-0.20251\C,0,-0.653243,3.25786,0.20251\C,0,1.372495,2.
 032956,-0.320807\C,0,-1.372495,2.032956,0.320807\C,0,0.722474,0.795666
 ,-0.050388\C,0,-0.722474,0.795667,0.050387\C,0,2.760385,2.053927,-0.67
 4268\C,0,3.508866,0.913916,-0.671362\C,0,2.955226,-0.309622,-0.177479\
 C,0,1.574722,-0.361114,0.197094\H,0,1.183427,4.19574,-0.384599\H,0,-1.
 183429,4.19574,0.384599\H,0,3.206283,3.012423,-0.951392\H,0,4.560023,0
 .932956,-0.969333\C,0,3.78302,-1.443098,0.028309\C,0,1.137427,-1.50753
 3,0.912109\C,0,1.973691,-2.584349,1.138062\C,0,3.301853,-2.571588,0.66
 1177\H,0,4.825754,-1.39123,-0.295484\H,0,0.124652,-1.532788,1.308472\H
 ,0,1.603586,-3.445682,1.698977\H,0,3.952742,-3.433526,0.825134\C,0,-3.
 508866,0.913915,0.671362\C,0,-2.760386,2.053926,0.674268\C,0,-2.955226
 ,-0.309623,0.177479\C,0,-1.574722,-0.361114,-0.197094\C,0,-3.78302,-1.
 443099,-0.028309\C,0,-3.301852,-2.571589,-0.661177\C,0,-1.97369,-2.584
 349,-1.138061\C,0,-1.137426,-1.507534,-0.912109\H,0,-4.560022,0.932954
 ,0.969334\H,0,-3.206283,3.012421,0.951392\H,0,-4.825754,-1.391232,0.29
 5484\H,0,-3.952741,-3.433528,-0.825134\H,0,-1.603585,-3.445682,-1.6989
 76\H,0,-0.124652,-1.532788,-1.308471\Bq,0,-3.7136233816,-3.3344822395,
 0.1407918263\Bq,0,-3.728597132,-3.3041184774,0.1407918263\Bq,0,-3.7474
 06046,-3.2759689482,0.1407918263\Bq,0,-3.7697282981,-3.2505152981,0.14
 07918263\Bq,0,-3.7951819482,-3.228193046,0.1407918263\Bq,0,-3.82333147
 74,-3.209384132,0.1407918263\Bq,0,-3.8536952395,-3.1944103816,0.140791
 8263\Bq,0,-3.8857537019,-3.183528,0.1407918263\Bq,0,-3.9189583356,-3.1
 769231877,0.1407918263\Bq,0,-3.952741,-3.1747089549,0.1407918263\Bq,0,
 -3.9865236644,-3.1769231877,0.1407918263\Bq,0,-4.0197282981,-3.183528,
 0.1407918263\Bq,0,-4.0517867605,-3.1944103816,0.1407918263\Bq,0,-4.082
 1505226,-3.209384132,0.1407918263\Bq,0,-4.1103000518,-3.228193046,0.14
 07918263\Bq,0,-4.1357537019,-3.2505152981,0.1407918263\Bq,0,-4.1580759
 54,-3.2759689482,0.1407918263\Bq,0,-4.176884868,-3.3041184774,0.140791
 8263\Bq,0,-4.1918586184,-3.3344822395,0.1407918263\Bq,0,-4.202741,-3.3
 665407019,0.1407918263\Bq,0,-4.2093458123,-3.3997453356,0.1407918263\B
 q,0,-4.2115600451,-3.433528,0.1407918263\Bq,0,-4.2093458123,-3.4673106
 644,0.1407918263\Bq,0,-4.202741,-3.5005152981,0.1407918263\Bq,0,-4.191
 8586184,-3.5325737605,0.1407918263\Bq,0,-4.176884868,-3.5629375226,0.1
 407918263\Bq,0,-4.158075954,-3.5910870518,0.1407918263\Bq,0,-4.1357537
 019,-3.6165407019,0.1407918263\Bq,0,-4.1103000518,-3.638862954,0.14079
 18263\Bq,0,-4.0821505226,-3.657671868,0.1407918263\Bq,0,-4.0517867605,
 -3.6726456184,0.1407918263\Bq,0,-4.0197282981,-3.683528,0.1407918263\B
 q,0,-3.9865236644,-3.6901328123,0.1407918263\Bq,0,-3.952741,-3.6923470
 451,0.1407918263\Bq,0,-3.9189583356,-3.6901328123,0.1407918263\Bq,0,-3
 .8857537019,-3.683528,0.1407918263\Bq,0,-3.8536952395,-3.6726456184,0.
 1407918263\Bq,0,-3.8233314774,-3.657671868,0.1407918263\Bq,0,-3.795181
 9482,-3.638862954,0.1407918263\Bq,0,-3.7697282981,-3.6165407019,0.1407
 918263\Bq,0,-3.747406046,-3.5910870518,0.1407918263\Bq,0,-3.728597132,
 -3.5629375226,0.1407918263\Bq,0,-3.7136233816,-3.5325737605,0.14079182
 63\Bq,0,-3.702741,-3.5005152981,0.1407918263\Bq,0,-3.6961361877,-3.467
 3106644,0.1407918263\Bq,0,-3.5700575676,-3.433528,0.0987455325\Bq,0,-3
 .5733314774,-3.3835777887,0.0987455325\Bq,0,-3.5830971894,-3.334482239
 5,0.0987455325\Bq,0,-3.5991876094,-3.2870813906,0.0987455325\Bq,0,-3.6
 21327426,-3.2421862838,0.0987455325\Bq,0,-3.6491378207,-3.2005650869,0
 .0987455325\Bq,0,-3.6821429499,-3.1629299499,0.0987455325\Bq,0,-3.7197
 780869,-3.1299248207,0.0987455325\Bq,0,-3.7613992838,-3.102114426,0.09
 87455325\Bq,0,-4.1857039131,-3.1299248207,0.0987455325\Bq,0,-4.2233390
 501,-3.1629299499,0.0987455325\Bq,0,-4.2563441793,-3.2005650869,0.0987
 455325\Bq,0,-4.284154574,-3.2421862838,0.0987455325\Bq,0,-4.3062943906
 ,-3.2870813906,0.0987455325\Bq,0,-4.3223848106,-3.3344822395,0.0987455
 325\Bq,0,-4.3321505226,-3.3835777887,0.0987455325\Bq,0,-4.3354244324,-
 3.433528,0.0987455325\Bq,0,-4.3321505226,-3.4834782113,0.0987455325\Bq
 ,0,-4.3223848106,-3.5325737605,0.0987455325\Bq,0,-4.3062943906,-3.5799
 746094,0.0987455325\Bq,0,-4.284154574,-3.6248697162,0.0987455325\Bq,0,
 -4.2563441793,-3.6664909131,0.0987455325\Bq,0,-4.2233390501,-3.7041260
 501,0.0987455325\Bq,0,-4.1857039131,-3.7371311793,0.0987455325\Bq,0,-4
 .1440827162,-3.764941574,0.0987455325\Bq,0,-4.0991876094,-3.7870813906
 ,0.0987455325\Bq,0,-4.0517867605,-3.8031718106,0.0987455325\Bq,0,-4.00
 26912113,-3.8129375226,0.0987455325\Bq,0,-3.952741,-3.8162114324,0.098
 7455325\Bq,0,-3.9027907887,-3.8129375226,0.0987455325\Bq,0,-3.85369523
 95,-3.8031718106,0.0987455325\Bq,0,-3.8062943906,-3.7870813906,0.09874
 55325\Bq,0,-3.7613992838,-3.764941574,0.0987455325\Bq,0,-3.7197780869,
 -3.7371311793,0.0987455325\Bq,0,-3.6821429499,-3.7041260501,0.09874553
 25\Bq,0,-3.6491378207,-3.6664909131,0.0987455325\Bq,0,-3.621327426,-3.
 6248697162,0.0987455325\Bq,0,-3.5991876094,-3.5799746094,0.0987455325\
 Bq,0,-3.5830971894,-3.5325737605,0.0987455325\Bq,0,-3.5733314774,-3.48
 34782113,0.0987455325\Bq,0,-3.452741,-3.433528,0.0408914038\Bq,0,-3.45
 70185693,-3.3682649039,0.0408914038\Bq,0,-3.4697780869,-3.3041184774,0
 .0408914038\Bq,0,-4.3494176701,-3.1291472855,0.0408914038\Bq,0,-4.3857
 537019,-3.183528,0.0408914038\Bq,0,-4.4146807663,-3.2421862838,0.04089
 14038\Bq,0,-4.4357039131,-3.3041184774,0.0408914038\Bq,0,-4.4484634307
 ,-3.3682649039,0.0408914038\Bq,0,-4.452741,-3.433528,0.0408914038\Bq,0
 ,-4.4484634307,-3.4987910961,0.0408914038\Bq,0,-4.4357039131,-3.562937
 5226,0.0408914038\Bq,0,-4.4146807663,-3.6248697162,0.0408914038\Bq,0,-
 4.3857537019,-3.683528,0.0408914038\Bq,0,-4.3494176701,-3.7379087145,0
 .0408914038\Bq,0,-4.3062943906,-3.7870813906,0.0408914038\Bq,0,-4.2571
 217145,-3.8302046701,0.0408914038\Bq,0,-4.202741,-3.8665407019,0.04089
 14038\Bq,0,-4.1440827162,-3.8954677663,0.0408914038\Bq,0,-4.0821505226
 ,-3.9164909131,0.0408914038\Bq,0,-4.0180040961,-3.9292504307,0.0408914
 038\Bq,0,-3.952741,-3.933528,0.0408914038\Bq,0,-3.8874779039,-3.929250
 4307,0.0408914038\Bq,0,-3.8233314774,-3.9164909131,0.0408914038\Bq,0,-
 3.7613992838,-3.8954677663,0.0408914038\Bq,0,-3.702741,-3.8665407019,0
 .0408914038\Bq,0,-3.6483602855,-3.8302046701,0.0408914038\Bq,0,-3.5991
 876094,-3.7870813906,0.0408914038\Bq,0,-3.5560643299,-3.7379087145,0.0
 408914038\Bq,0,-3.5197282981,-3.683528,0.0408914038\Bq,0,-3.4908012337
 ,-3.6248697162,0.0408914038\Bq,0,-3.4697780869,-3.5629375226,0.0408914
 038\Bq,0,-3.4570185693,-3.4987910961,0.0408914038\Bq,0,-3.343979571,-3
 .433528,-0.0317806597\Bq,0,-3.3491876094,-3.3540686887,-0.0317806597\B
 q,0,-4.4357039131,-3.0629375226,-0.0317806597\Bq,0,-4.4799438624,-3.12
 91472855,-0.0317806597\Bq,0,-4.5151632244,-3.2005650869,-0.0317806597\
 Bq,0,-4.5407593863,-3.2759689482,-0.0317806597\Bq,0,-4.5562943906,-3.3
 540686887,-0.0317806597\Bq,0,-4.561502429,-3.433528,-0.0317806597\Bq,0
 ,-4.5562943906,-3.5129873113,-0.0317806597\Bq,0,-4.5407593863,-3.59108
 70518,-0.0317806597\Bq,0,-4.5151632244,-3.6664909131,-0.0317806597\Bq,
 0,-4.4799438624,-3.7379087145,-0.0317806597\Bq,0,-4.4357039131,-3.8041
 184774,-0.0317806597\Bq,0,-4.3832003346,-3.8639873346,-0.0317806597\Bq
 ,0,-4.3233314774,-3.9164909131,-0.0317806597\Bq,0,-4.2571217145,-3.960
 7308624,-0.0317806597\Bq,0,-4.1857039131,-3.9959502244,-0.0317806597\B
 q,0,-4.1103000518,-4.0215463863,-0.0317806597\Bq,0,-4.0322003113,-4.03
 70813906,-0.0317806597\Bq,0,-3.952741,-4.042289429,-0.0317806597\Bq,0,
 -3.8732816887,-4.0370813906,-0.0317806597\Bq,0,-3.7951819482,-4.021546
 3863,-0.0317806597\Bq,0,-3.7197780869,-3.9959502244,-0.0317806597\Bq,0
 ,-3.6483602855,-3.9607308624,-0.0317806597\Bq,0,-3.5821505226,-3.91649
 09131,-0.0317806597\Bq,0,-3.5222816654,-3.8639873346,-0.0317806597\Bq,
 0,-3.4697780869,-3.8041184774,-0.0317806597\Bq,0,-3.4255381376,-3.7379
 087145,-0.0317806597\Bq,0,-3.3903187756,-3.6664909131,-0.0317806597\Bq
 ,0,-3.3647226137,-3.5910870518,-0.0317806597\Bq,0,-3.3491876094,-3.512
 9873113,-0.0317806597\Bq,0,-3.2456342188,-3.433528,-0.1180272188\Bq,0,
 -4.5651134357,-3.0799746094,-0.1180272188\Bq,0,-4.6060224824,-3.162929
 9499,-0.1180272188\Bq,0,-4.6357537019,-3.2505152981,-0.1180272188\Bq,0
 ,-4.6537983846,-3.3412320444,-0.1180272188\Bq,0,-4.6598477812,-3.43352
 8,-0.1180272188\Bq,0,-4.6537983846,-3.5258239556,-0.1180272188\Bq,0,-4
 .6357537019,-3.6165407019,-0.1180272188\Bq,0,-4.6060224824,-3.70412605
 01,-0.1180272188\Bq,0,-4.5651134357,-3.7870813906,-0.1180272188\Bq,0,-
 4.5137265268,-3.8639873346,-0.1180272188\Bq,0,-4.452741,-3.933528,-0.1
 180272188\Bq,0,-4.3832003346,-3.9945135268,-0.1180272188\Bq,0,-4.30629
 43906,-4.0459004357,-0.1180272188\Bq,0,-4.2233390501,-4.0868094824,-0.
 1180272188\Bq,0,-4.1357537019,-4.1165407019,-0.1180272188\Bq,0,-4.0450
 369556,-4.1345853846,-0.1180272188\Bq,0,-3.952741,-4.1406347812,-0.118
 0272188\Bq,0,-3.8604450444,-4.1345853846,-0.1180272188\Bq,0,-3.7697282
 981,-4.1165407019,-0.1180272188\Bq,0,-3.6821429499,-4.0868094824,-0.11
 80272188\Bq,0,-3.5991876094,-4.0459004357,-0.1180272188\Bq,0,-3.522281
 6654,-3.9945135268,-0.1180272188\Bq,0,-3.452741,-3.933528,-0.118027218
 8\Bq,0,-3.3917554732,-3.8639873346,-0.1180272188\Bq,0,-3.3403685643,-3
 .7870813906,-0.1180272188\Bq,0,-3.2994595176,-3.7041260501,-0.11802721
 88\Bq,0,-3.2697282981,-3.6165407019,-0.1180272188\Bq,0,-3.2516836154,-
 3.5258239556,-0.1180272188\Bq,0,-4.6398051469,-3.0368513299,-0.2163725
 71\Bq,0,-4.6857039131,-3.1299248207,-0.216372571\Bq,0,-4.7190614808,-3
 .228193046,-0.216372571\Bq,0,-4.7393070925,-3.3299746094,-0.216372571\
 Bq,0,-4.7460943403,-3.433528,-0.216372571\Bq,0,-4.7393070925,-3.537081
 3906,-0.216372571\Bq,0,-4.7190614808,-3.638862954,-0.216372571\Bq,0,-4
 .6857039131,-3.7371311793,-0.216372571\Bq,0,-4.6398051469,-3.830204670
 1,-0.216372571\Bq,0,-4.5821505226,-3.9164909131,-0.216372571\Bq,0,-4.5
 137265268,-3.9945135268,-0.216372571\Bq,0,-4.4357039131,-4.0629375226,
 -0.216372571\Bq,0,-4.3494176701,-4.1205921469,-0.216372571\Bq,0,-4.256
 3441793,-4.1664909131,-0.216372571\Bq,0,-4.158075954,-4.1998484808,-0.
 216372571\Bq,0,-4.0562943906,-4.2200940925,-0.216372571\Bq,0,-3.952741
 ,-4.2268813403,-0.216372571\Bq,0,-3.8491876094,-4.2200940925,-0.216372
 571\Bq,0,-3.747406046,-4.1998484808,-0.216372571\Bq,0,-3.6491378207,-4
 .1664909131,-0.216372571\Bq,0,-3.5560643299,-4.1205921469,-0.216372571
 \Bq,0,-3.4697780869,-4.0629375226,-0.216372571\Bq,0,-3.3917554732,-3.9
 945135268,-0.216372571\\Version=ES64L-G09RevD.01\HF=-847.0037387\RMSD=
 4.034e-09\Dipole=0.0000004,0.0287843,0.0000009\Quadrupole=4.8545288,4.
 8066247,-9.6611535,-0.0000047,-3.6219991,-0.000002\PG=C01 [X(C22H14)]\
 \@


     SCHOPENHAUER'S LAW OF ENTROPY
 IF YOU PUT A SPOONFUL OF WINE IN A BARREL FULL
 OF SEWAGE, YOU GET SEWAGE.
 IF YOU PUT A SPOONFUL OF SEWAGE IN A BARREL FULL
 OF WINE, YOU GET SEWAGE.
 Job cpu time:       0 days  1 hours 16 minutes  2.5 seconds.
 File lengths (MBytes):  RWF=    184 Int=      0 D2E=      0 Chk=     21 Scr=      1
 Normal termination of Gaussian 09 at Tue Sep 15 13:06:33 2020.
