 Entering Gaussian System, Link 0=g09
 Initial command:
 /share/programs/GAUSSIAN/64/g09/l1.exe "/scratch/yannick.29294/Gau-1160976.inp" -scrdir="/scratch/yannick.29294/"
 Entering Link 1 = /share/programs/GAUSSIAN/64/g09/l1.exe PID=   1160977.
  
 Copyright (c) 1988,1990,1992,1993,1995,1998,2003,2009,2013,
            Gaussian, Inc.  All Rights Reserved.
  
 This is part of the Gaussian(R) 09 program.  It is based on
 the Gaussian(R) 03 system (copyright 2003, Gaussian, Inc.),
 the Gaussian(R) 98 system (copyright 1998, Gaussian, Inc.),
 the Gaussian(R) 94 system (copyright 1995, Gaussian, Inc.),
 the Gaussian 92(TM) system (copyright 1992, Gaussian, Inc.),
 the Gaussian 90(TM) system (copyright 1990, Gaussian, Inc.),
 the Gaussian 88(TM) system (copyright 1988, Gaussian, Inc.),
 the Gaussian 86(TM) system (copyright 1986, Carnegie Mellon
 University), and the Gaussian 82(TM) system (copyright 1983,
 Carnegie Mellon University). Gaussian is a federally registered
 trademark of Gaussian, Inc.
  
 This software contains proprietary and confidential information,
 including trade secrets, belonging to Gaussian, Inc.
  
 This software is provided under written license and may be
 used, copied, transmitted, or stored only in accord with that
 written license.
  
 The following legend is applicable only to US Government
 contracts under FAR:
  
                    RESTRICTED RIGHTS LEGEND
  
 Use, reproduction and disclosure by the US Government is
 subject to restrictions as set forth in subparagraphs (a)
 and (c) of the Commercial Computer Software - Restricted
 Rights clause in FAR 52.227-19.
  
 Gaussian, Inc.
 340 Quinnipiac St., Bldg. 40, Wallingford CT 06492
  
  
 ---------------------------------------------------------------
 Warning -- This program may not be used in any manner that
 competes with the business of Gaussian, Inc. or will provide
 assistance to any competitor of Gaussian, Inc.  The licensee
 of this program is prohibited from giving any competitor of
 Gaussian, Inc. access to this program.  By using this program,
 the user acknowledges that Gaussian, Inc. is engaged in the
 business of creating and licensing software in the field of
 computational chemistry and represents and warrants to the
 licensee that it is not a competitor of Gaussian, Inc. and that
 it will not use this program in any manner prohibited above.
 ---------------------------------------------------------------
  

 Cite this work as:
 Gaussian 09, Revision D.01,
 M. J. Frisch, G. W. Trucks, H. B. Schlegel, G. E. Scuseria, 
 M. A. Robb, J. R. Cheeseman, G. Scalmani, V. Barone, B. Mennucci, 
 G. A. Petersson, H. Nakatsuji, M. Caricato, X. Li, H. P. Hratchian, 
 A. F. Izmaylov, J. Bloino, G. Zheng, J. L. Sonnenberg, M. Hada, 
 M. Ehara, K. Toyota, R. Fukuda, J. Hasegawa, M. Ishida, T. Nakajima, 
 Y. Honda, O. Kitao, H. Nakai, T. Vreven, J. A. Montgomery, Jr., 
 J. E. Peralta, F. Ogliaro, M. Bearpark, J. J. Heyd, E. Brothers, 
 K. N. Kudin, V. N. Staroverov, T. Keith, R. Kobayashi, J. Normand, 
 K. Raghavachari, A. Rendell, J. C. Burant, S. S. Iyengar, J. Tomasi, 
 M. Cossi, N. Rega, J. M. Millam, M. Klene, J. E. Knox, J. B. Cross, 
 V. Bakken, C. Adamo, J. Jaramillo, R. Gomperts, R. E. Stratmann, 
 O. Yazyev, A. J. Austin, R. Cammi, C. Pomelli, J. W. Ochterski, 
 R. L. Martin, K. Morokuma, V. G. Zakrzewski, G. A. Voth, 
 P. Salvador, J. J. Dannenberg, S. Dapprich, A. D. Daniels, 
 O. Farkas, J. B. Foresman, J. V. Ortiz, J. Cioslowski, 
 and D. J. Fox, Gaussian, Inc., Wallingford CT, 2013.
 
 ******************************************
 Gaussian 09:  ES64L-G09RevD.01 24-Apr-2013
                19-Aug-2020 
 ******************************************
 %nproc=8
 Will use up to    8 processors via shared memory.
 %mem=1000MB
 ----------------------------------------
 # rb3lyp/6-311+g** NMR geom=connectivity
 ----------------------------------------
 1/38=1,57=2/1;
 2/12=2,17=6,18=5,40=1/2;
 3/5=4,6=6,7=111,11=2,16=1,25=1,30=1,74=-5,116=1/1,2,8,3;
 4//1;
 5/5=2,38=5/2;
 8/6=1,10=90,11=11/1;
 10/13=100,45=16/2;
 6/7=2,8=2,9=2,10=2,28=1/1;
 99/9=1/99;
 -----
 Title
 -----
 Symbolic Z-matrix:
 Charge =  0 Multiplicity = 1
 C                    -4.05006  -0.57719   0.81367 
 H                    -5.02638  -1.00827   1.00248 
 C                    -3.93816   0.66178   0.24009 
 H                    -4.82524   1.23389  -0.01113 
 C                    -2.67684   1.24332   0.00576 
 C                    -1.49741   0.50515   0.28483 
 C                    -1.65083  -0.73387   0.9404 
 H                    -0.77136  -1.2731    1.26338 
 C                    -2.88985  -1.2624    1.19943 
 H                    -2.96837  -2.21246   1.71527 
 C                    -2.57732   2.59637  -0.41929 
 H                    -3.48707   3.14122  -0.64741 
 C                    -1.37419   3.21479  -0.4364 
 H                    -1.29973   4.2742   -0.65781 
 C                    -0.17195   2.49941  -0.17346 
 C                    -0.20439   1.10184   0.01927 
 C                     1.05135   3.20426  -0.06762 
 H                     1.04273   4.28195  -0.1897 
 C                     2.19421   2.54874   0.25796 
 H                     3.11685   3.09128   0.43347 
 C                     2.22165   1.13366   0.2935 
 C                     1.04869   0.39455   0.03024 
 C                     3.44834   0.46146   0.55739 
 H                     4.30958   1.06061   0.83348 
 C                     3.54273  -0.88559   0.47495 
 H                     4.47315  -1.39397   0.70388 
 C                     2.44901  -1.64744  -0.01963 
 C                     1.21507  -1.00573  -0.30136 
 C                     0.25311  -1.74344  -1.02166 
 H                    -0.65414  -1.25351  -1.34628 
 C                     0.44942  -3.06286  -1.34138 
 H                    -0.30832  -3.59443  -1.90541 
 C                     1.62517  -3.7208   -0.95525 
 H                     1.767    -4.76874  -1.1927 
 C                     2.61099  -3.01442  -0.31831 
 H                     3.55256  -3.49028  -0.06464 
 Bq                   -0.73746  -1.91828   1.50188 
 Bq                   -0.73738  -1.87325   1.48014 
 Bq                   -0.73729  -1.82823   1.4584 
 Bq                   -0.73721  -1.7832    1.43666 
 Bq                   -0.73712  -1.73818   1.41492 
 Bq                   -0.73704  -1.69315   1.39318 
 Bq                   -0.73695  -1.64813   1.37144 
 Bq                   -0.73687  -1.6031    1.3497 
 Bq                   -0.73678  -1.55807   1.32795 
 Bq                   -0.73669  -1.51305   1.30621 
 Bq                   -0.73661  -1.46802   1.28447 
 Bq                   -0.73652  -1.423     1.26273 
 Bq                   -0.73644  -1.37797   1.24099 
 Bq                   -0.73635  -1.33295   1.21925 
 Bq                   -0.73627  -1.28792   1.19751 
 Bq                   -0.73618  -1.24289   1.17577 
 Bq                   -0.7361   -1.19787   1.15403 
 Bq                   -0.73601  -1.15284   1.13228 
 Bq                   -0.73593  -1.10782   1.11054 
 Bq                   -0.73584  -1.06279   1.0888 
 Bq                   -0.73575  -1.01777   1.06706 
 Bq                   -0.73567  -0.97274   1.04532 
 Bq                   -0.73558  -0.92771   1.02358 
 Bq                   -0.7355   -0.88269   1.00184 
 Bq                   -0.73541  -0.83766   0.9801 
 Bq                   -0.73533  -0.79264   0.95835 
 Bq                   -0.73524  -0.74761   0.93661 
 Bq                   -0.73516  -0.70259   0.91487 
 Bq                   -0.73507  -0.65756   0.89313 
 Bq                   -0.73499  -0.61253   0.87139 
 Bq                   -0.7349   -0.56751   0.84965 
 Bq                   -0.73481  -0.52248   0.82791 
 Bq                   -0.73473  -0.47746   0.80617 
 Bq                   -0.73464  -0.43243   0.78443 
 Bq                   -0.73456  -0.38741   0.76268 
 Bq                   -0.73447  -0.34238   0.74094 
 Bq                   -0.73439  -0.29735   0.7192 
 Bq                   -0.7343   -0.25233   0.69746 
 Bq                   -0.73422  -0.2073    0.67572 
 Bq                   -0.73413  -0.16228   0.65398 
 Bq                   -0.73405  -0.11725   0.63224 
 Bq                   -0.73396  -0.07223   0.6105 
 Bq                   -0.73387  -0.0272    0.58875 
 Bq                   -0.73379   0.01782   0.56701 
 Bq                   -0.7337    0.06285   0.54527 
 Bq                   -0.73362   0.10788   0.52353 
 Bq                   -0.73353   0.1529    0.50179 
 Bq                   -0.73345   0.19793   0.48005 
 Bq                   -0.73336   0.24295   0.45831 
 Bq                   -0.73328   0.28798   0.43657 
 Bq                   -0.73319   0.333     0.41482 
 Bq                   -0.73311   0.37803   0.39308 
 Bq                   -0.73302   0.42306   0.37134 
 Bq                   -0.73293   0.46808   0.3496 
 Bq                   -0.73285   0.51311   0.32786 
 Bq                   -0.73276   0.55813   0.30612 
 Bq                   -0.73268   0.60316   0.28438 
 Bq                   -0.73259   0.64818   0.26264 
 Bq                   -0.73251   0.69321   0.2409 
 Bq                   -0.73242   0.73824   0.21915 
 Bq                   -0.73234   0.78326   0.19741 
 Bq                   -0.73225   0.82829   0.17567 
 Bq                   -0.73217   0.87331   0.15393 
 Bq                   -0.73208   0.91834   0.13219 
 Bq                   -0.73199   0.96336   0.11045 
 Bq                   -0.73191   1.00839   0.08871 
 Bq                   -0.73182   1.05342   0.06697 
 Bq                   -0.73174   1.09844   0.04522 
 Bq                   -0.73165   1.14347   0.02348 
 Bq                   -0.73157   1.18849   0.00174 
 Bq                   -0.73148   1.23352  -0.02 
 Bq                   -0.7314    1.27854  -0.04174 
 Bq                   -0.73131   1.32357  -0.06348 
 Bq                   -0.73123   1.3686   -0.08522 
 Bq                   -0.73114   1.41362  -0.10696 
 Bq                   -0.73105   1.45865  -0.1287 
 Bq                   -0.73097   1.50367  -0.15045 
 Bq                   -0.73088   1.5487   -0.17219 
 Bq                   -0.7308    1.59372  -0.19393 
 Bq                   -0.73071   1.63875  -0.21567 
 Bq                   -0.73063   1.68378  -0.23741 
 Bq                   -0.73054   1.7288   -0.25915 
 Bq                   -0.73046   1.77383  -0.28089 
 Bq                   -0.73037   1.81885  -0.30263 
 Bq                   -0.73028   1.86388  -0.32438 
 Bq                   -0.7302    1.9089   -0.34612 
 Bq                   -0.73011   1.95393  -0.36786 
 Bq                   -0.73003   1.99896  -0.3896 
 Bq                   -0.72994   2.04398  -0.41134 
 Bq                   -0.72986   2.08901  -0.43308 
 Bq                   -0.72977   2.13403  -0.45482 
 Bq                   -0.72969   2.17906  -0.47656 
 Bq                   -0.7296    2.22408  -0.49831 
 Bq                   -0.68815  -2.27849   1.67601 
 Bq                   -0.68806  -2.23346   1.65427 
 Bq                   -0.68798  -2.18843   1.63253 
 Bq                   -0.68789  -2.14341   1.61079 
 Bq                   -0.68781  -2.09838   1.58905 
 Bq                   -0.68772  -2.05336   1.5673 
 Bq                   -0.68764  -2.00833   1.54556 
 Bq                   -0.68755  -1.96331   1.52382 
 Bq                   -0.68746  -1.91828   1.50208 
 Bq                   -0.68738  -1.87325   1.48034 
 Bq                   -0.68729  -1.82823   1.4586 
 Bq                   -0.68721  -1.7832    1.43686 
 Bq                   -0.68712  -1.73818   1.41512 
 Bq                   -0.68704  -1.69315   1.39338 
 Bq                   -0.68695  -1.64813   1.37163 
 Bq                   -0.68687  -1.6031    1.34989 
 Bq                   -0.68678  -1.55807   1.32815 
 Bq                   -0.6867   -1.51305   1.30641 
 Bq                   -0.68661  -1.46802   1.28467 
 Bq                   -0.68652  -1.423     1.26293 
 Bq                   -0.68644  -1.37797   1.24119 
 Bq                   -0.68635  -1.33295   1.21945 
 Bq                   -0.68627  -1.28792   1.1977 
 Bq                   -0.68618  -1.24289   1.17596 
 Bq                   -0.6861   -1.19787   1.15422 
 Bq                   -0.68601  -1.15284   1.13248 
 Bq                   -0.68593  -1.10782   1.11074 
 Bq                   -0.68584  -1.06279   1.089 
 Bq                   -0.68576  -1.01777   1.06726 
 Bq                   -0.68567  -0.97274   1.04552 
 Bq                   -0.68558  -0.92771   1.02377 
 Bq                   -0.6855   -0.88269   1.00203 
 Bq                   -0.68541  -0.83766   0.98029 
 Bq                   -0.68533  -0.79264   0.95855 
 Bq                   -0.68524  -0.74761   0.93681 
 Bq                   -0.68516  -0.70259   0.91507 
 Bq                   -0.68507  -0.65756   0.89333 
 Bq                   -0.68499  -0.61253   0.87159 
 Bq                   -0.6849   -0.56751   0.84985 
 Bq                   -0.68482  -0.52248   0.8281 
 Bq                   -0.68473  -0.47746   0.80636 
 Bq                   -0.68464  -0.43243   0.78462 
 Bq                   -0.68456  -0.38741   0.76288 
 Bq                   -0.68447  -0.34238   0.74114 
 Bq                   -0.68439  -0.29735   0.7194 
 Bq                   -0.6843   -0.25233   0.69766 
 Bq                   -0.68422  -0.2073    0.67592 
 Bq                   -0.68413  -0.16228   0.65417 
 Bq                   -0.68405  -0.11725   0.63243 
 Bq                   -0.68396  -0.07223   0.61069 
 Bq                   -0.68387  -0.0272    0.58895 
 Bq                   -0.68379   0.01782   0.56721 
 Bq                   -0.6837    0.06285   0.54547 
 Bq                   -0.68362   0.10788   0.52373 
 Bq                   -0.68353   0.1529    0.50199 
 Bq                   -0.68345   0.19793   0.48025 
 Bq                   -0.68336   0.24295   0.4585 
 Bq                   -0.68328   0.28798   0.43676 
 Bq                   -0.68319   0.333     0.41502 
 Bq                   -0.68311   0.37803   0.39328 
 Bq                   -0.68302   0.42306   0.37154 
 Bq                   -0.68293   0.46808   0.3498 
 Bq                   -0.68285   0.51311   0.32806 
 Bq                   -0.68276   0.55813   0.30632 
 Bq                   -0.68268   0.60316   0.28457 
 Bq                   -0.68259   0.64818   0.26283 
 Bq                   -0.68251   0.69321   0.24109 
 Bq                   -0.68242   0.73824   0.21935 
 Bq                   -0.68234   0.78326   0.19761 
 Bq                   -0.68225   0.82829   0.17587 
 Bq                   -0.68217   0.87331   0.15413 
 Bq                   -0.68208   0.91834   0.13239 
 Bq                   -0.68199   0.96336   0.11064 
 Bq                   -0.68191   1.00839   0.0889 
 Bq                   -0.68182   1.05342   0.06716 
 Bq                   -0.68174   1.09844   0.04542 
 Bq                   -0.68165   1.14347   0.02368 
 Bq                   -0.68157   1.18849   0.00194 
 Bq                   -0.68148   1.23352  -0.0198 
 Bq                   -0.6814    1.27854  -0.04154 
 Bq                   -0.68131   1.32357  -0.06328 
 Bq                   -0.68123   1.3686   -0.08503 
 Bq                   -0.68114   1.41362  -0.10677 
 Bq                   -0.68105   1.45865  -0.12851 
 Bq                   -0.68097   1.50367  -0.15025 
 Bq                   -0.68088   1.5487   -0.17199 
 Bq                   -0.6808    1.59372  -0.19373 
 Bq                   -0.68071   1.63875  -0.21547 
 Bq                   -0.68063   1.68378  -0.23721 
 Bq                   -0.68054   1.7288   -0.25896 
 Bq                   -0.68046   1.77383  -0.2807 
 Bq                   -0.68037   1.81885  -0.30244 
 Bq                   -0.68029   1.86388  -0.32418 
 Bq                   -0.6802    1.9089   -0.34592 
 Bq                   -0.68011   1.95393  -0.36766 
 Bq                   -0.68003   1.99896  -0.3894 
 Bq                   -0.67994   2.04398  -0.41114 
 Bq                   -0.67986   2.08901  -0.43288 
 Bq                   -0.67977   2.13403  -0.45463 
 Bq                   -0.67969   2.17906  -0.47637 
 Bq                   -0.6796    2.22408  -0.49811 
 Bq                   -0.63815  -2.27849   1.67621 
 Bq                   -0.63806  -2.23346   1.65447 
 Bq                   -0.63798  -2.18843   1.63272 
 Bq                   -0.63789  -2.14341   1.61098 
 Bq                   -0.63781  -2.09838   1.58924 
 Bq                   -0.63772  -2.05336   1.5675 
 
 Symmetry turned off:
 Cannot cope with ghost atoms or with translation vectors.
 Stoichiometry    C22H14
 Framework group  C1[X(C22H14)]
 NUMDOF-- NAT=    36 NAtoms=   236
 Deg. of freedom     0
 Full point group                 C1      NOp   1
                          Input orientation:                          
 ---------------------------------------------------------------------
 Center     Atomic      Atomic             Coordinates (Angstroms)
 Number     Number       Type             X           Y           Z
 ---------------------------------------------------------------------
      1          6           0       -4.050056   -0.577186    0.813671
      2          1           0       -5.026380   -1.008273    1.002476
      3          6           0       -3.938155    0.661780    0.240088
      4          1           0       -4.825242    1.233889   -0.011130
      5          6           0       -2.676841    1.243325    0.005758
      6          6           0       -1.497412    0.505153    0.284825
      7          6           0       -1.650833   -0.733873    0.940403
      8          1           0       -0.771365   -1.273097    1.263375
      9          6           0       -2.889855   -1.262404    1.199431
     10          1           0       -2.968371   -2.212456    1.715268
     11          6           0       -2.577319    2.596370   -0.419293
     12          1           0       -3.487073    3.141224   -0.647406
     13          6           0       -1.374190    3.214790   -0.436403
     14          1           0       -1.299732    4.274202   -0.657814
     15          6           0       -0.171949    2.499409   -0.173459
     16          6           0       -0.204392    1.101844    0.019269
     17          6           0        1.051349    3.204256   -0.067622
     18          1           0        1.042734    4.281950   -0.189700
     19          6           0        2.194209    2.548745    0.257958
     20          1           0        3.116853    3.091285    0.433473
     21          6           0        2.221647    1.133656    0.293499
     22          6           0        1.048693    0.394553    0.030241
     23          6           0        3.448336    0.461463    0.557394
     24          1           0        4.309579    1.060605    0.833485
     25          6           0        3.542735   -0.885593    0.474946
     26          1           0        4.473147   -1.393970    0.703882
     27          6           0        2.449005   -1.647445   -0.019632
     28          6           0        1.215070   -1.005726   -0.301357
     29          6           0        0.253111   -1.743444   -1.021659
     30          1           0       -0.654136   -1.253505   -1.346285
     31          6           0        0.449419   -3.062860   -1.341378
     32          1           0       -0.308316   -3.594431   -1.905406
     33          6           0        1.625173   -3.720797   -0.955254
     34          1           0        1.767005   -4.768740   -1.192702
     35          6           0        2.610987   -3.014418   -0.318305
     36          1           0        3.552561   -3.490281   -0.064637
     37          0           0       -0.737464   -1.918280    1.501884
     38          0           0       -0.737379   -1.873254    1.480143
     39          0           0       -0.737293   -1.828229    1.458402
     40          0           0       -0.737208   -1.783203    1.436661
     41          0           0       -0.737122   -1.738177    1.414920
     42          0           0       -0.737037   -1.693152    1.393179
     43          0           0       -0.736951   -1.648126    1.371437
     44          0           0       -0.736866   -1.603100    1.349696
     45          0           0       -0.736780   -1.558074    1.327955
     46          0           0       -0.736695   -1.513049    1.306214
     47          0           0       -0.736609   -1.468023    1.284473
     48          0           0       -0.736524   -1.422997    1.262731
     49          0           0       -0.736439   -1.377972    1.240990
     50          0           0       -0.736353   -1.332946    1.219249
     51          0           0       -0.736268   -1.287920    1.197508
     52          0           0       -0.736182   -1.242895    1.175767
     53          0           0       -0.736097   -1.197869    1.154025
     54          0           0       -0.736011   -1.152843    1.132284
     55          0           0       -0.735926   -1.107818    1.110543
     56          0           0       -0.735840   -1.062792    1.088802
     57          0           0       -0.735755   -1.017766    1.067061
     58          0           0       -0.735669   -0.972740    1.045319
     59          0           0       -0.735584   -0.927715    1.023578
     60          0           0       -0.735498   -0.882689    1.001837
     61          0           0       -0.735413   -0.837663    0.980096
     62          0           0       -0.735327   -0.792638    0.958355
     63          0           0       -0.735242   -0.747612    0.936614
     64          0           0       -0.735157   -0.702586    0.914872
     65          0           0       -0.735071   -0.657561    0.893131
     66          0           0       -0.734986   -0.612535    0.871390
     67          0           0       -0.734900   -0.567509    0.849649
     68          0           0       -0.734815   -0.522483    0.827908
     69          0           0       -0.734729   -0.477458    0.806166
     70          0           0       -0.734644   -0.432432    0.784425
     71          0           0       -0.734558   -0.387406    0.762684
     72          0           0       -0.734473   -0.342381    0.740943
     73          0           0       -0.734387   -0.297355    0.719202
     74          0           0       -0.734302   -0.252329    0.697460
     75          0           0       -0.734216   -0.207304    0.675719
     76          0           0       -0.734131   -0.162278    0.653978
     77          0           0       -0.734045   -0.117252    0.632237
     78          0           0       -0.733960   -0.072226    0.610496
     79          0           0       -0.733875   -0.027201    0.588754
     80          0           0       -0.733789    0.017825    0.567013
     81          0           0       -0.733704    0.062851    0.545272
     82          0           0       -0.733618    0.107876    0.523531
     83          0           0       -0.733533    0.152902    0.501790
     84          0           0       -0.733447    0.197928    0.480049
     85          0           0       -0.733362    0.242953    0.458307
     86          0           0       -0.733276    0.287979    0.436566
     87          0           0       -0.733191    0.333005    0.414825
     88          0           0       -0.733105    0.378030    0.393084
     89          0           0       -0.733020    0.423056    0.371343
     90          0           0       -0.732934    0.468082    0.349601
     91          0           0       -0.732849    0.513108    0.327860
     92          0           0       -0.732763    0.558133    0.306119
     93          0           0       -0.732678    0.603159    0.284378
     94          0           0       -0.732593    0.648185    0.262637
     95          0           0       -0.732507    0.693210    0.240895
     96          0           0       -0.732422    0.738236    0.219154
     97          0           0       -0.732336    0.783262    0.197413
     98          0           0       -0.732251    0.828287    0.175672
     99          0           0       -0.732165    0.873313    0.153931
    100          0           0       -0.732080    0.918339    0.132189
    101          0           0       -0.731994    0.963365    0.110448
    102          0           0       -0.731909    1.008390    0.088707
    103          0           0       -0.731823    1.053416    0.066966
    104          0           0       -0.731738    1.098442    0.045225
    105          0           0       -0.731652    1.143467    0.023484
    106          0           0       -0.731567    1.188493    0.001742
    107          0           0       -0.731481    1.233519   -0.019999
    108          0           0       -0.731396    1.278544   -0.041740
    109          0           0       -0.731311    1.323570   -0.063481
    110          0           0       -0.731225    1.368596   -0.085222
    111          0           0       -0.731140    1.413621   -0.106964
    112          0           0       -0.731054    1.458647   -0.128705
    113          0           0       -0.730969    1.503673   -0.150446
    114          0           0       -0.730883    1.548699   -0.172187
    115          0           0       -0.730798    1.593724   -0.193928
    116          0           0       -0.730712    1.638750   -0.215670
    117          0           0       -0.730627    1.683776   -0.237411
    118          0           0       -0.730541    1.728801   -0.259152
    119          0           0       -0.730456    1.773827   -0.280893
    120          0           0       -0.730370    1.818853   -0.302634
    121          0           0       -0.730285    1.863878   -0.324376
    122          0           0       -0.730199    1.908904   -0.346117
    123          0           0       -0.730114    1.953930   -0.367858
    124          0           0       -0.730029    1.998956   -0.389599
    125          0           0       -0.729943    2.043981   -0.411340
    126          0           0       -0.729858    2.089007   -0.433081
    127          0           0       -0.729772    2.134033   -0.454823
    128          0           0       -0.729687    2.179058   -0.476564
    129          0           0       -0.729601    2.224084   -0.498305
    130          0           0       -0.688148   -2.278486    1.676011
    131          0           0       -0.688063   -2.233460    1.654269
    132          0           0       -0.687977   -2.188434    1.632528
    133          0           0       -0.687892   -2.143409    1.610787
    134          0           0       -0.687806   -2.098383    1.589046
    135          0           0       -0.687721   -2.053357    1.567305
    136          0           0       -0.687635   -2.008331    1.545563
    137          0           0       -0.687550   -1.963306    1.523822
    138          0           0       -0.687464   -1.918280    1.502081
    139          0           0       -0.687379   -1.873254    1.480340
    140          0           0       -0.687294   -1.828229    1.458599
    141          0           0       -0.687208   -1.783203    1.436857
    142          0           0       -0.687123   -1.738177    1.415116
    143          0           0       -0.687037   -1.693152    1.393375
    144          0           0       -0.686952   -1.648126    1.371634
    145          0           0       -0.686866   -1.603100    1.349893
    146          0           0       -0.686781   -1.558074    1.328152
    147          0           0       -0.686695   -1.513049    1.306410
    148          0           0       -0.686610   -1.468023    1.284669
    149          0           0       -0.686524   -1.422997    1.262928
    150          0           0       -0.686439   -1.377972    1.241187
    151          0           0       -0.686353   -1.332946    1.219446
    152          0           0       -0.686268   -1.287920    1.197704
    153          0           0       -0.686182   -1.242895    1.175963
    154          0           0       -0.686097   -1.197869    1.154222
    155          0           0       -0.686012   -1.152843    1.132481
    156          0           0       -0.685926   -1.107818    1.110740
    157          0           0       -0.685841   -1.062792    1.088998
    158          0           0       -0.685755   -1.017766    1.067257
    159          0           0       -0.685670   -0.972740    1.045516
    160          0           0       -0.685584   -0.927715    1.023775
    161          0           0       -0.685499   -0.882689    1.002034
    162          0           0       -0.685413   -0.837663    0.980292
    163          0           0       -0.685328   -0.792638    0.958551
    164          0           0       -0.685242   -0.747612    0.936810
    165          0           0       -0.685157   -0.702586    0.915069
    166          0           0       -0.685071   -0.657561    0.893328
    167          0           0       -0.684986   -0.612535    0.871587
    168          0           0       -0.684901   -0.567509    0.849845
    169          0           0       -0.684815   -0.522483    0.828104
    170          0           0       -0.684730   -0.477458    0.806363
    171          0           0       -0.684644   -0.432432    0.784622
    172          0           0       -0.684559   -0.387406    0.762881
    173          0           0       -0.684473   -0.342381    0.741139
    174          0           0       -0.684388   -0.297355    0.719398
    175          0           0       -0.684302   -0.252329    0.697657
    176          0           0       -0.684217   -0.207304    0.675916
    177          0           0       -0.684131   -0.162278    0.654175
    178          0           0       -0.684046   -0.117252    0.632433
    179          0           0       -0.683960   -0.072226    0.610692
    180          0           0       -0.683875   -0.027201    0.588951
    181          0           0       -0.683789    0.017825    0.567210
    182          0           0       -0.683704    0.062851    0.545469
    183          0           0       -0.683619    0.107876    0.523727
    184          0           0       -0.683533    0.152902    0.501986
    185          0           0       -0.683448    0.197928    0.480245
    186          0           0       -0.683362    0.242953    0.458504
    187          0           0       -0.683277    0.287979    0.436763
    188          0           0       -0.683191    0.333005    0.415022
    189          0           0       -0.683106    0.378030    0.393280
    190          0           0       -0.683020    0.423056    0.371539
    191          0           0       -0.682935    0.468082    0.349798
    192          0           0       -0.682849    0.513108    0.328057
    193          0           0       -0.682764    0.558133    0.306316
    194          0           0       -0.682678    0.603159    0.284574
    195          0           0       -0.682593    0.648185    0.262833
    196          0           0       -0.682507    0.693210    0.241092
    197          0           0       -0.682422    0.738236    0.219351
    198          0           0       -0.682337    0.783262    0.197610
    199          0           0       -0.682251    0.828287    0.175868
    200          0           0       -0.682166    0.873313    0.154127
    201          0           0       -0.682080    0.918339    0.132386
    202          0           0       -0.681995    0.963365    0.110645
    203          0           0       -0.681909    1.008390    0.088904
    204          0           0       -0.681824    1.053416    0.067162
    205          0           0       -0.681738    1.098442    0.045421
    206          0           0       -0.681653    1.143467    0.023680
    207          0           0       -0.681567    1.188493    0.001939
    208          0           0       -0.681482    1.233519   -0.019802
    209          0           0       -0.681396    1.278544   -0.041543
    210          0           0       -0.681311    1.323570   -0.063285
    211          0           0       -0.681225    1.368596   -0.085026
    212          0           0       -0.681140    1.413621   -0.106767
    213          0           0       -0.681055    1.458647   -0.128508
    214          0           0       -0.680969    1.503673   -0.150249
    215          0           0       -0.680884    1.548699   -0.171991
    216          0           0       -0.680798    1.593724   -0.193732
    217          0           0       -0.680713    1.638750   -0.215473
    218          0           0       -0.680627    1.683776   -0.237214
    219          0           0       -0.680542    1.728801   -0.258955
    220          0           0       -0.680456    1.773827   -0.280697
    221          0           0       -0.680371    1.818853   -0.302438
    222          0           0       -0.680285    1.863878   -0.324179
    223          0           0       -0.680200    1.908904   -0.345920
    224          0           0       -0.680114    1.953930   -0.367661
    225          0           0       -0.680029    1.998956   -0.389403
    226          0           0       -0.679943    2.043981   -0.411144
    227          0           0       -0.679858    2.089007   -0.432885
    228          0           0       -0.679773    2.134033   -0.454626
    229          0           0       -0.679687    2.179058   -0.476367
    230          0           0       -0.679602    2.224084   -0.498108
    231          0           0       -0.638149   -2.278486    1.676207
    232          0           0       -0.638063   -2.233460    1.654466
    233          0           0       -0.637978   -2.188434    1.632725
    234          0           0       -0.637892   -2.143409    1.610984
    235          0           0       -0.637807   -2.098383    1.589242
    236          0           0       -0.637721   -2.053357    1.567501
 ---------------------------------------------------------------------
 Rotational constants (GHZ):      0.4529074      0.2836956      0.1879557
 Standard basis: 6-311+G(d,p) (5D, 7F)
 Warning:  center  37 has no basis functions!
 Warning:  center  38 has no basis functions!
 Warning:  center  39 has no basis functions!
 Warning:  center  40 has no basis functions!
 Warning:  center  41 has no basis functions!
 Warning:  center  42 has no basis functions!
 Warning:  center  43 has no basis functions!
 Warning:  center  44 has no basis functions!
 Warning:  center  45 has no basis functions!
 Warning:  center  46 has no basis functions!
 Warning:  center  47 has no basis functions!
 Warning:  center  48 has no basis functions!
 Warning:  center  49 has no basis functions!
 Warning:  center  50 has no basis functions!
 Warning:  center  51 has no basis functions!
 Warning:  center  52 has no basis functions!
 Warning:  center  53 has no basis functions!
 Warning:  center  54 has no basis functions!
 Warning:  center  55 has no basis functions!
 Warning:  center  56 has no basis functions!
 Warning:  center  57 has no basis functions!
 Warning:  center  58 has no basis functions!
 Warning:  center  59 has no basis functions!
 Warning:  center  60 has no basis functions!
 Warning:  center  61 has no basis functions!
 Warning:  center  62 has no basis functions!
 Warning:  center  63 has no basis functions!
 Warning:  center  64 has no basis functions!
 Warning:  center  65 has no basis functions!
 Warning:  center  66 has no basis functions!
 Warning:  center  67 has no basis functions!
 Warning:  center  68 has no basis functions!
 Warning:  center  69 has no basis functions!
 Warning:  center  70 has no basis functions!
 Warning:  center  71 has no basis functions!
 Warning:  center  72 has no basis functions!
 Warning:  center  73 has no basis functions!
 Warning:  center  74 has no basis functions!
 Warning:  center  75 has no basis functions!
 Warning:  center  76 has no basis functions!
 Warning:  center  77 has no basis functions!
 Warning:  center  78 has no basis functions!
 Warning:  center  79 has no basis functions!
 Warning:  center  80 has no basis functions!
 Warning:  center  81 has no basis functions!
 Warning:  center  82 has no basis functions!
 Warning:  center  83 has no basis functions!
 Warning:  center  84 has no basis functions!
 Warning:  center  85 has no basis functions!
 Warning:  center  86 has no basis functions!
 Warning:  center  87 has no basis functions!
 Warning:  center  88 has no basis functions!
 Warning:  center  89 has no basis functions!
 Warning:  center  90 has no basis functions!
 Warning:  center  91 has no basis functions!
 Warning:  center  92 has no basis functions!
 Warning:  center  93 has no basis functions!
 Warning:  center  94 has no basis functions!
 Warning:  center  95 has no basis functions!
 Warning:  center  96 has no basis functions!
 Warning:  center  97 has no basis functions!
 Warning:  center  98 has no basis functions!
 Warning:  center  99 has no basis functions!
 Warning:  center 100 has no basis functions!
 Warning:  center 101 has no basis functions!
 Warning:  center 102 has no basis functions!
 Warning:  center 103 has no basis functions!
 Warning:  center 104 has no basis functions!
 Warning:  center 105 has no basis functions!
 Warning:  center 106 has no basis functions!
 Warning:  center 107 has no basis functions!
 Warning:  center 108 has no basis functions!
 Warning:  center 109 has no basis functions!
 Warning:  center 110 has no basis functions!
 Warning:  center 111 has no basis functions!
 Warning:  center 112 has no basis functions!
 Warning:  center 113 has no basis functions!
 Warning:  center 114 has no basis functions!
 Warning:  center 115 has no basis functions!
 Warning:  center 116 has no basis functions!
 Warning:  center 117 has no basis functions!
 Warning:  center 118 has no basis functions!
 Warning:  center 119 has no basis functions!
 Warning:  center 120 has no basis functions!
 Warning:  center 121 has no basis functions!
 Warning:  center 122 has no basis functions!
 Warning:  center 123 has no basis functions!
 Warning:  center 124 has no basis functions!
 Warning:  center 125 has no basis functions!
 Warning:  center 126 has no basis functions!
 Warning:  center 127 has no basis functions!
 Warning:  center 128 has no basis functions!
 Warning:  center 129 has no basis functions!
 Warning:  center 130 has no basis functions!
 Warning:  center 131 has no basis functions!
 Warning:  center 132 has no basis functions!
 Warning:  center 133 has no basis functions!
 Warning:  center 134 has no basis functions!
 Warning:  center 135 has no basis functions!
 Warning:  center 136 has no basis functions!
 Warning:  center 137 has no basis functions!
 Warning:  center 138 has no basis functions!
 Warning:  center 139 has no basis functions!
 Warning:  center 140 has no basis functions!
 Warning:  center 141 has no basis functions!
 Warning:  center 142 has no basis functions!
 Warning:  center 143 has no basis functions!
 Warning:  center 144 has no basis functions!
 Warning:  center 145 has no basis functions!
 Warning:  center 146 has no basis functions!
 Warning:  center 147 has no basis functions!
 Warning:  center 148 has no basis functions!
 Warning:  center 149 has no basis functions!
 Warning:  center 150 has no basis functions!
 Warning:  center 151 has no basis functions!
 Warning:  center 152 has no basis functions!
 Warning:  center 153 has no basis functions!
 Warning:  center 154 has no basis functions!
 Warning:  center 155 has no basis functions!
 Warning:  center 156 has no basis functions!
 Warning:  center 157 has no basis functions!
 Warning:  center 158 has no basis functions!
 Warning:  center 159 has no basis functions!
 Warning:  center 160 has no basis functions!
 Warning:  center 161 has no basis functions!
 Warning:  center 162 has no basis functions!
 Warning:  center 163 has no basis functions!
 Warning:  center 164 has no basis functions!
 Warning:  center 165 has no basis functions!
 Warning:  center 166 has no basis functions!
 Warning:  center 167 has no basis functions!
 Warning:  center 168 has no basis functions!
 Warning:  center 169 has no basis functions!
 Warning:  center 170 has no basis functions!
 Warning:  center 171 has no basis functions!
 Warning:  center 172 has no basis functions!
 Warning:  center 173 has no basis functions!
 Warning:  center 174 has no basis functions!
 Warning:  center 175 has no basis functions!
 Warning:  center 176 has no basis functions!
 Warning:  center 177 has no basis functions!
 Warning:  center 178 has no basis functions!
 Warning:  center 179 has no basis functions!
 Warning:  center 180 has no basis functions!
 Warning:  center 181 has no basis functions!
 Warning:  center 182 has no basis functions!
 Warning:  center 183 has no basis functions!
 Warning:  center 184 has no basis functions!
 Warning:  center 185 has no basis functions!
 Warning:  center 186 has no basis functions!
 Warning:  center 187 has no basis functions!
 Warning:  center 188 has no basis functions!
 Warning:  center 189 has no basis functions!
 Warning:  center 190 has no basis functions!
 Warning:  center 191 has no basis functions!
 Warning:  center 192 has no basis functions!
 Warning:  center 193 has no basis functions!
 Warning:  center 194 has no basis functions!
 Warning:  center 195 has no basis functions!
 Warning:  center 196 has no basis functions!
 Warning:  center 197 has no basis functions!
 Warning:  center 198 has no basis functions!
 Warning:  center 199 has no basis functions!
 Warning:  center 200 has no basis functions!
 Warning:  center 201 has no basis functions!
 Warning:  center 202 has no basis functions!
 Warning:  center 203 has no basis functions!
 Warning:  center 204 has no basis functions!
 Warning:  center 205 has no basis functions!
 Warning:  center 206 has no basis functions!
 Warning:  center 207 has no basis functions!
 Warning:  center 208 has no basis functions!
 Warning:  center 209 has no basis functions!
 Warning:  center 210 has no basis functions!
 Warning:  center 211 has no basis functions!
 Warning:  center 212 has no basis functions!
 Warning:  center 213 has no basis functions!
 Warning:  center 214 has no basis functions!
 Warning:  center 215 has no basis functions!
 Warning:  center 216 has no basis functions!
 Warning:  center 217 has no basis functions!
 Warning:  center 218 has no basis functions!
 Warning:  center 219 has no basis functions!
 Warning:  center 220 has no basis functions!
 Warning:  center 221 has no basis functions!
 Warning:  center 222 has no basis functions!
 Warning:  center 223 has no basis functions!
 Warning:  center 224 has no basis functions!
 Warning:  center 225 has no basis functions!
 Warning:  center 226 has no basis functions!
 Warning:  center 227 has no basis functions!
 Warning:  center 228 has no basis functions!
 Warning:  center 229 has no basis functions!
 Warning:  center 230 has no basis functions!
 Warning:  center 231 has no basis functions!
 Warning:  center 232 has no basis functions!
 Warning:  center 233 has no basis functions!
 Warning:  center 234 has no basis functions!
 Warning:  center 235 has no basis functions!
 Warning:  center 236 has no basis functions!
   568 basis functions,   904 primitive gaussians,   590 cartesian basis functions
    73 alpha electrons       73 beta electrons
       nuclear repulsion energy      1610.9176155625 Hartrees.
 NAtoms=  236 NActive=  236 NUniq=  236 SFac= 1.00D+00 NAtFMM=   60 NAOKFM=T Big=T
 Integral buffers will be    131072 words long.
 Raffenetti 2 integral format.
 Two-electron integral symmetry is turned off.
 One-electron integrals computed using PRISM.
 NBasis=   568 RedAO= T EigKep=  1.78D-06  NBF=   568
 NBsUse=   556 1.00D-06 EigRej=  9.09D-07 NBFU=   556
 ExpMin= 4.38D-02 ExpMax= 4.56D+03 ExpMxC= 6.82D+02 IAcc=2 IRadAn=         4 AccDes= 0.00D+00
 Harris functional with IExCor=  402 and IRadAn=       4 diagonalized for initial guess.
 HarFok:  IExCor=  402 AccDes= 0.00D+00 IRadAn=         4 IDoV= 1 UseB2=F ITyADJ=14
 ICtDFT=  3500011 ScaDFX=  1.000000  1.000000  1.000000  1.000000
 FoFCou: FMM=F IPFlag=           0 FMFlag=      100000 FMFlg1=        2001
         NFxFlg=           0 DoJE=T BraDBF=F KetDBF=T FulRan=T
         wScrn=  0.000000 ICntrl=     500 IOpCl=  0 I1Cent=   200000004 NGrid=           0
         NMat0=    1 NMatS0=      1 NMatT0=    0 NMatD0=    1 NMtDS0=    0 NMtDT0=    0
 Symmetry not used in FoFCou.
 Requested convergence on RMS density matrix=1.00D-08 within 128 cycles.
 Requested convergence on MAX density matrix=1.00D-06.
 Requested convergence on             energy=1.00D-06.
 No special actions if energy rises.
 SCF Done:  E(RB3LYP) =  -847.003289847     A.U. after   15 cycles
            NFock= 15  Conv=0.76D-08     -V/T= 2.0040
 DoSCS=F DFT=T ScalE2(SS,OS)=  1.000000  1.000000
 Range of M.O.s used for correlation:     1   556
 NBasis=   568 NAE=    73 NBE=    73 NFC=     0 NFV=     0
 NROrb=    556 NOA=    73 NOB=    73 NVA=   483 NVB=   483

 **** Warning!!: The largest alpha MO coefficient is  0.10971038D+03

          Differentiating once with respect to magnetic field using GIAOs.
          Electric field/nuclear overlap derivatives assumed to be zero.
 FoFCou: FMM=F IPFlag=           0 FMFlag=      100000 FMFlg1=        2001
         NFxFlg=           0 DoJE=F BraDBF=F KetDBF=T FulRan=T
         wScrn=  0.000000 ICntrl=    6100 IOpCl=  0 I1Cent=           7 NGrid=         236
         NMat0=    1 NMatS0=      1 NMatT0=    0 NMatD0=    1 NMtDS0=    0 NMtDT0=    0
 Symmetry not used in FoFCou.
 FoFJK:  IHMeth= 1 ICntrl=    6127 DoSepK=F KAlg= 0 I1Cent=   0 FoldK=F
 IRaf=         1 NMat=   1 IRICut=       1 DoRegI=T DoRafI=F ISym2E= 0.
          There are     3 degrees of freedom in the 1st order CPHF.  IDoFFX=0 NUNeed=     3.
      3 vectors produced by pass  0 Test12= 1.18D-12 3.33D-08 XBig12= 2.07D+03 9.18D+00.
 AX will form     3 AO Fock derivatives at one time.
      3 vectors produced by pass  1 Test12= 1.18D-12 3.33D-08 XBig12= 3.56D+00 8.03D-01.
      3 vectors produced by pass  2 Test12= 1.18D-12 3.33D-08 XBig12= 2.10D-02 6.92D-02.
      3 vectors produced by pass  3 Test12= 1.18D-12 3.33D-08 XBig12= 5.45D-05 1.89D-03.
      3 vectors produced by pass  4 Test12= 1.18D-12 3.33D-08 XBig12= 1.20D-07 7.79D-05.
      3 vectors produced by pass  5 Test12= 1.18D-12 3.33D-08 XBig12= 4.02D-10 4.73D-06.
      3 vectors produced by pass  6 Test12= 1.18D-12 3.33D-08 XBig12= 1.32D-12 2.61D-07.
 InvSVY:  IOpt=1 It=  1 EMax= 3.55D-15
 Solved reduced A of dimension    21 with     3 vectors.
 Calculating GIAO nuclear magnetic shielding tensors.
 SCF GIAO Magnetic shielding tensor (ppm):
      1  C    Isotropic =    53.8139   Anisotropy =   178.0260
   XX=   -41.4327   YX=   -32.3458   ZX=    10.0287
   XY=   -28.3572   YY=    59.0527   ZY=    55.1899
   XZ=    13.1759   YZ=    58.7550   ZZ=   143.8218
   Eigenvalues:   -53.8775    42.8214   172.4979
      2  H    Isotropic =    24.3095   Anisotropy =     4.8536
   XX=    25.5771   YX=    -1.0289   ZX=     0.5661
   XY=    -0.7431   YY=    26.1829   ZY=    -2.3306
   XZ=    -0.1707   YZ=    -2.4411   ZZ=    21.1687
   Eigenvalues:    20.2108    25.1725    27.5453
      3  C    Isotropic =    51.4055   Anisotropy =   157.8639
   XX=   -31.5399   YX=    38.5015   ZX=   -17.9316
   XY=    34.3519   YY=    49.9437   ZY=    49.6392
   XZ=    -9.8383   YZ=    44.6006   ZZ=   135.8127
   Eigenvalues:   -50.5747    48.1432   156.6481
      4  H    Isotropic =    23.8290   Anisotropy =     7.1838
   XX=    25.3635   YX=     1.8486   ZX=    -0.3559
   XY=     1.9656   YY=    26.4581   ZY=    -2.4103
   XZ=    -1.2941   YZ=    -2.6614   ZZ=    19.6654
   Eigenvalues:    18.8176    24.0511    28.6182
      5  C    Isotropic =    46.0697   Anisotropy =   207.6751
   XX=   -19.2123   YX=    -4.8852   ZX=    -1.6475
   XY=     2.8938   YY=    -2.9860   ZY=    66.5656
   XZ=     2.5356   YZ=    67.9144   ZZ=   160.4073
   Eigenvalues:   -27.2455   -19.0652   184.5197
      6  C    Isotropic =    47.5218   Anisotropy =   196.9389
   XX=   -28.1552   YX=    -2.7889   ZX=    12.0660
   XY=   -14.3886   YY=    21.2063   ZY=    74.2521
   XZ=   -18.6356   YZ=    61.1113   ZZ=   149.5144
   Eigenvalues:   -30.2925    -5.9564   178.8144
      7  C    Isotropic =    49.3915   Anisotropy =   179.8333
   XX=   -12.5211   YX=    28.7048   ZX=   -24.6745
   XY=    31.5123   YY=    29.7000   ZY=    77.7459
   XZ=   -40.0095   YZ=    65.3072   ZZ=   130.9956
   Eigenvalues:   -52.1299    31.0240   169.2804
      8  H    Isotropic =    23.1586   Anisotropy =    13.5525
   XX=    28.5711   YX=     1.5482   ZX=    -3.6986
   XY=     3.2466   YY=    22.7592   ZY=    -2.1157
   XZ=    -8.3753   YZ=    -1.0821   ZZ=    18.1456
   Eigenvalues:    15.3521    21.9301    32.1936
      9  C    Isotropic =    55.1460   Anisotropy =   174.7426
   XX=    46.7071   YX=    -2.6162   ZX=    -2.8420
   XY=     0.6223   YY=    -1.6258   ZY=    92.8272
   XZ=     0.5159   YZ=    95.6598   ZZ=   120.3568
   Eigenvalues:   -52.8932    46.6901   171.6411
     10  H    Isotropic =    24.6278   Anisotropy =     7.1815
   XX=    29.1040   YX=     0.1399   ZX=    -0.3694
   XY=     0.3642   YY=    23.4778   ZY=    -1.0805
   XZ=    -2.4493   YZ=    -2.9465   ZZ=    21.3016
   Eigenvalues:    19.9703    24.4977    29.4155
     11  C    Isotropic =    51.5607   Anisotropy =   151.2142
   XX=     2.1639   YX=    40.9287   ZX=   -26.0048
   XY=    49.9131   YY=    12.2331   ZY=    42.1342
   XZ=   -15.6145   YZ=    38.6614   ZZ=   140.2851
   Eigenvalues:   -48.1951    50.5071   152.3701
     12  H    Isotropic =    23.8537   Anisotropy =     7.3815
   XX=    25.9672   YX=     2.3738   ZX=    -0.2390
   XY=     2.4320   YY=    26.3975   ZY=    -1.8291
   XZ=     0.3529   YZ=    -1.7731   ZZ=    19.1964
   Eigenvalues:    18.7149    24.0714    28.7747
     13  C    Isotropic =    52.8653   Anisotropy =   147.4265
   XX=    51.2944   YX=    19.9221   ZX=   -13.4678
   XY=    11.5478   YY=   -34.0176   ZY=    42.5079
   XZ=    -9.2241   YZ=    40.0716   ZZ=   141.3192
   Eigenvalues:   -46.5152    53.9616   151.1497
     14  H    Isotropic =    24.0156   Anisotropy =     7.3485
   XX=    28.6644   YX=     0.6281   ZX=     1.0808
   XY=     0.5926   YY=    24.4325   ZY=    -1.0823
   XZ=     1.6846   YZ=    -0.3842   ZZ=    18.9500
   Eigenvalues:    18.6430    24.4892    28.9146
     15  C    Isotropic =    46.2221   Anisotropy =   203.9048
   XX=   -27.2215   YX=    -0.0442   ZX=   -28.9124
   XY=     4.6427   YY=   -10.5571   ZY=    28.3830
   XZ=   -10.2704   YZ=    26.7376   ZZ=   176.4448
   Eigenvalues:   -30.5512   -12.9411   182.1586
     16  C    Isotropic =    51.9375   Anisotropy =   188.2004
   XX=   -19.4441   YX=     5.5046   ZX=    15.7858
   XY=    -8.3874   YY=     2.4863   ZY=    22.9264
   XZ=   -50.6243   YZ=    23.3340   ZZ=   172.7704
   Eigenvalues:   -21.0294    -0.5625   177.4045
     17  C    Isotropic =    51.9482   Anisotropy =   149.1264
   XX=    50.7296   YX=   -23.9353   ZX=   -18.4207
   XY=   -16.7271   YY=   -41.8764   ZY=    17.8662
   XZ=   -14.3278   YZ=    11.4871   ZZ=   146.9915
   Eigenvalues:   -46.7796    51.2584   151.3658
     18  H    Isotropic =    24.0122   Anisotropy =     7.5163
   XX=    28.5811   YX=    -0.0866   ZX=     1.5071
   XY=    -0.2466   YY=    24.3342   ZY=    -0.7657
   XZ=     2.5088   YZ=    -1.5208   ZZ=    19.1214
   Eigenvalues:    18.5094    24.5041    29.0231
     19  C    Isotropic =    51.7356   Anisotropy =   148.5924
   XX=     2.4559   YX=   -45.6913   ZX=   -31.2531
   XY=   -53.4448   YY=     7.4698   ZY=    -1.8888
   XZ=   -23.5601   YZ=    -1.2765   ZZ=   145.2810
   Eigenvalues:   -46.9894    51.3989   150.7972
     20  H    Isotropic =    23.9071   Anisotropy =     7.6651
   XX=    25.5796   YX=    -2.0226   ZX=     1.4905
   XY=    -1.9998   YY=    27.3706   ZY=    -0.5164
   XZ=     2.7276   YZ=    -1.1179   ZZ=    18.7711
   Eigenvalues:    18.1643    24.5398    29.0172
     21  C    Isotropic =    45.9767   Anisotropy =   203.9316
   XX=   -16.2108   YX=    13.1802   ZX=   -44.5913
   XY=     6.5714   YY=   -20.6329   ZY=     0.0949
   XZ=   -28.8984   YZ=   -13.0883   ZZ=   174.7736
   Eigenvalues:   -30.5796   -13.4215   181.9311
     22  C    Isotropic =    52.0450   Anisotropy =   188.1157
   XX=    -0.0787   YX=     2.5023   ZX=   -16.3451
   XY=    18.9327   YY=   -14.4798   ZY=   -34.4335
   XZ=   -50.6032   YZ=    19.9104   ZZ=   170.6934
   Eigenvalues:   -20.7705    -0.5500   177.4554
     23  C    Isotropic =    53.2392   Anisotropy =   146.7412
   XX=   -22.0674   YX=   -32.0012   ZX=   -49.4857
   XY=   -23.2043   YY=    44.3661   ZY=   -15.6400
   XZ=   -43.8090   YZ=   -20.2525   ZZ=   137.4189
   Eigenvalues:   -45.6776    54.3286   151.0667
     24  H    Isotropic =    23.8249   Anisotropy =     7.5289
   XX=    25.1073   YX=    -1.7330   ZX=     1.5380
   XY=    -1.5944   YY=    28.0047   ZY=     0.0879
   XZ=     1.2557   YZ=    -0.8283   ZZ=    18.3628
   Eigenvalues:    18.0848    24.5458    28.8442
     25  C    Isotropic =    51.4969   Anisotropy =   150.1066
   XX=   -28.4915   YX=    33.9684   ZX=   -52.3137
   XY=    22.0311   YY=    46.6072   ZY=    -3.8075
   XZ=   -44.5594   YZ=   -10.6355   ZZ=   136.3748
   Eigenvalues:   -48.3857    51.3083   151.5679
     26  H    Isotropic =    23.7431   Anisotropy =     7.4052
   XX=    24.0663   YX=     1.1141   ZX=     1.9989
   XY=     0.9693   YY=    28.1000   ZY=     1.6568
   XZ=     2.0795   YZ=     0.8886   ZZ=    19.0630
   Eigenvalues:    18.2615    24.2880    28.6799
     27  C    Isotropic =    45.8108   Anisotropy =   207.2710
   XX=    -2.7702   YX=    13.7697   ZX=   -61.4651
   XY=     6.5593   YY=   -12.0335   ZY=   -41.6456
   XZ=   -62.6381   YZ=   -44.9232   ZZ=   152.2361
   Eigenvalues:   -28.0803   -18.4787   183.9915
     28  C    Isotropic =    47.8398   Anisotropy =   197.2870
   XX=    19.6900   YX=    14.4398   ZX=   -60.5682
   XY=    28.5650   YY=   -19.3566   ZY=   -56.7015
   XZ=   -63.1331   YZ=   -24.4782   ZZ=   143.1859
   Eigenvalues:   -30.5979    -5.2472   179.3644
     29  C    Isotropic =    49.3441   Anisotropy =   179.7793
   XX=    -3.4110   YX=    38.3775   ZX=   -80.8875
   XY=    36.1252   YY=    25.9805   ZY=   -23.7573
   XZ=   -78.1065   YZ=    -3.9802   ZZ=   125.4627
   Eigenvalues:   -51.6645    30.4997   169.1970
     30  H    Isotropic =    23.1387   Anisotropy =    13.3222
   XX=    22.4354   YX=    -0.7013   ZX=    -0.2375
   XY=    -2.1539   YY=    28.3546   ZY=     4.5555
   XZ=    -3.4181   YZ=     8.3231   ZZ=    18.6259
   Eigenvalues:    15.2751    22.1208    32.0201
     31  C    Isotropic =    55.4410   Anisotropy =   174.9390
   XX=    17.1871   YX=   -14.0890   ZX=   -84.0024
   XY=   -17.9030   YY=    37.4745   ZY=   -50.3662
   XZ=   -84.6557   YZ=   -54.8325   ZZ=   111.6615
   Eigenvalues:   -51.9248    46.1808   172.0670
     32  H    Isotropic =    24.5337   Anisotropy =     7.2554
   XX=    24.6185   YX=    -2.5264   ZX=     0.7632
   XY=    -2.7385   YY=    27.4630   ZY=     1.0335
   XZ=     1.1913   YZ=     3.7573   ZZ=    21.5194
   Eigenvalues:    19.8987    24.3316    29.3706
     33  C    Isotropic =    53.1814   Anisotropy =   179.0596
   XX=    60.9231   YX=    35.2256   ZX=   -42.9515
   XY=    32.0226   YY=   -38.1801   ZY=   -45.5652
   XZ=   -44.2248   YZ=   -50.7831   ZZ=   136.8014
   Eigenvalues:   -55.1197    42.1095   172.5545
     34  H    Isotropic =    24.2825   Anisotropy =     5.1861
   XX=    26.7643   YX=    -0.0934   ZX=     2.5955
   XY=    -0.2993   YY=    24.8157   ZY=     0.8589
   XZ=     2.3715   YZ=     1.4580   ZZ=    21.2676
   Eigenvalues:    20.0339    25.0737    27.7399
     35  C    Isotropic =    51.5295   Anisotropy =   155.1748
   XX=    -0.5131   YX=    52.5760   ZX=   -52.1551
   XY=    55.6135   YY=    25.1843   ZY=   -14.2643
   XZ=   -45.7255   YZ=   -17.1625   ZZ=   129.9171
   Eigenvalues:   -48.3147    47.9237   154.9793
     36  H    Isotropic =    23.8384   Anisotropy =     7.3073
   XX=    24.2302   YX=     1.4459   ZX=     2.1759
   XY=     1.2147   YY=    27.1572   ZY=     2.0665
   XZ=     1.6853   YZ=     2.7775   ZZ=    20.1277
   Eigenvalues:    18.9464    23.8588    28.7099
     37  Bq   Isotropic =     2.1146   Anisotropy =     8.2346
   XX=     5.5734   YX=    -1.4312   ZX=    -1.7024
   XY=    -1.4977   YY=     4.5277   ZY=    -6.2226
   XZ=    -4.8882   YZ=    -5.5022   ZZ=    -3.7572
   Eigenvalues:    -7.7647     6.5042     7.6044
     38  Bq   Isotropic =     2.6202   Anisotropy =     8.2904
   XX=     6.2573   YX=    -1.4859   ZX=    -1.7169
   XY=    -1.6340   YY=     5.2091   ZY=    -6.3069
   XZ=    -4.9376   YZ=    -5.4242   ZZ=    -3.6058
   Eigenvalues:    -7.5152     7.2287     8.1471
     39  Bq   Isotropic =     3.2399   Anisotropy =     8.3280
   XX=     7.0684   YX=    -1.5311   ZX=    -1.7404
   XY=    -1.7660   YY=     5.9875   ZY=    -6.3575
   XZ=    -5.0055   YZ=    -5.3046   ZZ=    -3.3363
   Eigenvalues:    -7.1324     8.0601     8.7919
     40  Bq   Isotropic =     3.9919   Anisotropy =     8.3464
   XX=     8.0261   YX=    -1.5632   ZX=    -1.7755
   XY=    -1.8879   YY=     6.8723   ZY=    -6.3657
   XZ=    -5.0990   YZ=    -5.1340   ZZ=    -2.9228
   Eigenvalues:    -6.5893     9.0088     9.5561
     41  Bq   Isotropic =     4.8939   Anisotropy =     8.3894
   XX=     9.1489   YX=    -1.5778   ZX=    -1.8257
   XY=    -1.9924   YY=     7.8718   ZY=    -6.3222
   XZ=    -5.2269   YZ=    -4.9030   ZZ=    -2.3391
   Eigenvalues:    -5.8591    10.0539    10.4869
     42  Bq   Isotropic =     5.9626   Anisotropy =     8.5827
   XX=    10.4539   YX=    -1.5699   ZX=    -1.8941
   XY=    -2.0704   YY=     8.9921   ZY=    -6.2179
   XZ=    -5.3995   YZ=    -4.6016   ZZ=    -1.5582
   Eigenvalues:    -4.9157    11.1191    11.6845
     43  Bq   Isotropic =     7.2133   Anisotropy =     8.9333
   XX=    11.9562   YX=    -1.5338   ZX=    -1.9848
   XY=    -2.1097   YY=    10.2363   ZY=    -6.0432
   XZ=    -5.6296   YZ=    -4.2194   ZZ=    -0.5526
   Eigenvalues:    -3.7340    12.2051    13.1689
     44  Bq   Isotropic =     8.6589   Anisotropy =     9.3809
   XX=    13.6685   YX=    -1.4630   ZX=    -2.1018
   XY=    -2.0939   YY=    11.6019   ZY=    -5.7883
   XZ=    -5.9333   YZ=    -3.7459   ZZ=     0.7064
   Eigenvalues:    -2.2908    13.3547    14.9129
     45  Bq   Isotropic =    10.3058   Anisotropy =     9.9173
   XX=    15.5961   YX=    -1.3501   ZX=    -2.2497
   XY=    -1.9999   YY=    13.0769   ZY=    -5.4444
   XZ=    -6.3303   YZ=    -3.1723   ZZ=     2.2445
   Eigenvalues:    -0.5704    14.5705    16.9173
     46  Bq   Isotropic =    12.1429   Anisotropy =    10.5549
   XX=    17.7236   YX=    -1.1868   ZX=    -2.4333
   XY=    -1.7993   YY=    14.6330   ZY=    -5.0086
   XZ=    -6.8421   YZ=    -2.4969   ZZ=     4.0720
   Eigenvalues:     1.4185    15.8306    19.1795
     47  Bq   Isotropic =    14.1240   Anisotropy =    11.3072
   XX=    19.9943   YX=    -0.9654   ZX=    -2.6557
   XY=    -1.4629   YY=    16.2192   ZY=    -4.4919
   XZ=    -7.4898   YZ=    -1.7326   ZZ=     6.1583
   Eigenvalues:     3.6149    17.0949    21.6621
     48  Bq   Isotropic =    16.1574   Anisotropy =    12.1811
   XX=    22.2973   YX=    -0.6817   ZX=    -2.9177
   XY=    -0.9652   YY=    17.7590   ZY=    -3.9236
   XZ=    -8.2927   YZ=    -0.9099   ZZ=     8.4159
   Eigenvalues:     5.8862    18.3079    24.2782
     49  Bq   Isotropic =    18.1211   Anisotropy =    13.1831
   XX=    24.4841   YX=    -0.3321   ZX=    -3.2188
   XY=    -0.2689   YY=    19.1520   ZY=    -3.3452
   XZ=    -9.2677   YZ=    -0.0783   ZZ=    10.7273
   Eigenvalues:     8.0543    19.3992    26.9099
     50  Bq   Isotropic =    19.8577   Anisotropy =    14.2970
   XX=    26.3517   YX=     0.0961   ZX=    -3.5566
   XY=     0.6869   YY=    20.2742   ZY=    -2.8173
   XZ=   -10.3904   YZ=     0.6605   ZZ=    12.9471
   Eigenvalues:     9.9092    20.2748    29.3890
     51  Bq   Isotropic =    21.1299   Anisotropy =    15.4107
   XX=    27.5896   YX=     0.6073   ZX=    -3.9100
   XY=     1.8837   YY=    21.0131   ZY=    -2.4359
   XZ=   -11.5223   YZ=     1.1360   ZZ=    14.7868
   Eigenvalues:    11.1621    20.8238    31.4036
     52  Bq   Isotropic =    21.7336   Anisotropy =    16.3616
   XX=    27.9561   YX=     1.1593   ZX=    -4.2364
   XY=     3.1324   YY=    21.3444   ZY=    -2.2722
   XZ=   -12.4816   YZ=     1.2459   ZZ=    15.9003
   Eigenvalues:    11.5940    20.9655    32.6414
     53  Bq   Isotropic =    21.6634   Anisotropy =    17.1050
   XX=    27.4880   YX=     1.6855   ZX=    -4.5033
   XY=     4.2378   YY=    21.3242   ZY=    -2.3231
   XZ=   -13.2214   YZ=     1.0411   ZZ=    16.1779
   Eigenvalues:    11.2434    20.6800    33.0667
     54  Bq   Isotropic =    21.0346   Anisotropy =    17.6993
   XX=    26.3627   YX=     2.1387   ZX=    -4.6967
   XY=     5.1383   YY=    21.0201   ZY=    -2.5587
   XZ=   -13.7947   YZ=     0.6051   ZZ=    15.7210
   Eigenvalues:    10.2803    19.9894    32.8341
     55  Bq   Isotropic =    19.9735   Anisotropy =    18.1883
   XX=    24.7519   YX=     2.4899   ZX=    -4.8067
   XY=     5.8295   YY=    20.4975   ZY=    -2.9456
   XZ=   -14.2273   YZ=    -0.0126   ZZ=    14.6711
   Eigenvalues:     8.8705    18.9509    32.0990
     56  Bq   Isotropic =    18.5974   Anisotropy =    18.5850
   XX=    22.8121   YX=     2.7163   ZX=    -4.8240
   XY=     6.3063   YY=    19.8190   ZY=    -3.4467
   XZ=   -14.5161   YZ=    -0.7733   ZZ=    13.1612
   Eigenvalues:     7.1504    17.6544    30.9875
     57  Bq   Isotropic =    17.0065   Anisotropy =    18.8992
   XX=    20.6818   YX=     2.8003   ZX=    -4.7434
   XY=     6.5695   YY=    19.0320   ZY=    -4.0291
   XZ=   -14.6642   YZ=    -1.6415   ZZ=    11.3056
   Eigenvalues:     5.2162    16.1973    29.6059
     58  Bq   Isotropic =    15.2785   Anisotropy =    19.1434
   XX=    18.4762   YX=     2.7316   ZX=    -4.5641
   XY=     6.6310   YY=    18.1654   ZY=    -4.6669
   XZ=   -14.6825   YZ=    -2.5870   ZZ=     9.1939
   Eigenvalues:     3.1258    14.6689    28.0408
     59  Bq   Isotropic =    13.4747   Anisotropy =    19.3274
   XX=    16.2928   YX=     2.5083   ZX=    -4.2891
   XY=     6.5088   YY=    17.2362   ZY=    -5.3369
   XZ=   -14.5836   YZ=    -3.5821   ZZ=     6.8952
   Eigenvalues:     0.9140    13.1505    26.3596
     60  Bq   Isotropic =    11.6473   Anisotropy =    19.4534
   XX=    14.2182   YX=     2.1381   ZX=    -3.9258
   XY=     6.2243   YY=    16.2556   ZY=    -6.0150
   XZ=   -14.3788   YZ=    -4.5988   ZZ=     4.4681
   Eigenvalues:    -1.3914    11.7171    24.6163
     61  Bq   Isotropic =     9.8437   Anisotropy =    19.5166
   XX=    12.3309   YX=     1.6388   ZX=    -3.4862
   XY=     5.8023   YY=    15.2335   ZY=    -6.6756
   XZ=   -14.0797   YZ=    -5.6073   ZZ=     1.9668
   Eigenvalues:    -3.7593    10.4356    22.8548
     62  Bq   Isotropic =     8.1071   Anisotropy =    19.5081
   XX=    10.6980   YX=     1.0380   ZX=    -2.9872
   XY=     5.2721   YY=    14.1803   ZY=    -7.2938
   XZ=   -13.7003   YZ=    -6.5776   ZZ=    -0.5570
   Eigenvalues:    -6.1513     9.3601    21.1125
     63  Bq   Isotropic =     6.4743   Anisotropy =    19.4201
   XX=     9.3714   YX=     0.3720   ZX=    -2.4497
   XY=     4.6678   YY=    13.1077   ZY=    -7.8479
   XZ=   -13.2582   YZ=    -7.4832   ZZ=    -3.0561
   Eigenvalues:    -8.5251     8.5270    19.4210
     64  Bq   Isotropic =     4.9739   Anisotropy =    19.2494
   XX=     8.3830   YX=    -0.3168   ZX=    -1.8978
   XY=     4.0270   YY=    12.0289   ZY=    -8.3220
   XZ=   -12.7742   YZ=    -8.3028   ZZ=    -5.4903
   Eigenvalues:   -10.8388     7.9536    17.8068
     65  Bq   Isotropic =     3.6249   Anisotropy =    19.0001
   XX=     7.7433   YX=    -0.9835   ZX=    -1.3561
   XY=     3.3886   YY=    10.9587   ZY=    -8.7071
   XZ=   -12.2710   YZ=    -9.0227   ZZ=    -7.8275
   Eigenvalues:   -13.0561     7.6392    16.2916
     66  Bq   Isotropic =     2.4369   Anisotropy =    18.6840
   XX=     7.4417   YX=    -1.5844   ZX=    -0.8490
   XY=     2.7900   YY=     9.9133   ZY=    -9.0006
   XZ=   -11.7711   YZ=    -9.6367   ZZ=   -10.0444
   Eigenvalues:   -15.1497     7.5674    14.8929
     67  Bq   Isotropic =     1.4110   Anisotropy =    18.3225
   XX=     7.4484   YX=    -2.0803   ZX=    -0.3980
   XY=     2.2639   YY=     8.9102   ZY=    -9.2066
   XZ=   -11.2953   YZ=   -10.1458   ZZ=   -12.1256
   Eigenvalues:   -17.1013     7.7084    13.6260
     68  Bq   Isotropic =     0.5414   Anisotropy =    17.9512
   XX=     7.7193   YX=    -2.4396   ZX=    -0.0210
   XY=     1.8365   YY=     7.9675   ZY=    -9.3336
   XZ=   -10.8613   YZ=   -10.5569   ZZ=   -14.0627
   Eigenvalues:   -18.9021     8.0173    12.5088
     69  Bq   Isotropic =    -0.1834   Anisotropy =    17.6429
   XX=     8.1992   YX=    -2.6397   ZX=     0.2690
   XY=     1.5264   YY=     7.1031   ZY=    -9.3937
   XZ=   -10.4822   YZ=   -10.8814   ZZ=   -15.8526
   Eigenvalues:   -20.5503     8.4216    11.5785
     70  Bq   Isotropic =    -0.7783   Anisotropy =    17.5962
   XX=     8.8277   YX=    -2.6685   ZX=     0.4642
   XY=     1.3438   YY=     6.3338   ZY=    -9.4009
   XZ=   -10.1668   YZ=   -11.1339   ZZ=   -17.4964
   Eigenvalues:   -22.0502     8.7628    10.9525
     71  Bq   Isotropic =    -1.2602   Anisotropy =    18.2278
   XX=     9.5423   YX=    -2.5238   ZX=     0.5618
   XY=     1.2913   YY=     5.6746   ZY=    -9.3699
   XZ=    -9.9188   YZ=   -11.3300   ZZ=   -18.9975
   Eigenvalues:   -23.4091     8.7368    10.8916
     72  Bq   Isotropic =    -1.6464   Anisotropy =    19.5109
   XX=    10.2828   YX=    -2.2127   ZX=     0.5639
   XY=     1.3650   YY=     5.1384   ZY=    -9.3149
   XZ=    -9.7380   YZ=   -11.4854   ZZ=   -20.3605
   Eigenvalues:   -24.6355     8.3354    11.3608
     73  Bq   Isotropic =    -1.9530   Anisotropy =    20.9943
   XX=    10.9937   YX=    -1.7506   ZX=     0.4766
   XY=     1.5549   YY=     4.7359   ZY=    -9.2484
   XZ=    -9.6200   YZ=   -11.6141   ZZ=   -21.5886
   Eigenvalues:   -25.7367     7.8346    12.0432
     74  Bq   Isotropic =    -2.1931   Anisotropy =    22.4694
   XX=    11.6266   YX=    -1.1595   ZX=     0.3096
   XY=     1.8471   YY=     4.4762   ZY=    -9.1803
   XZ=    -9.5574   YZ=   -11.7276   ZZ=   -22.6823
   Eigenvalues:   -26.7161     7.3502    12.7864
     75  Bq   Isotropic =    -2.3762   Anisotropy =    23.8613
   XX=    12.1412   YX=    -0.4673   ZX=     0.0755
   XY=     2.2236   YY=     4.3677   ZY=    -9.1177
   XZ=    -9.5401   YZ=   -11.8340   ZZ=   -23.6373
   Eigenvalues:   -27.5710     6.9112    13.5314
     76  Bq   Isotropic =    -2.5061   Anisotropy =    25.1320
   XX=    12.5062   YX=     0.2935   ZX=    -0.2106
   XY=     2.6635   YY=     4.4179   ZY=    -9.0639
   XZ=    -9.5559   YZ=   -11.9371   ZZ=   -24.4424
   Eigenvalues:   -28.2906     6.5237    14.2486
     77  Bq   Isotropic =    -2.5809   Anisotropy =    26.2534
   XX=    12.7004   YX=     1.0862   ZX=    -0.5316
   XY=     3.1430   YY=     4.6352   ZY=    -9.0186
   XZ=    -9.5905   YZ=   -12.0359   ZZ=   -25.0783
   Eigenvalues:   -28.8542     6.1901    14.9214
     78  Bq   Isotropic =    -2.5919   Anisotropy =    27.1981
   XX=    12.7126   YX=     1.8709   ZX=    -0.8683
   XY=     3.6350   YY=     5.0281   ZY=    -8.9771
   XZ=    -9.6281   YZ=   -12.1244   ZZ=   -25.5166
   Eigenvalues:   -29.2301     5.9141    15.5401
     79  Bq   Isotropic =    -2.5235   Anisotropy =    27.9361
   XX=    12.5425   YX=     2.6045   ZX=    -1.1998
   XY=     4.1087   YY=     5.6055   ZY=    -8.9306
   XZ=    -9.6515   YZ=   -12.1911   ZZ=   -25.7186
   Eigenvalues:   -29.3750     5.7038    16.1005
     80  Bq   Isotropic =    -2.3533   Anisotropy =    28.4327
   XX=    12.2008   YX=     3.2412   ZX=    -1.5032
   XY=     4.5298   YY=     6.3760   ZY=    -8.8660
   XZ=    -9.6418   YZ=   -12.2191   ZZ=   -25.6366
   Eigenvalues:   -29.2345     5.5729    16.6019
     81  Bq   Isotropic =    -2.0526   Anisotropy =    28.6489
   XX=    11.7104   YX=     3.7337   ZX=    -1.7544
   XY=     4.8598   YY=     7.3461   ZY=    -8.7662
   XZ=    -9.5794   YZ=   -12.1866   ZZ=   -25.2142
   Eigenvalues:   -28.7443     5.5400    17.0467
     82  Bq   Isotropic =    -1.5882   Anisotropy =    28.5440
   XX=    11.1062   YX=     4.0345   ZX=    -1.9281
   XY=     5.0568   YY=     8.5188   ZY=    -8.6105
   XZ=    -9.4442   YZ=   -12.0666   ZZ=   -24.3897
   Eigenvalues:   -27.8330     5.6272    17.4412
     83  Bq   Isotropic =    -0.9241   Anisotropy =    28.0821
   XX=    10.4353   YX=     4.0980   ZX=    -1.9990
   XY=     5.0771   YY=     9.8911   ZY=    -8.3753
   XZ=    -9.2164   YZ=   -11.8287   ZZ=   -23.0988
   Eigenvalues:   -26.4260     5.8563    17.7973
     84  Bq   Isotropic =    -0.0244   Anisotropy =    27.2418
   XX=     9.7554   YX=     3.8840   ZX=    -1.9428
   XY=     4.8776   YY=    11.4518   ZY=    -8.0352
   XZ=    -8.8783   YZ=   -11.4401   ZZ=   -21.2805
   Eigenvalues:   -24.4510     6.2410    18.1368
     85  Bq   Isotropic =     1.1433   Anisotropy =    26.0339
   XX=     9.1322   YX=     3.3613   ZX=    -1.7385
   XY=     4.4196   YY=    13.1795   ZY=    -7.5650
   XZ=    -8.4159   YZ=   -10.8679   ZZ=   -18.8820
   Eigenvalues:   -21.8451     6.7757    18.4992
     86  Bq   Isotropic =     2.6035   Anisotropy =    24.5240
   XX=     8.6341   YX=     2.5116   ZX=    -1.3701
   XY=     3.6731   YY=    15.0421   ZY=    -6.9415
   XZ=    -7.8214   YZ=   -10.0816   ZZ=   -15.8657
   Eigenvalues:   -18.5617     7.4194    18.9528
     87  Bq   Isotropic =     4.3684   Anisotropy =    22.8555
   XX=     8.3246   YX=     1.3340   ZX=    -0.8289
   XY=     2.6223   YY=    16.9965   ZY=    -6.1468
   XZ=    -7.0957   YZ=    -9.0568   ZZ=   -12.2158
   Eigenvalues:   -14.5794     8.0792    19.6054
     88  Bq   Isotropic =     6.4335   Anisotropy =    21.2454
   XX=     8.2525   YX=    -0.1529   ZX=    -0.1157
   XY=     1.2695   YY=    18.9913   ZY=    -5.1715
   XZ=    -6.2506   YZ=    -7.7787   ZZ=    -7.9434
   Eigenvalues:    -9.9094     8.6127    20.5971
     89  Bq   Isotropic =     8.7729   Anisotropy =    19.9172
   XX=     8.4407   YX=    -1.9089   ZX=     0.7585
   XY=    -0.3607   YY=    20.9700   ZY=    -4.0179
   XZ=    -5.3108   YZ=    -6.2461   ZZ=    -3.0921
   Eigenvalues:    -4.6044     8.8720    22.0510
     90  Bq   Isotropic =    11.3369   Anisotropy =    18.9993
   XX=     8.8748   YX=    -3.8739   ZX=     1.7717
   XY=    -2.2203   YY=    22.8759   ZY=    -2.7035
   XZ=    -4.3148   YZ=    -4.4744   ZZ=     2.2599
   Eigenvalues:     1.2276     8.7800    24.0030
     91  Bq   Isotropic =    14.0499   Anisotropy =    18.4948
   XX=     9.4946   YX=    -5.9702   ZX=     2.8919
   XY=    -4.2392   YY=    24.6570   ZY=    -1.2627
   XZ=    -3.3150   YZ=    -2.4984   ZZ=     7.9982
   Eigenvalues:     7.1352     8.6348    26.3798
     92  Bq   Isotropic =    16.8117   Anisotropy =    18.3475
   XX=    10.1905   YX=    -8.1073   ZX=     4.0780
   XY=    -6.3273   YY=    26.2704   ZY=     0.2522
   XZ=    -2.3750   YZ=    -0.3728   ZZ=    13.9741
   Eigenvalues:     7.3360    14.0556    29.0433
     93  Bq   Isotropic =    19.5003   Anisotropy =    18.5418
   XX=    10.8074   YX=   -10.1862   ZX=     5.2825
   XY=    -8.3801   YY=    27.6859   ZY=     1.7725
   XZ=    -1.5676   YZ=     1.8298   ZZ=    20.0077
   Eigenvalues:     6.2709    20.3686    31.8615
     94  Bq   Isotropic =    21.9793   Anisotropy =    19.2465
   XX=    11.1570   YX=   -12.1031   ZX=     6.4524
   XY=   -10.2831   YY=    28.8859   ZY=     3.2177
   XZ=    -0.9692   YZ=     4.0231   ZZ=    25.8951
   Eigenvalues:     4.9567    26.1710    34.8103
     95  Bq   Isotropic =    24.1073   Anisotropy =    21.0059
   XX=    11.0398   YX=   -13.7516   ZX=     7.5310
   XY=   -11.9170   YY=    29.8649   ZY=     4.5020
   XZ=    -0.6548   YZ=     6.1138   ZZ=    31.4174
   Eigenvalues:     3.4560    30.7547    38.1113
     96  Bq   Isotropic =    25.7509   Anisotropy =    24.2441
   XX=    10.2740   YX=   -15.0234   ZX=     8.4587
   XY=   -13.1622   YY=    30.6256   ZY=     5.5433
   XZ=    -0.6908   YZ=     8.0110   ZZ=    36.3531
   Eigenvalues:     1.8093    33.5298    41.9137
     97  Bq   Isotropic =    26.7992   Anisotropy =    28.2822
   XX=     8.7296   YX=   -15.8093   ZX=     9.1734
   XY=   -13.9035   YY=    31.1744   ZY=     6.2739
   XZ=    -1.1268   YZ=     9.6358   ZZ=    40.4938
   Eigenvalues:     0.0470    34.6967    45.6540
     98  Bq   Isotropic =    27.1791   Anisotropy =    32.2492
   XX=     6.3622   YX=   -16.0028   ZX=     9.6135
   XY=   -14.0376   YY=    31.5149   ZY=     6.6512
   XZ=    -1.9874   YZ=    10.9303   ZZ=    43.6602
   Eigenvalues:    -1.8089    34.6677    48.6786
     99  Bq   Isotropic =    26.8686   Anisotropy =    35.6636
   XX=     3.2414   YX=   -15.5085   ZX=     9.7213
   XY=   -13.4836   YY=    31.6438   ZY=     6.6660
   XZ=    -3.2637   YZ=    11.8644   ZZ=    45.7206
   Eigenvalues:    -3.7453    33.7068    50.6443
    100  Bq   Isotropic =    25.9064   Anisotropy =    38.2656
   XX=    -0.4357   YX=   -14.2578   ZX=     9.4513
   XY=   -12.1985   YY=    31.5475   ZY=     6.3488
   XZ=    -4.9060   YZ=    12.4389   ZZ=    46.6073
   Eigenvalues:    -5.7548    32.0571    51.4168
    101  Bq   Isotropic =    24.3947   Anisotropy =    39.9060
   XX=    -4.3503   YX=   -12.2294   ZX=     8.7802
   XY=   -10.1947   YY=    31.2037   ZY=     5.7686
   XZ=    -6.8223   YZ=    12.6833   ZZ=    46.3307
   Eigenvalues:    -7.8248    30.0101    50.9987
    102  Bq   Isotropic =    22.4930   Anisotropy =    40.5153
   XX=    -8.0960   YX=    -9.4718   ZX=     7.7178
   XY=    -7.5555   YY=    30.5879   ZY=     5.0254
   XZ=    -8.8820   YZ=    12.6504   ZZ=    44.9871
   Eigenvalues:    -9.9162    27.8920    49.5032
    103  Bq   Isotropic =    20.4007   Anisotropy =    40.0995
   XX=   -11.2369   YX=    -6.1179   ZX=     6.3149
   XY=    -4.4412   YY=    29.6837   ZY=     4.2359
   XZ=   -10.9301   YZ=    12.4072   ZZ=    42.7551
   Eigenvalues:   -11.9362    26.0045    47.1337
    104  Bq   Isotropic =    18.3305   Anisotropy =    38.7399
   XX=   -13.3824   YX=    -2.3844   ZX=     4.6638
   XY=    -1.0789   YY=    28.4947   ZY=     3.5132
   XZ=   -12.8069   YZ=    12.0257   ZZ=    39.8791
   Eigenvalues:   -13.7234    24.5577    44.1571
    105  Bq   Isotropic =    16.4769   Anisotropy =    36.5867
   XX=   -14.2595   YX=     1.4491   ZX=     2.8896
   XY=     2.2644   YY=    27.0518   ZY=     2.9474
   XZ=   -14.3706   YZ=    11.5744   ZZ=    36.6386
   Eigenvalues:   -15.0693    23.6320    40.8681
    106  Bq   Isotropic =    14.9879   Anisotropy =    33.8418
   XX=   -13.7624   YX=     5.0789   ZX=     1.1327
   XY=     5.3208   YY=    25.4151   ZY=     2.5916
   XZ=   -15.5157   YZ=    11.1122   ZZ=    33.3110
   Eigenvalues:   -15.7727    23.1873    37.5491
    107  Bq   Isotropic =    13.9467   Anisotropy =    30.7331
   XX=   -11.9643   YX=     8.2242   ZX=    -0.4733
   XY=     7.8635   YY=    23.6674   ZY=     2.4563
   XZ=   -16.1829   YZ=    10.6840   ZZ=    30.1371
   Eigenvalues:   -15.6983    23.1030    34.4355
    108  Bq   Isotropic =    13.3688   Anisotropy =    27.4859
   XX=    -9.0906   YX=    10.6684   ZX=    -1.8218
   XY=     9.7376   YY=    21.9013   ZY=     2.5146
   XZ=   -16.3597   YZ=    10.3192   ZZ=    27.2957
   Eigenvalues:   -14.8112    23.2249    31.6928
    109  Bq   Isotropic =    13.2123   Anisotropy =    24.2967
   XX=    -5.4635   YX=    12.2843   ZX=    -2.8461
   XY=    10.8742   YY=    20.2048   ZY=     2.7142
   XZ=   -16.0727   YZ=    10.0315   ZZ=    24.8956
   Eigenvalues:   -13.1756    23.4024    29.4101
    110  Bq   Isotropic =    13.3963   Anisotropy =    21.3158
   XX=    -1.4386   YX=    13.0378   ZX=    -3.5228
   XY=    11.2862   YY=    18.6483   ZY=     2.9922
   XZ=   -15.3771   YZ=     9.8223   ZZ=    22.9792
   Eigenvalues:   -10.9298    23.5119    27.6068
    111  Bq   Isotropic =    13.8218   Anisotropy =    18.6412
   XX=     2.6508   YX=    12.9734   ZX=    -3.8669
   XY=    11.0483   YY=    17.2779   ZY=     3.2880
   XZ=   -14.3444   YZ=     9.6837   ZZ=    21.5366
   Eigenvalues:    -8.2518    23.4679    26.2493
    112  Bq   Isotropic =    14.3886   Anisotropy =    16.3355
   XX=     6.5295   YX=    12.1904   ZX=    -3.9217
   XY=    10.2727   YY=    16.1144   ZY=     3.5518
   XZ=   -13.0515   YZ=     9.6030   ZZ=    20.5220
   Eigenvalues:    -5.3276    23.2145    25.2789
    113  Bq   Isotropic =    15.0075   Anisotropy =    14.4614
   XX=     9.9954   YX=    10.8168   ZX=    -3.7471
   XY=     9.0851   YY=    15.1574   ZY=     3.7480
   XZ=   -11.5726   YZ=     9.5660   ZZ=    19.8695
   Eigenvalues:    -2.3306    22.7046    24.6484
    114  Bq   Isotropic =    15.6061   Anisotropy =    13.0495
   XX=    12.9192   YX=     8.9882   ZX=    -3.4100
   XY=     7.6062   YY=    14.3930   ZY=     3.8550
   XZ=    -9.9734   YZ=     9.5593   ZZ=    19.5061
   Eigenvalues:     0.5888    21.9237    24.3058
    115  Bq   Isotropic =    16.1314   Anisotropy =    12.0525
   XX=    15.2331   YX=     6.8327   ZX=    -2.9768
   XY=     5.9412   YY=    13.8001   ZY=     3.8626
   XZ=    -8.3087   YZ=     9.5722   ZZ=    19.3610
   Eigenvalues:     3.3007    20.9270    24.1664
    116  Bq   Isotropic =    16.5484   Anisotropy =    11.4123
   XX=    16.9164   YX=     4.4637   ZX=    -2.5093
   XY=     4.1747   YY=    13.3576   ZY=     3.7691
   XZ=    -6.6216   YZ=     9.5966   ZZ=    19.3713
   Eigenvalues:     5.6812    19.8075    24.1566
    117  Bq   Isotropic =    16.8388   Anisotropy =    11.0890
   XX=    17.9810   YX=     1.9775   ZX=    -2.0624
   XY=     2.3718   YY=    13.0485   ZY=     3.5783
   XZ=    -4.9452   YZ=     9.6283   ZZ=    19.4868
   Eigenvalues:     7.5781    18.7068    24.2314
    118  Bq   Isotropic =    16.9979   Anisotropy =    11.0549
   XX=    18.4594   YX=    -0.5454   ZX=    -1.6843
   XY=     0.5808   YY=    12.8634   ZY=     3.2979
   XZ=    -3.3047   YZ=     9.6659   ZZ=    19.6711
   Eigenvalues:     8.7645    17.8615    24.3679
    119  Bq   Isotropic =    17.0335   Anisotropy =    11.2910
   XX=    18.3968   YX=    -3.0359   ZX=    -1.4164
   XY=    -1.1606   YY=    12.8012   ZY=     2.9384
   XZ=    -1.7206   YZ=     9.7115   ZZ=    19.9026
   Eigenvalues:     8.9833    17.5563    24.5609
    120  Bq   Isotropic =    16.9638   Anisotropy =    11.7838
   XX=    17.8472   YX=    -5.4318   ZX=    -1.2939
   XY=    -2.8201   YY=    12.8697   ZY=     2.5137
   XZ=    -0.2113   YZ=     9.7707   ZZ=    20.1745
   Eigenvalues:     8.2446    17.8271    24.8196
    121  Bq   Isotropic =    16.8166   Anisotropy =    12.5182
   XX=    16.8724   YX=    -7.6734   ZX=    -1.3458
   XY=    -4.3653   YY=    13.0839   ZY=     2.0417
   XZ=     1.2042   YZ=     9.8517   ZZ=    20.4936
   Eigenvalues:     6.8912    18.3967    25.1621
    122  Bq   Isotropic =    16.6287   Anisotropy =    13.4690
   XX=    15.5441   YX=    -9.7003   ZX=    -1.5945
   XY=    -5.7602   YY=    13.4632   ZY=     1.5462
   XZ=     2.5055   YZ=     9.9659   ZZ=    20.8790
   Eigenvalues:     5.2648    19.0133    25.6081
    123  Bq   Isotropic =    16.4443   Anisotropy =    14.5951
   XX=    13.9460   YX=   -11.4500   ZX=    -2.0534
   XY=    -6.9629   YY=    14.0274   ZY=     1.0574
   XZ=     3.6703   YZ=    10.1267   ZZ=    21.3596
   Eigenvalues:     3.5918    19.5667    26.1744
    124  Bq   Isotropic =    16.3135   Anisotropy =    15.8477
   XX=    12.1769   YX=   -12.8595   ZX=    -2.7244
   XY=    -7.9263   YY=    14.7918   ZY=     0.6123
   XZ=     4.6754   YZ=    10.3483   ZZ=    21.9718
   Eigenvalues:     2.0308    20.0311    26.8786
    125  Bq   Isotropic =    16.2893   Anisotropy =    17.1866
   XX=    10.3515   YX=   -13.8684   ZX=    -3.5955
[...]
   141  Bq   0.000000
   142  Bq   0.000000
   143  Bq   0.000000
   144  Bq   0.000000
   145  Bq   0.000000
   146  Bq   0.000000
   147  Bq   0.000000
   148  Bq   0.000000
   149  Bq   0.000000
   150  Bq   0.000000
   151  Bq   0.000000
   152  Bq   0.000000
   153  Bq   0.000000
   154  Bq   0.000000
   155  Bq   0.000000
   156  Bq   0.000000
   157  Bq   0.000000
   158  Bq   0.000000
   159  Bq   0.000000
   160  Bq   0.000000
   161  Bq   0.000000
   162  Bq   0.000000
   163  Bq   0.000000
   164  Bq   0.000000
   165  Bq   0.000000
   166  Bq   0.000000
   167  Bq   0.000000
   168  Bq   0.000000
   169  Bq   0.000000
   170  Bq   0.000000
   171  Bq   0.000000
   172  Bq   0.000000
   173  Bq   0.000000
   174  Bq   0.000000
   175  Bq   0.000000
   176  Bq   0.000000
   177  Bq   0.000000
   178  Bq   0.000000
   179  Bq   0.000000
   180  Bq   0.000000
   181  Bq   0.000000
   182  Bq   0.000000
   183  Bq   0.000000
   184  Bq   0.000000
   185  Bq   0.000000
   186  Bq   0.000000
   187  Bq   0.000000
   188  Bq   0.000000
   189  Bq   0.000000
   190  Bq   0.000000
   191  Bq   0.000000
   192  Bq   0.000000
   193  Bq   0.000000
   194  Bq   0.000000
   195  Bq   0.000000
   196  Bq   0.000000
   197  Bq   0.000000
   198  Bq   0.000000
   199  Bq   0.000000
   200  Bq   0.000000
   201  Bq   0.000000
   202  Bq   0.000000
   203  Bq   0.000000
   204  Bq   0.000000
   205  Bq   0.000000
   206  Bq   0.000000
   207  Bq   0.000000
   208  Bq   0.000000
   209  Bq   0.000000
   210  Bq   0.000000
   211  Bq   0.000000
   212  Bq   0.000000
   213  Bq   0.000000
   214  Bq   0.000000
   215  Bq   0.000000
   216  Bq   0.000000
   217  Bq   0.000000
   218  Bq   0.000000
   219  Bq   0.000000
   220  Bq   0.000000
   221  Bq   0.000000
   222  Bq   0.000000
   223  Bq   0.000000
   224  Bq   0.000000
   225  Bq   0.000000
   226  Bq   0.000000
   227  Bq   0.000000
   228  Bq   0.000000
   229  Bq   0.000000
   230  Bq   0.000000
   231  Bq   0.000000
   232  Bq   0.000000
   233  Bq   0.000000
   234  Bq   0.000000
   235  Bq   0.000000
   236  Bq   0.000000
 Sum of Mulliken charges =   0.00000
 Mulliken charges with hydrogens summed into heavy atoms:
               1
     1  C   -0.255498
     3  C    0.169409
     5  C    0.448258
     6  C    0.064351
     7  C   -0.483520
     9  C   -0.139521
    11  C   -0.205988
    13  C   -0.119315
    15  C    0.653397
    16  C    0.034822
    17  C   -0.317410
    19  C   -0.316854
    21  C    0.651066
    22  C    0.037784
    23  C   -0.117289
    25  C   -0.205316
    27  C    0.448331
    28  C    0.061983
    29  C   -0.333381
    31  C   -0.139505
    33  C   -0.255977
    35  C    0.170579
    37  Bq   0.000000
    38  Bq   0.000000
    39  Bq   0.000000
    40  Bq   0.000000
    41  Bq   0.000000
    42  Bq   0.000000
    43  Bq   0.000000
    44  Bq   0.000000
    45  Bq   0.000000
    46  Bq   0.000000
    47  Bq   0.000000
    48  Bq   0.000000
    49  Bq   0.000000
    50  Bq   0.000000
    51  Bq   0.149595
    52  Bq   0.000000
    53  Bq   0.000000
    54  Bq   0.000000
    55  Bq   0.000000
    56  Bq   0.000000
    57  Bq   0.000000
    58  Bq   0.000000
    59  Bq   0.000000
    60  Bq   0.000000
    61  Bq   0.000000
    62  Bq   0.000000
    63  Bq   0.000000
    64  Bq   0.000000
    65  Bq   0.000000
    66  Bq   0.000000
    67  Bq   0.000000
    68  Bq   0.000000
    69  Bq   0.000000
    70  Bq   0.000000
    71  Bq   0.000000
    72  Bq   0.000000
    73  Bq   0.000000
    74  Bq   0.000000
    75  Bq   0.000000
    76  Bq   0.000000
    77  Bq   0.000000
    78  Bq   0.000000
    79  Bq   0.000000
    80  Bq   0.000000
    81  Bq   0.000000
    82  Bq   0.000000
    83  Bq   0.000000
    84  Bq   0.000000
    85  Bq   0.000000
    86  Bq   0.000000
    87  Bq   0.000000
    88  Bq   0.000000
    89  Bq   0.000000
    90  Bq   0.000000
    91  Bq   0.000000
    92  Bq   0.000000
    93  Bq   0.000000
    94  Bq   0.000000
    95  Bq   0.000000
    96  Bq   0.000000
    97  Bq   0.000000
    98  Bq   0.000000
    99  Bq   0.000000
   100  Bq   0.000000
   101  Bq   0.000000
   102  Bq   0.000000
   103  Bq   0.000000
   104  Bq   0.000000
   105  Bq   0.000000
   106  Bq   0.000000
   107  Bq   0.000000
   108  Bq   0.000000
   109  Bq   0.000000
   110  Bq   0.000000
   111  Bq   0.000000
   112  Bq   0.000000
   113  Bq   0.000000
   114  Bq   0.000000
   115  Bq   0.000000
   116  Bq   0.000000
   117  Bq   0.000000
   118  Bq   0.000000
   119  Bq   0.000000
   120  Bq   0.000000
   121  Bq   0.000000
   122  Bq   0.000000
   123  Bq   0.000000
   124  Bq   0.000000
   125  Bq   0.000000
   126  Bq   0.000000
   127  Bq   0.000000
   128  Bq   0.000000
   129  Bq   0.000000
   130  Bq   0.000000
   131  Bq   0.000000
   132  Bq   0.000000
   133  Bq   0.000000
   134  Bq   0.000000
   135  Bq   0.000000
   136  Bq   0.000000
   137  Bq   0.000000
   138  Bq   0.000000
   139  Bq   0.000000
   140  Bq   0.000000
   141  Bq   0.000000
   142  Bq   0.000000
   143  Bq   0.000000
   144  Bq   0.000000
   145  Bq   0.000000
   146  Bq   0.000000
   147  Bq   0.000000
   148  Bq   0.000000
   149  Bq   0.000000
   150  Bq   0.000000
   151  Bq   0.000000
   152  Bq   0.000000
   153  Bq   0.000000
   154  Bq   0.000000
   155  Bq   0.000000
   156  Bq   0.000000
   157  Bq   0.000000
   158  Bq   0.000000
   159  Bq   0.000000
   160  Bq   0.000000
   161  Bq   0.000000
   162  Bq   0.000000
   163  Bq   0.000000
   164  Bq   0.000000
   165  Bq   0.000000
   166  Bq   0.000000
   167  Bq   0.000000
   168  Bq   0.000000
   169  Bq   0.000000
   170  Bq   0.000000
   171  Bq   0.000000
   172  Bq   0.000000
   173  Bq   0.000000
   174  Bq   0.000000
   175  Bq   0.000000
   176  Bq   0.000000
   177  Bq   0.000000
   178  Bq   0.000000
   179  Bq   0.000000
   180  Bq   0.000000
   181  Bq   0.000000
   182  Bq   0.000000
   183  Bq   0.000000
   184  Bq   0.000000
   185  Bq   0.000000
   186  Bq   0.000000
   187  Bq   0.000000
   188  Bq   0.000000
   189  Bq   0.000000
   190  Bq   0.000000
   191  Bq   0.000000
   192  Bq   0.000000
   193  Bq   0.000000
   194  Bq   0.000000
   195  Bq   0.000000
   196  Bq   0.000000
   197  Bq   0.000000
   198  Bq   0.000000
   199  Bq   0.000000
   200  Bq   0.000000
   201  Bq   0.000000
   202  Bq   0.000000
   203  Bq   0.000000
   204  Bq   0.000000
   205  Bq   0.000000
   206  Bq   0.000000
   207  Bq   0.000000
   208  Bq   0.000000
   209  Bq   0.000000
   210  Bq   0.000000
   211  Bq   0.000000
   212  Bq   0.000000
   213  Bq   0.000000
   214  Bq   0.000000
   215  Bq   0.000000
   216  Bq   0.000000
   217  Bq   0.000000
   218  Bq   0.000000
   219  Bq   0.000000
   220  Bq   0.000000
   221  Bq   0.000000
   222  Bq   0.000000
   223  Bq   0.000000
   224  Bq   0.000000
   225  Bq   0.000000
   226  Bq   0.000000
   227  Bq   0.000000
   228  Bq   0.000000
   229  Bq   0.000000
   230  Bq   0.000000
   231  Bq   0.000000
   232  Bq   0.000000
   233  Bq   0.000000
   234  Bq   0.000000
   235  Bq   0.000000
   236  Bq   0.000000
 Electronic spatial extent (au):  <R**2>=           5736.9264
 Charge=              0.0000 electrons
 Dipole moment (field-independent basis, Debye):
    X=              0.0475    Y=              0.0856    Z=              0.0029  Tot=              0.0979
 Quadrupole moment (field-independent basis, Debye-Ang):
   XX=           -113.7056   YY=           -113.9456   ZZ=           -133.2669
   XY=             -0.3834   XZ=              3.2102   YZ=             -1.1839
 Traceless Quadrupole moment (field-independent basis, Debye-Ang):
   XX=              6.6005   YY=              6.3604   ZZ=            -12.9609
   XY=             -0.3834   XZ=              3.2102   YZ=             -1.1839
 Octapole moment (field-independent basis, Debye-Ang**2):
  XXX=            -16.4668  YYY=            -16.1860  ZZZ=             -1.7007  XYY=              2.5576
  XXY=             -6.5650  XXZ=             13.6547  XZZ=             -8.9478  YZZ=            -17.7168
  YYZ=            -13.2941  XYZ=              8.8036
 Hexadecapole moment (field-independent basis, Debye-Ang**3):
 XXXX=          -3951.1638 YYYY=          -3112.2161 ZZZZ=           -504.8311 XXXY=            340.6935
 XXXZ=            156.4968 YYYX=            335.5625 YYYZ=            -87.0893 ZZZX=            120.2262
 ZZZY=           -108.7373 XXYY=          -1176.4844 XXZZ=           -856.7291 YYZZ=           -665.7275
 XXYZ=            -68.9016 YYXZ=             48.1602 ZZXY=            153.0375
 N-N= 1.610917615562D+03 E-N=-5.186891130729D+03  KE= 8.436329774449D+02
 1\1\GINC-PLANA\SP\RB3LYP\6-311+G(d,p)\C22H14\YANNICK\19-Aug-2020\0\\# 
 rb3lyp/6-311+g** NMR geom=connectivity\\Title\\0,1\C,0,-4.0500558,-0.5
 771862,0.8136712\H,0,-5.0263804,-1.0082727,1.002476\C,0,-3.9381552,0.6
 617804,0.2400876\H,0,-4.8252424,1.233889,-0.0111295\C,0,-2.676841,1.24
 33246,0.0057578\C,0,-1.4974121,0.5051527,0.2848253\C,0,-1.6508332,-0.7
 338728,0.9404026\H,0,-0.7713646,-1.2730967,1.2633753\C,0,-2.8898548,-1
 .2624035,1.1994307\H,0,-2.9683706,-2.2124563,1.7152676\C,0,-2.5773185,
 2.5963696,-0.419293\H,0,-3.4870728,3.1412239,-0.6474055\C,0,-1.3741895
 ,3.2147896,-0.436403\H,0,-1.2997315,4.2742019,-0.6578144\C,0,-0.171948
 8,2.499409,-0.1734588\C,0,-0.2043917,1.1018437,0.0192689\C,0,1.0513491
 ,3.204256,-0.0676222\H,0,1.0427344,4.2819499,-0.1896997\C,0,2.1942091,
 2.5487446,0.2579577\H,0,3.1168527,3.0912848,0.4334727\C,0,2.2216473,1.
 1336562,0.293499\C,0,1.0486931,0.3945528,0.0302412\C,0,3.4483363,0.461
 4633,0.5573939\H,0,4.3095794,1.0606054,0.8334846\C,0,3.5427346,-0.8855
 926,0.4749463\H,0,4.4731467,-1.3939704,0.7038822\C,0,2.4490052,-1.6474
 447,-0.0196319\C,0,1.2150704,-1.0057258,-0.3013573\C,0,0.2531113,-1.74
 3444,-1.0216591\H,0,-0.6541356,-1.2535051,-1.3462847\C,0,0.4494193,-3.
 0628597,-1.3413779\H,0,-0.3083162,-3.5944309,-1.905406\C,0,1.6251726,-
 3.7207967,-0.9552541\H,0,1.7670048,-4.7687404,-1.1927019\C,0,2.6109872
 ,-3.0144177,-0.318305\H,0,3.5525612,-3.4902813,-0.0646367\Bq,0,-0.7374
 641006,-1.9182800461,1.5018844992\Bq,0,-0.7373786344,-1.8732543497,1.4
 801433086\Bq,0,-0.7372931683,-1.8282286534,1.4584021181\Bq,0,-0.737207
 7021,-1.7832029571,1.4366609276\Bq,0,-0.737122236,-1.7381772607,1.4149
 197371\Bq,0,-0.7370367699,-1.6931515644,1.3931785466\Bq,0,-0.736951303
 7,-1.6481258681,1.3714373561\Bq,0,-0.7368658376,-1.6031001717,1.349696
 1656\Bq,0,-0.7367803715,-1.5580744754,1.327954975\Bq,0,-0.7366949053,-
 1.5130487791,1.3062137845\Bq,0,-0.7366094392,-1.4680230827,1.284472594
 \Bq,0,-0.7365239731,-1.4229973864,1.2627314035\Bq,0,-0.7364385069,-1.3
 779716901,1.240990213\Bq,0,-0.7363530408,-1.3329459937,1.2192490225\Bq
 ,0,-0.7362675746,-1.2879202974,1.1975078319\Bq,0,-0.7361821085,-1.2428
 946011,1.1757666414\Bq,0,-0.7360966424,-1.1978689047,1.1540254509\Bq,0
 ,-0.7360111762,-1.1528432084,1.1322842604\Bq,0,-0.7359257101,-1.107817
 512,1.1105430699\Bq,0,-0.735840244,-1.0627918157,1.0888018794\Bq,0,-0.
 7357547778,-1.0177661194,1.0670606888\Bq,0,-0.7356693117,-0.972740423,
 1.0453194983\Bq,0,-0.7355838455,-0.9277147267,1.0235783078\Bq,0,-0.735
 4983794,-0.8826890304,1.0018371173\Bq,0,-0.7354129133,-0.837663334,0.9
 800959268\Bq,0,-0.7353274471,-0.7926376377,0.9583547363\Bq,0,-0.735241
 981,-0.7476119414,0.9366135457\Bq,0,-0.7351565149,-0.702586245,0.91487
 23552\Bq,0,-0.7350710487,-0.6575605487,0.8931311647\Bq,0,-0.7349855826
 ,-0.6125348524,0.8713899742\Bq,0,-0.7349001164,-0.567509156,0.84964878
 37\Bq,0,-0.7348146503,-0.5224834597,0.8279075932\Bq,0,-0.7347291842,-0
 .4774577634,0.8061664026\Bq,0,-0.734643718,-0.432432067,0.7844252121\B
 q,0,-0.7345582519,-0.3874063707,0.7626840216\Bq,0,-0.7344727858,-0.342
 3806743,0.7409428311\Bq,0,-0.7343873196,-0.297354978,0.7192016406\Bq,0
 ,-0.7343018535,-0.2523292817,0.6974604501\Bq,0,-0.7342163873,-0.207303
 5853,0.6757192595\Bq,0,-0.7341309212,-0.162277889,0.653978069\Bq,0,-0.
 7340454551,-0.1172521927,0.6322368785\Bq,0,-0.7339599889,-0.0722264963
 ,0.610495688\Bq,0,-0.7338745228,-0.0272008,0.5887544975\Bq,0,-0.733789
 0567,0.0178248963,0.567013307\Bq,0,-0.7337035905,0.0628505927,0.545272
 1164\Bq,0,-0.7336181244,0.107876289,0.5235309259\Bq,0,-0.7335326582,0.
 1529019853,0.5017897354\Bq,0,-0.7334471921,0.1979276817,0.4800485449\B
 q,0,-0.733361726,0.242953378,0.4583073544\Bq,0,-0.7332762598,0.2879790
 743,0.4365661639\Bq,0,-0.7331907937,0.3330047707,0.4148249734\Bq,0,-0.
 7331053276,0.378030467,0.3930837828\Bq,0,-0.7330198614,0.4230561634,0.
 3713425923\Bq,0,-0.7329343953,0.4680818597,0.3496014018\Bq,0,-0.732848
 9291,0.513107556,0.3278602113\Bq,0,-0.732763463,0.5581332524,0.3061190
 208\Bq,0,-0.7326779969,0.6031589487,0.2843778303\Bq,0,-0.7325925307,0.
 648184645,0.2626366397\Bq,0,-0.7325070646,0.6932103414,0.2408954492\Bq
 ,0,-0.7324215985,0.7382360377,0.2191542587\Bq,0,-0.7323361323,0.783261
 734,0.1974130682\Bq,0,-0.7322506662,0.8282874304,0.1756718777\Bq,0,-0.
 7321652,0.8733131267,0.1539306872\Bq,0,-0.7320797339,0.918338823,0.132
 1894966\Bq,0,-0.7319942678,0.9633645194,0.1104483061\Bq,0,-0.731908801
 6,1.0083902157,0.0887071156\Bq,0,-0.7318233355,1.053415912,0.066965925
 1\Bq,0,-0.7317378694,1.0984416084,0.0452247346\Bq,0,-0.7316524032,1.14
 34673047,0.0234835441\Bq,0,-0.7315669371,1.1884930011,0.0017423535\Bq,
 0,-0.7314814709,1.2335186974,-0.019998837\Bq,0,-0.7313960048,1.2785443
 937,-0.0417400275\Bq,0,-0.7313105387,1.3235700901,-0.063481218\Bq,0,-0
 .7312250725,1.3685957864,-0.0852224085\Bq,0,-0.7311396064,1.4136214827
 ,-0.106963599\Bq,0,-0.7310541403,1.4586471791,-0.1287047896\Bq,0,-0.73
 09686741,1.5036728754,-0.1504459801\Bq,0,-0.730883208,1.5486985717,-0.
 1721871706\Bq,0,-0.7307977418,1.5937242681,-0.1939283611\Bq,0,-0.73071
 22757,1.6387499644,-0.2156695516\Bq,0,-0.7306268096,1.6837756607,-0.23
 74107421\Bq,0,-0.7305413434,1.7288013571,-0.2591519327\Bq,0,-0.7304558
 773,1.7738270534,-0.2808931232\Bq,0,-0.7303704112,1.8188527497,-0.3026
 343137\Bq,0,-0.730284945,1.8638784461,-0.3243755042\Bq,0,-0.7301994789
 ,1.9089041424,-0.3461166947\Bq,0,-0.7301140127,1.9539298388,-0.3678578
 852\Bq,0,-0.7300285466,1.9989555351,-0.3895990757\Bq,0,-0.7299430805,2
 .0439812314,-0.4113402663\Bq,0,-0.7298576143,2.0890069278,-0.433081456
 8\Bq,0,-0.7297721482,2.1340326241,-0.4548226473\Bq,0,-0.7296866821,2.1
 790583204,-0.4765638378\Bq,0,-0.7296012159,2.2240840168,-0.4983050283\
 Bq,0,-0.688148216,-2.2784856168,1.6760105753\Bq,0,-0.6880627499,-2.233
 4599204,1.6542693847\Bq,0,-0.6879772837,-2.1884342241,1.6325281942\Bq,
 0,-0.6878918176,-2.1434085278,1.6107870037\Bq,0,-0.6878063514,-2.09838
 28314,1.5890458132\Bq,0,-0.6877208853,-2.0533571351,1.5673046227\Bq,0,
 -0.6876354192,-2.0083314388,1.5455634322\Bq,0,-0.687549953,-1.96330574
 24,1.5238222417\Bq,0,-0.6874644869,-1.9182800461,1.5020810511\Bq,0,-0.
 6873790208,-1.8732543497,1.4803398606\Bq,0,-0.6872935546,-1.8282286534
 ,1.4585986701\Bq,0,-0.6872080885,-1.7832029571,1.4368574796\Bq,0,-0.68
 71226223,-1.7381772607,1.4151162891\Bq,0,-0.6870371562,-1.6931515644,1
 .3933750986\Bq,0,-0.6869516901,-1.6481258681,1.371633908\Bq,0,-0.68686
 62239,-1.6031001717,1.3498927175\Bq,0,-0.6867807578,-1.5580744754,1.32
 8151527\Bq,0,-0.6866952917,-1.5130487791,1.3064103365\Bq,0,-0.68660982
 55,-1.4680230827,1.284669146\Bq,0,-0.6865243594,-1.4229973864,1.262927
 9555\Bq,0,-0.6864388932,-1.3779716901,1.2411867649\Bq,0,-0.6863534271,
 -1.3329459937,1.2194455744\Bq,0,-0.686267961,-1.2879202974,1.197704383
 9\Bq,0,-0.6861824948,-1.2428946011,1.1759631934\Bq,0,-0.6860970287,-1.
 1978689047,1.1542220029\Bq,0,-0.6860115626,-1.1528432084,1.1324808124\
 Bq,0,-0.6859260964,-1.107817512,1.1107396218\Bq,0,-0.6858406303,-1.062
 7918157,1.0889984313\Bq,0,-0.6857551641,-1.0177661194,1.0672572408\Bq,
 0,-0.685669698,-0.972740423,1.0455160503\Bq,0,-0.6855842319,-0.9277147
 267,1.0237748598\Bq,0,-0.6854987657,-0.8826890304,1.0020336693\Bq,0,-0
 .6854132996,-0.837663334,0.9802924787\Bq,0,-0.6853278335,-0.7926376377
 ,0.9585512882\Bq,0,-0.6852423673,-0.7476119414,0.9368100977\Bq,0,-0.68
 51569012,-0.702586245,0.9150689072\Bq,0,-0.685071435,-0.6575605487,0.8
 933277167\Bq,0,-0.6849859689,-0.6125348524,0.8715865262\Bq,0,-0.684900
 5028,-0.567509156,0.8498453356\Bq,0,-0.6848150366,-0.5224834597,0.8281
 041451\Bq,0,-0.6847295705,-0.4774577634,0.8063629546\Bq,0,-0.684644104
 4,-0.432432067,0.7846217641\Bq,0,-0.6845586382,-0.3874063707,0.7628805
 736\Bq,0,-0.6844731721,-0.3423806743,0.7411393831\Bq,0,-0.6843877059,-
 0.297354978,0.7193981926\Bq,0,-0.6843022398,-0.2523292817,0.697657002\
 Bq,0,-0.6842167737,-0.2073035853,0.6759158115\Bq,0,-0.6841313075,-0.16
 2277889,0.654174621\Bq,0,-0.6840458414,-0.1172521927,0.6324334305\Bq,0
 ,-0.6839603753,-0.0722264963,0.61069224\Bq,0,-0.6838749091,-0.0272008,
 0.5889510495\Bq,0,-0.683789443,0.0178248963,0.5672098589\Bq,0,-0.68370
 39768,0.0628505927,0.5454686684\Bq,0,-0.6836185107,0.107876289,0.52372
 74779\Bq,0,-0.6835330446,0.1529019853,0.5019862874\Bq,0,-0.6834475784,
 0.1979276817,0.4802450969\Bq,0,-0.6833621123,0.242953378,0.4585039064\
 Bq,0,-0.6832766462,0.2879790743,0.4367627158\Bq,0,-0.68319118,0.333004
 7707,0.4150215253\Bq,0,-0.6831057139,0.378030467,0.3932803348\Bq,0,-0.
 6830202477,0.4230561634,0.3715391443\Bq,0,-0.6829347816,0.4680818597,0
 .3497979538\Bq,0,-0.6828493155,0.513107556,0.3280567633\Bq,0,-0.682763
 8493,0.5581332524,0.3063155727\Bq,0,-0.6826783832,0.6031589487,0.28457
 43822\Bq,0,-0.6825929171,0.648184645,0.2628331917\Bq,0,-0.6825074509,0
 .6932103414,0.2410920012\Bq,0,-0.6824219848,0.7382360377,0.2193508107\
 Bq,0,-0.6823365186,0.783261734,0.1976096202\Bq,0,-0.6822510525,0.82828
 74304,0.1758684296\Bq,0,-0.6821655864,0.8733131267,0.1541272391\Bq,0,-
 0.6820801202,0.918338823,0.1323860486\Bq,0,-0.6819946541,0.9633645194,
 0.1106448581\Bq,0,-0.681909188,1.0083902157,0.0889036676\Bq,0,-0.68182
 37218,1.053415912,0.0671624771\Bq,0,-0.6817382557,1.0984416084,0.04542
 12865\Bq,0,-0.6816527895,1.1434673047,0.023680096\Bq,0,-0.6815673234,1
 .1884930011,0.0019389055\Bq,0,-0.6814818573,1.2335186974,-0.019802285\
 Bq,0,-0.6813963911,1.2785443937,-0.0415434755\Bq,0,-0.681310925,1.3235
 700901,-0.063284666\Bq,0,-0.6812254589,1.3685957864,-0.0850258566\Bq,0
 ,-0.6811399927,1.4136214827,-0.1067670471\Bq,0,-0.6810545266,1.4586471
 791,-0.1285082376\Bq,0,-0.6809690605,1.5036728754,-0.1502494281\Bq,0,-
 0.6808835943,1.5486985717,-0.1719906186\Bq,0,-0.6807981282,1.593724268
 1,-0.1937318091\Bq,0,-0.680712662,1.6387499644,-0.2154729996\Bq,0,-0.6
 806271959,1.6837756607,-0.2372141902\Bq,0,-0.6805417298,1.7288013571,-
 0.2589553807\Bq,0,-0.6804562636,1.7738270534,-0.2806965712\Bq,0,-0.680
 3707975,1.8188527497,-0.3024377617\Bq,0,-0.6802853314,1.8638784461,-0.
 3241789522\Bq,0,-0.6801998652,1.9089041424,-0.3459201427\Bq,0,-0.68011
 43991,1.9539298388,-0.3676613333\Bq,0,-0.6800289329,1.9989555351,-0.38
 94025238\Bq,0,-0.6799434668,2.0439812314,-0.4111437143\Bq,0,-0.6798580
 007,2.0890069278,-0.4328849048\Bq,0,-0.6797725345,2.1340326241,-0.4546
 260953\Bq,0,-0.6796870684,2.1790583204,-0.4763672858\Bq,0,-0.679601602
 3,2.2240840168,-0.4981084764\Bq,0,-0.6381486023,-2.2784856168,1.676207
 1272\Bq,0,-0.6380631362,-2.2334599204,1.6544659367\Bq,0,-0.63797767,-2
 .1884342241,1.6327247462\Bq,0,-0.6378922039,-2.1434085278,1.6109835557
 \Bq,0,-0.6378067378,-2.0983828314,1.5892423652\Bq,0,-0.6377212716,-2.0
 533571351,1.5675011747\\Version=ES64L-G09RevD.01\HF=-847.0032898\RMSD=
 7.609e-09\Dipole=0.0186808,0.0336671,0.0011595\Quadrupole=4.9072795,4.
 7288219,-9.6361014,-0.2850201,2.3867064,-0.880172\PG=C01 [X(C22H14)]\\
 @


 I DON'T PRETEND TO UNDERSTAND THE UNIVERSE --
 IT'S A GREAT DEAL BIGGER THAN I AM.
       -- ATTR. TO WILLIAM ALLINGHAM (1828-89)
 Job cpu time:       0 days  3 hours 35 minutes  2.3 seconds.
 File lengths (MBytes):  RWF=    184 Int=      0 D2E=      0 Chk=     19 Scr=      1
 Normal termination of Gaussian 09 at Wed Aug 19 15:33:42 2020.

real	27m29.740s
user	214m57.225s
sys	0m5.168s
