 Entering Gaussian System, Link 0=g09
 Initial command:
 /share/programs/GAUSSIAN/64/g09/l1.exe "/scratch/yannick.29302/Gau-1240739.inp" -scrdir="/scratch/yannick.29302/"
 Entering Link 1 = /share/programs/GAUSSIAN/64/g09/l1.exe PID=   1240740.
  
 Copyright (c) 1988,1990,1992,1993,1995,1998,2003,2009,2013,
            Gaussian, Inc.  All Rights Reserved.
  
 This is part of the Gaussian(R) 09 program.  It is based on
 the Gaussian(R) 03 system (copyright 2003, Gaussian, Inc.),
 the Gaussian(R) 98 system (copyright 1998, Gaussian, Inc.),
 the Gaussian(R) 94 system (copyright 1995, Gaussian, Inc.),
 the Gaussian 92(TM) system (copyright 1992, Gaussian, Inc.),
 the Gaussian 90(TM) system (copyright 1990, Gaussian, Inc.),
 the Gaussian 88(TM) system (copyright 1988, Gaussian, Inc.),
 the Gaussian 86(TM) system (copyright 1986, Carnegie Mellon
 University), and the Gaussian 82(TM) system (copyright 1983,
 Carnegie Mellon University). Gaussian is a federally registered
 trademark of Gaussian, Inc.
  
 This software contains proprietary and confidential information,
 including trade secrets, belonging to Gaussian, Inc.
  
 This software is provided under written license and may be
 used, copied, transmitted, or stored only in accord with that
 written license.
  
 The following legend is applicable only to US Government
 contracts under FAR:
  
                    RESTRICTED RIGHTS LEGEND
  
 Use, reproduction and disclosure by the US Government is
 subject to restrictions as set forth in subparagraphs (a)
 and (c) of the Commercial Computer Software - Restricted
 Rights clause in FAR 52.227-19.
  
 Gaussian, Inc.
 340 Quinnipiac St., Bldg. 40, Wallingford CT 06492
  
  
 ---------------------------------------------------------------
 Warning -- This program may not be used in any manner that
 competes with the business of Gaussian, Inc. or will provide
 assistance to any competitor of Gaussian, Inc.  The licensee
 of this program is prohibited from giving any competitor of
 Gaussian, Inc. access to this program.  By using this program,
 the user acknowledges that Gaussian, Inc. is engaged in the
 business of creating and licensing software in the field of
 computational chemistry and represents and warrants to the
 licensee that it is not a competitor of Gaussian, Inc. and that
 it will not use this program in any manner prohibited above.
 ---------------------------------------------------------------
  

 Cite this work as:
 Gaussian 09, Revision D.01,
 M. J. Frisch, G. W. Trucks, H. B. Schlegel, G. E. Scuseria, 
 M. A. Robb, J. R. Cheeseman, G. Scalmani, V. Barone, B. Mennucci, 
 G. A. Petersson, H. Nakatsuji, M. Caricato, X. Li, H. P. Hratchian, 
 A. F. Izmaylov, J. Bloino, G. Zheng, J. L. Sonnenberg, M. Hada, 
 M. Ehara, K. Toyota, R. Fukuda, J. Hasegawa, M. Ishida, T. Nakajima, 
 Y. Honda, O. Kitao, H. Nakai, T. Vreven, J. A. Montgomery, Jr., 
 J. E. Peralta, F. Ogliaro, M. Bearpark, J. J. Heyd, E. Brothers, 
 K. N. Kudin, V. N. Staroverov, T. Keith, R. Kobayashi, J. Normand, 
 K. Raghavachari, A. Rendell, J. C. Burant, S. S. Iyengar, J. Tomasi, 
 M. Cossi, N. Rega, J. M. Millam, M. Klene, J. E. Knox, J. B. Cross, 
 V. Bakken, C. Adamo, J. Jaramillo, R. Gomperts, R. E. Stratmann, 
 O. Yazyev, A. J. Austin, R. Cammi, C. Pomelli, J. W. Ochterski, 
 R. L. Martin, K. Morokuma, V. G. Zakrzewski, G. A. Voth, 
 P. Salvador, J. J. Dannenberg, S. Dapprich, A. D. Daniels, 
 O. Farkas, J. B. Foresman, J. V. Ortiz, J. Cioslowski, 
 and D. J. Fox, Gaussian, Inc., Wallingford CT, 2013.
 
 ******************************************
 Gaussian 09:  ES64L-G09RevD.01 24-Apr-2013
                19-Aug-2020 
 ******************************************
 %nproc=8
 Will use up to    8 processors via shared memory.
 %mem=1000MB
 ----------------------------------------
 # rb3lyp/6-311+g** NMR geom=connectivity
 ----------------------------------------
 1/38=1,57=2/1;
 2/12=2,17=6,18=5,40=1/2;
 3/5=4,6=6,7=111,11=2,16=1,25=1,30=1,74=-5,116=1/1,2,8,3;
 4//1;
 5/5=2,38=5/2;
 8/6=1,10=90,11=11/1;
 10/13=100,45=16/2;
 6/7=2,8=2,9=2,10=2,28=1/1;
 99/9=1/99;
 -----
 Title
 -----
 Symbolic Z-matrix:
 Charge =  0 Multiplicity = 1
 C                    -4.05006  -0.57719   0.81367 
 H                    -5.02638  -1.00827   1.00248 
 C                    -3.93816   0.66178   0.24009 
 H                    -4.82524   1.23389  -0.01113 
 C                    -2.67684   1.24332   0.00576 
 C                    -1.49741   0.50515   0.28483 
 C                    -1.65083  -0.73387   0.9404 
 H                    -0.77136  -1.2731    1.26338 
 C                    -2.88985  -1.2624    1.19943 
 H                    -2.96837  -2.21246   1.71527 
 C                    -2.57732   2.59637  -0.41929 
 H                    -3.48707   3.14122  -0.64741 
 C                    -1.37419   3.21479  -0.4364 
 H                    -1.29973   4.2742   -0.65781 
 C                    -0.17195   2.49941  -0.17346 
 C                    -0.20439   1.10184   0.01927 
 C                     1.05135   3.20426  -0.06762 
 H                     1.04273   4.28195  -0.1897 
 C                     2.19421   2.54874   0.25796 
 H                     3.11685   3.09128   0.43347 
 C                     2.22165   1.13366   0.2935 
 C                     1.04869   0.39455   0.03024 
 C                     3.44834   0.46146   0.55739 
 H                     4.30958   1.06061   0.83348 
 C                     3.54273  -0.88559   0.47495 
 H                     4.47315  -1.39397   0.70388 
 C                     2.44901  -1.64744  -0.01963 
 C                     1.21507  -1.00573  -0.30136 
 C                     0.25311  -1.74344  -1.02166 
 H                    -0.65414  -1.25351  -1.34628 
 C                     0.44942  -3.06286  -1.34138 
 H                    -0.30832  -3.59443  -1.90541 
 C                     1.62517  -3.7208   -0.95525 
 H                     1.767    -4.76874  -1.1927 
 C                     2.61099  -3.01442  -0.31831 
 H                     3.55256  -3.49028  -0.06464 
 Bq                   -2.85226   3.21731  -0.52077 
 Bq                   -2.85177   3.26578  -0.53304 
 Bq                   -2.85128   3.31425  -0.5453 
 Bq                   -2.8508    3.36272  -0.55757 
 Bq                   -2.85031   3.41119  -0.56983 
 Bq                   -2.84982   3.45966  -0.5821 
 Bq                   -2.84934   3.50813  -0.59436 
 Bq                   -2.84885   3.5566   -0.60663 
 Bq                   -2.84836   3.60507  -0.61889 
 Bq                   -2.84788   3.65354  -0.63116 
 Bq                   -2.84739   3.70201  -0.64342 
 Bq                   -2.84691   3.75047  -0.65569 
 Bq                   -2.84642   3.79894  -0.66795 
 Bq                   -2.84593   3.84741  -0.68022 
 Bq                   -2.84545   3.89588  -0.69248 
 Bq                   -2.84496   3.94435  -0.70475 
 Bq                   -2.84447   3.99282  -0.71701 
 Bq                   -2.84399   4.04129  -0.72928 
 Bq                   -2.8435    4.08976  -0.74154 
 Bq                   -2.84301   4.13823  -0.75381 
 Bq                   -2.84253   4.1867   -0.76607 
 Bq                   -2.84204   4.23517  -0.77834 
 Bq                   -2.84155   4.28364  -0.7906 
 Bq                   -2.84024  -0.56335   0.43788 
 Bq                   -2.83975  -0.51488   0.42562 
 Bq                   -2.83927  -0.46641   0.41335 
 Bq                   -2.83878  -0.41794   0.40109 
 Bq                   -2.83829  -0.36947   0.38882 
 Bq                   -2.83781  -0.321     0.37656 
 Bq                   -2.83732  -0.27253   0.36429 
 Bq                   -2.83684  -0.22406   0.35203 
 Bq                   -2.83635  -0.17559   0.33976 
 Bq                   -2.83586  -0.12712   0.3275 
 Bq                   -2.83538  -0.07865   0.31523 
 Bq                   -2.83489  -0.03018   0.30297 
 Bq                   -2.8344    0.01829   0.2907 
 Bq                   -2.83392   0.06676   0.27844 
 Bq                   -2.83343   0.11523   0.26617 
 Bq                   -2.83294   0.1637    0.25391 
 Bq                   -2.83246   0.21217   0.24164 
 Bq                   -2.83197   0.26064   0.22938 
 Bq                   -2.83148   0.30911   0.21711 
 Bq                   -2.831     0.35758   0.20485 
 Bq                   -2.83051   0.40605   0.19258 
 Bq                   -2.83002   0.45452   0.18032 
 Bq                   -2.82954   0.50299   0.16805 
 Bq                   -2.82905   0.55146   0.15579 
 Bq                   -2.82857   0.59993   0.14352 
 Bq                   -2.82808   0.6484    0.13126 
 Bq                   -2.82759   0.69687   0.11899 
 Bq                   -2.82711   0.74534   0.10673 
 Bq                   -2.82662   0.79381   0.09446 
 Bq                   -2.82613   0.84228   0.0822 
 Bq                   -2.82565   0.89075   0.06993 
 Bq                   -2.82516   0.93922   0.05767 
 Bq                   -2.82467   0.98769   0.0454 
 Bq                   -2.82419   1.03616   0.03314 
 Bq                   -2.8237    1.08463   0.02087 
 Bq                   -2.82321   1.1331    0.00861 
 Bq                   -2.82273   1.18157  -0.00366 
 Bq                   -2.82224   1.23004  -0.01592 
 Bq                   -2.82175   1.27851  -0.02819 
 Bq                   -2.82127   1.32698  -0.04045 
 Bq                   -2.82078   1.37545  -0.05272 
 Bq                   -2.8203    1.42392  -0.06498 
 Bq                   -2.81981   1.47239  -0.07725 
 Bq                   -2.81932   1.52086  -0.08951 
 Bq                   -2.81884   1.56933  -0.10178 
 Bq                   -2.81835   1.6178   -0.11404 
 Bq                   -2.81786   1.66627  -0.12631 
 Bq                   -2.81738   1.71474  -0.13857 
 Bq                   -2.81689   1.76321  -0.15084 
 Bq                   -2.8164    1.81168  -0.1631 
 Bq                   -2.81592   1.86015  -0.17537 
 Bq                   -2.81543   1.90862  -0.18763 
 Bq                   -2.81494   1.95709  -0.1999 
 Bq                   -2.81446   2.00556  -0.21216 
 Bq                   -2.81397   2.05403  -0.22443 
 Bq                   -2.81348   2.1025   -0.23669 
 Bq                   -2.813     2.15097  -0.24896 
 Bq                   -2.81251   2.19944  -0.26122 
 Bq                   -2.81203   2.24791  -0.27349 
 Bq                   -2.81154   2.29638  -0.28575 
 Bq                   -2.81105   2.34485  -0.29802 
 Bq                   -2.81057   2.39332  -0.31028 
 Bq                   -2.81008   2.44179  -0.32255 
 Bq                   -2.80959   2.49026  -0.33481 
 Bq                   -2.80911   2.53873  -0.34708 
 Bq                   -2.80862   2.5872   -0.35934 
 Bq                   -2.80813   2.63567  -0.37161 
 Bq                   -2.80765   2.68414  -0.38387 
 Bq                   -2.80716   2.73261  -0.39614 
 Bq                   -2.80667   2.78108  -0.4084 
 Bq                   -2.80619   2.82955  -0.42067 
 Bq                   -2.8057    2.87802  -0.43293 
 Bq                   -2.80521   2.92649  -0.4452 
 Bq                   -2.80473   2.97496  -0.45746 
 Bq                   -2.80424   3.02343  -0.46973 
 Bq                   -2.80376   3.0719   -0.48199 
 Bq                   -2.80327   3.12037  -0.49426 
 Bq                   -2.80278   3.16884  -0.50652 
 Bq                   -2.8023    3.21731  -0.51879 
 Bq                   -2.80181   3.26578  -0.53105 
 Bq                   -2.80132   3.31425  -0.54332 
 Bq                   -2.80084   3.36272  -0.55558 
 Bq                   -2.80035   3.41119  -0.56785 
 Bq                   -2.79986   3.45966  -0.58011 
 Bq                   -2.79938   3.50813  -0.59238 
 Bq                   -2.79889   3.5566   -0.60465 
 Bq                   -2.7984    3.60507  -0.61691 
 Bq                   -2.79792   3.65354  -0.62918 
 Bq                   -2.79743   3.70201  -0.64144 
 Bq                   -2.79694   3.75047  -0.65371 
 Bq                   -2.79646   3.79894  -0.66597 
 Bq                   -2.79597   3.84741  -0.67824 
 Bq                   -2.79548   3.89588  -0.6905 
 Bq                   -2.795     3.94435  -0.70277 
 Bq                   -2.79451   3.99282  -0.71503 
 Bq                   -2.79403   4.04129  -0.7273 
 Bq                   -2.79354   4.08976  -0.73956 
 Bq                   -2.79305   4.13823  -0.75183 
 Bq                   -2.79257   4.1867   -0.76409 
 Bq                   -2.79208   4.23517  -0.77636 
 Bq                   -2.79159   4.28364  -0.78862 
 Bq                   -2.79028  -0.56335   0.43986 
 Bq                   -2.78979  -0.51488   0.4276 
 Bq                   -2.78931  -0.46641   0.41533 
 Bq                   -2.78882  -0.41794   0.40307 
 Bq                   -2.78833  -0.36947   0.3908 
 Bq                   -2.78785  -0.321     0.37854 
 Bq                   -2.78736  -0.27253   0.36627 
 Bq                   -2.78687  -0.22406   0.35401 
 Bq                   -2.78639  -0.17559   0.34174 
 Bq                   -2.7859   -0.12712   0.32948 
 Bq                   -2.78542  -0.07865   0.31721 
 Bq                   -2.78493  -0.03018   0.30495 
 Bq                   -2.78444   0.01829   0.29268 
 Bq                   -2.78396   0.06676   0.28042 
 Bq                   -2.78347   0.11523   0.26815 
 Bq                   -2.78298   0.1637    0.25589 
 Bq                   -2.7825    0.21217   0.24362 
 Bq                   -2.78201   0.26064   0.23136 
 Bq                   -2.78152   0.30911   0.21909 
 Bq                   -2.78104   0.35758   0.20683 
 Bq                   -2.78055   0.40605   0.19456 
 Bq                   -2.78006   0.45452   0.1823 
 Bq                   -2.77958   0.50299   0.17003 
 Bq                   -2.77909   0.55146   0.15777 
 Bq                   -2.7786    0.59993   0.1455 
 Bq                   -2.77812   0.6484    0.13324 
 Bq                   -2.77763   0.69687   0.12097 
 Bq                   -2.77715   0.74534   0.10871 
 Bq                   -2.77666   0.79381   0.09644 
 Bq                   -2.77617   0.84228   0.08418 
 Bq                   -2.77569   0.89075   0.07191 
 Bq                   -2.7752    0.93922   0.05965 
 Bq                   -2.77471   0.98769   0.04738 
 Bq                   -2.77423   1.03616   0.03512 
 Bq                   -2.77374   1.08463   0.02285 
 Bq                   -2.77325   1.1331    0.01059 
 Bq                   -2.77277   1.18157  -0.00168 
 Bq                   -2.77228   1.23004  -0.01394 
 Bq                   -2.77179   1.27851  -0.02621 
 Bq                   -2.77131   1.32698  -0.03847 
 Bq                   -2.77082   1.37545  -0.05074 
 Bq                   -2.77033   1.42392  -0.063 
 Bq                   -2.76985   1.47239  -0.07527 
 Bq                   -2.76936   1.52086  -0.08753 
 Bq                   -2.76888   1.56933  -0.0998 
 Bq                   -2.76839   1.6178   -0.11206 
 Bq                   -2.7679    1.66627  -0.12433 
 Bq                   -2.76742   1.71474  -0.13659 
 Bq                   -2.76693   1.76321  -0.14886 
 Bq                   -2.76644   1.81168  -0.16112 
 Bq                   -2.76596   1.86015  -0.17339 
 Bq                   -2.76547   1.90862  -0.18565 
 Bq                   -2.76498   1.95709  -0.19792 
 Bq                   -2.7645    2.00556  -0.21018 
 Bq                   -2.76401   2.05403  -0.22245 
 Bq                   -2.76352   2.1025   -0.23471 
 Bq                   -2.76304   2.15097  -0.24698 
 Bq                   -2.76255   2.19944  -0.25924 
 Bq                   -2.76206   2.24791  -0.27151 
 Bq                   -2.76158   2.29638  -0.28377 
 Bq                   -2.76109   2.34485  -0.29604 
 Bq                   -2.76061   2.39332  -0.3083 
 Bq                   -2.76012   2.44179  -0.32057 
 Bq                   -2.75963   2.49026  -0.33283 
 Bq                   -2.75915   2.53873  -0.3451 
 Bq                   -2.75866   2.5872   -0.35736 
 Bq                   -2.75817   2.63567  -0.36963 
 Bq                   -2.75769   2.68414  -0.38189 
 Bq                   -2.7572    2.73261  -0.39416 
 Bq                   -2.75671   2.78108  -0.40642 
 Bq                   -2.75623   2.82955  -0.41869 
 Bq                   -2.75574   2.87802  -0.43095 
 Bq                   -2.75525   2.92649  -0.44322 
 Bq                   -2.75477   2.97496  -0.45548 
 Bq                   -2.75428   3.02343  -0.46775 
 Bq                   -2.75379   3.0719   -0.48001 
 
 Symmetry turned off:
 Cannot cope with ghost atoms or with translation vectors.
 Stoichiometry    C22H14
 Framework group  C1[X(C22H14)]
 NUMDOF-- NAT=    36 NAtoms=   236
 Deg. of freedom     0
 Full point group                 C1      NOp   1
                          Input orientation:                          
 ---------------------------------------------------------------------
 Center     Atomic      Atomic             Coordinates (Angstroms)
 Number     Number       Type             X           Y           Z
 ---------------------------------------------------------------------
      1          6           0       -4.050056   -0.577186    0.813671
      2          1           0       -5.026380   -1.008273    1.002476
      3          6           0       -3.938155    0.661780    0.240088
      4          1           0       -4.825242    1.233889   -0.011130
      5          6           0       -2.676841    1.243325    0.005758
      6          6           0       -1.497412    0.505153    0.284825
      7          6           0       -1.650833   -0.733873    0.940403
      8          1           0       -0.771365   -1.273097    1.263375
      9          6           0       -2.889855   -1.262404    1.199431
     10          1           0       -2.968371   -2.212456    1.715268
     11          6           0       -2.577319    2.596370   -0.419293
     12          1           0       -3.487073    3.141224   -0.647406
     13          6           0       -1.374190    3.214790   -0.436403
     14          1           0       -1.299732    4.274202   -0.657814
     15          6           0       -0.171949    2.499409   -0.173459
     16          6           0       -0.204392    1.101844    0.019269
     17          6           0        1.051349    3.204256   -0.067622
     18          1           0        1.042734    4.281950   -0.189700
     19          6           0        2.194209    2.548745    0.257958
     20          1           0        3.116853    3.091285    0.433473
     21          6           0        2.221647    1.133656    0.293499
     22          6           0        1.048693    0.394553    0.030241
     23          6           0        3.448336    0.461463    0.557394
     24          1           0        4.309579    1.060605    0.833485
     25          6           0        3.542735   -0.885593    0.474946
     26          1           0        4.473147   -1.393970    0.703882
     27          6           0        2.449005   -1.647445   -0.019632
     28          6           0        1.215070   -1.005726   -0.301357
     29          6           0        0.253111   -1.743444   -1.021659
     30          1           0       -0.654136   -1.253505   -1.346285
     31          6           0        0.449419   -3.062860   -1.341378
     32          1           0       -0.308316   -3.594431   -1.905406
     33          6           0        1.625173   -3.720797   -0.955254
     34          1           0        1.767005   -4.768740   -1.192702
     35          6           0        2.610987   -3.014418   -0.318305
     36          1           0        3.552561   -3.490281   -0.064637
     37          0           0       -2.852256    3.217306   -0.520772
     38          0           0       -2.851770    3.265776   -0.533037
     39          0           0       -2.851283    3.314246   -0.545302
     40          0           0       -2.850797    3.362716   -0.557567
     41          0           0       -2.850310    3.411186   -0.569832
     42          0           0       -2.849824    3.459655   -0.582097
     43          0           0       -2.849337    3.508125   -0.594362
     44          0           0       -2.848851    3.556595   -0.606627
     45          0           0       -2.848365    3.605065   -0.618892
     46          0           0       -2.847878    3.653535   -0.631157
     47          0           0       -2.847392    3.702005   -0.643422
     48          0           0       -2.846905    3.750475   -0.655687
     49          0           0       -2.846419    3.798945   -0.667952
     50          0           0       -2.845932    3.847415   -0.680217
     51          0           0       -2.845446    3.895885   -0.692482
     52          0           0       -2.844959    3.944355   -0.704747
     53          0           0       -2.844473    3.992825   -0.717012
     54          0           0       -2.843986    4.041294   -0.729277
     55          0           0       -2.843500    4.089764   -0.741542
     56          0           0       -2.843013    4.138234   -0.753807
     57          0           0       -2.842527    4.186704   -0.766072
     58          0           0       -2.842040    4.235174   -0.778337
     59          0           0       -2.841554    4.283644   -0.790602
     60          0           0       -2.840241   -0.563348    0.437881
     61          0           0       -2.839754   -0.514878    0.425616
     62          0           0       -2.839268   -0.466408    0.413351
     63          0           0       -2.838781   -0.417938    0.401086
     64          0           0       -2.838295   -0.369468    0.388821
     65          0           0       -2.837808   -0.320998    0.376556
     66          0           0       -2.837322   -0.272528    0.364291
     67          0           0       -2.836835   -0.224058    0.352026
     68          0           0       -2.836349   -0.175588    0.339761
     69          0           0       -2.835863   -0.127118    0.327496
     70          0           0       -2.835376   -0.078648    0.315231
     71          0           0       -2.834890   -0.030179    0.302966
     72          0           0       -2.834403    0.018291    0.290701
     73          0           0       -2.833917    0.066761    0.278436
     74          0           0       -2.833430    0.115231    0.266171
     75          0           0       -2.832944    0.163701    0.253906
     76          0           0       -2.832457    0.212171    0.241641
     77          0           0       -2.831971    0.260641    0.229376
     78          0           0       -2.831484    0.309111    0.217111
     79          0           0       -2.830998    0.357581    0.204846
     80          0           0       -2.830511    0.406051    0.192581
     81          0           0       -2.830025    0.454521    0.180316
     82          0           0       -2.829538    0.502991    0.168051
     83          0           0       -2.829052    0.551460    0.155786
     84          0           0       -2.828565    0.599930    0.143521
     85          0           0       -2.828079    0.648400    0.131256
     86          0           0       -2.827592    0.696870    0.118991
     87          0           0       -2.827106    0.745340    0.106726
     88          0           0       -2.826619    0.793810    0.094461
     89          0           0       -2.826133    0.842280    0.082196
     90          0           0       -2.825647    0.890750    0.069931
     91          0           0       -2.825160    0.939220    0.057666
     92          0           0       -2.824674    0.987690    0.045401
     93          0           0       -2.824187    1.036160    0.033136
     94          0           0       -2.823701    1.084630    0.020871
     95          0           0       -2.823214    1.133099    0.008606
     96          0           0       -2.822728    1.181569   -0.003659
     97          0           0       -2.822241    1.230039   -0.015924
     98          0           0       -2.821755    1.278509   -0.028189
     99          0           0       -2.821268    1.326979   -0.040454
    100          0           0       -2.820782    1.375449   -0.052719
    101          0           0       -2.820295    1.423919   -0.064984
    102          0           0       -2.819809    1.472389   -0.077249
    103          0           0       -2.819322    1.520859   -0.089514
    104          0           0       -2.818836    1.569329   -0.101779
    105          0           0       -2.818349    1.617799   -0.114044
    106          0           0       -2.817863    1.666269   -0.126309
    107          0           0       -2.817376    1.714738   -0.138574
    108          0           0       -2.816890    1.763208   -0.150839
    109          0           0       -2.816403    1.811678   -0.163104
    110          0           0       -2.815917    1.860148   -0.175369
    111          0           0       -2.815431    1.908618   -0.187635
    112          0           0       -2.814944    1.957088   -0.199900
    113          0           0       -2.814458    2.005558   -0.212165
    114          0           0       -2.813971    2.054028   -0.224430
    115          0           0       -2.813485    2.102498   -0.236695
    116          0           0       -2.812998    2.150968   -0.248960
    117          0           0       -2.812512    2.199438   -0.261225
    118          0           0       -2.812025    2.247908   -0.273490
    119          0           0       -2.811539    2.296377   -0.285755
    120          0           0       -2.811052    2.344847   -0.298020
    121          0           0       -2.810566    2.393317   -0.310285
    122          0           0       -2.810079    2.441787   -0.322550
    123          0           0       -2.809593    2.490257   -0.334815
    124          0           0       -2.809106    2.538727   -0.347080
    125          0           0       -2.808620    2.587197   -0.359345
    126          0           0       -2.808133    2.635667   -0.371610
    127          0           0       -2.807647    2.684137   -0.383875
    128          0           0       -2.807160    2.732607   -0.396140
    129          0           0       -2.806674    2.781077   -0.408405
    130          0           0       -2.806187    2.829547   -0.420670
    131          0           0       -2.805701    2.878016   -0.432935
    132          0           0       -2.805214    2.926486   -0.445200
    133          0           0       -2.804728    2.974956   -0.457465
    134          0           0       -2.804242    3.023426   -0.469730
    135          0           0       -2.803755    3.071896   -0.481995
    136          0           0       -2.803269    3.120366   -0.494260
    137          0           0       -2.802782    3.168836   -0.506525
    138          0           0       -2.802296    3.217306   -0.518790
    139          0           0       -2.801809    3.265776   -0.531055
    140          0           0       -2.801323    3.314246   -0.543320
    141          0           0       -2.800836    3.362716   -0.555585
    142          0           0       -2.800350    3.411186   -0.567850
    143          0           0       -2.799863    3.459655   -0.580115
    144          0           0       -2.799377    3.508125   -0.592380
    145          0           0       -2.798890    3.556595   -0.604645
    146          0           0       -2.798404    3.605065   -0.616910
    147          0           0       -2.797917    3.653535   -0.629175
    148          0           0       -2.797431    3.702005   -0.641440
    149          0           0       -2.796944    3.750475   -0.653705
    150          0           0       -2.796458    3.798945   -0.665970
    151          0           0       -2.795971    3.847415   -0.678235
    152          0           0       -2.795485    3.895885   -0.690500
    153          0           0       -2.794998    3.944355   -0.702765
    154          0           0       -2.794512    3.992825   -0.715030
    155          0           0       -2.794026    4.041294   -0.727295
    156          0           0       -2.793539    4.089764   -0.739560
    157          0           0       -2.793053    4.138234   -0.751825
    158          0           0       -2.792566    4.186704   -0.764090
    159          0           0       -2.792080    4.235174   -0.776355
    160          0           0       -2.791593    4.283644   -0.788620
    161          0           0       -2.790280   -0.563348    0.439863
    162          0           0       -2.789794   -0.514878    0.427598
    163          0           0       -2.789307   -0.466408    0.415333
    164          0           0       -2.788821   -0.417938    0.403068
    165          0           0       -2.788334   -0.369468    0.390803
    166          0           0       -2.787848   -0.320998    0.378538
    167          0           0       -2.787361   -0.272528    0.366273
    168          0           0       -2.786875   -0.224058    0.354008
    169          0           0       -2.786388   -0.175588    0.341743
    170          0           0       -2.785902   -0.127118    0.329478
    171          0           0       -2.785415   -0.078648    0.317213
    172          0           0       -2.784929   -0.030179    0.304948
    173          0           0       -2.784442    0.018291    0.292683
    174          0           0       -2.783956    0.066761    0.280418
    175          0           0       -2.783469    0.115231    0.268153
    176          0           0       -2.782983    0.163701    0.255888
    177          0           0       -2.782496    0.212171    0.243623
    178          0           0       -2.782010    0.260641    0.231358
    179          0           0       -2.781524    0.309111    0.219093
    180          0           0       -2.781037    0.357581    0.206828
    181          0           0       -2.780551    0.406051    0.194563
    182          0           0       -2.780064    0.454521    0.182298
    183          0           0       -2.779578    0.502991    0.170033
    184          0           0       -2.779091    0.551460    0.157768
    185          0           0       -2.778605    0.599930    0.145503
    186          0           0       -2.778118    0.648400    0.133238
    187          0           0       -2.777632    0.696870    0.120972
    188          0           0       -2.777145    0.745340    0.108707
    189          0           0       -2.776659    0.793810    0.096442
    190          0           0       -2.776172    0.842280    0.084177
    191          0           0       -2.775686    0.890750    0.071912
    192          0           0       -2.775199    0.939220    0.059647
    193          0           0       -2.774713    0.987690    0.047382
    194          0           0       -2.774226    1.036160    0.035117
    195          0           0       -2.773740    1.084630    0.022852
    196          0           0       -2.773253    1.133099    0.010587
    197          0           0       -2.772767    1.181569   -0.001678
    198          0           0       -2.772280    1.230039   -0.013943
    199          0           0       -2.771794    1.278509   -0.026208
    200          0           0       -2.771308    1.326979   -0.038473
    201          0           0       -2.770821    1.375449   -0.050738
    202          0           0       -2.770335    1.423919   -0.063003
    203          0           0       -2.769848    1.472389   -0.075268
    204          0           0       -2.769362    1.520859   -0.087533
    205          0           0       -2.768875    1.569329   -0.099798
    206          0           0       -2.768389    1.617799   -0.112063
    207          0           0       -2.767902    1.666269   -0.124328
    208          0           0       -2.767416    1.714738   -0.136593
    209          0           0       -2.766929    1.763208   -0.148858
    210          0           0       -2.766443    1.811678   -0.161123
    211          0           0       -2.765956    1.860148   -0.173388
    212          0           0       -2.765470    1.908618   -0.185653
    213          0           0       -2.764983    1.957088   -0.197918
    214          0           0       -2.764497    2.005558   -0.210183
    215          0           0       -2.764010    2.054028   -0.222448
    216          0           0       -2.763524    2.102498   -0.234713
    217          0           0       -2.763037    2.150968   -0.246978
    218          0           0       -2.762551    2.199438   -0.259243
    219          0           0       -2.762064    2.247908   -0.271508
    220          0           0       -2.761578    2.296377   -0.283773
    221          0           0       -2.761091    2.344847   -0.296038
    222          0           0       -2.760605    2.393317   -0.308303
    223          0           0       -2.760119    2.441787   -0.320568
    224          0           0       -2.759632    2.490257   -0.332833
    225          0           0       -2.759146    2.538727   -0.345098
    226          0           0       -2.758659    2.587197   -0.357363
    227          0           0       -2.758173    2.635667   -0.369628
    228          0           0       -2.757686    2.684137   -0.381893
    229          0           0       -2.757200    2.732607   -0.394158
    230          0           0       -2.756713    2.781077   -0.406423
    231          0           0       -2.756227    2.829547   -0.418688
    232          0           0       -2.755740    2.878016   -0.430953
    233          0           0       -2.755254    2.926486   -0.443218
    234          0           0       -2.754767    2.974956   -0.455483
    235          0           0       -2.754281    3.023426   -0.467748
    236          0           0       -2.753794    3.071896   -0.480013
 ---------------------------------------------------------------------
 Rotational constants (GHZ):      0.4529074      0.2836956      0.1879557
 Standard basis: 6-311+G(d,p) (5D, 7F)
 Warning:  center  37 has no basis functions!
 Warning:  center  38 has no basis functions!
 Warning:  center  39 has no basis functions!
 Warning:  center  40 has no basis functions!
 Warning:  center  41 has no basis functions!
 Warning:  center  42 has no basis functions!
 Warning:  center  43 has no basis functions!
 Warning:  center  44 has no basis functions!
 Warning:  center  45 has no basis functions!
 Warning:  center  46 has no basis functions!
 Warning:  center  47 has no basis functions!
 Warning:  center  48 has no basis functions!
 Warning:  center  49 has no basis functions!
 Warning:  center  50 has no basis functions!
 Warning:  center  51 has no basis functions!
 Warning:  center  52 has no basis functions!
 Warning:  center  53 has no basis functions!
 Warning:  center  54 has no basis functions!
 Warning:  center  55 has no basis functions!
 Warning:  center  56 has no basis functions!
 Warning:  center  57 has no basis functions!
 Warning:  center  58 has no basis functions!
 Warning:  center  59 has no basis functions!
 Warning:  center  60 has no basis functions!
 Warning:  center  61 has no basis functions!
 Warning:  center  62 has no basis functions!
 Warning:  center  63 has no basis functions!
 Warning:  center  64 has no basis functions!
 Warning:  center  65 has no basis functions!
 Warning:  center  66 has no basis functions!
 Warning:  center  67 has no basis functions!
 Warning:  center  68 has no basis functions!
 Warning:  center  69 has no basis functions!
 Warning:  center  70 has no basis functions!
 Warning:  center  71 has no basis functions!
 Warning:  center  72 has no basis functions!
 Warning:  center  73 has no basis functions!
 Warning:  center  74 has no basis functions!
 Warning:  center  75 has no basis functions!
 Warning:  center  76 has no basis functions!
 Warning:  center  77 has no basis functions!
 Warning:  center  78 has no basis functions!
 Warning:  center  79 has no basis functions!
 Warning:  center  80 has no basis functions!
 Warning:  center  81 has no basis functions!
 Warning:  center  82 has no basis functions!
 Warning:  center  83 has no basis functions!
 Warning:  center  84 has no basis functions!
 Warning:  center  85 has no basis functions!
 Warning:  center  86 has no basis functions!
 Warning:  center  87 has no basis functions!
 Warning:  center  88 has no basis functions!
 Warning:  center  89 has no basis functions!
 Warning:  center  90 has no basis functions!
 Warning:  center  91 has no basis functions!
 Warning:  center  92 has no basis functions!
 Warning:  center  93 has no basis functions!
 Warning:  center  94 has no basis functions!
 Warning:  center  95 has no basis functions!
 Warning:  center  96 has no basis functions!
 Warning:  center  97 has no basis functions!
 Warning:  center  98 has no basis functions!
 Warning:  center  99 has no basis functions!
 Warning:  center 100 has no basis functions!
 Warning:  center 101 has no basis functions!
 Warning:  center 102 has no basis functions!
 Warning:  center 103 has no basis functions!
 Warning:  center 104 has no basis functions!
 Warning:  center 105 has no basis functions!
 Warning:  center 106 has no basis functions!
 Warning:  center 107 has no basis functions!
 Warning:  center 108 has no basis functions!
 Warning:  center 109 has no basis functions!
 Warning:  center 110 has no basis functions!
 Warning:  center 111 has no basis functions!
 Warning:  center 112 has no basis functions!
 Warning:  center 113 has no basis functions!
 Warning:  center 114 has no basis functions!
 Warning:  center 115 has no basis functions!
 Warning:  center 116 has no basis functions!
 Warning:  center 117 has no basis functions!
 Warning:  center 118 has no basis functions!
 Warning:  center 119 has no basis functions!
 Warning:  center 120 has no basis functions!
 Warning:  center 121 has no basis functions!
 Warning:  center 122 has no basis functions!
 Warning:  center 123 has no basis functions!
 Warning:  center 124 has no basis functions!
 Warning:  center 125 has no basis functions!
 Warning:  center 126 has no basis functions!
 Warning:  center 127 has no basis functions!
 Warning:  center 128 has no basis functions!
 Warning:  center 129 has no basis functions!
 Warning:  center 130 has no basis functions!
 Warning:  center 131 has no basis functions!
 Warning:  center 132 has no basis functions!
 Warning:  center 133 has no basis functions!
 Warning:  center 134 has no basis functions!
 Warning:  center 135 has no basis functions!
 Warning:  center 136 has no basis functions!
 Warning:  center 137 has no basis functions!
 Warning:  center 138 has no basis functions!
 Warning:  center 139 has no basis functions!
 Warning:  center 140 has no basis functions!
 Warning:  center 141 has no basis functions!
 Warning:  center 142 has no basis functions!
 Warning:  center 143 has no basis functions!
 Warning:  center 144 has no basis functions!
 Warning:  center 145 has no basis functions!
 Warning:  center 146 has no basis functions!
 Warning:  center 147 has no basis functions!
 Warning:  center 148 has no basis functions!
 Warning:  center 149 has no basis functions!
 Warning:  center 150 has no basis functions!
 Warning:  center 151 has no basis functions!
 Warning:  center 152 has no basis functions!
 Warning:  center 153 has no basis functions!
 Warning:  center 154 has no basis functions!
 Warning:  center 155 has no basis functions!
 Warning:  center 156 has no basis functions!
 Warning:  center 157 has no basis functions!
 Warning:  center 158 has no basis functions!
 Warning:  center 159 has no basis functions!
 Warning:  center 160 has no basis functions!
 Warning:  center 161 has no basis functions!
 Warning:  center 162 has no basis functions!
 Warning:  center 163 has no basis functions!
 Warning:  center 164 has no basis functions!
 Warning:  center 165 has no basis functions!
 Warning:  center 166 has no basis functions!
 Warning:  center 167 has no basis functions!
 Warning:  center 168 has no basis functions!
 Warning:  center 169 has no basis functions!
 Warning:  center 170 has no basis functions!
 Warning:  center 171 has no basis functions!
 Warning:  center 172 has no basis functions!
 Warning:  center 173 has no basis functions!
 Warning:  center 174 has no basis functions!
 Warning:  center 175 has no basis functions!
 Warning:  center 176 has no basis functions!
 Warning:  center 177 has no basis functions!
 Warning:  center 178 has no basis functions!
 Warning:  center 179 has no basis functions!
 Warning:  center 180 has no basis functions!
 Warning:  center 181 has no basis functions!
 Warning:  center 182 has no basis functions!
 Warning:  center 183 has no basis functions!
 Warning:  center 184 has no basis functions!
 Warning:  center 185 has no basis functions!
 Warning:  center 186 has no basis functions!
 Warning:  center 187 has no basis functions!
 Warning:  center 188 has no basis functions!
 Warning:  center 189 has no basis functions!
 Warning:  center 190 has no basis functions!
 Warning:  center 191 has no basis functions!
 Warning:  center 192 has no basis functions!
 Warning:  center 193 has no basis functions!
 Warning:  center 194 has no basis functions!
 Warning:  center 195 has no basis functions!
 Warning:  center 196 has no basis functions!
 Warning:  center 197 has no basis functions!
 Warning:  center 198 has no basis functions!
 Warning:  center 199 has no basis functions!
 Warning:  center 200 has no basis functions!
 Warning:  center 201 has no basis functions!
 Warning:  center 202 has no basis functions!
 Warning:  center 203 has no basis functions!
 Warning:  center 204 has no basis functions!
 Warning:  center 205 has no basis functions!
 Warning:  center 206 has no basis functions!
 Warning:  center 207 has no basis functions!
 Warning:  center 208 has no basis functions!
 Warning:  center 209 has no basis functions!
 Warning:  center 210 has no basis functions!
 Warning:  center 211 has no basis functions!
 Warning:  center 212 has no basis functions!
 Warning:  center 213 has no basis functions!
 Warning:  center 214 has no basis functions!
 Warning:  center 215 has no basis functions!
 Warning:  center 216 has no basis functions!
 Warning:  center 217 has no basis functions!
 Warning:  center 218 has no basis functions!
 Warning:  center 219 has no basis functions!
 Warning:  center 220 has no basis functions!
 Warning:  center 221 has no basis functions!
 Warning:  center 222 has no basis functions!
 Warning:  center 223 has no basis functions!
 Warning:  center 224 has no basis functions!
 Warning:  center 225 has no basis functions!
 Warning:  center 226 has no basis functions!
 Warning:  center 227 has no basis functions!
 Warning:  center 228 has no basis functions!
 Warning:  center 229 has no basis functions!
 Warning:  center 230 has no basis functions!
 Warning:  center 231 has no basis functions!
 Warning:  center 232 has no basis functions!
 Warning:  center 233 has no basis functions!
 Warning:  center 234 has no basis functions!
 Warning:  center 235 has no basis functions!
 Warning:  center 236 has no basis functions!
   568 basis functions,   904 primitive gaussians,   590 cartesian basis functions
    73 alpha electrons       73 beta electrons
       nuclear repulsion energy      1610.9176155625 Hartrees.
 NAtoms=  236 NActive=  236 NUniq=  236 SFac= 1.00D+00 NAtFMM=   60 NAOKFM=T Big=T
 Integral buffers will be    131072 words long.
 Raffenetti 2 integral format.
 Two-electron integral symmetry is turned off.
 One-electron integrals computed using PRISM.
 NBasis=   568 RedAO= T EigKep=  1.78D-06  NBF=   568
 NBsUse=   556 1.00D-06 EigRej=  9.09D-07 NBFU=   556
 ExpMin= 4.38D-02 ExpMax= 4.56D+03 ExpMxC= 6.82D+02 IAcc=2 IRadAn=         4 AccDes= 0.00D+00
 Harris functional with IExCor=  402 and IRadAn=       4 diagonalized for initial guess.
 HarFok:  IExCor=  402 AccDes= 0.00D+00 IRadAn=         4 IDoV= 1 UseB2=F ITyADJ=14
 ICtDFT=  3500011 ScaDFX=  1.000000  1.000000  1.000000  1.000000
 FoFCou: FMM=F IPFlag=           0 FMFlag=      100000 FMFlg1=        2001
         NFxFlg=           0 DoJE=T BraDBF=F KetDBF=T FulRan=T
         wScrn=  0.000000 ICntrl=     500 IOpCl=  0 I1Cent=   200000004 NGrid=           0
         NMat0=    1 NMatS0=      1 NMatT0=    0 NMatD0=    1 NMtDS0=    0 NMtDT0=    0
 Symmetry not used in FoFCou.
 Requested convergence on RMS density matrix=1.00D-08 within 128 cycles.
 Requested convergence on MAX density matrix=1.00D-06.
 Requested convergence on             energy=1.00D-06.
 No special actions if energy rises.
 SCF Done:  E(RB3LYP) =  -847.003289847     A.U. after   15 cycles
            NFock= 15  Conv=0.76D-08     -V/T= 2.0040
 DoSCS=F DFT=T ScalE2(SS,OS)=  1.000000  1.000000
 Range of M.O.s used for correlation:     1   556
 NBasis=   568 NAE=    73 NBE=    73 NFC=     0 NFV=     0
 NROrb=    556 NOA=    73 NOB=    73 NVA=   483 NVB=   483

 **** Warning!!: The largest alpha MO coefficient is  0.10971036D+03

          Differentiating once with respect to magnetic field using GIAOs.
          Electric field/nuclear overlap derivatives assumed to be zero.
 FoFCou: FMM=F IPFlag=           0 FMFlag=      100000 FMFlg1=        2001
         NFxFlg=           0 DoJE=F BraDBF=F KetDBF=T FulRan=T
         wScrn=  0.000000 ICntrl=    6100 IOpCl=  0 I1Cent=           7 NGrid=         236
         NMat0=    1 NMatS0=      1 NMatT0=    0 NMatD0=    1 NMtDS0=    0 NMtDT0=    0
 Symmetry not used in FoFCou.
 FoFJK:  IHMeth= 1 ICntrl=    6127 DoSepK=F KAlg= 0 I1Cent=   0 FoldK=F
 IRaf=         1 NMat=   1 IRICut=       1 DoRegI=T DoRafI=F ISym2E= 0.
          There are     3 degrees of freedom in the 1st order CPHF.  IDoFFX=0 NUNeed=     3.
      3 vectors produced by pass  0 Test12= 1.18D-12 3.33D-08 XBig12= 2.07D+03 9.18D+00.
 AX will form     3 AO Fock derivatives at one time.
      3 vectors produced by pass  1 Test12= 1.18D-12 3.33D-08 XBig12= 3.56D+00 8.03D-01.
      3 vectors produced by pass  2 Test12= 1.18D-12 3.33D-08 XBig12= 2.10D-02 6.92D-02.
      3 vectors produced by pass  3 Test12= 1.18D-12 3.33D-08 XBig12= 5.45D-05 1.89D-03.
      3 vectors produced by pass  4 Test12= 1.18D-12 3.33D-08 XBig12= 1.20D-07 7.79D-05.
      3 vectors produced by pass  5 Test12= 1.18D-12 3.33D-08 XBig12= 4.02D-10 4.73D-06.
      3 vectors produced by pass  6 Test12= 1.18D-12 3.33D-08 XBig12= 1.32D-12 2.61D-07.
 InvSVY:  IOpt=1 It=  1 EMax= 7.11D-15
 Solved reduced A of dimension    21 with     3 vectors.
 Calculating GIAO nuclear magnetic shielding tensors.
 SCF GIAO Magnetic shielding tensor (ppm):
      1  C    Isotropic =    53.8139   Anisotropy =   178.0260
   XX=   -41.4327   YX=   -32.3458   ZX=    10.0287
   XY=   -28.3572   YY=    59.0527   ZY=    55.1899
   XZ=    13.1759   YZ=    58.7550   ZZ=   143.8218
   Eigenvalues:   -53.8775    42.8214   172.4979
      2  H    Isotropic =    24.3095   Anisotropy =     4.8536
   XX=    25.5771   YX=    -1.0289   ZX=     0.5661
   XY=    -0.7431   YY=    26.1829   ZY=    -2.3306
   XZ=    -0.1707   YZ=    -2.4411   ZZ=    21.1687
   Eigenvalues:    20.2108    25.1725    27.5453
      3  C    Isotropic =    51.4055   Anisotropy =   157.8639
   XX=   -31.5399   YX=    38.5015   ZX=   -17.9316
   XY=    34.3519   YY=    49.9437   ZY=    49.6392
   XZ=    -9.8383   YZ=    44.6006   ZZ=   135.8127
   Eigenvalues:   -50.5747    48.1432   156.6481
      4  H    Isotropic =    23.8290   Anisotropy =     7.1838
   XX=    25.3635   YX=     1.8486   ZX=    -0.3559
   XY=     1.9656   YY=    26.4581   ZY=    -2.4103
   XZ=    -1.2941   YZ=    -2.6614   ZZ=    19.6654
   Eigenvalues:    18.8176    24.0511    28.6182
      5  C    Isotropic =    46.0697   Anisotropy =   207.6751
   XX=   -19.2123   YX=    -4.8852   ZX=    -1.6475
   XY=     2.8938   YY=    -2.9860   ZY=    66.5656
   XZ=     2.5356   YZ=    67.9144   ZZ=   160.4073
   Eigenvalues:   -27.2455   -19.0652   184.5197
      6  C    Isotropic =    47.5218   Anisotropy =   196.9389
   XX=   -28.1552   YX=    -2.7889   ZX=    12.0660
   XY=   -14.3886   YY=    21.2063   ZY=    74.2521
   XZ=   -18.6356   YZ=    61.1113   ZZ=   149.5144
   Eigenvalues:   -30.2925    -5.9564   178.8144
      7  C    Isotropic =    49.3915   Anisotropy =   179.8333
   XX=   -12.5211   YX=    28.7048   ZX=   -24.6745
   XY=    31.5123   YY=    29.7000   ZY=    77.7459
   XZ=   -40.0095   YZ=    65.3072   ZZ=   130.9956
   Eigenvalues:   -52.1299    31.0240   169.2804
      8  H    Isotropic =    23.1586   Anisotropy =    13.5525
   XX=    28.5711   YX=     1.5482   ZX=    -3.6986
   XY=     3.2466   YY=    22.7592   ZY=    -2.1157
   XZ=    -8.3753   YZ=    -1.0821   ZZ=    18.1456
   Eigenvalues:    15.3521    21.9301    32.1936
      9  C    Isotropic =    55.1460   Anisotropy =   174.7426
   XX=    46.7071   YX=    -2.6162   ZX=    -2.8420
   XY=     0.6223   YY=    -1.6258   ZY=    92.8272
   XZ=     0.5159   YZ=    95.6598   ZZ=   120.3568
   Eigenvalues:   -52.8932    46.6901   171.6411
     10  H    Isotropic =    24.6278   Anisotropy =     7.1815
   XX=    29.1040   YX=     0.1399   ZX=    -0.3694
   XY=     0.3642   YY=    23.4778   ZY=    -1.0805
   XZ=    -2.4493   YZ=    -2.9465   ZZ=    21.3016
   Eigenvalues:    19.9703    24.4977    29.4155
     11  C    Isotropic =    51.5607   Anisotropy =   151.2142
   XX=     2.1639   YX=    40.9287   ZX=   -26.0048
   XY=    49.9131   YY=    12.2331   ZY=    42.1342
   XZ=   -15.6145   YZ=    38.6614   ZZ=   140.2851
   Eigenvalues:   -48.1951    50.5071   152.3701
     12  H    Isotropic =    23.8537   Anisotropy =     7.3815
   XX=    25.9672   YX=     2.3738   ZX=    -0.2390
   XY=     2.4320   YY=    26.3975   ZY=    -1.8291
   XZ=     0.3529   YZ=    -1.7731   ZZ=    19.1964
   Eigenvalues:    18.7149    24.0714    28.7747
     13  C    Isotropic =    52.8653   Anisotropy =   147.4265
   XX=    51.2944   YX=    19.9221   ZX=   -13.4678
   XY=    11.5478   YY=   -34.0176   ZY=    42.5079
   XZ=    -9.2241   YZ=    40.0716   ZZ=   141.3192
   Eigenvalues:   -46.5152    53.9616   151.1497
     14  H    Isotropic =    24.0156   Anisotropy =     7.3485
   XX=    28.6644   YX=     0.6281   ZX=     1.0808
   XY=     0.5926   YY=    24.4325   ZY=    -1.0823
   XZ=     1.6846   YZ=    -0.3842   ZZ=    18.9500
   Eigenvalues:    18.6430    24.4892    28.9146
     15  C    Isotropic =    46.2221   Anisotropy =   203.9048
   XX=   -27.2215   YX=    -0.0442   ZX=   -28.9124
   XY=     4.6427   YY=   -10.5571   ZY=    28.3830
   XZ=   -10.2704   YZ=    26.7376   ZZ=   176.4448
   Eigenvalues:   -30.5512   -12.9411   182.1586
     16  C    Isotropic =    51.9375   Anisotropy =   188.2004
   XX=   -19.4441   YX=     5.5046   ZX=    15.7858
   XY=    -8.3874   YY=     2.4863   ZY=    22.9264
   XZ=   -50.6243   YZ=    23.3340   ZZ=   172.7704
   Eigenvalues:   -21.0294    -0.5625   177.4045
     17  C    Isotropic =    51.9482   Anisotropy =   149.1264
   XX=    50.7296   YX=   -23.9353   ZX=   -18.4207
   XY=   -16.7271   YY=   -41.8764   ZY=    17.8662
   XZ=   -14.3278   YZ=    11.4871   ZZ=   146.9915
   Eigenvalues:   -46.7796    51.2584   151.3658
     18  H    Isotropic =    24.0122   Anisotropy =     7.5163
   XX=    28.5811   YX=    -0.0866   ZX=     1.5071
   XY=    -0.2466   YY=    24.3342   ZY=    -0.7657
   XZ=     2.5088   YZ=    -1.5208   ZZ=    19.1214
   Eigenvalues:    18.5094    24.5041    29.0231
     19  C    Isotropic =    51.7356   Anisotropy =   148.5924
   XX=     2.4559   YX=   -45.6913   ZX=   -31.2531
   XY=   -53.4448   YY=     7.4698   ZY=    -1.8888
   XZ=   -23.5601   YZ=    -1.2765   ZZ=   145.2810
   Eigenvalues:   -46.9894    51.3989   150.7972
     20  H    Isotropic =    23.9071   Anisotropy =     7.6651
   XX=    25.5796   YX=    -2.0226   ZX=     1.4905
   XY=    -1.9998   YY=    27.3706   ZY=    -0.5164
   XZ=     2.7276   YZ=    -1.1179   ZZ=    18.7711
   Eigenvalues:    18.1643    24.5398    29.0172
     21  C    Isotropic =    45.9767   Anisotropy =   203.9316
   XX=   -16.2108   YX=    13.1802   ZX=   -44.5913
   XY=     6.5714   YY=   -20.6329   ZY=     0.0949
   XZ=   -28.8984   YZ=   -13.0883   ZZ=   174.7736
   Eigenvalues:   -30.5796   -13.4215   181.9311
     22  C    Isotropic =    52.0450   Anisotropy =   188.1157
   XX=    -0.0787   YX=     2.5023   ZX=   -16.3451
   XY=    18.9327   YY=   -14.4798   ZY=   -34.4335
   XZ=   -50.6032   YZ=    19.9104   ZZ=   170.6934
   Eigenvalues:   -20.7705    -0.5500   177.4554
     23  C    Isotropic =    53.2392   Anisotropy =   146.7412
   XX=   -22.0674   YX=   -32.0012   ZX=   -49.4857
   XY=   -23.2043   YY=    44.3661   ZY=   -15.6400
   XZ=   -43.8090   YZ=   -20.2525   ZZ=   137.4189
   Eigenvalues:   -45.6776    54.3286   151.0667
     24  H    Isotropic =    23.8249   Anisotropy =     7.5289
   XX=    25.1073   YX=    -1.7330   ZX=     1.5380
   XY=    -1.5944   YY=    28.0047   ZY=     0.0879
   XZ=     1.2557   YZ=    -0.8283   ZZ=    18.3628
   Eigenvalues:    18.0848    24.5458    28.8442
     25  C    Isotropic =    51.4969   Anisotropy =   150.1066
   XX=   -28.4915   YX=    33.9684   ZX=   -52.3137
   XY=    22.0311   YY=    46.6072   ZY=    -3.8075
   XZ=   -44.5594   YZ=   -10.6355   ZZ=   136.3748
   Eigenvalues:   -48.3857    51.3083   151.5679
     26  H    Isotropic =    23.7431   Anisotropy =     7.4052
   XX=    24.0663   YX=     1.1141   ZX=     1.9989
   XY=     0.9693   YY=    28.1000   ZY=     1.6568
   XZ=     2.0795   YZ=     0.8886   ZZ=    19.0630
   Eigenvalues:    18.2615    24.2880    28.6799
     27  C    Isotropic =    45.8108   Anisotropy =   207.2710
   XX=    -2.7702   YX=    13.7697   ZX=   -61.4651
   XY=     6.5593   YY=   -12.0335   ZY=   -41.6456
   XZ=   -62.6381   YZ=   -44.9232   ZZ=   152.2361
   Eigenvalues:   -28.0803   -18.4787   183.9915
     28  C    Isotropic =    47.8398   Anisotropy =   197.2870
   XX=    19.6900   YX=    14.4398   ZX=   -60.5682
   XY=    28.5650   YY=   -19.3566   ZY=   -56.7015
   XZ=   -63.1331   YZ=   -24.4782   ZZ=   143.1859
   Eigenvalues:   -30.5979    -5.2472   179.3644
     29  C    Isotropic =    49.3441   Anisotropy =   179.7793
   XX=    -3.4110   YX=    38.3775   ZX=   -80.8875
   XY=    36.1252   YY=    25.9805   ZY=   -23.7573
   XZ=   -78.1065   YZ=    -3.9802   ZZ=   125.4627
   Eigenvalues:   -51.6645    30.4997   169.1970
     30  H    Isotropic =    23.1387   Anisotropy =    13.3222
   XX=    22.4354   YX=    -0.7013   ZX=    -0.2375
   XY=    -2.1539   YY=    28.3546   ZY=     4.5555
   XZ=    -3.4181   YZ=     8.3231   ZZ=    18.6259
   Eigenvalues:    15.2751    22.1208    32.0201
     31  C    Isotropic =    55.4410   Anisotropy =   174.9390
   XX=    17.1871   YX=   -14.0890   ZX=   -84.0024
   XY=   -17.9030   YY=    37.4745   ZY=   -50.3662
   XZ=   -84.6557   YZ=   -54.8325   ZZ=   111.6615
   Eigenvalues:   -51.9248    46.1808   172.0670
     32  H    Isotropic =    24.5337   Anisotropy =     7.2554
   XX=    24.6185   YX=    -2.5264   ZX=     0.7632
   XY=    -2.7385   YY=    27.4630   ZY=     1.0335
   XZ=     1.1913   YZ=     3.7573   ZZ=    21.5194
   Eigenvalues:    19.8987    24.3316    29.3706
     33  C    Isotropic =    53.1814   Anisotropy =   179.0596
   XX=    60.9231   YX=    35.2256   ZX=   -42.9515
   XY=    32.0226   YY=   -38.1801   ZY=   -45.5652
   XZ=   -44.2248   YZ=   -50.7831   ZZ=   136.8014
   Eigenvalues:   -55.1197    42.1095   172.5545
     34  H    Isotropic =    24.2825   Anisotropy =     5.1861
   XX=    26.7643   YX=    -0.0934   ZX=     2.5955
   XY=    -0.2993   YY=    24.8157   ZY=     0.8589
   XZ=     2.3715   YZ=     1.4580   ZZ=    21.2676
   Eigenvalues:    20.0339    25.0737    27.7399
     35  C    Isotropic =    51.5295   Anisotropy =   155.1748
   XX=    -0.5131   YX=    52.5760   ZX=   -52.1551
   XY=    55.6135   YY=    25.1843   ZY=   -14.2643
   XZ=   -45.7255   YZ=   -17.1625   ZZ=   129.9171
   Eigenvalues:   -48.3147    47.9237   154.9793
     36  H    Isotropic =    23.8384   Anisotropy =     7.3073
   XX=    24.2302   YX=     1.4459   ZX=     2.1759
   XY=     1.2147   YY=    27.1572   ZY=     2.0665
   XZ=     1.6853   YZ=     2.7775   ZZ=    20.1277
   Eigenvalues:    18.9464    23.8588    28.7099
     37  Bq   Isotropic =    13.6200   Anisotropy =    26.7507
   XX=    26.0423   YX=    12.8266   ZX=    -0.1276
   XY=    10.5819   YY=     5.6519   ZY=     0.5604
   XZ=     0.6666   YZ=     4.8628   ZZ=     9.1658
   Eigenvalues:    -0.2673     9.6734    31.4538
     38  Bq   Isotropic =    12.6627   Anisotropy =    25.5804
   XX=    25.4402   YX=    11.1550   ZX=     0.3131
   XY=     8.3292   YY=     7.0579   ZY=    -0.4431
   XZ=     1.2508   YZ=     3.5614   ZZ=     5.4901
   Eigenvalues:     2.4346     5.8373    29.7163
     39  Bq   Isotropic =    11.4791   Anisotropy =    24.2643
   XX=    24.2257   YX=     9.6953   ZX=     0.6779
   XY=     6.4836   YY=     8.1486   ZY=    -1.3679
   XZ=     1.6861   YZ=     2.3414   ZZ=     2.0629
   Eigenvalues:     1.9990     4.7829    27.6553
     40  Bq   Isotropic =    10.1760   Anisotropy =    22.8526
   XX=    22.6177   YX=     8.4228   ZX=     0.9730
   XY=     4.9872   YY=     8.9462   ZY=    -2.1935
   XZ=     1.9972   YZ=     1.2303   ZZ=    -1.0360
   Eigenvalues:    -1.2260     6.3430    25.4111
     41  Bq   Isotropic =     8.8360   Anisotropy =    21.3953
   XX=    20.7894   YX=     7.3101   ZX=     1.2066
   XY=     3.7837   YY=     9.4822   ZY=    -2.9096
   XZ=     2.2077   YZ=     0.2431   ZZ=    -3.7635
   Eigenvalues:    -4.1179     7.5265    23.0995
     42  Bq   Isotropic =     7.5198   Anisotropy =    19.9371
   XX=    18.8723   YX=     6.3314   ZX=     1.3880
   XY=     2.8216   YY=     9.7919   ZY=    -3.5134
   XZ=     2.3387   YZ=    -0.6146   ZZ=    -6.1049
   Eigenvalues:    -6.6104     8.3586    20.8112
     43  Bq   Isotropic =     6.2698   Anisotropy =    18.5149
   XX=    16.9628   YX=     5.4646   ZX=     1.5260
   XY=     2.0557   YY=     9.9114   ZY=    -4.0069
   XZ=     2.4082   YZ=    -1.3438   ZZ=    -8.0649
   Eigenvalues:    -8.7019     8.8982    18.6131
     44  Bq   Isotropic =     5.1137   Anisotropy =    17.1578
   XX=    15.1278   YX=     4.6919   ZX=     1.6283
   XY=     1.4476   YY=     9.8752   ZY=    -4.3957
   XZ=     2.4313   YZ=    -1.9502   ZZ=    -9.6618
   Eigenvalues:   -10.4094     9.1983    16.5523
     45  Bq   Isotropic =     4.0681   Anisotropy =    15.8884
   XX=    13.4109   YX=     3.9994   ZX=     1.7015
   XY=     0.9655   YY=     9.7152   ZY=    -4.6878
   XZ=     2.4201   YZ=    -2.4422   ZZ=   -10.9219
   Eigenvalues:   -11.7595     9.3034    14.6603
     46  Bq   Isotropic =     3.1403   Anisotropy =    14.7274
   XX=    11.8379   YX=     3.3763   ZX=     1.7513
   XY=     0.5827   YY=     9.4599   ZY=    -4.8924
   XZ=     2.3842   YZ=    -2.8304   ZZ=   -11.8770
   Eigenvalues:   -12.7852     9.2474    12.9585
     47  Bq   Isotropic =     2.3310   Anisotropy =    13.7061
   XX=    10.4203   YX=     2.8141   ZX=     1.7821
   XY=     0.2777   YY=     9.1342   ZY=    -5.0197
   XZ=     2.3312   YZ=    -3.1259   ZZ=   -12.5615
   Eigenvalues:   -13.5223     9.0469    11.4684
     48  Bq   Isotropic =     1.6362   Anisotropy =    12.9005
   XX=     9.1599   YX=     2.3062   ZX=     1.7977
   XY=     0.0330   YY=     8.7594   ZY=    -5.0801
   XZ=     2.2671   YZ=    -3.3405   ZZ=   -13.0107
   Eigenvalues:   -14.0081     8.6802    10.2366
     49  Bq   Isotropic =     1.0483   Anisotropy =    12.4594
   XX=     8.0510   YX=     1.8469   ZX=     1.8012
   XY=    -0.1656   YY=     8.3534   ZY=    -5.0841
   XZ=     2.1963   YZ=    -3.4856   ZZ=   -13.2595
   Eigenvalues:   -14.2795     8.0698     9.3546
     50  Bq   Isotropic =     0.5577   Anisotropy =    12.3452
   XX=     7.0835   YX=     1.4313   ZX=     1.7954
   XY=    -0.3292   YY=     7.9307   ZY=    -5.0417
   XZ=     2.1222   YZ=    -3.5723   ZZ=   -13.3412
   Eigenvalues:   -14.3718     7.2571     8.7878
     51  Bq   Isotropic =     0.1536   Anisotropy =    12.3032
   XX=     6.2443   YX=     1.0550   ZX=     1.7823
   XY=    -0.4665   YY=     7.5030   ZY=    -4.9620
   XZ=     2.0474   YZ=    -3.6109   ZZ=   -13.2866
   Eigenvalues:   -14.3179     6.4229     8.3557
     52  Bq   Isotropic =    -0.1750   Anisotropy =    12.2184
   XX=     5.5191   YX=     0.7144   ZX=     1.7637
   XY=    -0.5845   YY=     7.0795   ZY=    -4.8535
   XZ=     1.9737   YZ=    -3.6106   ZZ=   -13.1236
   Eigenvalues:   -14.1474     5.6518     7.9706
     53  Bq   Isotropic =    -0.4387   Anisotropy =    12.0735
   XX=     4.8935   YX=     0.4059   ZX=     1.7411
   XY=    -0.6880   YY=     6.6671   ZY=    -4.7237
   XZ=     1.9024   YZ=    -3.5795   ZZ=   -12.8767
   Eigenvalues:   -13.8866     4.9601     7.6103
     54  Bq   Isotropic =    -0.6475   Anisotropy =    11.8775
   XX=     4.3537   YX=     0.1267   ZX=     1.7156
   XY=    -0.7809   YY=     6.2709   ZY=    -4.5788
   XZ=     1.8341   YZ=    -3.5249   ZZ=   -12.5670
   Eigenvalues:   -13.5579     4.3446     7.2709
     55  Bq   Isotropic =    -0.8103   Anisotropy =    11.6443
   XX=     3.8869   YX=    -0.1260   ZX=     1.6880
   XY=    -0.8655   YY=     5.8943   ZY=    -4.4243
   XZ=     1.7693   YZ=    -3.4527   ZZ=   -12.2121
   Eigenvalues:   -13.1804     3.7969     6.9525
     56  Bq   Isotropic =    -0.9353   Anisotropy =    11.3871
   XX=     3.4815   YX=    -0.3542   ZX=     1.6590
   XY=    -0.9436   YY=     5.5395   ZY=    -4.2645
   XZ=     1.7082   YZ=    -3.3680   ZZ=   -11.8268
   Eigenvalues:   -12.7699     3.3080     6.6561
     57  Bq   Isotropic =    -1.0292   Anisotropy =    11.1165
   XX=     3.1276   YX=    -0.5597   ZX=     1.6291
   XY=    -1.0161   YY=     5.2078   ZY=    -4.1029
   XZ=     1.6507   YZ=    -3.2748   ZZ=   -11.4229
   Eigenvalues:   -12.3392     2.8699     6.3819
     58  Bq   Isotropic =    -1.0979   Anisotropy =    10.8407
   XX=     2.8164   YX=    -0.7442   ZX=     1.5984
   XY=    -1.0835   YY=     4.8996   ZY=    -3.9422
   XZ=     1.5966   YZ=    -3.1764   ZZ=   -11.0098
   Eigenvalues:   -11.8983     2.4754     6.1292
     59  Bq   Isotropic =    -1.1465   Anisotropy =    10.5651
   XX=     2.5407   YX=    -0.9090   ZX=     1.5673
   XY=    -1.1458   YY=     4.6148   ZY=    -3.7845
   XZ=     1.5458   YZ=    -3.0754   ZZ=   -10.5948
   Eigenvalues:   -11.4553     2.1190     5.8969
     60  Bq   Isotropic =    13.1609   Anisotropy =    13.3174
   XX=    12.8098   YX=    -1.5187   ZX=    -0.2143
   XY=    -2.0416   YY=     7.1503   ZY=     8.0223
   XZ=    -1.9976   YZ=     3.3284   ZZ=    19.5226
   Eigenvalues:     4.7411    12.7024    22.0391
     61  Bq   Isotropic =    12.1801   Anisotropy =    12.2556
   XX=    11.6049   YX=    -1.4953   ZX=    -0.2430
   XY=    -1.9157   YY=     6.8657   ZY=     6.9496
   XZ=    -2.0710   YZ=     3.1794   ZZ=    18.0697
   Eigenvalues:     4.7097    11.4801    20.3506
     62  Bq   Isotropic =    11.3076   Anisotropy =    11.3290
   XX=    10.5604   YX=    -1.4772   ZX=    -0.2676
   XY=    -1.7980   YY=     6.6571   ZY=     6.0871
   XZ=    -2.1615   YZ=     3.1268   ZZ=    16.7054
   Eigenvalues:     4.6574    10.4052    18.8603
     63  Bq   Isotropic =    10.5452   Anisotropy =    10.5322
   XX=     9.6765   YX=    -1.4605   ZX=    -0.2917
   XY=    -1.6865   YY=     6.5170   ZY=     5.4085
   XZ=    -2.2712   YZ=     3.1523   ZZ=    15.4421
   Eigenvalues:     4.5963     9.4726    17.5667
     64  Bq   Isotropic =     9.8922   Anisotropy =     9.8606
   XX=     8.9488   YX=    -1.4414   ZX=    -0.3182
   XY=    -1.5788   YY=     6.4411   ZY=     4.8854
   XZ=    -2.4014   YZ=     3.2386   ZZ=    14.2868
   Eigenvalues:     4.5378     8.6730    16.4660
     65  Bq   Isotropic =     9.3460   Anisotropy =     9.3091
   XX=     8.3690   YX=    -1.4165   ZX=    -0.3492
   XY=    -1.4729   YY=     6.4272   ZY=     4.4890
   XZ=    -2.5524   YZ=     3.3701   ZZ=    13.2419
   Eigenvalues:     4.4899     7.9961    15.5521
     66  Bq   Isotropic =     8.9028   Anisotropy =     8.8710
   XX=     7.9272   YX=    -1.3836   ZX=    -0.3861
   XY=    -1.3675   YY=     6.4740   ZY=     4.1919
   XZ=    -2.7236   YZ=     3.5337   ZZ=    12.3074
   Eigenvalues:     4.4557     7.4360    14.8168
     67  Bq   Isotropic =     8.5588   Anisotropy =     8.5377
   XX=     7.6137   YX=    -1.3418   ZX=    -0.4289
   XY=    -1.2620   YY=     6.5807   ZY=     3.9693
   XZ=    -2.9135   YZ=     3.7195   ZZ=    11.4821
   Eigenvalues:     4.4301     6.9958    14.2507
     68  Bq   Isotropic =     8.3109   Anisotropy =     8.2992
   XX=     7.4206   YX=    -1.2921   ZX=    -0.4769
   XY=    -1.1573   YY=     6.7463   ZY=     3.7999
   XZ=    -3.1197   YZ=     3.9214   ZZ=    10.7659
   Eigenvalues:     4.3984     6.6907    13.8437
     69  Bq   Isotropic =     8.1574   Anisotropy =     8.1454
   XX=     7.3428   YX=    -1.2376   ZX=    -0.5283
   XY=    -1.0556   YY=     6.9684   ZY=     3.6669
   XZ=    -3.3393   YZ=     4.1372   ZZ=    10.1609
   Eigenvalues:     4.3421     6.5423    13.5876
     70  Bq   Isotropic =     8.0984   Anisotropy =     8.0683
   XX=     7.3796   YX=    -1.1834   ZX=    -0.5805
   XY=    -0.9607   YY=     7.2429   ZY=     3.5585
   XZ=    -3.5685   YZ=     4.3687   ZZ=     9.6728
   Eigenvalues:     4.2568     6.5612    13.4773
     71  Bq   Isotropic =     8.1365   Anisotropy =     8.0631
   XX=     7.5348   YX=    -1.1369   ZX=    -0.6302
   XY=    -0.8785   YY=     7.5631   ZY=     3.4677
   XZ=    -3.8030   YZ=     4.6217   ZZ=     9.3117
   Eigenvalues:     4.1630     6.7346    13.5119
     72  Bq   Isotropic =     8.2760   Anisotropy =     8.1296
   XX=     7.8167   YX=    -1.1074   ZX=    -0.6736
   XY=    -0.8163   YY=     7.9188   ZY=     3.3929
   XZ=    -4.0376   YZ=     4.9060   ZZ=     9.0924
   Eigenvalues:     4.0950     7.0372    13.6957
     73  Bq   Isotropic =     8.5225   Anisotropy =     8.2728
   XX=     8.2378   YX=    -1.1058   ZX=    -0.7063
   XY=    -0.7835   YY=     8.2956   ZY=     3.3372
   XZ=    -4.2668   YZ=     5.2345   ZZ=     9.0343
   Eigenvalues:     4.0834     7.4465    14.0378
     74  Bq   Isotropic =     8.8826   Anisotropy =     8.5043
   XX=     8.8133   YX=    -1.1448   ZX=    -0.7239
   XY=    -0.7912   YY=     8.6740   ZY=     3.3084
   XZ=    -4.4844   YZ=     5.6232   ZZ=     9.1605
   Eigenvalues:     4.1461     7.9496    14.5522
     75  Bq   Isotropic =     9.3619   Anisotropy =     8.8439
   XX=     9.5599   YX=    -1.2378   ZX=    -0.7220
   XY=    -0.8520   YY=     9.0288   ZY=     3.3184
   XZ=    -4.6839   YZ=     6.0901   ZZ=     9.4970
   Eigenvalues:     4.2831     8.5448    15.2578
     76  Bq   Isotropic =     9.9640   Anisotropy =     9.3212
   XX=    10.4929   YX=    -1.3989   ZX=    -0.6963
   XY=    -0.9797   YY=     9.3278   ZY=     3.3827
   XZ=    -4.8581   YZ=     6.6552   ZZ=    10.0711
   Eigenvalues:     4.4687     9.2450    16.1781
     77  Bq   Isotropic =    10.6884   Anisotropy =     9.9765
   XX=    11.6235   YX=    -1.6425   ZX=    -0.6428
   XY=    -1.1894   YY=     9.5316   ZY=     3.5201
   XZ=    -4.9994   YZ=     7.3396   ZZ=    10.9101
   Eigenvalues:     4.6425    10.0833    17.3394
     78  Bq   Isotropic =    11.5290   Anisotropy =    10.8577
   XX=    12.9549   YX=    -1.9829   ZX=    -0.5579
   XY=    -1.4964   YY=     9.5923   ZY=     3.7521
   XZ=    -5.0996   YZ=     8.1650   ZZ=    12.0398
   Eigenvalues:     4.7069    11.1126    18.7674
     79  Bq   Isotropic =    12.4710   Anisotropy =    12.0172
   XX=    14.4773   YX=    -2.4343   ZX=    -0.4385
   XY=    -1.9162   YY=     9.4530   ZY=     4.1030
   XZ=    -5.1495   YZ=     9.1535   ZZ=    13.4827
   Eigenvalues:     4.5393    12.3912    20.4825
     80  Bq   Isotropic =    13.4883   Anisotropy =    13.5102
   XX=    16.1618   YX=    -3.0106   ZX=    -0.2823
   XY=    -2.4634   YY=     9.0469   ZY=     4.5993
   XZ=    -5.1394   YZ=    10.3268   ZZ=    15.2561
   Eigenvalues:     4.0155    13.9542    22.4951
     81  Bq   Isotropic =    14.5389   Anisotropy =    15.3967
   XX=    17.9514   YX=    -3.7257   ZX=    -0.0872
   XY=    -3.1511   YY=     8.2968   ZY=     5.2694
   XZ=    -5.0580   YZ=    11.7055   ZZ=    17.3686
   Eigenvalues:     3.0218    15.7916    24.8034
     82  Bq   Isotropic =    15.5600   Anisotropy =    17.7499
   XX=    19.7512   YX=    -4.5928   ZX=     0.1478
   XY=    -3.9892   YY=     7.1140   ZY=     6.1429
   XZ=    -4.8928   YZ=    13.3075   ZZ=    19.8147
   Eigenvalues:     1.4517    17.8350    27.3932
     83  Bq   Isotropic =    16.4603   Anisotropy =    20.6693
   XX=    21.4151   YX=    -5.6243   ZX=     0.4232
   XY=    -4.9831   YY=     5.3987   ZY=     7.2489
   XZ=    -4.6294   YZ=    15.1463   ZZ=    22.5671
   Eigenvalues:    -0.8041    19.9451    30.2398
     84  Bq   Isotropic =    17.1122   Anisotropy =    24.2932
   XX=    22.7316   YX=    -6.8301   ZX=     0.7383
   XY=    -6.1310   YY=     3.0396   ZY=     8.6135
   XZ=    -4.2523   YZ=    17.2276   ZZ=    25.5656
   Eigenvalues:    -3.8635    21.8925    33.3077
     85  Bq   Isotropic =    17.3435   Anisotropy =    28.7952
   XX=    23.4099   YX=    -8.2150   ZX=     1.0908
   XY=    -7.4212   YY=    -0.0839   ZY=    10.2565
   XZ=    -3.7443   YZ=    19.5461   ZZ=    28.7045
   Eigenvalues:    -7.8543    23.3444    36.5403
     86  Bq   Isotropic =    16.9292   Anisotropy =    34.3528
   XX=    23.0664   YX=    -9.7734   ZX=     1.4759
   XY=    -8.8269   YY=    -4.0982   ZY=    12.1879
   XZ=    -3.0884   YZ=    22.0807   ZZ=    31.8194
   Eigenvalues:   -12.9098    23.8664    39.8311
     87  Bq   Isotropic =    15.5879   Anisotropy =    41.1006
   XX=    21.2146   YX=   -11.4794   ZX=     1.8836
   XY=   -10.2971   YY=    -9.1274   ZY=    14.4043
   XZ=    -2.2688   YZ=    24.7904   ZZ=    34.6765
   Eigenvalues:   -19.1599    22.9353    42.9883
     88  Bq   Isotropic =    12.9819   Anisotropy =    49.1013
   XX=    17.2583   YX=   -13.2676   ZX=     2.2943
   XY=   -11.7399   YY=   -15.2792   ZY=    16.8875
   XZ=    -1.2762   YZ=    27.6098   ZZ=    36.9667
   Eigenvalues:   -26.7108    19.9405    45.7161
     89  Bq   Isotropic =     8.7309   Anisotropy =    58.3431
   XX=    10.5020   YX=   -14.9976   ZX=     2.6708
   XY=   -12.9908   YY=   -22.6202   ZY=    19.6058
   XZ=    -0.1159   YZ=    30.4444   ZZ=    38.3107
   Eigenvalues:   -35.6083    14.1746    47.6263
     90  Bq   Isotropic =     2.4550   Anisotropy =    68.7359
   XX=     0.2142   YX=   -16.3964   ZX=     2.9476
   XY=   -13.7631   YY=   -31.1357   ZY=    22.5185
   XZ=     1.1766   YZ=    33.1689   ZZ=    38.2865
   Eigenvalues:   -45.7685     4.8546    48.2790
     91  Bq   Isotropic =    -6.1115   Anisotropy =    80.0832
   XX=   -14.1703   YX=   -16.9865   ZX=     3.0208
   XY=   -13.5940   YY=   -40.6763   ZY=    25.5889
   XZ=     2.5162   YZ=    35.6350   ZZ=    36.5119
   Eigenvalues:   -56.8682    -8.7437    47.2772
     92  Bq   Isotropic =   -16.8842   Anisotropy =    92.0326
   XX=   -32.5867   YX=   -16.0530   ZX=     2.7553
   XY=   -11.8411   YY=   -50.9070   ZY=    28.8079
   XZ=     3.7577   YZ=    37.7034   ZZ=    32.8411
   Eigenvalues:   -68.2038   -26.9197    44.4708
     93  Bq   Isotropic =   -29.0520   Anisotropy =   104.0576
   XX=   -53.5770   YX=   -12.7873   ZX=     2.0357
   XY=    -7.8657   YY=   -61.3069   ZY=    32.2333
   XZ=     4.7231   YZ=    39.3093   ZZ=    27.7281
   Eigenvalues:   -78.6115   -48.8641    40.3198
     94  Bq   Isotropic =   -40.7820   Anisotropy =   115.4952
   XX=   -73.6236   YX=    -6.8053   ZX=     0.8893
   XY=    -1.5745   YY=   -71.3050   ZY=    35.9969
   XZ=     5.2896   YZ=    40.5074   ZZ=    22.5826
   Eigenvalues:   -86.8033   -71.7576    36.2148
     95  Bq   Isotropic =   -49.6297   Anisotropy =   125.3760
   XX=   -87.7186   YX=     0.8861   ZX=    -0.3512
   XY=     5.6467   YY=   -80.5440   ZY=    40.0776
   XZ=     5.4868   YZ=    41.3198   ZZ=    19.3735
   Eigenvalues:   -95.6503   -87.1931    33.9543
     96  Bq   Isotropic =   -54.1419   Anisotropy =   131.7791
   XX=   -92.6243   YX=     7.0223   ZX=    -1.0823
   XY=    10.2492   YY=   -88.5829   ZY=    43.5908
   XZ=     5.4191   YZ=    41.2580   ZZ=    18.7815
   Eigenvalues:  -107.1773   -88.9592    33.7109
     97  Bq   Isotropic =   -55.5333   Anisotropy =   131.9300
   XX=   -91.7665   YX=     8.2515   ZX=    -1.2702
   XY=     9.1283   YY=   -93.1755   ZY=    44.3970
   XZ=     4.6852   YZ=    39.1881   ZZ=    18.3422
   Eigenvalues:  -110.3217   -88.6981    32.4200
     98  Bq   Isotropic =   -55.8319   Anisotropy =   124.9255
   XX=   -91.3599   YX=     7.2221   ZX=    -2.1923
   XY=     5.8699   YY=   -91.1971   ZY=    41.4464
   XZ=     2.2126   YZ=    35.1201   ZZ=    15.0613
   Eigenvalues:  -106.1753   -88.7721    27.4518
     99  Bq   Isotropic =   -53.8566   Anisotropy =   113.5107
   XX=   -88.8245   YX=     9.3135   ZX=    -4.3834
   XY=     6.6015   YY=   -83.5738   ZY=    36.8681
   XZ=    -1.7167   YZ=    31.1872   ZZ=    10.8286
   Eigenvalues:  -100.6731   -82.7138    21.8172
    100  Bq   Isotropic =   -47.4205   Anisotropy =   100.9354
   XX=   -78.6116   YX=    14.1434   ZX=    -6.6734
   XY=    10.8969   YY=   -73.3409   ZY=    32.8208
   XZ=    -5.2862   YZ=    28.6764   ZZ=     9.6910
   Eigenvalues:   -95.0384   -67.0928    19.8698
    101  Bq   Isotropic =   -36.8914   Anisotropy =    88.6344
   XX=   -61.2864   YX=    18.6537   ZX=    -8.1110
   XY=    15.3219   YY=   -61.9940   ZY=    29.5848
   XZ=    -7.4111   YZ=    27.0961   ZZ=    12.6063
   Eigenvalues:   -85.6962   -47.1761    22.1982
    102  Bq   Isotropic =   -24.4502   Anisotropy =    76.9438
   XX=   -41.0171   YX=    21.2165   ZX=    -8.5651
   XY=    17.9590   YY=   -50.2430   ZY=    26.7117
   XZ=    -8.0963   YZ=    25.6498   ZZ=    17.9094
   Eigenvalues:   -73.1653   -27.0310    26.8456
    103  Bq   Isotropic =   -12.2315   Anisotropy =    66.0499
   XX=   -21.5993   YX=    21.7281   ZX=    -8.2969
   XY=    18.5686   YY=   -38.7498   ZY=    23.9049
   XZ=    -7.7721   YZ=    23.9558   ZZ=    23.6546
   Eigenvalues:   -59.3154    -9.1808    31.8018
    104  Bq   Isotropic =    -1.4770   Anisotropy =    56.1778
   XX=    -5.0519   YX=    20.7621   ZX=    -7.6300
   XY=    17.6803   YY=   -28.0735   ZY=    21.1339
   XZ=    -6.8936   YZ=    22.0020   ZZ=    28.6943
   Eigenvalues:   -45.7101     5.3042    35.9749
    105  Bq   Isotropic =     7.3863   Anisotropy =    47.4872
   XX=     8.1061   YX=    18.9607   ZX=    -6.8094
   XY=    15.9259   YY=   -18.5769   ZY=    18.4911
   XZ=    -5.7956   YZ=    19.9328   ZZ=    32.6296
   Eigenvalues:   -33.2889    16.4032    39.0444
    106  Bq   Isotropic =    14.3928   Anisotropy =    40.0399
   XX=    18.1322   YX=    16.7895   ZX=    -5.9779
   XY=    13.7695   YY=   -10.4297   ZY=    16.0789
   XZ=    -4.6742   YZ=    17.9081   ZZ=    35.4760
   Eigenvalues:   -22.4811    24.5735    41.0861
    107  Bq   Isotropic =    19.7612   Anisotropy =    33.8275
   XX=    25.5331   YX=    14.5175   ZX=    -5.2007
   XY=    11.4812   YY=    -3.6601   ZY=    13.9695
   XZ=    -3.6215   YZ=    16.0485   ZZ=    37.4107
   Eigenvalues:   -13.3999    30.3707    42.3129
    108  Bq   Isotropic =    23.7456   Anisotropy =    28.8000
   XX=    30.8119   YX=    12.2735   ZX=    -4.4981
   XY=     9.1908   YY=     1.7873   ZY=    12.2005
   XZ=    -2.6674   YZ=    14.4270   ZZ=    38.6376
   Eigenvalues:    -5.9970    34.2882    42.9456
    109  Bq   Isotropic =    26.5741   Anisotropy =    24.8832
   XX=    34.3844   YX=    10.1037   ZX=    -3.8675
   XY=     6.9419   YY=     6.0069   ZY=    10.7824
   XZ=    -1.8090   YZ=    13.0771   ZZ=    39.3311
   Eigenvalues:    -0.1593    36.7187    43.1629
    110  Bq   Isotropic =    28.4288   Anisotropy =    21.9915
   XX=    36.5638   YX=     8.0106   ZX=    -3.2963
   XY=     4.7294   YY=     9.1037   ZY=     9.7069
   XZ=    -1.0290   YZ=    12.0052   ZZ=    39.6191
   Eigenvalues:     4.2363    37.9604    43.0898
    111  Bq   Isotropic =    29.4404   Anisotropy =    20.0376
   XX=    37.5626   YX=     5.9759   ZX=    -2.7688
   XY=     2.5214   YY=    11.1780   ZY=     8.9539
   XZ=    -0.3037   YZ=    11.1992   ZZ=    39.5806
   Eigenvalues:     7.2929    38.2295    42.7988
    112  Bq   Isotropic =    29.6871   Anisotropy =    18.9374
   XX=    37.4953   YX=     3.9729   ZX=    -2.2687
   XY=     0.2748   YY=    12.3182   ZY=     8.4944
   XZ=     0.3923   YZ=    10.6338   ZZ=    39.2477
   Eigenvalues:     9.0796    37.6696    42.3120
    113  Bq   Isotropic =    29.1957   Anisotropy =    18.6104
   XX=    36.3805   YX=     1.9767   ZX=    -1.7807
   XY=    -2.0539   YY=    12.5997   ZY=     8.2919
   XZ=     1.0825   YZ=    10.2723   ZZ=    38.6070
   Eigenvalues:     9.6265    36.3580    41.6026
    114  Bq   Isotropic =    27.9461   Anisotropy =    18.9771
   XX=    34.1467   YX=    -0.0278   ZX=    -1.2919
   XY=    -4.4959   YY=    12.0890   ZY=     8.3004
   XZ=     1.7857   YZ=    10.0654   ZZ=    37.6026
   Eigenvalues:     8.9306    34.3102    40.5975
    115  Bq   Isotropic =    25.8785   Anisotropy =    19.9538
   XX=    30.6420   YX=    -2.0355   ZX=    -0.7933
   XY=    -7.0569   YY=    10.8523   ZY=     8.4604
   XZ=     2.5109   YZ=     9.9492   ZZ=    36.1411
   Eigenvalues:     6.9669    31.4875    39.1810
    116  Bq   Isotropic =    22.9050   Anisotropy =    21.4430
   XX=    25.6489   YX=    -4.0076   ZX=    -0.2824
   XY=    -9.6950   YY=     8.9670   ZY=     8.6941
   XZ=     3.2500   YZ=     9.8405   ZZ=    34.0992
   Eigenvalues:     3.7028    27.8120    37.2003
    117  Bq   Isotropic =    18.9265   Anisotropy =    23.3243
   XX=    18.9082   YX=    -5.8520   ZX=     0.2299
   XY=   -12.2889   YY=     6.5340   ZY=     8.8993
   XZ=     3.9653   YZ=     9.6337   ZZ=    31.3372
   Eigenvalues:    -0.8900    23.1934    34.4760
    118  Bq   Isotropic =    13.8581   Anisotropy =    25.4518
   XX=    10.1637   YX=    -7.3970   ZX=     0.7090
   XY=   -14.5903   YY=     3.6850   ZY=     8.9465
   XZ=     4.5706   YZ=     9.2029   ZZ=    27.7257
   Eigenvalues:    -6.8311    17.5795    30.8260
    119  Bq   Isotropic =     7.6763   Anisotropy =    27.6628
   XX=    -0.7440   YX=    -8.3663   ZX=     1.0820
   XY=   -16.1716   YY=     0.5778   ZY=     8.6881
   XZ=     4.9084   YZ=     8.4169   ZZ=    23.1952
   Eigenvalues:   -14.1394    11.0502    26.1182
    120  Bq   Isotropic =     0.4941   Anisotropy =    29.8049
   XX=   -13.7055   YX=    -8.3853   ZX=     1.2279
   XY=   -16.4031   YY=    -2.6293   ZY=     7.9897
   XZ=     4.7332   YZ=     7.1804   ZZ=    17.8170
   Eigenvalues:   -22.8445     3.9626    20.3640
    121  Bq   Isotropic =    -7.3392   Anisotropy =    31.7934
   XX=   -28.0982   YX=    -7.0669   ZX=     0.9921
   XY=   -14.5257   YY=    -5.8232   ZY=     6.7974
   XZ=     3.7301   YZ=     5.5097   ZZ=    11.9037
   Eigenvalues:   -32.9310    -2.9430    13.8564
    122  Bq   Isotropic =   -15.1678   Anisotropy =    33.7132
   XX=   -42.6028   YX=    -4.2228   ZX=     0.2531
   XY=    -9.8929   YY=    -8.9808   ZY=     5.2346
   XZ=     1.6095   YZ=     3.6317   ZZ=     6.0802
   Eigenvalues:   -44.0886    -8.7224     7.3076
    123  Bq   Isotropic =   -22.0990   Anisotropy =    35.9247
   XX=   -55.3657   YX=    -0.1218   ZX=    -0.9543
   XY=    -2.3667   YY=   -12.1566   ZY=     3.6691
   XZ=    -1.6899   YZ=     2.0418   ZZ=     1.2252
   Eigenvalues:   -55.4287   -12.7191     1.8508
    124  Bq   Isotropic =   -27.2816   Anisotropy =    38.9021
   XX=   -64.6826   YX=     4.5035   ZX=    -2.3419
   XY=     7.3655   YY=   -15.3622   ZY=     2.6173
   XZ=    -5.7576   YZ=     1.3761   ZZ=    -1.8002
   Eigenvalues:   -65.6705   -14.8275    -1.3469
    125  Bq   Isotropic =   -30.2125   Anisotropy =    42.6086
   XX=   -69.7224   YX=     8.9876   ZX=    -3.4731
[...]
   139  Bq   0.000000
   140  Bq   0.000000
   141  Bq   0.000000
   142  Bq   0.000000
   143  Bq   0.000000
   144  Bq   0.000000
   145  Bq   0.000000
   146  Bq   0.000000
   147  Bq   0.000000
   148  Bq   0.000000
   149  Bq   0.000000
   150  Bq   0.000000
   151  Bq   0.000000
   152  Bq   0.000000
   153  Bq   0.000000
   154  Bq   0.000000
   155  Bq   0.000000
   156  Bq   0.000000
   157  Bq   0.000000
   158  Bq   0.000000
   159  Bq   0.000000
   160  Bq   0.000000
   161  Bq   0.000000
   162  Bq   0.000000
   163  Bq   0.000000
   164  Bq   0.000000
   165  Bq   0.000000
   166  Bq   0.000000
   167  Bq   0.000000
   168  Bq   0.000000
   169  Bq   0.000000
   170  Bq   0.000000
   171  Bq   0.000000
   172  Bq   0.000000
   173  Bq   0.000000
   174  Bq   0.000000
   175  Bq   0.000000
   176  Bq   0.000000
   177  Bq   0.000000
   178  Bq   0.000000
   179  Bq   0.000000
   180  Bq   0.000000
   181  Bq   0.000000
   182  Bq   0.000000
   183  Bq   0.000000
   184  Bq   0.000000
   185  Bq   0.000000
   186  Bq   0.000000
   187  Bq   0.000000
   188  Bq   0.000000
   189  Bq   0.000000
   190  Bq   0.000000
   191  Bq   0.000000
   192  Bq   0.000000
   193  Bq   0.000000
   194  Bq   0.000000
   195  Bq   0.000000
   196  Bq   0.000000
   197  Bq   0.000000
   198  Bq   0.000000
   199  Bq   0.000000
   200  Bq   0.000000
   201  Bq   0.000000
   202  Bq   0.000000
   203  Bq   0.000000
   204  Bq   0.000000
   205  Bq   0.000000
   206  Bq   0.000000
   207  Bq   0.000000
   208  Bq   0.000000
   209  Bq   0.000000
   210  Bq   0.000000
   211  Bq   0.000000
   212  Bq   0.000000
   213  Bq   0.000000
   214  Bq   0.000000
   215  Bq   0.000000
   216  Bq   0.000000
   217  Bq   0.000000
   218  Bq   0.000000
   219  Bq   0.000000
   220  Bq   0.000000
   221  Bq   0.000000
   222  Bq   0.000000
   223  Bq   0.000000
   224  Bq   0.000000
   225  Bq   0.000000
   226  Bq   0.000000
   227  Bq   0.000000
   228  Bq   0.000000
   229  Bq   0.000000
   230  Bq   0.000000
   231  Bq   0.000000
   232  Bq   0.000000
   233  Bq   0.000000
   234  Bq   0.000000
   235  Bq   0.000000
   236  Bq   0.000000
 Sum of Mulliken charges =   0.00000
 Mulliken charges with hydrogens summed into heavy atoms:
               1
     1  C   -0.255498
     3  C    0.169409
     5  C    0.448258
     6  C    0.064351
     7  C   -0.333926
     9  C   -0.139521
    11  C   -0.322216
    13  C   -0.119315
    15  C    0.653397
    16  C    0.034822
    17  C   -0.317410
    19  C   -0.316854
    21  C    0.651066
    22  C    0.037784
    23  C   -0.117289
    25  C   -0.205316
    27  C    0.448331
    28  C    0.061983
    29  C   -0.333381
    31  C   -0.139505
    33  C   -0.255977
    35  C    0.170579
    37  Bq   0.116228
    38  Bq   0.000000
    39  Bq   0.000000
    40  Bq   0.000000
    41  Bq   0.000000
    42  Bq   0.000000
    43  Bq   0.000000
    44  Bq   0.000000
    45  Bq   0.000000
    46  Bq   0.000000
    47  Bq   0.000000
    48  Bq   0.000000
    49  Bq   0.000000
    50  Bq   0.000000
    51  Bq   0.000000
    52  Bq   0.000000
    53  Bq   0.000000
    54  Bq   0.000000
    55  Bq   0.000000
    56  Bq   0.000000
    57  Bq   0.000000
    58  Bq   0.000000
    59  Bq   0.000000
    60  Bq   0.000000
    61  Bq   0.000000
    62  Bq   0.000000
    63  Bq   0.000000
    64  Bq   0.000000
    65  Bq   0.000000
    66  Bq   0.000000
    67  Bq   0.000000
    68  Bq   0.000000
    69  Bq   0.000000
    70  Bq   0.000000
    71  Bq   0.000000
    72  Bq   0.000000
    73  Bq   0.000000
    74  Bq   0.000000
    75  Bq   0.000000
    76  Bq   0.000000
    77  Bq   0.000000
    78  Bq   0.000000
    79  Bq   0.000000
    80  Bq   0.000000
    81  Bq   0.000000
    82  Bq   0.000000
    83  Bq   0.000000
    84  Bq   0.000000
    85  Bq   0.000000
    86  Bq   0.000000
    87  Bq   0.000000
    88  Bq   0.000000
    89  Bq   0.000000
    90  Bq   0.000000
    91  Bq   0.000000
    92  Bq   0.000000
    93  Bq   0.000000
    94  Bq   0.000000
    95  Bq   0.000000
    96  Bq   0.000000
    97  Bq   0.000000
    98  Bq   0.000000
    99  Bq   0.000000
   100  Bq   0.000000
   101  Bq   0.000000
   102  Bq   0.000000
   103  Bq   0.000000
   104  Bq   0.000000
   105  Bq   0.000000
   106  Bq   0.000000
   107  Bq   0.000000
   108  Bq   0.000000
   109  Bq   0.000000
   110  Bq   0.000000
   111  Bq   0.000000
   112  Bq   0.000000
   113  Bq   0.000000
   114  Bq   0.000000
   115  Bq   0.000000
   116  Bq   0.000000
   117  Bq   0.000000
   118  Bq   0.000000
   119  Bq   0.000000
   120  Bq   0.000000
   121  Bq   0.000000
   122  Bq   0.000000
   123  Bq   0.000000
   124  Bq   0.000000
   125  Bq   0.000000
   126  Bq   0.000000
   127  Bq   0.000000
   128  Bq   0.000000
   129  Bq   0.000000
   130  Bq   0.000000
   131  Bq   0.000000
   132  Bq   0.000000
   133  Bq   0.000000
   134  Bq   0.000000
   135  Bq   0.000000
   136  Bq   0.000000
   137  Bq   0.000000
   138  Bq   0.000000
   139  Bq   0.000000
   140  Bq   0.000000
   141  Bq   0.000000
   142  Bq   0.000000
   143  Bq   0.000000
   144  Bq   0.000000
   145  Bq   0.000000
   146  Bq   0.000000
   147  Bq   0.000000
   148  Bq   0.000000
   149  Bq   0.000000
   150  Bq   0.000000
   151  Bq   0.000000
   152  Bq   0.000000
   153  Bq   0.000000
   154  Bq   0.000000
   155  Bq   0.000000
   156  Bq   0.000000
   157  Bq   0.000000
   158  Bq   0.000000
   159  Bq   0.000000
   160  Bq   0.000000
   161  Bq   0.000000
   162  Bq   0.000000
   163  Bq   0.000000
   164  Bq   0.000000
   165  Bq   0.000000
   166  Bq   0.000000
   167  Bq   0.000000
   168  Bq   0.000000
   169  Bq   0.000000
   170  Bq   0.000000
   171  Bq   0.000000
   172  Bq   0.000000
   173  Bq   0.000000
   174  Bq   0.000000
   175  Bq   0.000000
   176  Bq   0.000000
   177  Bq   0.000000
   178  Bq   0.000000
   179  Bq   0.000000
   180  Bq   0.000000
   181  Bq   0.000000
   182  Bq   0.000000
   183  Bq   0.000000
   184  Bq   0.000000
   185  Bq   0.000000
   186  Bq   0.000000
   187  Bq   0.000000
   188  Bq   0.000000
   189  Bq   0.000000
   190  Bq   0.000000
   191  Bq   0.000000
   192  Bq   0.000000
   193  Bq   0.000000
   194  Bq   0.000000
   195  Bq   0.000000
   196  Bq   0.000000
   197  Bq   0.000000
   198  Bq   0.000000
   199  Bq   0.000000
   200  Bq   0.000000
   201  Bq   0.000000
   202  Bq   0.000000
   203  Bq   0.000000
   204  Bq   0.000000
   205  Bq   0.000000
   206  Bq   0.000000
   207  Bq   0.000000
   208  Bq   0.000000
   209  Bq   0.000000
   210  Bq   0.000000
   211  Bq   0.000000
   212  Bq   0.000000
   213  Bq   0.000000
   214  Bq   0.000000
   215  Bq   0.000000
   216  Bq   0.000000
   217  Bq   0.000000
   218  Bq   0.000000
   219  Bq   0.000000
   220  Bq   0.000000
   221  Bq   0.000000
   222  Bq   0.000000
   223  Bq   0.000000
   224  Bq   0.000000
   225  Bq   0.000000
   226  Bq   0.000000
   227  Bq   0.000000
   228  Bq   0.000000
   229  Bq   0.000000
   230  Bq   0.000000
   231  Bq   0.000000
   232  Bq   0.000000
   233  Bq   0.000000
   234  Bq   0.000000
   235  Bq   0.000000
   236  Bq   0.000000
 Electronic spatial extent (au):  <R**2>=           5736.9264
 Charge=              0.0000 electrons
 Dipole moment (field-independent basis, Debye):
    X=              0.0475    Y=              0.0856    Z=              0.0029  Tot=              0.0979
 Quadrupole moment (field-independent basis, Debye-Ang):
   XX=           -113.7056   YY=           -113.9456   ZZ=           -133.2669
   XY=             -0.3834   XZ=              3.2102   YZ=             -1.1839
 Traceless Quadrupole moment (field-independent basis, Debye-Ang):
   XX=              6.6005   YY=              6.3604   ZZ=            -12.9609
   XY=             -0.3834   XZ=              3.2102   YZ=             -1.1839
 Octapole moment (field-independent basis, Debye-Ang**2):
  XXX=            -16.4668  YYY=            -16.1860  ZZZ=             -1.7007  XYY=              2.5576
  XXY=             -6.5650  XXZ=             13.6547  XZZ=             -8.9478  YZZ=            -17.7168
  YYZ=            -13.2941  XYZ=              8.8036
 Hexadecapole moment (field-independent basis, Debye-Ang**3):
 XXXX=          -3951.1638 YYYY=          -3112.2161 ZZZZ=           -504.8311 XXXY=            340.6935
 XXXZ=            156.4968 YYYX=            335.5625 YYYZ=            -87.0893 ZZZX=            120.2262
 ZZZY=           -108.7373 XXYY=          -1176.4844 XXZZ=           -856.7291 YYZZ=           -665.7275
 XXYZ=            -68.9016 YYXZ=             48.1602 ZZXY=            153.0375
 N-N= 1.610917615562D+03 E-N=-5.186891130729D+03  KE= 8.436329774449D+02
 1\1\GINC-PLANA\SP\RB3LYP\6-311+G(d,p)\C22H14\YANNICK\19-Aug-2020\0\\# 
 rb3lyp/6-311+g** NMR geom=connectivity\\Title\\0,1\C,0,-4.0500558,-0.5
 771862,0.8136712\H,0,-5.0263804,-1.0082727,1.002476\C,0,-3.9381552,0.6
 617804,0.2400876\H,0,-4.8252424,1.233889,-0.0111295\C,0,-2.676841,1.24
 33246,0.0057578\C,0,-1.4974121,0.5051527,0.2848253\C,0,-1.6508332,-0.7
 338728,0.9404026\H,0,-0.7713646,-1.2730967,1.2633753\C,0,-2.8898548,-1
 .2624035,1.1994307\H,0,-2.9683706,-2.2124563,1.7152676\C,0,-2.5773185,
 2.5963696,-0.419293\H,0,-3.4870728,3.1412239,-0.6474055\C,0,-1.3741895
 ,3.2147896,-0.436403\H,0,-1.2997315,4.2742019,-0.6578144\C,0,-0.171948
 8,2.499409,-0.1734588\C,0,-0.2043917,1.1018437,0.0192689\C,0,1.0513491
 ,3.204256,-0.0676222\H,0,1.0427344,4.2819499,-0.1896997\C,0,2.1942091,
 2.5487446,0.2579577\H,0,3.1168527,3.0912848,0.4334727\C,0,2.2216473,1.
 1336562,0.293499\C,0,1.0486931,0.3945528,0.0302412\C,0,3.4483363,0.461
 4633,0.5573939\H,0,4.3095794,1.0606054,0.8334846\C,0,3.5427346,-0.8855
 926,0.4749463\H,0,4.4731467,-1.3939704,0.7038822\C,0,2.4490052,-1.6474
 447,-0.0196319\C,0,1.2150704,-1.0057258,-0.3013573\C,0,0.2531113,-1.74
 3444,-1.0216591\H,0,-0.6541356,-1.2535051,-1.3462847\C,0,0.4494193,-3.
 0628597,-1.3413779\H,0,-0.3083162,-3.5944309,-1.905406\C,0,1.6251726,-
 3.7207967,-0.9552541\H,0,1.7670048,-4.7687404,-1.1927019\C,0,2.6109872
 ,-3.0144177,-0.318305\H,0,3.5525612,-3.4902813,-0.0646367\Bq,0,-2.8522
 563358,3.2173058471,-0.520771538\Bq,0,-2.8517698587,3.2657757631,-0.53
 30365527\Bq,0,-2.8512833815,3.3142456791,-0.5453015674\Bq,0,-2.8507969
 044,3.3627155951,-0.5575665821\Bq,0,-2.8503104273,3.411185511,-0.56983
 15969\Bq,0,-2.8498239502,3.459655427,-0.5820966116\Bq,0,-2.8493374731,
 3.508125343,-0.5943616263\Bq,0,-2.848850996,3.5565952589,-0.606626641\
 Bq,0,-2.8483645189,3.6050651749,-0.6188916557\Bq,0,-2.8478780418,3.653
 5350909,-0.6311566704\Bq,0,-2.8473915646,3.7020050068,-0.6434216851\Bq
 ,0,-2.8469050875,3.7504749228,-0.6556866999\Bq,0,-2.8464186104,3.79894
 48388,-0.6679517146\Bq,0,-2.8459321333,3.8474147548,-0.6802167293\Bq,0
 ,-2.8454456562,3.8958846707,-0.692481744\Bq,0,-2.8449591791,3.94435458
 67,-0.7047467587\Bq,0,-2.844472702,3.9928245027,-0.7170117734\Bq,0,-2.
 8439862249,4.0412944186,-0.7292767881\Bq,0,-2.8434997477,4.0897643346,
 -0.7415418029\Bq,0,-2.8430132706,4.1382342506,-0.7538068176\Bq,0,-2.84
 25267935,4.1867041665,-0.7660718323\Bq,0,-2.8420403164,4.2351740825,-0
 .778336847\Bq,0,-2.8415538393,4.2836439985,-0.7906018617\Bq,0,-2.84024
 08346,-0.5633475985,0.4378812416\Bq,0,-2.8397543575,-0.5148776825,0.42
 56162269\Bq,0,-2.8392678804,-0.4664077665,0.4133512122\Bq,0,-2.8387814
 033,-0.4179378506,0.4010861974\Bq,0,-2.8382949262,-0.3694679346,0.3888
 211827\Bq,0,-2.837808449,-0.3209980186,0.376556168\Bq,0,-2.8373219719,
 -0.2725281027,0.3642911533\Bq,0,-2.8368354948,-0.2240581867,0.35202613
 86\Bq,0,-2.8363490177,-0.1755882707,0.3397611239\Bq,0,-2.8358625406,-0
 .1271183548,0.3274961092\Bq,0,-2.8353760635,-0.0786484388,0.3152310944
 \Bq,0,-2.8348895864,-0.0301785228,0.3029660797\Bq,0,-2.8344031093,0.01
 82913932,0.290701065\Bq,0,-2.8339166321,0.0667613091,0.2784360503\Bq,0
 ,-2.833430155,0.1152312251,0.2661710356\Bq,0,-2.8329436779,0.163701141
 1,0.2539060209\Bq,0,-2.8324572008,0.212171057,0.2416410062\Bq,0,-2.831
 9707237,0.260640973,0.2293759915\Bq,0,-2.8314842466,0.309110889,0.2171
 109767\Bq,0,-2.8309977695,0.3575808049,0.204845962\Bq,0,-2.8305112924,
 0.4060507209,0.1925809473\Bq,0,-2.8300248152,0.4545206369,0.1803159326
 \Bq,0,-2.8295383381,0.5029905529,0.1680509179\Bq,0,-2.829051861,0.5514
 604688,0.1557859032\Bq,0,-2.8285653839,0.5999303848,0.1435208885\Bq,0,
 -2.8280789068,0.6484003008,0.1312558737\Bq,0,-2.8275924297,0.696870216
 7,0.118990859\Bq,0,-2.8271059526,0.7453401327,0.1067258443\Bq,0,-2.826
 6194755,0.7938100487,0.0944608296\Bq,0,-2.8261329984,0.8422799646,0.08
 21958149\Bq,0,-2.8256465212,0.8907498806,0.0699308002\Bq,0,-2.82516004
 41,0.9392197966,0.0576657855\Bq,0,-2.824673567,0.9876897125,0.04540077
 07\Bq,0,-2.8241870899,1.0361596285,0.033135756\Bq,0,-2.8237006128,1.08
 46295445,0.0208707413\Bq,0,-2.8232141357,1.1330994605,0.0086057266\Bq,
 0,-2.8227276586,1.1815693764,-0.0036592881\Bq,0,-2.8222411815,1.230039
 2924,-0.0159243028\Bq,0,-2.8217547043,1.2785092084,-0.0281893175\Bq,0,
 -2.8212682272,1.3269791243,-0.0404543322\Bq,0,-2.8207817501,1.37544904
 03,-0.052719347\Bq,0,-2.820295273,1.4239189563,-0.0649843617\Bq,0,-2.8
 198087959,1.4723888722,-0.0772493764\Bq,0,-2.8193223188,1.5208587882,-
 0.0895143911\Bq,0,-2.8188358417,1.5693287042,-0.1017794058\Bq,0,-2.818
 3493646,1.6177986202,-0.1140444205\Bq,0,-2.8178628874,1.6662685361,-0.
 1263094352\Bq,0,-2.8173764103,1.7147384521,-0.13857445\Bq,0,-2.8168899
 332,1.7632083681,-0.1508394647\Bq,0,-2.8164034561,1.811678284,-0.16310
 44794\Bq,0,-2.815916979,1.8601482,-0.1753694941\Bq,0,-2.8154305019,1.9
 08618116,-0.1876345088\Bq,0,-2.8149440248,1.9570880319,-0.1998995235\B
 q,0,-2.8144575477,2.0055579479,-0.2121645382\Bq,0,-2.8139710705,2.0540
 278639,-0.224429553\Bq,0,-2.8134845934,2.1024977798,-0.2366945677\Bq,0
 ,-2.8129981163,2.1509676958,-0.2489595824\Bq,0,-2.8125116392,2.1994376
 118,-0.2612245971\Bq,0,-2.8120251621,2.2479075278,-0.2734896118\Bq,0,-
 2.811538685,2.2963774437,-0.2857546265\Bq,0,-2.8110522079,2.3448473597
 ,-0.2980196412\Bq,0,-2.8105657308,2.3933172757,-0.3102846559\Bq,0,-2.8
 100792536,2.4417871916,-0.3225496707\Bq,0,-2.8095927765,2.4902571076,-
 0.3348146854\Bq,0,-2.8091062994,2.5387270236,-0.3470797001\Bq,0,-2.808
 6198223,2.5871969395,-0.3593447148\Bq,0,-2.8081333452,2.6356668555,-0.
 3716097295\Bq,0,-2.8076468681,2.6841367715,-0.3838747442\Bq,0,-2.80716
 0391,2.7326066875,-0.3961397589\Bq,0,-2.8066739139,2.7810766034,-0.408
 4047737\Bq,0,-2.8061874368,2.8295465194,-0.4206697884\Bq,0,-2.80570095
 96,2.8780164354,-0.4329348031\Bq,0,-2.8052144825,2.9264863513,-0.44519
 98178\Bq,0,-2.8047280054,2.9749562673,-0.4574648325\Bq,0,-2.8042415283
 ,3.0234261833,-0.4697298472\Bq,0,-2.8037550512,3.0718960992,-0.4819948
 619\Bq,0,-2.8032685741,3.1203660152,-0.4942598766\Bq,0,-2.802782097,3.
 1688359312,-0.5065248914\Bq,0,-2.8022956199,3.2173058471,-0.5187899061
 \Bq,0,-2.8018091427,3.2657757631,-0.5310549208\Bq,0,-2.8013226656,3.31
 42456791,-0.5433199355\Bq,0,-2.8008361885,3.3627155951,-0.5555849502\B
 q,0,-2.8003497114,3.411185511,-0.5678499649\Bq,0,-2.7998632343,3.45965
 5427,-0.5801149796\Bq,0,-2.7993767572,3.508125343,-0.5923799944\Bq,0,-
 2.7988902801,3.5565952589,-0.6046450091\Bq,0,-2.798403803,3.6050651749
 ,-0.6169100238\Bq,0,-2.7979173258,3.6535350909,-0.6291750385\Bq,0,-2.7
 974308487,3.7020050068,-0.6414400532\Bq,0,-2.7969443716,3.7504749228,-
 0.6537050679\Bq,0,-2.7964578945,3.7989448388,-0.6659700826\Bq,0,-2.795
 9714174,3.8474147548,-0.6782350974\Bq,0,-2.7954849403,3.8958846707,-0.
 6905001121\Bq,0,-2.7949984632,3.9443545867,-0.7027651268\Bq,0,-2.79451
 19861,3.9928245027,-0.7150301415\Bq,0,-2.7940255089,4.0412944186,-0.72
 72951562\Bq,0,-2.7935390318,4.0897643346,-0.7395601709\Bq,0,-2.7930525
 547,4.1382342506,-0.7518251856\Bq,0,-2.7925660776,4.1867041665,-0.7640
 902003\Bq,0,-2.7920796005,4.2351740825,-0.7763552151\Bq,0,-2.791593123
 4,4.2836439985,-0.7886202298\Bq,0,-2.7902801187,-0.5633475985,0.439862
 8735\Bq,0,-2.7897936416,-0.5148776825,0.4275978588\Bq,0,-2.7893071645,
 -0.4664077665,0.4153328441\Bq,0,-2.7888206874,-0.4179378506,0.40306782
 94\Bq,0,-2.7883342102,-0.3694679346,0.3908028147\Bq,0,-2.7878477331,-0
 .3209980186,0.3785377999\Bq,0,-2.787361256,-0.2725281027,0.3662727852\
 Bq,0,-2.7868747789,-0.2240581867,0.3540077705\Bq,0,-2.7863883018,-0.17
 55882707,0.3417427558\Bq,0,-2.7859018247,-0.1271183548,0.3294777411\Bq
 ,0,-2.7854153476,-0.0786484388,0.3172127264\Bq,0,-2.7849288705,-0.0301
 785228,0.3049477117\Bq,0,-2.7844423933,0.0182913932,0.292682697\Bq,0,-
 2.7839559162,0.0667613091,0.2804176822\Bq,0,-2.7834694391,0.1152312251
 ,0.2681526675\Bq,0,-2.782982962,0.1637011411,0.2558876528\Bq,0,-2.7824
 964849,0.212171057,0.2436226381\Bq,0,-2.7820100078,0.260640973,0.23135
 76234\Bq,0,-2.7815235307,0.309110889,0.2190926087\Bq,0,-2.7810370536,0
 .3575808049,0.206827594\Bq,0,-2.7805505764,0.4060507209,0.1945625792\B
 q,0,-2.7800640993,0.4545206369,0.1822975645\Bq,0,-2.7795776222,0.50299
 05529,0.1700325498\Bq,0,-2.7790911451,0.5514604688,0.1577675351\Bq,0,-
 2.778604668,0.5999303848,0.1455025204\Bq,0,-2.7781181909,0.6484003008,
 0.1332375057\Bq,0,-2.7776317138,0.6968702167,0.120972491\Bq,0,-2.77714
 52367,0.7453401327,0.1087074762\Bq,0,-2.7766587595,0.7938100487,0.0964
 424615\Bq,0,-2.7761722824,0.8422799646,0.0841774468\Bq,0,-2.7756858053
 ,0.8907498806,0.0719124321\Bq,0,-2.7751993282,0.9392197966,0.059647417
 4\Bq,0,-2.7747128511,0.9876897125,0.0473824027\Bq,0,-2.774226374,1.036
 1596285,0.035117388\Bq,0,-2.7737398969,1.0846295445,0.0228523733\Bq,0,
 -2.7732534198,1.1330994605,0.0105873585\Bq,0,-2.7727669426,1.181569376
 4,-0.0016776562\Bq,0,-2.7722804655,1.2300392924,-0.0139426709\Bq,0,-2.
 7717939884,1.2785092084,-0.0262076856\Bq,0,-2.7713075113,1.3269791243,
 -0.0384727003\Bq,0,-2.7708210342,1.3754490403,-0.050737715\Bq,0,-2.770
 3345571,1.4239189563,-0.0630027297\Bq,0,-2.76984808,1.4723888722,-0.07
 52677445\Bq,0,-2.7693616029,1.5208587882,-0.0875327592\Bq,0,-2.7688751
 258,1.5693287042,-0.0997977739\Bq,0,-2.7683886486,1.6177986202,-0.1120
 627886\Bq,0,-2.7679021715,1.6662685361,-0.1243278033\Bq,0,-2.767415694
 4,1.7147384521,-0.136592818\Bq,0,-2.7669292173,1.7632083681,-0.1488578
 327\Bq,0,-2.7664427402,1.811678284,-0.1611228475\Bq,0,-2.7659562631,1.
 8601482,-0.1733878622\Bq,0,-2.765469786,1.908618116,-0.1856528769\Bq,0
 ,-2.7649833089,1.9570880319,-0.1979178916\Bq,0,-2.7644968317,2.0055579
 479,-0.2101829063\Bq,0,-2.7640103546,2.0540278639,-0.222447921\Bq,0,-2
 .7635238775,2.1024977798,-0.2347129357\Bq,0,-2.7630374004,2.1509676958
 ,-0.2469779504\Bq,0,-2.7625509233,2.1994376118,-0.2592429652\Bq,0,-2.7
 620644462,2.2479075278,-0.2715079799\Bq,0,-2.7615779691,2.2963774437,-
 0.2837729946\Bq,0,-2.761091492,2.3448473597,-0.2960380093\Bq,0,-2.7606
 050148,2.3933172757,-0.308303024\Bq,0,-2.7601185377,2.4417871916,-0.32
 05680387\Bq,0,-2.7596320606,2.4902571076,-0.3328330534\Bq,0,-2.7591455
 835,2.5387270236,-0.3450980682\Bq,0,-2.7586591064,2.5871969395,-0.3573
 630829\Bq,0,-2.7581726293,2.6356668555,-0.3696280976\Bq,0,-2.757686152
 2,2.6841367715,-0.3818931123\Bq,0,-2.7571996751,2.7326066875,-0.394158
 127\Bq,0,-2.7567131979,2.7810766034,-0.4064231417\Bq,0,-2.7562267208,2
 .8295465194,-0.4186881564\Bq,0,-2.7557402437,2.8780164354,-0.430953171
 1\Bq,0,-2.7552537666,2.9264863513,-0.4432181859\Bq,0,-2.7547672895,2.9
 749562673,-0.4554832006\Bq,0,-2.7542808124,3.0234261833,-0.4677482153\
 Bq,0,-2.7537943353,3.0718960992,-0.48001323\\Version=ES64L-G09RevD.01\
 HF=-847.0032898\RMSD=7.586e-09\Dipole=0.0186808,0.0336671,0.0011595\Qu
 adrupole=4.9072795,4.7288219,-9.6361014,-0.2850201,2.3867064,-0.880172
 \PG=C01 [X(C22H14)]\\@


 THE ATTENTION SPAN OF A COMPUTER IS AS LONG
 AS ITS EXTENSION CORD.
 Job cpu time:       0 days  4 hours  8 minutes 18.2 seconds.
 File lengths (MBytes):  RWF=    184 Int=      0 D2E=      0 Chk=     19 Scr=      1
 Normal termination of Gaussian 09 at Wed Aug 19 19:13:21 2020.

real	31m43.506s
user	248m13.815s
sys	0m4.491s
