 Entering Gaussian System, Link 0=g09
 Initial command:
 /share/programs/GAUSSIAN/64/g09/l1.exe "/scratch/yannick.29292/Gau-16224.inp" -scrdir="/scratch/yannick.29292/"
 Entering Link 1 = /share/programs/GAUSSIAN/64/g09/l1.exe PID=     16235.
  
 Copyright (c) 1988,1990,1992,1993,1995,1998,2003,2009,2013,
            Gaussian, Inc.  All Rights Reserved.
  
 This is part of the Gaussian(R) 09 program.  It is based on
 the Gaussian(R) 03 system (copyright 2003, Gaussian, Inc.),
 the Gaussian(R) 98 system (copyright 1998, Gaussian, Inc.),
 the Gaussian(R) 94 system (copyright 1995, Gaussian, Inc.),
 the Gaussian 92(TM) system (copyright 1992, Gaussian, Inc.),
 the Gaussian 90(TM) system (copyright 1990, Gaussian, Inc.),
 the Gaussian 88(TM) system (copyright 1988, Gaussian, Inc.),
 the Gaussian 86(TM) system (copyright 1986, Carnegie Mellon
 University), and the Gaussian 82(TM) system (copyright 1983,
 Carnegie Mellon University). Gaussian is a federally registered
 trademark of Gaussian, Inc.
  
 This software contains proprietary and confidential information,
 including trade secrets, belonging to Gaussian, Inc.
  
 This software is provided under written license and may be
 used, copied, transmitted, or stored only in accord with that
 written license.
  
 The following legend is applicable only to US Government
 contracts under FAR:
  
                    RESTRICTED RIGHTS LEGEND
  
 Use, reproduction and disclosure by the US Government is
 subject to restrictions as set forth in subparagraphs (a)
 and (c) of the Commercial Computer Software - Restricted
 Rights clause in FAR 52.227-19.
  
 Gaussian, Inc.
 340 Quinnipiac St., Bldg. 40, Wallingford CT 06492
  
  
 ---------------------------------------------------------------
 Warning -- This program may not be used in any manner that
 competes with the business of Gaussian, Inc. or will provide
 assistance to any competitor of Gaussian, Inc.  The licensee
 of this program is prohibited from giving any competitor of
 Gaussian, Inc. access to this program.  By using this program,
 the user acknowledges that Gaussian, Inc. is engaged in the
 business of creating and licensing software in the field of
 computational chemistry and represents and warrants to the
 licensee that it is not a competitor of Gaussian, Inc. and that
 it will not use this program in any manner prohibited above.
 ---------------------------------------------------------------
  

 Cite this work as:
 Gaussian 09, Revision D.01,
 M. J. Frisch, G. W. Trucks, H. B. Schlegel, G. E. Scuseria, 
 M. A. Robb, J. R. Cheeseman, G. Scalmani, V. Barone, B. Mennucci, 
 G. A. Petersson, H. Nakatsuji, M. Caricato, X. Li, H. P. Hratchian, 
 A. F. Izmaylov, J. Bloino, G. Zheng, J. L. Sonnenberg, M. Hada, 
 M. Ehara, K. Toyota, R. Fukuda, J. Hasegawa, M. Ishida, T. Nakajima, 
 Y. Honda, O. Kitao, H. Nakai, T. Vreven, J. A. Montgomery, Jr., 
 J. E. Peralta, F. Ogliaro, M. Bearpark, J. J. Heyd, E. Brothers, 
 K. N. Kudin, V. N. Staroverov, T. Keith, R. Kobayashi, J. Normand, 
 K. Raghavachari, A. Rendell, J. C. Burant, S. S. Iyengar, J. Tomasi, 
 M. Cossi, N. Rega, J. M. Millam, M. Klene, J. E. Knox, J. B. Cross, 
 V. Bakken, C. Adamo, J. Jaramillo, R. Gomperts, R. E. Stratmann, 
 O. Yazyev, A. J. Austin, R. Cammi, C. Pomelli, J. W. Ochterski, 
 R. L. Martin, K. Morokuma, V. G. Zakrzewski, G. A. Voth, 
 P. Salvador, J. J. Dannenberg, S. Dapprich, A. D. Daniels, 
 O. Farkas, J. B. Foresman, J. V. Ortiz, J. Cioslowski, 
 and D. J. Fox, Gaussian, Inc., Wallingford CT, 2013.
 
 ******************************************
 Gaussian 09:  ES64L-G09RevD.01 24-Apr-2013
                19-Aug-2020 
 ******************************************
 %nproc=8
 Will use up to    8 processors via shared memory.
 %mem=1000MB
 ----------------------------------------
 # rb3lyp/6-311+g** NMR geom=connectivity
 ----------------------------------------
 1/38=1,57=2/1;
 2/12=2,17=6,18=5,40=1/2;
 3/5=4,6=6,7=111,11=2,16=1,25=1,30=1,74=-5,116=1/1,2,8,3;
 4//1;
 5/5=2,38=5/2;
 8/6=1,10=90,11=11/1;
 10/13=100,45=16/2;
 6/7=2,8=2,9=2,10=2,28=1/1;
 99/9=1/99;
 -----
 Title
 -----
 Symbolic Z-matrix:
 Charge =  0 Multiplicity = 1
 C                    -4.05006  -0.57719   0.81367 
 H                    -5.02638  -1.00827   1.00248 
 C                    -3.93816   0.66178   0.24009 
 H                    -4.82524   1.23389  -0.01113 
 C                    -2.67684   1.24332   0.00576 
 C                    -1.49741   0.50515   0.28483 
 C                    -1.65083  -0.73387   0.9404 
 H                    -0.77136  -1.2731    1.26338 
 C                    -2.88985  -1.2624    1.19943 
 H                    -2.96837  -2.21246   1.71527 
 C                    -2.57732   2.59637  -0.41929 
 H                    -3.48707   3.14122  -0.64741 
 C                    -1.37419   3.21479  -0.4364 
 H                    -1.29973   4.2742   -0.65781 
 C                    -0.17195   2.49941  -0.17346 
 C                    -0.20439   1.10184   0.01927 
 C                     1.05135   3.20426  -0.06762 
 H                     1.04273   4.28195  -0.1897 
 C                     2.19421   2.54874   0.25796 
 H                     3.11685   3.09128   0.43347 
 C                     2.22165   1.13366   0.2935 
 C                     1.04869   0.39455   0.03024 
 C                     3.44834   0.46146   0.55739 
 H                     4.30958   1.06061   0.83348 
 C                     3.54273  -0.88559   0.47495 
 H                     4.47315  -1.39397   0.70388 
 C                     2.44901  -1.64744  -0.01963 
 C                     1.21507  -1.00573  -0.30136 
 C                     0.25311  -1.74344  -1.02166 
 H                    -0.65414  -1.25351  -1.34628 
 C                     0.44942  -3.06286  -1.34138 
 H                    -0.30832  -3.59443  -1.90541 
 C                     1.62517  -3.7208   -0.95525 
 H                     1.767    -4.76874  -1.1927 
 C                     2.61099  -3.01442  -0.31831 
 H                     3.55256  -3.49028  -0.06464 
 Bq                    3.77664  -1.74292   0.34258 
 Bq                    3.77479  -1.69343   0.34945 
 Bq                    3.77294  -1.64394   0.35632 
 Bq                    3.7711   -1.59445   0.36319 
 Bq                    3.76925  -1.54496   0.37006 
 Bq                    3.76741  -1.49547   0.37693 
 Bq                    3.76556  -1.44597   0.3838 
 Bq                    3.76372  -1.39648   0.39067 
 Bq                    3.76187  -1.34699   0.39754 
 Bq                    3.76003  -1.2975    0.40441 
 Bq                    3.75818  -1.24801   0.41128 
 Bq                    3.75634  -1.19852   0.41815 
 Bq                    3.75449  -1.14903   0.42502 
 Bq                    3.75264  -1.09953   0.43189 
 Bq                    3.7508   -1.05004   0.43876 
 Bq                    3.74895  -1.00055   0.44563 
 Bq                    3.74711  -0.95106   0.4525 
 Bq                    3.74526  -0.90157   0.45937 
 Bq                    3.74342  -0.85208   0.46624 
 Bq                    3.74157  -0.80259   0.47311 
 Bq                    3.73973  -0.7531    0.47998 
 Bq                    3.73788  -0.7036    0.48685 
 Bq                    3.73603  -0.65411   0.49372 
 Bq                    3.73419  -0.60462   0.50059 
 Bq                    3.73234  -0.55513   0.50746 
 Bq                    3.7305   -0.50564   0.51433 
 Bq                    3.72865  -0.45615   0.5212 
 Bq                    3.72681  -0.40666   0.52807 
 Bq                    3.72496  -0.35716   0.53494 
 Bq                    3.72312  -0.30767   0.54182 
 Bq                    3.72127  -0.25818   0.54869 
 Bq                    3.71942  -0.20869   0.55556 
 Bq                    3.71758  -0.1592    0.56243 
 Bq                    3.71573  -0.10971   0.5693 
 Bq                    3.71389  -0.06022   0.57617 
 Bq                    3.71204  -0.01073   0.58304 
 Bq                    3.7102    0.03877   0.58991 
 Bq                    3.70835   0.08826   0.59678 
 Bq                    3.70651   0.13775   0.60365 
 Bq                    3.70466   0.18724   0.61052 
 Bq                    3.70281   0.23673   0.61739 
 Bq                    3.70097   0.28622   0.62426 
 Bq                    3.69912   0.33571   0.63113 
 Bq                    3.69728   0.38521   0.638 
 Bq                    3.69543   0.4347    0.64487 
 Bq                    3.69359   0.48419   0.65174 
 Bq                    3.69174   0.53368   0.65861 
 Bq                    3.6899    0.58317   0.66548 
 Bq                    3.68805   0.63266   0.67235 
 Bq                    3.68621   0.68215   0.67922 
 Bq                    3.68436   0.73165   0.68609 
 Bq                    3.68251   0.78114   0.69296 
 Bq                    3.68067   0.83063   0.69983 
 Bq                    3.67882   0.88012   0.7067 
 Bq                    3.67698   0.92961   0.71357 
 Bq                    3.67513   0.9791    0.72044 
 Bq                    3.67329   1.02859   0.72731 
 Bq                    3.67144   1.07808   0.73418 
 Bq                    3.6696    1.12758   0.74105 
 Bq                    3.66775   1.17707   0.74792 
 Bq                    3.6659    1.22656   0.75479 
 Bq                    3.66406   1.27605   0.76166 
 Bq                    3.66221   1.32554   0.76853 
 Bq                    3.66037   1.37503   0.7754 
 Bq                    3.65852   1.42452   0.78227 
 Bq                    3.65668   1.47402   0.78914 
 Bq                    3.65483   1.52351   0.79602 
 Bq                    3.65299   1.573     0.80289 
 Bq                    3.65114   1.62249   0.80976 
 Bq                    3.64929   1.67198   0.81663 
 Bq                    3.64745   1.72147   0.8235 
 Bq                    3.6456    1.77096   0.83037 
 Bq                    3.64376   1.82045   0.83724 
 Bq                    3.64191   1.86995   0.84411 
 Bq                    3.64007   1.91944   0.85098 
 Bq                    3.63822   1.96893   0.85785 
 Bq                    3.63638   2.01842   0.86472 
 Bq                    3.63453   2.06791   0.87159 
 Bq                    3.63268   2.1174    0.87846 
 Bq                    3.63084   2.16689   0.88533 
 Bq                    3.62899   2.21639   0.8922 
 Bq                    3.86183  -2.73275   0.21814 
 Bq                    3.85999  -2.68326   0.22501 
 Bq                    3.85814  -2.63377   0.23188 
 Bq                    3.8563   -2.58428   0.23875 
 Bq                    3.85445  -2.53478   0.24562 
 Bq                    3.85261  -2.48529   0.25249 
 Bq                    3.85076  -2.4358    0.25937 
 Bq                    3.84892  -2.38631   0.26624 
 Bq                    3.84707  -2.33682   0.27311 
 Bq                    3.84522  -2.28733   0.27998 
 Bq                    3.84338  -2.23784   0.28685 
 Bq                    3.84153  -2.18834   0.29372 
 Bq                    3.83969  -2.13885   0.30059 
 Bq                    3.83784  -2.08936   0.30746 
 Bq                    3.836    -2.03987   0.31433 
 Bq                    3.83415  -1.99038   0.3212 
 Bq                    3.83231  -1.94089   0.32807 
 Bq                    3.83046  -1.8914    0.33494 
 Bq                    3.82862  -1.8419    0.34181 
 Bq                    3.82677  -1.79241   0.34868 
 Bq                    3.82492  -1.74292   0.35555 
 Bq                    3.82308  -1.69343   0.36242 
 Bq                    3.82123  -1.64394   0.36929 
 Bq                    3.81939  -1.59445   0.37616 
 Bq                    3.81754  -1.54496   0.38303 
 Bq                    3.8157   -1.49547   0.3899 
 Bq                    3.81385  -1.44597   0.39677 
 Bq                    3.81201  -1.39648   0.40364 
 Bq                    3.81016  -1.34699   0.41051 
 Bq                    3.80831  -1.2975    0.41738 
 Bq                    3.80647  -1.24801   0.42425 
 Bq                    3.80462  -1.19852   0.43112 
 Bq                    3.80278  -1.14903   0.43799 
 Bq                    3.80093  -1.09953   0.44486 
 Bq                    3.79909  -1.05004   0.45173 
 Bq                    3.79724  -1.00055   0.4586 
 Bq                    3.7954   -0.95106   0.46547 
 Bq                    3.79355  -0.90157   0.47234 
 Bq                    3.7917   -0.85208   0.47921 
 Bq                    3.78986  -0.80259   0.48608 
 Bq                    3.78801  -0.7531    0.49295 
 Bq                    3.78617  -0.7036    0.49982 
 Bq                    3.78432  -0.65411   0.50669 
 Bq                    3.78248  -0.60462   0.51357 
 Bq                    3.78063  -0.55513   0.52044 
 Bq                    3.77879  -0.50564   0.52731 
 Bq                    3.77694  -0.45615   0.53418 
 Bq                    3.77509  -0.40666   0.54105 
 Bq                    3.77325  -0.35716   0.54792 
 Bq                    3.7714   -0.30767   0.55479 
 Bq                    3.76956  -0.25818   0.56166 
 Bq                    3.76771  -0.20869   0.56853 
 Bq                    3.76587  -0.1592    0.5754 
 Bq                    3.76402  -0.10971   0.58227 
 Bq                    3.76218  -0.06022   0.58914 
 Bq                    3.76033  -0.01073   0.59601 
 Bq                    3.75849   0.03877   0.60288 
 Bq                    3.75664   0.08826   0.60975 
 Bq                    3.75479   0.13775   0.61662 
 Bq                    3.75295   0.18724   0.62349 
 Bq                    3.7511    0.23673   0.63036 
 Bq                    3.74926   0.28622   0.63723 
 Bq                    3.74741   0.33571   0.6441 
 Bq                    3.74557   0.38521   0.65097 
 Bq                    3.74372   0.4347    0.65784 
 Bq                    3.74188   0.48419   0.66471 
 Bq                    3.74003   0.53368   0.67158 
 Bq                    3.73818   0.58317   0.67845 
 Bq                    3.73634   0.63266   0.68532 
 Bq                    3.73449   0.68215   0.69219 
 Bq                    3.73265   0.73165   0.69906 
 Bq                    3.7308    0.78114   0.70593 
 Bq                    3.72896   0.83063   0.7128 
 Bq                    3.72711   0.88012   0.71967 
 Bq                    3.72527   0.92961   0.72654 
 Bq                    3.72342   0.9791    0.73341 
 Bq                    3.72157   1.02859   0.74028 
 Bq                    3.71973   1.07808   0.74715 
 Bq                    3.71788   1.12758   0.75402 
 Bq                    3.71604   1.17707   0.76089 
 Bq                    3.71419   1.22656   0.76777 
 Bq                    3.71235   1.27605   0.77464 
 Bq                    3.7105    1.32554   0.78151 
 Bq                    3.70866   1.37503   0.78838 
 Bq                    3.70681   1.42452   0.79525 
 Bq                    3.70496   1.47402   0.80212 
 Bq                    3.70312   1.52351   0.80899 
 Bq                    3.70127   1.573     0.81586 
 Bq                    3.69943   1.62249   0.82273 
 Bq                    3.69758   1.67198   0.8296 
 Bq                    3.69574   1.72147   0.83647 
 Bq                    3.69389   1.77096   0.84334 
 Bq                    3.69205   1.82045   0.85021 
 Bq                    3.6902    1.86995   0.85708 
 Bq                    3.68836   1.91944   0.86395 
 Bq                    3.68651   1.96893   0.87082 
 Bq                    3.68466   2.01842   0.87769 
 Bq                    3.68282   2.06791   0.88456 
 Bq                    3.68097   2.1174    0.89143 
 Bq                    3.67913   2.16689   0.8983 
 Bq                    3.67728   2.21639   0.90517 
 Bq                    3.91012  -2.73275   0.23111 
 Bq                    3.90828  -2.68326   0.23799 
 Bq                    3.90643  -2.63377   0.24486 
 Bq                    3.90459  -2.58428   0.25173 
 Bq                    3.90274  -2.53478   0.2586 
 Bq                    3.90089  -2.48529   0.26547 
 Bq                    3.89905  -2.4358    0.27234 
 Bq                    3.8972   -2.38631   0.27921 
 Bq                    3.89536  -2.33682   0.28608 
 Bq                    3.89351  -2.28733   0.29295 
 Bq                    3.89167  -2.23784   0.29982 
 Bq                    3.88982  -2.18834   0.30669 
 Bq                    3.88798  -2.13885   0.31356 
 Bq                    3.88613  -2.08936   0.32043 
 Bq                    3.88429  -2.03987   0.3273 
 Bq                    3.88244  -1.99038   0.33417 
 Bq                    3.88059  -1.94089   0.34104 
 Bq                    3.87875  -1.8914    0.34791 
 
 Symmetry turned off:
 Cannot cope with ghost atoms or with translation vectors.
 Stoichiometry    C22H14
 Framework group  C1[X(C22H14)]
 NUMDOF-- NAT=    36 NAtoms=   236
 Deg. of freedom     0
 Full point group                 C1      NOp   1
                          Input orientation:                          
 ---------------------------------------------------------------------
 Center     Atomic      Atomic             Coordinates (Angstroms)
 Number     Number       Type             X           Y           Z
 ---------------------------------------------------------------------
      1          6           0       -4.050056   -0.577186    0.813671
      2          1           0       -5.026380   -1.008273    1.002476
      3          6           0       -3.938155    0.661780    0.240088
      4          1           0       -4.825242    1.233889   -0.011130
      5          6           0       -2.676841    1.243325    0.005758
      6          6           0       -1.497412    0.505153    0.284825
      7          6           0       -1.650833   -0.733873    0.940403
      8          1           0       -0.771365   -1.273097    1.263375
      9          6           0       -2.889855   -1.262404    1.199431
     10          1           0       -2.968371   -2.212456    1.715268
     11          6           0       -2.577319    2.596370   -0.419293
     12          1           0       -3.487073    3.141224   -0.647406
     13          6           0       -1.374190    3.214790   -0.436403
     14          1           0       -1.299732    4.274202   -0.657814
     15          6           0       -0.171949    2.499409   -0.173459
     16          6           0       -0.204392    1.101844    0.019269
     17          6           0        1.051349    3.204256   -0.067622
     18          1           0        1.042734    4.281950   -0.189700
     19          6           0        2.194209    2.548745    0.257958
     20          1           0        3.116853    3.091285    0.433473
     21          6           0        2.221647    1.133656    0.293499
     22          6           0        1.048693    0.394553    0.030241
     23          6           0        3.448336    0.461463    0.557394
     24          1           0        4.309579    1.060605    0.833485
     25          6           0        3.542735   -0.885593    0.474946
     26          1           0        4.473147   -1.393970    0.703882
     27          6           0        2.449005   -1.647445   -0.019632
     28          6           0        1.215070   -1.005726   -0.301357
     29          6           0        0.253111   -1.743444   -1.021659
     30          1           0       -0.654136   -1.253505   -1.346285
     31          6           0        0.449419   -3.062860   -1.341378
     32          1           0       -0.308316   -3.594431   -1.905406
     33          6           0        1.625173   -3.720797   -0.955254
     34          1           0        1.767005   -4.768740   -1.192702
     35          6           0        2.610987   -3.014418   -0.318305
     36          1           0        3.552561   -3.490281   -0.064637
     37          0           0        3.776636   -1.742922    0.342577
     38          0           0        3.774790   -1.693431    0.349448
     39          0           0        3.772945   -1.643940    0.356318
     40          0           0        3.771099   -1.594448    0.363188
     41          0           0        3.769254   -1.544957    0.370059
     42          0           0        3.767408   -1.495465    0.376929
     43          0           0        3.765563   -1.445974    0.383799
     44          0           0        3.763717   -1.396483    0.390669
     45          0           0        3.761872   -1.346991    0.397540
     46          0           0        3.760026   -1.297500    0.404410
     47          0           0        3.758181   -1.248009    0.411280
     48          0           0        3.756335   -1.198517    0.418150
     49          0           0        3.754490   -1.149026    0.425021
     50          0           0        3.752644   -1.099535    0.431891
     51          0           0        3.750799   -1.050043    0.438761
     52          0           0        3.748953   -1.000552    0.445631
     53          0           0        3.747107   -0.951061    0.452502
     54          0           0        3.745262   -0.901569    0.459372
     55          0           0        3.743416   -0.852078    0.466242
     56          0           0        3.741571   -0.802587    0.473113
     57          0           0        3.739725   -0.753095    0.479983
     58          0           0        3.737880   -0.703604    0.486853
     59          0           0        3.736034   -0.654113    0.493723
     60          0           0        3.734189   -0.604621    0.500594
     61          0           0        3.732343   -0.555130    0.507464
     62          0           0        3.730498   -0.505639    0.514334
     63          0           0        3.728652   -0.456147    0.521204
     64          0           0        3.726807   -0.406656    0.528075
     65          0           0        3.724961   -0.357164    0.534945
     66          0           0        3.723116   -0.307673    0.541815
     67          0           0        3.721270   -0.258182    0.548686
     68          0           0        3.719425   -0.208690    0.555556
     69          0           0        3.717579   -0.159199    0.562426
     70          0           0        3.715734   -0.109708    0.569296
     71          0           0        3.713888   -0.060216    0.576167
     72          0           0        3.712042   -0.010725    0.583037
     73          0           0        3.710197    0.038766    0.589907
     74          0           0        3.708351    0.088258    0.596777
     75          0           0        3.706506    0.137749    0.603648
     76          0           0        3.704660    0.187240    0.610518
     77          0           0        3.702815    0.236732    0.617388
     78          0           0        3.700969    0.286223    0.624259
     79          0           0        3.699124    0.335714    0.631129
     80          0           0        3.697278    0.385206    0.637999
     81          0           0        3.695433    0.434697    0.644869
     82          0           0        3.693587    0.484188    0.651740
     83          0           0        3.691742    0.533680    0.658610
     84          0           0        3.689896    0.583171    0.665480
     85          0           0        3.688051    0.632662    0.672350
     86          0           0        3.686205    0.682154    0.679221
     87          0           0        3.684360    0.731645    0.686091
     88          0           0        3.682514    0.781136    0.692961
     89          0           0        3.680669    0.830628    0.699831
     90          0           0        3.678823    0.880119    0.706702
     91          0           0        3.676978    0.929611    0.713572
     92          0           0        3.675132    0.979102    0.720442
     93          0           0        3.673286    1.028593    0.727313
     94          0           0        3.671441    1.078085    0.734183
     95          0           0        3.669595    1.127576    0.741053
     96          0           0        3.667750    1.177067    0.747923
     97          0           0        3.665904    1.226559    0.754794
     98          0           0        3.664059    1.276050    0.761664
     99          0           0        3.662213    1.325541    0.768534
    100          0           0        3.660368    1.375033    0.775404
    101          0           0        3.658522    1.424524    0.782275
    102          0           0        3.656677    1.474015    0.789145
    103          0           0        3.654831    1.523507    0.796015
    104          0           0        3.652986    1.572998    0.802886
    105          0           0        3.651140    1.622489    0.809756
    106          0           0        3.649295    1.671981    0.816626
    107          0           0        3.647449    1.721472    0.823496
    108          0           0        3.645604    1.770963    0.830367
    109          0           0        3.643758    1.820455    0.837237
    110          0           0        3.641913    1.869946    0.844107
    111          0           0        3.640067    1.919437    0.850977
    112          0           0        3.638221    1.968929    0.857848
    113          0           0        3.636376    2.018420    0.864718
    114          0           0        3.634530    2.067912    0.871588
    115          0           0        3.632685    2.117403    0.878458
    116          0           0        3.630839    2.166894    0.885329
    117          0           0        3.628994    2.216386    0.892199
    118          0           0        3.861834   -2.732749    0.218143
    119          0           0        3.859989   -2.683258    0.225014
    120          0           0        3.858143   -2.633766    0.231884
    121          0           0        3.856298   -2.584275    0.238754
    122          0           0        3.854452   -2.534784    0.245625
    123          0           0        3.852607   -2.485292    0.252495
    124          0           0        3.850761   -2.435801    0.259365
    125          0           0        3.848916   -2.386310    0.266235
    126          0           0        3.847070   -2.336818    0.273106
    127          0           0        3.845225   -2.287327    0.279976
    128          0           0        3.843379   -2.237836    0.286846
    129          0           0        3.841534   -2.188344    0.293716
    130          0           0        3.839688   -2.138853    0.300587
    131          0           0        3.837843   -2.089362    0.307457
    132          0           0        3.835997   -2.039870    0.314327
    133          0           0        3.834152   -1.990379    0.321197
    134          0           0        3.832306   -1.940888    0.328068
    135          0           0        3.830461   -1.891396    0.334938
    136          0           0        3.828615   -1.841905    0.341808
    137          0           0        3.826770   -1.792414    0.348679
    138          0           0        3.824924   -1.742922    0.355549
    139          0           0        3.823078   -1.693431    0.362419
    140          0           0        3.821233   -1.643940    0.369289
    141          0           0        3.819387   -1.594448    0.376160
    142          0           0        3.817542   -1.544957    0.383030
    143          0           0        3.815696   -1.495465    0.389900
    144          0           0        3.813851   -1.445974    0.396770
    145          0           0        3.812005   -1.396483    0.403641
    146          0           0        3.810160   -1.346991    0.410511
    147          0           0        3.808314   -1.297500    0.417381
    148          0           0        3.806469   -1.248009    0.424252
    149          0           0        3.804623   -1.198517    0.431122
    150          0           0        3.802778   -1.149026    0.437992
    151          0           0        3.800932   -1.099535    0.444862
    152          0           0        3.799087   -1.050043    0.451733
    153          0           0        3.797241   -1.000552    0.458603
    154          0           0        3.795396   -0.951061    0.465473
    155          0           0        3.793550   -0.901569    0.472343
    156          0           0        3.791705   -0.852078    0.479214
    157          0           0        3.789859   -0.802587    0.486084
    158          0           0        3.788013   -0.753095    0.492954
    159          0           0        3.786168   -0.703604    0.499824
    160          0           0        3.784322   -0.654113    0.506695
    161          0           0        3.782477   -0.604621    0.513565
    162          0           0        3.780631   -0.555130    0.520435
    163          0           0        3.778786   -0.505639    0.527306
    164          0           0        3.776940   -0.456147    0.534176
    165          0           0        3.775095   -0.406656    0.541046
    166          0           0        3.773249   -0.357164    0.547916
    167          0           0        3.771404   -0.307673    0.554787
    168          0           0        3.769558   -0.258182    0.561657
    169          0           0        3.767713   -0.208690    0.568527
    170          0           0        3.765867   -0.159199    0.575397
    171          0           0        3.764022   -0.109708    0.582268
    172          0           0        3.762176   -0.060216    0.589138
    173          0           0        3.760331   -0.010725    0.596008
    174          0           0        3.758485    0.038766    0.602879
    175          0           0        3.756640    0.088258    0.609749
    176          0           0        3.754794    0.137749    0.616619
    177          0           0        3.752949    0.187240    0.623489
    178          0           0        3.751103    0.236732    0.630360
    179          0           0        3.749257    0.286223    0.637230
    180          0           0        3.747412    0.335714    0.644100
    181          0           0        3.745566    0.385206    0.650970
    182          0           0        3.743721    0.434697    0.657841
    183          0           0        3.741875    0.484188    0.664711
    184          0           0        3.740030    0.533680    0.671581
    185          0           0        3.738184    0.583171    0.678452
    186          0           0        3.736339    0.632662    0.685322
    187          0           0        3.734493    0.682154    0.692192
    188          0           0        3.732648    0.731645    0.699062
    189          0           0        3.730802    0.781136    0.705933
    190          0           0        3.728957    0.830628    0.712803
    191          0           0        3.727111    0.880119    0.719673
    192          0           0        3.725266    0.929611    0.726543
    193          0           0        3.723420    0.979102    0.733414
    194          0           0        3.721575    1.028593    0.740284
    195          0           0        3.719729    1.078085    0.747154
    196          0           0        3.717884    1.127576    0.754024
    197          0           0        3.716038    1.177067    0.760895
    198          0           0        3.714192    1.226559    0.767765
    199          0           0        3.712347    1.276050    0.774635
    200          0           0        3.710501    1.325541    0.781506
    201          0           0        3.708656    1.375033    0.788376
    202          0           0        3.706810    1.424524    0.795246
    203          0           0        3.704965    1.474015    0.802116
    204          0           0        3.703119    1.523507    0.808987
    205          0           0        3.701274    1.572998    0.815857
    206          0           0        3.699428    1.622489    0.822727
    207          0           0        3.697583    1.671981    0.829597
    208          0           0        3.695737    1.721472    0.836468
    209          0           0        3.693892    1.770963    0.843338
    210          0           0        3.692046    1.820455    0.850208
    211          0           0        3.690201    1.869946    0.857079
    212          0           0        3.688355    1.919437    0.863949
    213          0           0        3.686510    1.968929    0.870819
    214          0           0        3.684664    2.018420    0.877689
    215          0           0        3.682819    2.067912    0.884560
    216          0           0        3.680973    2.117403    0.891430
    217          0           0        3.679127    2.166894    0.898300
    218          0           0        3.677282    2.216386    0.905170
    219          0           0        3.910123   -2.732749    0.231115
    220          0           0        3.908277   -2.683258    0.237985
    221          0           0        3.906432   -2.633766    0.244855
    222          0           0        3.904586   -2.584275    0.251726
    223          0           0        3.902741   -2.534784    0.258596
    224          0           0        3.900895   -2.485292    0.265466
    225          0           0        3.899049   -2.435801    0.272336
    226          0           0        3.897204   -2.386310    0.279207
    227          0           0        3.895358   -2.336818    0.286077
    228          0           0        3.893513   -2.287327    0.292947
    229          0           0        3.891667   -2.237836    0.299818
    230          0           0        3.889822   -2.188344    0.306688
    231          0           0        3.887976   -2.138853    0.313558
    232          0           0        3.886131   -2.089362    0.320428
    233          0           0        3.884285   -2.039870    0.327299
    234          0           0        3.882440   -1.990379    0.334169
    235          0           0        3.880594   -1.940888    0.341039
    236          0           0        3.878749   -1.891396    0.347909
 ---------------------------------------------------------------------
 Rotational constants (GHZ):      0.4529074      0.2836956      0.1879557
 Standard basis: 6-311+G(d,p) (5D, 7F)
 Warning:  center  37 has no basis functions!
 Warning:  center  38 has no basis functions!
 Warning:  center  39 has no basis functions!
 Warning:  center  40 has no basis functions!
 Warning:  center  41 has no basis functions!
 Warning:  center  42 has no basis functions!
 Warning:  center  43 has no basis functions!
 Warning:  center  44 has no basis functions!
 Warning:  center  45 has no basis functions!
 Warning:  center  46 has no basis functions!
 Warning:  center  47 has no basis functions!
 Warning:  center  48 has no basis functions!
 Warning:  center  49 has no basis functions!
 Warning:  center  50 has no basis functions!
 Warning:  center  51 has no basis functions!
 Warning:  center  52 has no basis functions!
 Warning:  center  53 has no basis functions!
 Warning:  center  54 has no basis functions!
 Warning:  center  55 has no basis functions!
 Warning:  center  56 has no basis functions!
 Warning:  center  57 has no basis functions!
 Warning:  center  58 has no basis functions!
 Warning:  center  59 has no basis functions!
 Warning:  center  60 has no basis functions!
 Warning:  center  61 has no basis functions!
 Warning:  center  62 has no basis functions!
 Warning:  center  63 has no basis functions!
 Warning:  center  64 has no basis functions!
 Warning:  center  65 has no basis functions!
 Warning:  center  66 has no basis functions!
 Warning:  center  67 has no basis functions!
 Warning:  center  68 has no basis functions!
 Warning:  center  69 has no basis functions!
 Warning:  center  70 has no basis functions!
 Warning:  center  71 has no basis functions!
 Warning:  center  72 has no basis functions!
 Warning:  center  73 has no basis functions!
 Warning:  center  74 has no basis functions!
 Warning:  center  75 has no basis functions!
 Warning:  center  76 has no basis functions!
 Warning:  center  77 has no basis functions!
 Warning:  center  78 has no basis functions!
 Warning:  center  79 has no basis functions!
 Warning:  center  80 has no basis functions!
 Warning:  center  81 has no basis functions!
 Warning:  center  82 has no basis functions!
 Warning:  center  83 has no basis functions!
 Warning:  center  84 has no basis functions!
 Warning:  center  85 has no basis functions!
 Warning:  center  86 has no basis functions!
 Warning:  center  87 has no basis functions!
 Warning:  center  88 has no basis functions!
 Warning:  center  89 has no basis functions!
 Warning:  center  90 has no basis functions!
 Warning:  center  91 has no basis functions!
 Warning:  center  92 has no basis functions!
 Warning:  center  93 has no basis functions!
 Warning:  center  94 has no basis functions!
 Warning:  center  95 has no basis functions!
 Warning:  center  96 has no basis functions!
 Warning:  center  97 has no basis functions!
 Warning:  center  98 has no basis functions!
 Warning:  center  99 has no basis functions!
 Warning:  center 100 has no basis functions!
 Warning:  center 101 has no basis functions!
 Warning:  center 102 has no basis functions!
 Warning:  center 103 has no basis functions!
 Warning:  center 104 has no basis functions!
 Warning:  center 105 has no basis functions!
 Warning:  center 106 has no basis functions!
 Warning:  center 107 has no basis functions!
 Warning:  center 108 has no basis functions!
 Warning:  center 109 has no basis functions!
 Warning:  center 110 has no basis functions!
 Warning:  center 111 has no basis functions!
 Warning:  center 112 has no basis functions!
 Warning:  center 113 has no basis functions!
 Warning:  center 114 has no basis functions!
 Warning:  center 115 has no basis functions!
 Warning:  center 116 has no basis functions!
 Warning:  center 117 has no basis functions!
 Warning:  center 118 has no basis functions!
 Warning:  center 119 has no basis functions!
 Warning:  center 120 has no basis functions!
 Warning:  center 121 has no basis functions!
 Warning:  center 122 has no basis functions!
 Warning:  center 123 has no basis functions!
 Warning:  center 124 has no basis functions!
 Warning:  center 125 has no basis functions!
 Warning:  center 126 has no basis functions!
 Warning:  center 127 has no basis functions!
 Warning:  center 128 has no basis functions!
 Warning:  center 129 has no basis functions!
 Warning:  center 130 has no basis functions!
 Warning:  center 131 has no basis functions!
 Warning:  center 132 has no basis functions!
 Warning:  center 133 has no basis functions!
 Warning:  center 134 has no basis functions!
 Warning:  center 135 has no basis functions!
 Warning:  center 136 has no basis functions!
 Warning:  center 137 has no basis functions!
 Warning:  center 138 has no basis functions!
 Warning:  center 139 has no basis functions!
 Warning:  center 140 has no basis functions!
 Warning:  center 141 has no basis functions!
 Warning:  center 142 has no basis functions!
 Warning:  center 143 has no basis functions!
 Warning:  center 144 has no basis functions!
 Warning:  center 145 has no basis functions!
 Warning:  center 146 has no basis functions!
 Warning:  center 147 has no basis functions!
 Warning:  center 148 has no basis functions!
 Warning:  center 149 has no basis functions!
 Warning:  center 150 has no basis functions!
 Warning:  center 151 has no basis functions!
 Warning:  center 152 has no basis functions!
 Warning:  center 153 has no basis functions!
 Warning:  center 154 has no basis functions!
 Warning:  center 155 has no basis functions!
 Warning:  center 156 has no basis functions!
 Warning:  center 157 has no basis functions!
 Warning:  center 158 has no basis functions!
 Warning:  center 159 has no basis functions!
 Warning:  center 160 has no basis functions!
 Warning:  center 161 has no basis functions!
 Warning:  center 162 has no basis functions!
 Warning:  center 163 has no basis functions!
 Warning:  center 164 has no basis functions!
 Warning:  center 165 has no basis functions!
 Warning:  center 166 has no basis functions!
 Warning:  center 167 has no basis functions!
 Warning:  center 168 has no basis functions!
 Warning:  center 169 has no basis functions!
 Warning:  center 170 has no basis functions!
 Warning:  center 171 has no basis functions!
 Warning:  center 172 has no basis functions!
 Warning:  center 173 has no basis functions!
 Warning:  center 174 has no basis functions!
 Warning:  center 175 has no basis functions!
 Warning:  center 176 has no basis functions!
 Warning:  center 177 has no basis functions!
 Warning:  center 178 has no basis functions!
 Warning:  center 179 has no basis functions!
 Warning:  center 180 has no basis functions!
 Warning:  center 181 has no basis functions!
 Warning:  center 182 has no basis functions!
 Warning:  center 183 has no basis functions!
 Warning:  center 184 has no basis functions!
 Warning:  center 185 has no basis functions!
 Warning:  center 186 has no basis functions!
 Warning:  center 187 has no basis functions!
 Warning:  center 188 has no basis functions!
 Warning:  center 189 has no basis functions!
 Warning:  center 190 has no basis functions!
 Warning:  center 191 has no basis functions!
 Warning:  center 192 has no basis functions!
 Warning:  center 193 has no basis functions!
 Warning:  center 194 has no basis functions!
 Warning:  center 195 has no basis functions!
 Warning:  center 196 has no basis functions!
 Warning:  center 197 has no basis functions!
 Warning:  center 198 has no basis functions!
 Warning:  center 199 has no basis functions!
 Warning:  center 200 has no basis functions!
 Warning:  center 201 has no basis functions!
 Warning:  center 202 has no basis functions!
 Warning:  center 203 has no basis functions!
 Warning:  center 204 has no basis functions!
 Warning:  center 205 has no basis functions!
 Warning:  center 206 has no basis functions!
 Warning:  center 207 has no basis functions!
 Warning:  center 208 has no basis functions!
 Warning:  center 209 has no basis functions!
 Warning:  center 210 has no basis functions!
 Warning:  center 211 has no basis functions!
 Warning:  center 212 has no basis functions!
 Warning:  center 213 has no basis functions!
 Warning:  center 214 has no basis functions!
 Warning:  center 215 has no basis functions!
 Warning:  center 216 has no basis functions!
 Warning:  center 217 has no basis functions!
 Warning:  center 218 has no basis functions!
 Warning:  center 219 has no basis functions!
 Warning:  center 220 has no basis functions!
 Warning:  center 221 has no basis functions!
 Warning:  center 222 has no basis functions!
 Warning:  center 223 has no basis functions!
 Warning:  center 224 has no basis functions!
 Warning:  center 225 has no basis functions!
 Warning:  center 226 has no basis functions!
 Warning:  center 227 has no basis functions!
 Warning:  center 228 has no basis functions!
 Warning:  center 229 has no basis functions!
 Warning:  center 230 has no basis functions!
 Warning:  center 231 has no basis functions!
 Warning:  center 232 has no basis functions!
 Warning:  center 233 has no basis functions!
 Warning:  center 234 has no basis functions!
 Warning:  center 235 has no basis functions!
 Warning:  center 236 has no basis functions!
   568 basis functions,   904 primitive gaussians,   590 cartesian basis functions
    73 alpha electrons       73 beta electrons
       nuclear repulsion energy      1610.9176155625 Hartrees.
 NAtoms=  236 NActive=  236 NUniq=  236 SFac= 1.00D+00 NAtFMM=   60 NAOKFM=T Big=T
 Integral buffers will be    131072 words long.
 Raffenetti 2 integral format.
 Two-electron integral symmetry is turned off.
 One-electron integrals computed using PRISM.
 NBasis=   568 RedAO= T EigKep=  1.78D-06  NBF=   568
 NBsUse=   556 1.00D-06 EigRej=  9.09D-07 NBFU=   556
 ExpMin= 4.38D-02 ExpMax= 4.56D+03 ExpMxC= 6.82D+02 IAcc=2 IRadAn=         4 AccDes= 0.00D+00
 Harris functional with IExCor=  402 and IRadAn=       4 diagonalized for initial guess.
 HarFok:  IExCor=  402 AccDes= 0.00D+00 IRadAn=         4 IDoV= 1 UseB2=F ITyADJ=14
 ICtDFT=  3500011 ScaDFX=  1.000000  1.000000  1.000000  1.000000
 FoFCou: FMM=F IPFlag=           0 FMFlag=      100000 FMFlg1=        2001
         NFxFlg=           0 DoJE=T BraDBF=F KetDBF=T FulRan=T
         wScrn=  0.000000 ICntrl=     500 IOpCl=  0 I1Cent=   200000004 NGrid=           0
         NMat0=    1 NMatS0=      1 NMatT0=    0 NMatD0=    1 NMtDS0=    0 NMtDT0=    0
 Symmetry not used in FoFCou.
 Requested convergence on RMS density matrix=1.00D-08 within 128 cycles.
 Requested convergence on MAX density matrix=1.00D-06.
 Requested convergence on             energy=1.00D-06.
 No special actions if energy rises.
 SCF Done:  E(RB3LYP) =  -847.003289847     A.U. after   15 cycles
            NFock= 15  Conv=0.76D-08     -V/T= 2.0040
 DoSCS=F DFT=T ScalE2(SS,OS)=  1.000000  1.000000
 Range of M.O.s used for correlation:     1   556
 NBasis=   568 NAE=    73 NBE=    73 NFC=     0 NFV=     0
 NROrb=    556 NOA=    73 NOB=    73 NVA=   483 NVB=   483

 **** Warning!!: The largest alpha MO coefficient is  0.10971035D+03

          Differentiating once with respect to magnetic field using GIAOs.
          Electric field/nuclear overlap derivatives assumed to be zero.
 FoFCou: FMM=F IPFlag=           0 FMFlag=      100000 FMFlg1=        2001
         NFxFlg=           0 DoJE=F BraDBF=F KetDBF=T FulRan=T
         wScrn=  0.000000 ICntrl=    6100 IOpCl=  0 I1Cent=           7 NGrid=         236
         NMat0=    1 NMatS0=      1 NMatT0=    0 NMatD0=    1 NMtDS0=    0 NMtDT0=    0
 Symmetry not used in FoFCou.
 FoFJK:  IHMeth= 1 ICntrl=    6127 DoSepK=F KAlg= 0 I1Cent=   0 FoldK=F
 IRaf=         1 NMat=   1 IRICut=       1 DoRegI=T DoRafI=F ISym2E= 0.
          There are     3 degrees of freedom in the 1st order CPHF.  IDoFFX=0 NUNeed=     3.
      3 vectors produced by pass  0 Test12= 1.18D-12 3.33D-08 XBig12= 2.07D+03 9.18D+00.
 AX will form     3 AO Fock derivatives at one time.
      3 vectors produced by pass  1 Test12= 1.18D-12 3.33D-08 XBig12= 3.56D+00 8.03D-01.
      3 vectors produced by pass  2 Test12= 1.18D-12 3.33D-08 XBig12= 2.10D-02 6.92D-02.
      3 vectors produced by pass  3 Test12= 1.18D-12 3.33D-08 XBig12= 5.45D-05 1.89D-03.
      3 vectors produced by pass  4 Test12= 1.18D-12 3.33D-08 XBig12= 1.20D-07 7.79D-05.
      3 vectors produced by pass  5 Test12= 1.18D-12 3.33D-08 XBig12= 4.02D-10 4.73D-06.
      3 vectors produced by pass  6 Test12= 1.18D-12 3.33D-08 XBig12= 1.32D-12 2.61D-07.
 InvSVY:  IOpt=1 It=  1 EMax= 1.42D-14
 Solved reduced A of dimension    21 with     3 vectors.
 Calculating GIAO nuclear magnetic shielding tensors.
 SCF GIAO Magnetic shielding tensor (ppm):
      1  C    Isotropic =    53.8139   Anisotropy =   178.0260
   XX=   -41.4327   YX=   -32.3458   ZX=    10.0287
   XY=   -28.3572   YY=    59.0527   ZY=    55.1899
   XZ=    13.1759   YZ=    58.7550   ZZ=   143.8218
   Eigenvalues:   -53.8775    42.8214   172.4979
      2  H    Isotropic =    24.3095   Anisotropy =     4.8536
   XX=    25.5771   YX=    -1.0289   ZX=     0.5661
   XY=    -0.7431   YY=    26.1829   ZY=    -2.3306
   XZ=    -0.1707   YZ=    -2.4411   ZZ=    21.1687
   Eigenvalues:    20.2108    25.1725    27.5453
      3  C    Isotropic =    51.4055   Anisotropy =   157.8639
   XX=   -31.5399   YX=    38.5015   ZX=   -17.9316
   XY=    34.3519   YY=    49.9437   ZY=    49.6392
   XZ=    -9.8383   YZ=    44.6006   ZZ=   135.8127
   Eigenvalues:   -50.5747    48.1432   156.6481
      4  H    Isotropic =    23.8290   Anisotropy =     7.1838
   XX=    25.3635   YX=     1.8486   ZX=    -0.3559
   XY=     1.9656   YY=    26.4581   ZY=    -2.4103
   XZ=    -1.2941   YZ=    -2.6614   ZZ=    19.6654
   Eigenvalues:    18.8176    24.0511    28.6182
      5  C    Isotropic =    46.0697   Anisotropy =   207.6751
   XX=   -19.2123   YX=    -4.8852   ZX=    -1.6475
   XY=     2.8938   YY=    -2.9860   ZY=    66.5656
   XZ=     2.5356   YZ=    67.9144   ZZ=   160.4073
   Eigenvalues:   -27.2455   -19.0652   184.5197
      6  C    Isotropic =    47.5218   Anisotropy =   196.9389
   XX=   -28.1552   YX=    -2.7889   ZX=    12.0660
   XY=   -14.3886   YY=    21.2063   ZY=    74.2521
   XZ=   -18.6356   YZ=    61.1113   ZZ=   149.5144
   Eigenvalues:   -30.2925    -5.9564   178.8144
      7  C    Isotropic =    49.3915   Anisotropy =   179.8333
   XX=   -12.5211   YX=    28.7048   ZX=   -24.6745
   XY=    31.5123   YY=    29.7000   ZY=    77.7459
   XZ=   -40.0095   YZ=    65.3072   ZZ=   130.9956
   Eigenvalues:   -52.1299    31.0240   169.2804
      8  H    Isotropic =    23.1586   Anisotropy =    13.5525
   XX=    28.5711   YX=     1.5482   ZX=    -3.6986
   XY=     3.2466   YY=    22.7592   ZY=    -2.1157
   XZ=    -8.3753   YZ=    -1.0821   ZZ=    18.1456
   Eigenvalues:    15.3521    21.9301    32.1936
      9  C    Isotropic =    55.1460   Anisotropy =   174.7426
   XX=    46.7071   YX=    -2.6162   ZX=    -2.8420
   XY=     0.6223   YY=    -1.6258   ZY=    92.8272
   XZ=     0.5159   YZ=    95.6598   ZZ=   120.3568
   Eigenvalues:   -52.8932    46.6901   171.6411
     10  H    Isotropic =    24.6278   Anisotropy =     7.1815
   XX=    29.1040   YX=     0.1399   ZX=    -0.3694
   XY=     0.3642   YY=    23.4778   ZY=    -1.0805
   XZ=    -2.4493   YZ=    -2.9465   ZZ=    21.3016
   Eigenvalues:    19.9703    24.4977    29.4155
     11  C    Isotropic =    51.5607   Anisotropy =   151.2142
   XX=     2.1639   YX=    40.9287   ZX=   -26.0048
   XY=    49.9131   YY=    12.2331   ZY=    42.1342
   XZ=   -15.6145   YZ=    38.6614   ZZ=   140.2851
   Eigenvalues:   -48.1951    50.5071   152.3701
     12  H    Isotropic =    23.8537   Anisotropy =     7.3815
   XX=    25.9672   YX=     2.3738   ZX=    -0.2390
   XY=     2.4320   YY=    26.3975   ZY=    -1.8291
   XZ=     0.3529   YZ=    -1.7731   ZZ=    19.1964
   Eigenvalues:    18.7149    24.0714    28.7747
     13  C    Isotropic =    52.8653   Anisotropy =   147.4265
   XX=    51.2944   YX=    19.9221   ZX=   -13.4678
   XY=    11.5478   YY=   -34.0176   ZY=    42.5079
   XZ=    -9.2241   YZ=    40.0716   ZZ=   141.3192
   Eigenvalues:   -46.5152    53.9616   151.1497
     14  H    Isotropic =    24.0156   Anisotropy =     7.3485
   XX=    28.6644   YX=     0.6281   ZX=     1.0808
   XY=     0.5926   YY=    24.4325   ZY=    -1.0823
   XZ=     1.6846   YZ=    -0.3842   ZZ=    18.9500
   Eigenvalues:    18.6430    24.4892    28.9146
     15  C    Isotropic =    46.2221   Anisotropy =   203.9048
   XX=   -27.2215   YX=    -0.0442   ZX=   -28.9124
   XY=     4.6427   YY=   -10.5571   ZY=    28.3830
   XZ=   -10.2704   YZ=    26.7376   ZZ=   176.4448
   Eigenvalues:   -30.5512   -12.9411   182.1586
     16  C    Isotropic =    51.9375   Anisotropy =   188.2004
   XX=   -19.4441   YX=     5.5046   ZX=    15.7858
   XY=    -8.3874   YY=     2.4863   ZY=    22.9264
   XZ=   -50.6243   YZ=    23.3340   ZZ=   172.7704
   Eigenvalues:   -21.0294    -0.5625   177.4045
     17  C    Isotropic =    51.9482   Anisotropy =   149.1264
   XX=    50.7296   YX=   -23.9353   ZX=   -18.4207
   XY=   -16.7271   YY=   -41.8764   ZY=    17.8662
   XZ=   -14.3278   YZ=    11.4871   ZZ=   146.9915
   Eigenvalues:   -46.7796    51.2584   151.3658
     18  H    Isotropic =    24.0122   Anisotropy =     7.5163
   XX=    28.5811   YX=    -0.0866   ZX=     1.5071
   XY=    -0.2466   YY=    24.3342   ZY=    -0.7657
   XZ=     2.5088   YZ=    -1.5208   ZZ=    19.1214
   Eigenvalues:    18.5094    24.5041    29.0231
     19  C    Isotropic =    51.7356   Anisotropy =   148.5924
   XX=     2.4559   YX=   -45.6913   ZX=   -31.2531
   XY=   -53.4448   YY=     7.4698   ZY=    -1.8888
   XZ=   -23.5601   YZ=    -1.2765   ZZ=   145.2810
   Eigenvalues:   -46.9894    51.3989   150.7972
     20  H    Isotropic =    23.9071   Anisotropy =     7.6651
   XX=    25.5796   YX=    -2.0226   ZX=     1.4905
   XY=    -1.9998   YY=    27.3706   ZY=    -0.5164
   XZ=     2.7276   YZ=    -1.1179   ZZ=    18.7711
   Eigenvalues:    18.1643    24.5398    29.0172
     21  C    Isotropic =    45.9767   Anisotropy =   203.9316
   XX=   -16.2108   YX=    13.1802   ZX=   -44.5913
   XY=     6.5714   YY=   -20.6329   ZY=     0.0949
   XZ=   -28.8984   YZ=   -13.0883   ZZ=   174.7736
   Eigenvalues:   -30.5796   -13.4215   181.9311
     22  C    Isotropic =    52.0450   Anisotropy =   188.1157
   XX=    -0.0787   YX=     2.5023   ZX=   -16.3451
   XY=    18.9327   YY=   -14.4798   ZY=   -34.4335
   XZ=   -50.6032   YZ=    19.9104   ZZ=   170.6934
   Eigenvalues:   -20.7705    -0.5500   177.4554
     23  C    Isotropic =    53.2392   Anisotropy =   146.7412
   XX=   -22.0674   YX=   -32.0012   ZX=   -49.4857
   XY=   -23.2043   YY=    44.3661   ZY=   -15.6400
   XZ=   -43.8090   YZ=   -20.2525   ZZ=   137.4189
   Eigenvalues:   -45.6776    54.3286   151.0667
     24  H    Isotropic =    23.8249   Anisotropy =     7.5289
   XX=    25.1073   YX=    -1.7330   ZX=     1.5380
   XY=    -1.5944   YY=    28.0047   ZY=     0.0879
   XZ=     1.2557   YZ=    -0.8283   ZZ=    18.3628
   Eigenvalues:    18.0848    24.5458    28.8442
     25  C    Isotropic =    51.4969   Anisotropy =   150.1066
   XX=   -28.4915   YX=    33.9684   ZX=   -52.3137
   XY=    22.0311   YY=    46.6072   ZY=    -3.8075
   XZ=   -44.5594   YZ=   -10.6355   ZZ=   136.3748
   Eigenvalues:   -48.3857    51.3083   151.5679
     26  H    Isotropic =    23.7431   Anisotropy =     7.4052
   XX=    24.0663   YX=     1.1141   ZX=     1.9989
   XY=     0.9693   YY=    28.1000   ZY=     1.6568
   XZ=     2.0795   YZ=     0.8886   ZZ=    19.0630
   Eigenvalues:    18.2615    24.2880    28.6799
     27  C    Isotropic =    45.8108   Anisotropy =   207.2710
   XX=    -2.7702   YX=    13.7697   ZX=   -61.4651
   XY=     6.5593   YY=   -12.0335   ZY=   -41.6456
   XZ=   -62.6381   YZ=   -44.9232   ZZ=   152.2361
   Eigenvalues:   -28.0803   -18.4787   183.9915
     28  C    Isotropic =    47.8398   Anisotropy =   197.2870
   XX=    19.6900   YX=    14.4398   ZX=   -60.5682
   XY=    28.5650   YY=   -19.3566   ZY=   -56.7015
   XZ=   -63.1331   YZ=   -24.4782   ZZ=   143.1859
   Eigenvalues:   -30.5979    -5.2472   179.3644
     29  C    Isotropic =    49.3441   Anisotropy =   179.7793
   XX=    -3.4110   YX=    38.3775   ZX=   -80.8875
   XY=    36.1252   YY=    25.9805   ZY=   -23.7573
   XZ=   -78.1065   YZ=    -3.9802   ZZ=   125.4627
   Eigenvalues:   -51.6645    30.4997   169.1970
     30  H    Isotropic =    23.1387   Anisotropy =    13.3222
   XX=    22.4354   YX=    -0.7013   ZX=    -0.2375
   XY=    -2.1539   YY=    28.3546   ZY=     4.5555
   XZ=    -3.4181   YZ=     8.3231   ZZ=    18.6259
   Eigenvalues:    15.2751    22.1208    32.0201
     31  C    Isotropic =    55.4410   Anisotropy =   174.9390
   XX=    17.1871   YX=   -14.0890   ZX=   -84.0024
   XY=   -17.9030   YY=    37.4745   ZY=   -50.3662
   XZ=   -84.6557   YZ=   -54.8325   ZZ=   111.6615
   Eigenvalues:   -51.9248    46.1808   172.0670
     32  H    Isotropic =    24.5337   Anisotropy =     7.2554
   XX=    24.6185   YX=    -2.5264   ZX=     0.7632
   XY=    -2.7385   YY=    27.4630   ZY=     1.0335
   XZ=     1.1913   YZ=     3.7573   ZZ=    21.5194
   Eigenvalues:    19.8987    24.3316    29.3706
     33  C    Isotropic =    53.1814   Anisotropy =   179.0596
   XX=    60.9231   YX=    35.2256   ZX=   -42.9515
   XY=    32.0226   YY=   -38.1801   ZY=   -45.5652
   XZ=   -44.2248   YZ=   -50.7831   ZZ=   136.8014
   Eigenvalues:   -55.1197    42.1095   172.5545
     34  H    Isotropic =    24.2825   Anisotropy =     5.1861
   XX=    26.7643   YX=    -0.0934   ZX=     2.5955
   XY=    -0.2993   YY=    24.8157   ZY=     0.8589
   XZ=     2.3715   YZ=     1.4580   ZZ=    21.2676
   Eigenvalues:    20.0339    25.0737    27.7399
     35  C    Isotropic =    51.5295   Anisotropy =   155.1748
   XX=    -0.5131   YX=    52.5760   ZX=   -52.1551
   XY=    55.6135   YY=    25.1843   ZY=   -14.2643
   XZ=   -45.7255   YZ=   -17.1625   ZZ=   129.9171
   Eigenvalues:   -48.3147    47.9237   154.9793
     36  H    Isotropic =    23.8384   Anisotropy =     7.3073
   XX=    24.2302   YX=     1.4459   ZX=     2.1759
   XY=     1.2147   YY=    27.1572   ZY=     2.0665
   XZ=     1.6853   YZ=     2.7775   ZZ=    20.1277
   Eigenvalues:    18.9464    23.8588    28.7099
     37  Bq   Isotropic =     4.2745   Anisotropy =    22.9897
   XX=    12.7341   YX=     6.2427   ZX=     9.9112
   XY=     3.1432   YY=     8.5612   ZY=     4.8451
   XZ=     7.4553   YZ=     6.4272   ZZ=    -8.4720
   Eigenvalues:   -12.2893     5.5118    19.6009
     38  Bq   Isotropic =     5.4756   Anisotropy =    23.9819
   XX=    14.4765   YX=     7.2785   ZX=     9.9540
   XY=     3.8641   YY=     8.0126   ZY=     4.4406
   XZ=     7.4492   YZ=     6.2056   ZZ=    -6.0623
   Eigenvalues:    -9.8443     4.8075    21.4635
     39  Bq   Isotropic =     6.7063   Anisotropy =    25.1370
   XX=    16.2235   YX=     8.5142   ZX=     9.9499
   XY=     4.7739   YY=     7.2323   ZY=     3.9606
   XZ=     7.3957   YZ=     5.9192   ZZ=    -3.3370
   Eigenvalues:    -7.0580     3.7125    23.4643
     40  Bq   Isotropic =     7.9061   Anisotropy =    26.4096
   XX=    17.8625   YX=     9.9897   ZX=     9.8838
   XY=     5.9060   YY=     6.1775   ZY=     3.4034
   XZ=     7.2779   YZ=     5.5669   ZZ=    -0.3216
   Eigenvalues:    -3.9522     2.1580    25.5125
     41  Bq   Isotropic =     8.9890   Anisotropy =    27.7380
   XX=    19.2330   YX=    11.7486   ZX=     9.7374
   XY=     7.2951   YY=     4.8038   ZY=     2.7720
   XZ=     7.0743   YZ=     5.1527   ZZ=     2.9301
   Eigenvalues:    -0.6319     0.1178    27.4810
     42  Bq   Isotropic =     9.8363   Anisotropy =    29.0479
   XX=    20.1171   YX=    13.8356   ZX=     9.4904
   XY=     8.9736   YY=     3.0670   ZY=     2.0765
   XZ=     6.7589   YZ=     4.6885   ZZ=     6.3248
   Eigenvalues:    -2.7064     3.0138    29.2016
     43  Bq   Isotropic =    10.2924   Anisotropy =    30.2573
   XX=    20.2307   YX=    16.2924   ZX=     9.1212
   XY=    10.9666   YY=     0.9285   ZY=     1.3371
   XZ=     6.3017   YZ=     4.1981   ZZ=     9.7179
   Eigenvalues:    -6.2052     6.6184    30.4639
     44  Bq   Isotropic =    10.1615   Anisotropy =    31.2854
   XX=    19.2183   YX=    19.1496   ZX=     8.6078
   XY=    13.2825   YY=    -1.6388   ZY=     0.5869
   XZ=     5.6674   YZ=     3.7210   ZZ=    12.9050
   Eigenvalues:   -10.5958    10.0619    31.0184
     45  Bq   Isotropic =     9.2103   Anisotropy =    32.0614
   XX=    16.6522   YX=    22.4132   ZX=     7.9256
   XY=    15.8968   YY=    -4.6395   ZY=    -0.1250
   XZ=     4.8118   YZ=     3.3161   ZZ=    15.6182
   Eigenvalues:   -16.0200    13.0664    30.5846
     46  Bq   Isotropic =     7.1766   Anisotropy =    32.5359
   XX=    12.0415   YX=    26.0403   ZX=     7.0401
   XY=    18.7240   YY=    -8.0431   ZY=    -0.7320
   XZ=     3.6723   YZ=     3.0629   ZZ=    17.5315
   Eigenvalues:   -22.6269    15.2895    28.8672
     47  Bq   Isotropic =     3.7932   Anisotropy =    32.7089
   XX=     4.8677   YX=    29.9004   ZX=     5.8945
   XY=    21.5751   YY=   -11.7700   ZY=    -1.1508
   XZ=     2.1542   YZ=     3.0580   ZZ=    18.2817
   Eigenvalues:   -30.5524    16.3328    25.5991
     48  Bq   Isotropic =    -1.1577   Anisotropy =    32.7932
   XX=    -5.3115   YX=    33.7265   ZX=     4.3946
   XY=    24.1060   YY=   -15.6820   ZY=    -1.2908
   XZ=     0.1166   YZ=     3.4017   ZZ=    17.5205
   Eigenvalues:   -39.8813    15.7038    20.7045
     49  Bq   Isotropic =    -7.7345   Anisotropy =    34.6664
   XX=   -18.6396   YX=    37.0875   ZX=     2.4040
   XY=    25.7891   YY=   -19.5891   ZY=    -1.0804
   XZ=    -2.6284   YZ=     4.1677   ZZ=    15.0252
   Eigenvalues:   -50.5774    11.9975    15.3765
     50  Bq   Isotropic =   -15.6671   Anisotropy =    40.1859
   XX=   -34.6095   YX=    39.4512   ZX=    -0.2362
   XY=    25.9825   YY=   -23.2823   ZY=    -0.5230
   XZ=    -6.2867   YZ=     5.3440   ZZ=    10.8904
   Eigenvalues:   -62.3730     4.2480    11.1235
     51  Bq   Isotropic =   -24.1965   Anisotropy =    46.3272
   XX=   -51.7610   YX=    40.4119   ZX=    -3.6481
   XY=    24.1970   YY=   -26.5778   ZY=     0.2236
   XZ=   -11.0020   YZ=     6.7366   ZZ=     5.7494
   Eigenvalues:   -74.6396    -4.6381     6.6884
     52  Bq   Isotropic =   -32.1265   Anisotropy =    52.6126
   XX=   -67.8707   YX=    40.0070   ZX=    -7.8169
   XY=    20.5409   YY=   -29.2951   ZY=     0.8094
   XZ=   -16.6924   YZ=     7.8738   ZZ=     0.7863
   Eigenvalues:   -86.3697   -12.9585     2.9485
     53  Bq   Isotropic =   -38.2614   Anisotropy =    59.0534
   XX=   -80.9599   YX=    38.6968   ZX=   -12.4502
   XY=    15.9311   YY=   -31.0593   ZY=     0.8271
   XZ=   -22.7993   YZ=     8.0630   ZZ=    -2.7650
   Eigenvalues:   -96.4364   -19.4554     1.1075
     54  Bq   Isotropic =   -41.9113   Anisotropy =    64.9638
   XX=   -90.3033   YX=    36.4989   ZX=   -16.8831
   XY=    11.3558   YY=   -31.0768   ZY=     0.1506
   XZ=   -28.1544   YZ=     6.7761   ZZ=    -4.3538
   Eigenvalues:  -103.8115   -23.3203     1.3979
     55  Bq   Isotropic =   -42.7502   Anisotropy =    68.7801
   XX=   -95.5277   YX=    32.0763   ZX=   -20.2543
   XY=     6.5708   YY=   -28.6390   ZY=    -0.8748
   XZ=   -31.4159   YZ=     4.1451   ZZ=    -4.0839
   Eigenvalues:  -106.9862   -24.3675     3.1032
     56  Bq   Isotropic =   -40.2655   Anisotropy =    69.1355
   XX=   -94.7038   YX=    24.1305   ZX=   -21.9455
   XY=     0.6362   YY=   -24.2012   ZY=    -1.8035
   XZ=   -31.9289   YZ=     0.9020   ZZ=    -1.8915
   Eigenvalues:  -103.7210   -22.9003     5.8249
     57  Bq   Isotropic =   -34.0747   Anisotropy =    66.0219
   XX=   -85.7510   YX=    13.7687   ZX=   -21.8353
   XY=    -6.0138   YY=   -18.9866   ZY=    -2.5074
   XZ=   -30.0141   YZ=    -2.2011   ZZ=     2.5133
   Eigenvalues:   -92.9343   -19.2297     9.9398
     58  Bq   Isotropic =   -24.7507   Anisotropy =    60.4247
   XX=   -69.4081   YX=     3.7409   ZX=   -20.2262
   XY=   -11.7072   YY=   -13.6831   ZY=    -3.0525
   XZ=   -26.4961   YZ=    -4.7201   ZZ=     8.8391
   Eigenvalues:   -76.2322   -13.5523    15.5324
     59  Bq   Isotropic =   -13.7570   Anisotropy =    53.4265
   XX=   -48.9913   YX=    -3.8687   ZX=   -17.6446
   XY=   -15.2071   YY=    -8.3527   ZY=    -3.4672
   XZ=   -22.2162   YZ=    -6.4792   ZZ=    16.0730
   Eigenvalues:   -56.8978    -6.2339    21.8607
     60  Bq   Isotropic =    -2.6648   Anisotropy =    45.9187
   XX=   -28.1331   YX=    -8.4639   ZX=   -14.6344
   XY=   -16.3581   YY=    -2.9679   ZY=    -3.7259
   XZ=   -17.8274   YZ=    -7.4789   ZZ=    23.1067
   Eigenvalues:   -38.0326     2.0905    27.9477
     61  Bq   Isotropic =     7.4295   Anisotropy =    38.5766
   XX=    -9.2894   YX=   -10.4614   ZX=   -11.6136
   XY=   -15.7003   YY=     2.3567   ZY=    -3.8116
   XZ=   -13.7478   YZ=    -7.8336   ZZ=    29.2211
   Eigenvalues:   -21.5485    10.6897    33.1472
     62  Bq   Isotropic =    15.9967   Anisotropy =    31.8470
   XX=     6.4419   YX=   -10.6085   ZX=    -8.8348
   XY=   -13.9331   YY=     7.4085   ZY=    -3.7390
   XZ=   -10.1884   YZ=    -7.7063   ZZ=    34.1397
   Eigenvalues:    -8.1402    18.9023    37.2280
     63  Bq   Isotropic =    22.9076   Anisotropy =    25.9820
   XX=    18.8735   YX=    -9.5818   ZX=    -6.4193
   XY=   -11.6211   YY=    11.9740   ZY=    -3.5436
   XZ=    -7.2184   YZ=    -7.2551   ZZ=    37.8751
   Eigenvalues:     2.2911    26.2027    40.2289
     64  Bq   Isotropic =    28.2403   Anisotropy =    21.0994
   XX=    28.2551   YX=    -7.8635   ZX=    -4.4088
   XY=    -9.1239   YY=    15.8933   ZY=    -3.2641
   XZ=    -4.8288   YZ=    -6.6068   ZZ=    40.5724
   Eigenvalues:    10.1752    32.2391    42.3065
     65  Bq   Isotropic =    32.1506   Anisotropy =    17.2356
   XX=    34.9718   YX=    -5.7560   ZX=    -2.8044
   XY=    -6.6312   YY=    19.0719   ZY=    -2.9324
   XZ=    -2.9773   YZ=    -5.8530   ZZ=    42.4082
   Eigenvalues:    15.9600    36.8508    43.6410
     66  Bq   Isotropic =    34.8022   Anisotropy =    14.3814
   XX=    39.3965   YX=    -3.4349   ZX=    -1.5907
   XY=    -4.2197   YY=    21.4685   ZY=    -2.5693
   XZ=    -1.6134   YZ=    -5.0558   ZZ=    43.5416
   Eigenvalues:    19.9862    40.0306    44.3898
     67  Bq   Isotropic =    36.3334   Anisotropy =    12.5019
   XX=    41.8271   YX=    -0.9973   ZX=    -0.7496
   XY=    -1.9005   YY=    23.0782   ZY=    -2.1852
   XZ=    -0.6921   YZ=    -4.2559   ZZ=    44.0947
   Eigenvalues:    22.4732    41.8588    44.6680
     68  Bq   Isotropic =    36.8418   Anisotropy =    11.5469
   XX=    42.4623   YX=     1.5023   ZX=    -0.2694
   XY=     0.3496   YY=    23.9170   ZY=    -1.7819
   XZ=    -0.1812   YZ=    -3.4805   ZZ=    44.1462
   Eigenvalues:    23.5385    42.4472    44.5398
     69  Bq   Isotropic =    36.3781   Anisotropy =    11.4848
   XX=    41.3933   YX=     4.0263   ZX=    -0.1514
   XY=     2.5658   YY=    24.0117   ZY=    -1.3545
   XZ=    -0.0654   YZ=    -2.7499   ZZ=    43.7294
   Eigenvalues:    23.2127    41.8870    44.0346
     70  Bq   Isotropic =    34.9449   Anisotropy =    12.3330
   XX=    38.6050   YX=     6.5333   ZX=    -0.4130
   XY=     4.7791   YY=    23.3958   ZY=    -0.8941
   XZ=    -0.3480   YZ=    -2.0841   ZZ=    42.8337
   Eigenvalues:    21.4445    40.2232    43.1669
     71  Bq   Isotropic =    32.5028   Anisotropy =    14.1003
   XX=    33.9891   YX=     8.9578   ZX=    -1.0897
   XY=     6.9996   YY=    22.1114   ZY=    -0.3925
   XZ=    -1.0501   YZ=    -1.5088   ZZ=    41.4078
   Eigenvalues:    18.0981    37.5073    41.9030
     72  Bq   Isotropic =    28.9830   Anisotropy =    16.7787
   XX=    27.3681   YX=    11.1883   ZX=    -2.2332
   XY=     9.1984   YY=    20.2143   ZY=     0.1528
   XZ=    -2.2059   YZ=    -1.0631   ZZ=    39.3667
   Eigenvalues:    12.9567    33.8235    40.1689
     73  Bq   Isotropic =    24.3077   Anisotropy =    20.3543
   XX=    18.5370   YX=    13.0404   ZX=    -3.9070
   XY=    11.2844   YY=    17.7814   ZY=     0.7298
   XZ=    -3.8540   YZ=    -0.8087   ZZ=    36.6046
   Eigenvalues:     5.7569    29.2889    37.8772
     74  Bq   Isotropic =    18.4216   Anisotropy =    24.7877
   XX=     7.3342   YX=    14.2266   ZX=    -6.1742
   XY=    13.0758   YY=    14.9140   ZY=     1.2993
   XZ=    -6.0204   YZ=    -0.8393   ZZ=    33.0167
   Eigenvalues:    -3.7298    24.0480    34.9467
     75  Bq   Isotropic =    11.3450   Anisotropy =    29.9858
   XX=    -6.2377   YX=    14.3360   ZX=    -9.0745
   XY=    14.2768   YY=    11.7313   ZY=     1.7800
   XZ=    -8.6890   YZ=    -1.2887   ZZ=    28.5412
   Eigenvalues:   -15.5739    18.2733    31.3355
     76  Bq   Isotropic =     3.2512   Anisotropy =    35.7657
   XX=   -21.8213   YX=    12.8544   ZX=   -12.5798
   XY=    14.4845   YY=     8.3471   ZY=     2.0383
   XZ=   -11.7540   YZ=    -2.3243   ZZ=    23.2279
   Eigenvalues:   -29.5356    12.1942    27.0951
     77  Bq   Isotropic =    -5.4367   Anisotropy =    41.8140
   XX=   -38.4722   YX=     9.2816   ZX=   -16.5310
   XY=    13.2703   YY=     4.8346   ZY=     1.8990
   XZ=   -14.9626   YZ=    -4.1071   ZZ=    17.3275
   Eigenvalues:   -44.8904     6.1409    22.4393
     78  Bq   Isotropic =   -13.9805   Anisotropy =    47.6580
   XX=   -54.5156   YX=     3.3856   ZX=   -20.5811
   XY=    10.3687   YY=     1.2122   ZY=     1.2015
   XZ=   -17.8812   YZ=    -6.6950   ZZ=    11.3620
   Eigenvalues:   -60.2911     0.5581    17.7915
     79  Bq   Isotropic =   -21.3782   Anisotropy =    52.6877
   XX=   -67.7376   YX=    -4.4742   ZX=   -24.2140
   XY=     5.9165   YY=    -2.4899   ZY=    -0.1025
   XZ=   -19.9651   YZ=    -9.9058   ZZ=     6.0929
   Eigenvalues:   -73.8476    -4.0339    13.7469
     80  Bq   Isotropic =   -26.6019   Anisotropy =    56.2614
   XX=   -76.0578   YX=   -13.2296   ZX=   -26.9000
   XY=     0.5262   YY=    -6.0640   ZY=    -1.8756
   XZ=   -20.7883   YZ=   -13.2469   ZZ=     2.3160
   Eigenvalues:   -83.6037    -7.1077    10.9057
     81  Bq   Isotropic =   -28.9368   Anisotropy =    57.9076
   XX=   -78.3494   YX=   -21.4905   ZX=   -28.3269
   XY=    -5.0152   YY=    -9.0217   ZY=    -3.8607
   XZ=   -20.3279   YZ=   -16.0818   ZZ=     0.5607
   Eigenvalues:   -88.2803    -8.1983     9.6683
     82  Bq   Isotropic =   -28.1902   Anisotropy =    57.5366
   XX=   -74.6895   YX=   -28.2473   ZX=   -28.4909
   XY=   -10.2005   YY=   -10.8212   ZY=    -5.8656
   XZ=   -18.9964   YZ=   -18.0040   ZZ=     0.9400
   Eigenvalues:   -87.7236    -7.0146    10.1675
     83  Bq   Isotropic =   -24.6632   Anisotropy =    55.4448
   XX=   -65.9212   YX=   -33.1528   ZX=   -27.5436
   XY=   -14.8223   YY=   -11.2978   ZY=    -7.8220
   XZ=   -17.2952   YZ=   -19.0367   ZZ=     3.2294
   Eigenvalues:   -82.6808    -3.6087    12.3000
     84  Bq   Isotropic =   -19.0293   Anisotropy =    52.0506
   XX=   -53.2940   YX=   -36.1786   ZX=   -25.6320
   XY=   -18.6010   YY=   -10.7342   ZY=    -9.6307
   XZ=   -15.4746   YZ=   -19.4158   ZZ=     6.9403
   Eigenvalues:   -74.3153     1.5563    15.6711
     85  Bq   Isotropic =   -12.2133   Anisotropy =    47.6650
   XX=   -38.4538   YX=   -37.3267   ZX=   -22.9222
   XY=   -21.1142   YY=    -9.5104   ZY=   -11.0713
   XZ=   -13.5532   YZ=   -19.2961   ZZ=    11.3243
   Eigenvalues:   -63.9432     7.7399    19.5634
     86  Bq   Isotropic =    -5.1999   Anisotropy =    42.5123
   XX=   -23.2584   YX=   -36.7172   ZX=   -19.6707
   XY=   -22.1120   YY=    -7.8517   ZY=   -11.9203
   XZ=   -11.5184   YZ=   -18.7160   ZZ=    15.5104
   Eigenvalues:   -52.8617    14.1204    23.1416
     87  Bq   Isotropic =     1.1995   Anisotropy =    36.9064
   XX=    -9.3104   YX=   -34.7058   ZX=   -16.1928
   XY=   -21.7129   YY=    -5.8602   ZY=   -12.0924
   XZ=    -9.4214   YZ=   -17.7104   ZZ=    18.7690
   Eigenvalues:   -42.1237    19.9183    25.8038
     88  Bq   Isotropic =     6.4833   Anisotropy =    31.7880
   XX=     2.3895   YX=   -31.8047   ZX=   -12.7726
   XY=   -20.3040   YY=    -3.6267   ZY=   -11.6587
   XZ=    -7.3501   YZ=   -16.3692   ZZ=    20.6872
   Eigenvalues:   -32.3967    24.1713    27.6753
     89  Bq   Isotropic =    10.4530   Anisotropy =    29.4708
   XX=    11.4640   YX=   -28.5172   ZX=    -9.6053
   XY=   -18.3344   YY=    -1.2745   ZY=   -10.7770
   XZ=    -5.3821   YZ=   -14.8183   ZZ=    21.1694
   Eigenvalues:   -23.9855    25.2443    30.1002
     90  Bq   Isotropic =    13.1255   Anisotropy =    28.8618
   XX=    17.9760   YX=   -25.2246   ZX=    -6.7933
   XY=   -16.1741   YY=     1.0585   ZY=    -9.6191
   XZ=    -3.5671   YZ=   -13.1799   ZZ=    20.3420
   Eigenvalues:   -16.9447    23.9546    32.3667
     91  Bq   Isotropic =    14.6395   Anisotropy =    28.5243
   XX=    22.2209   YX=   -22.1610   ZX=    -4.3715
   XY=   -14.0691   YY=     3.2497   ZY=    -8.3305
   XZ=    -1.9297   YZ=   -11.5507   ZZ=    18.4481
   Eigenvalues:   -11.1946    21.4575    33.6557
     92  Bq   Isotropic =    15.1880   Anisotropy =    28.1399
   XX=    24.5820   YX=   -19.4388   ZX=    -2.3344
   XY=   -12.1541   YY=     5.2100   ZY=    -7.0186
   XZ=    -0.4786   YZ=    -9.9980   ZZ=    15.7721
   Eigenvalues:    -6.6025    18.2186    33.9480
     93  Bq   Isotropic =    14.9779   Anisotropy =    27.6152
   XX=    25.4523   YX=   -17.0893   ZX=    -0.6552
   XY=   -10.4857   YY=     6.8882   ZY=    -5.7563
   XZ=     0.7882   YZ=    -8.5637   ZZ=    12.5932
   Eigenvalues:    -3.0355    14.5812    33.3881
     94  Bq   Isotropic =    14.2072   Anisotropy =    26.9331
   XX=    25.1969   YX=   -15.0964   ZX=     0.7039
   XY=    -9.0724   YY=     8.2654   ZY=    -4.5892
   XZ=     1.8794   YZ=    -7.2705   ZZ=     9.1594
   Eigenvalues:    -0.4138    10.8729    32.1627
     95  Bq   Isotropic =    13.0522   Anisotropy =    26.1176
   XX=    24.1365   YX=   -13.4207   ZX=     1.7851
   XY=    -7.8967   YY=     9.3465   ZY=    -3.5432
   XZ=     2.8091   YZ=    -6.1270   ZZ=     5.6737
   Eigenvalues:     1.1208     7.5719    30.4639
     96  Bq   Isotropic =    11.6608   Anisotropy =    25.2146
   XX=    22.5402   YX=   -12.0132   ZX=     2.6314
   XY=    -6.9295   YY=    10.1517   ZY=    -2.6295
   XZ=     3.5943   YZ=    -5.1317   ZZ=     2.2906
   Eigenvalues:     0.6581     5.8538    28.4706
     97  Bq   Isotropic =    10.1512   Anisotropy =    24.2783
   XX=    20.6251   YX=   -10.8249   ZX=     3.2839
   XY=    -6.1382   YY=    10.7097   ZY=    -1.8496
   XZ=     4.2536   YZ=    -4.2767   ZZ=    -0.8812
   Eigenvalues:    -1.8028     5.9197    26.3367
     98  Bq   Isotropic =     8.6134   Anisotropy =    23.3602
   XX=    18.5590   YX=    -9.8114   ZX=     3.7796
   XY=    -5.4918   YY=    11.0530   ZY=    -1.1984
   XZ=     4.8053   YZ=    -3.5504   ZZ=    -3.7717
   Eigenvalues:    -4.6359     6.2892    24.1869
     99  Bq   Isotropic =     7.1134   Anisotropy =    22.5031
   XX=    16.4673   YX=    -8.9353   ZX=     4.1503
   XY=    -4.9625   YY=    11.2141   ZY=    -0.6670
   XZ=     5.2663   YZ=    -2.9396   ZZ=    -6.3412
   Eigenvalues:    -7.2855     6.5103    22.1155
    100  Bq   Isotropic =     5.6971   Anisotropy =    21.7361
   XX=    14.4391   YX=    -8.1672   ZX=     4.4226
   XY=    -4.5273   YY=    11.2247   ZY=    -0.2444
   XZ=     5.6518   YZ=    -2.4313   ZZ=    -8.5724
   Eigenvalues:    -9.6268     6.5302    20.1879
    101  Bq   Isotropic =     4.3947   Anisotropy =    21.0729
   XX=    12.5345   YX=    -7.4846   ZX=     4.6178
   XY=    -4.1676   YY=    11.1138   ZY=     0.0809
   XZ=     5.9746   YZ=    -2.0132   ZZ=   -10.4642
   Eigenvalues:   -11.6295     6.3702    18.4433
    102  Bq   Isotropic =     3.2238   Anisotropy =    20.5108
   XX=    10.7908   YX=    -6.8717   ZX=     4.7529
   XY=    -3.8687   YY=    10.9076   ZY=     0.3204
   XZ=     6.2455   YZ=    -1.6742   ZZ=   -12.0269
   Eigenvalues:   -13.2956     6.0694    16.8977
    103  Bq   Isotropic =     2.1928   Anisotropy =    20.0331
   XX=     9.2280   YX=    -6.3172   ZX=     4.8413
   XY=    -3.6194   YY=    10.6296   ZY=     0.4853
   XZ=     6.4739   YZ=    -1.4040   ZZ=   -13.2791
   Eigenvalues:   -14.6414     5.6716    15.5482
    104  Bq   Isotropic =     1.3025   Anisotropy =    19.6145
   XX=     7.8526   YX=    -5.8133   ZX=     4.8936
   XY=    -3.4110   YY=    10.2998   ZY=     0.5859
   XZ=     6.6675   YZ=    -1.1935   ZZ=   -14.2449
   Eigenvalues:   -15.6915     5.2202    14.3788
    105  Bq   Isotropic =     0.5485   Anisotropy =    19.2274
   XX=     6.6621   YX=    -5.3549   ZX=     4.9182
   XY=    -3.2369   YY=     9.9354   ZY=     0.6318
   XZ=     6.8331   YZ=    -1.0342   ZZ=   -14.9519
   Eigenvalues:   -16.4749     4.7538    13.3668
    106  Bq   Isotropic =    -0.0771   Anisotropy =    18.8480
   XX=     5.6472   YX=    -4.9382   ZX=     4.9219
   XY=    -3.0919   YY=     9.5508   ZY=     0.6319
   XZ=     6.9766   YZ=    -0.9185   ZZ=   -15.4293
   Eigenvalues:   -17.0226     4.3031    12.4882
    107  Bq   Isotropic =    -0.5846   Anisotropy =    18.4597
   XX=     4.7950   YX=    -4.5602   ZX=     4.9103
   XY=    -2.9719   YY=     9.1576   ZY=     0.5939
   XZ=     7.1030   YZ=    -0.8393   ZZ=   -15.7064
   Eigenvalues:   -17.3656     3.8900    11.7219
    108  Bq   Isotropic =    -0.9854   Anisotropy =    18.0537
   XX=     4.0903   YX=    -4.2185   ZX=     4.8880
   XY=    -2.8736   YY=     8.7648   ZY=     0.5249
   XZ=     7.2168   YZ=    -0.7904   ZZ=   -15.8114
   Eigenvalues:   -17.5341     3.5275    11.0503
    109  Bq   Isotropic =    -1.2913   Anisotropy =    17.6275
   XX=     3.5175   YX=    -3.9109   ZX=     4.8589
   XY=    -2.7940   YY=     8.3791   ZY=     0.4310
   XZ=     7.3219   YZ=    -0.7659   ZZ=   -15.7705
   Eigenvalues:   -17.5559     3.2217    10.4604
    110  Bq   Isotropic =    -1.5134   Anisotropy =    17.1832
   XX=     3.0614   YX=    -3.6352   ZX=     4.8262
   XY=    -2.7307   YY=     8.0054   ZY=     0.3174
   XZ=     7.4217   YZ=    -0.7608   ZZ=   -15.6071
   Eigenvalues:   -17.4562     2.9738     9.9421
    111  Bq   Isotropic =    -1.6624   Anisotropy =    16.7254
   XX=     2.7080   YX=    -3.3891   ZX=     4.7927
   XY=    -2.6815   YY=     7.6466   ZY=     0.1889
   XZ=     7.5191   YZ=    -0.7705   ZZ=   -15.3417
   Eigenvalues:   -17.2568     2.7817     9.4879
    112  Bq   Isotropic =    -1.7477   Anisotropy =    16.2600
   XX=     2.4446   YX=    -3.1705   ZX=     4.7607
   XY=    -2.6442   YY=     7.3040   ZY=     0.0494
   XZ=     7.6166   YZ=    -0.7907   ZZ=   -14.9918
   Eigenvalues:   -16.9768     2.6413     9.0923
    113  Bq   Isotropic =    -1.7779   Anisotropy =    15.7931
   XX=     2.2604   YX=    -2.9768   ZX=     4.7324
   XY=    -2.6165   YY=     6.9777   ZY=    -0.0974
   XZ=     7.7164   YZ=    -0.8177   ZZ=   -14.5719
   Eigenvalues:   -16.6319     2.5474     8.7508
    114  Bq   Isotropic =    -1.7604   Anisotropy =    15.3305
   XX=     2.1459   YX=    -2.8054   ZX=     4.7094
   XY=    -2.5961   YY=     6.6669   ZY=    -0.2485
   XZ=     7.8203   YZ=    -0.8478   ZZ=   -14.0942
   Eigenvalues:   -16.2356     2.4944     8.4599
    115  Bq   Isotropic =    -1.7019   Anisotropy =    14.8777
   XX=     2.0931   YX=    -2.6533   ZX=     4.6932
   XY=    -2.5804   YY=     6.3698   ZY=    -0.4006
   XZ=     7.9298   YZ=    -0.8776   ZZ=   -13.5685
   Eigenvalues:   -15.7987     2.4764     8.2166
    116  Bq   Isotropic =    -1.6081   Anisotropy =    14.4399
   XX=     2.0951   YX=    -2.5174   ZX=     4.6851
   XY=    -2.5667   YY=     6.0839   ZY=    -0.5509
   XZ=     8.0458   YZ=    -0.9037   ZZ=   -13.0032
   Eigenvalues:   -15.3304     2.4876     8.0185
    117  Bq   Isotropic =    -1.4843   Anisotropy =    14.0219
   XX=     2.1455   YX=    -2.3941   ZX=     4.6861
   XY=    -2.5517   YY=     5.8065   ZY=    -0.6962
   XZ=     8.1693   YZ=    -0.9225   ZZ=   -12.4050
   Eigenvalues:   -14.8384     2.5218     7.8636
    118  Bq   Isotropic =    -0.1386   Anisotropy =    16.0779
   XX=     3.4342   YX=     0.8561   ZX=     6.4924
   XY=     2.5367   YY=     7.5863   ZY=     5.3286
   XZ=     5.0863   YZ=     5.3228   ZZ=   -11.4362
   Eigenvalues:   -14.3652     3.3694    10.5800
    119  Bq   Isotropic =    -0.5590   Anisotropy =    16.3544
   XX=     3.0469   YX=     0.8101   ZX=     6.6041
   XY=     2.3430   YY=     7.5333   ZY=     5.3771
   XZ=     5.1267   YZ=     5.3820   ZZ=   -12.2571
   Eigenvalues:   -15.1941     3.1732    10.3440
    120  Bq   Isotropic =    -0.9329   Anisotropy =    16.6375
   XX=     2.7308   YX=     0.7830   ZX=     6.7302
   XY=     2.1555   YY=     7.4936   ZY=     5.4225
   XZ=     5.1872   YZ=     5.4407   ZZ=   -13.0231
   Eigenvalues:   -15.9761     3.0186    10.1587
    121  Bq   Isotropic =    -1.2586   Anisotropy =    16.9292
   XX=     2.4831   YX=     0.7789   ZX=     6.8694
   XY=     1.9788   YY=     7.4725   ZY=     5.4672
   XZ=     5.2656   YZ=     5.5026   ZZ=   -13.7314
   Eigenvalues:   -16.7083     2.9049    10.0275
    122  Bq   Isotropic =    -1.5342   Anisotropy =    17.2305
   XX=     2.3018   YX=     0.8008   ZX=     7.0200
   XY=     1.8164   YY=     7.4746   ZY=     5.5128
   XZ=     5.3594   YZ=     5.5705   ZZ=   -14.3791
   Eigenvalues:   -17.3873     2.8319     9.9528
    123  Bq   Isotropic =    -1.7576   Anisotropy =    17.5410
   XX=     2.1860   YX=     0.8504   ZX=     7.1802
   XY=     1.6706   YY=     7.5035   ZY=     5.5603
   XZ=     5.4662   YZ=     5.6462   ZZ=   -14.9624
   Eigenvalues:   -18.0089     2.7996     9.9364
    124  Bq   Isotropic =    -1.9262   Anisotropy =    17.8588
   XX=     2.1360   YX=     0.9288   ZX=     7.3484
   XY=     1.5429   YY=     7.5618   ZY=     5.6096
   XZ=     5.5834   YZ=     5.7309   ZZ=   -15.4763
   Eigenvalues:   -18.5674     2.8092     9.9797
    125  Bq   Isotropic =    -2.0364   Anisotropy =    18.1802
   XX=     2.1541   YX=     1.0368   ZX=     7.5229
[...]
   133  Bq   0.000000
   134  Bq   0.000000
   135  Bq   0.000000
   136  Bq   0.000000
   137  Bq   0.000000
   138  Bq   0.000000
   139  Bq   0.000000
   140  Bq   0.000000
   141  Bq   0.000000
   142  Bq   0.000000
   143  Bq   0.000000
   144  Bq   0.000000
   145  Bq   0.000000
   146  Bq   0.000000
   147  Bq   0.000000
   148  Bq   0.000000
   149  Bq   0.000000
   150  Bq   0.000000
   151  Bq   0.000000
   152  Bq   0.000000
   153  Bq   0.000000
   154  Bq   0.000000
   155  Bq   0.000000
   156  Bq   0.000000
   157  Bq   0.000000
   158  Bq   0.000000
   159  Bq   0.000000
   160  Bq   0.000000
   161  Bq   0.000000
   162  Bq   0.000000
   163  Bq   0.000000
   164  Bq   0.000000
   165  Bq   0.000000
   166  Bq   0.000000
   167  Bq   0.000000
   168  Bq   0.000000
   169  Bq   0.000000
   170  Bq   0.000000
   171  Bq   0.000000
   172  Bq   0.000000
   173  Bq   0.000000
   174  Bq   0.000000
   175  Bq   0.000000
   176  Bq   0.000000
   177  Bq   0.000000
   178  Bq   0.000000
   179  Bq   0.000000
   180  Bq   0.000000
   181  Bq   0.000000
   182  Bq   0.000000
   183  Bq   0.000000
   184  Bq   0.000000
   185  Bq   0.000000
   186  Bq   0.000000
   187  Bq   0.000000
   188  Bq   0.000000
   189  Bq   0.000000
   190  Bq   0.000000
   191  Bq   0.000000
   192  Bq   0.000000
   193  Bq   0.000000
   194  Bq   0.000000
   195  Bq   0.000000
   196  Bq   0.000000
   197  Bq   0.000000
   198  Bq   0.000000
   199  Bq   0.000000
   200  Bq   0.000000
   201  Bq   0.000000
   202  Bq   0.000000
   203  Bq   0.000000
   204  Bq   0.000000
   205  Bq   0.000000
   206  Bq   0.000000
   207  Bq   0.000000
   208  Bq   0.000000
   209  Bq   0.000000
   210  Bq   0.000000
   211  Bq   0.000000
   212  Bq   0.000000
   213  Bq   0.000000
   214  Bq   0.000000
   215  Bq   0.000000
   216  Bq   0.000000
   217  Bq   0.000000
   218  Bq   0.000000
   219  Bq   0.000000
   220  Bq   0.000000
   221  Bq   0.000000
   222  Bq   0.000000
   223  Bq   0.000000
   224  Bq   0.000000
   225  Bq   0.000000
   226  Bq   0.000000
   227  Bq   0.000000
   228  Bq   0.000000
   229  Bq   0.000000
   230  Bq   0.000000
   231  Bq   0.000000
   232  Bq   0.000000
   233  Bq   0.000000
   234  Bq   0.000000
   235  Bq   0.000000
   236  Bq   0.000000
 Sum of Mulliken charges =   0.00000
 Mulliken charges with hydrogens summed into heavy atoms:
               1
     1  C   -0.255498
     3  C    0.169409
     5  C    0.448258
     6  C    0.064351
     7  C   -0.333926
     9  C   -0.139521
    11  C   -0.205988
    13  C   -0.119315
    15  C    0.653397
    16  C    0.034822
    17  C   -0.317410
    19  C   -0.316854
    21  C    0.651066
    22  C    0.037784
    23  C   -0.233803
    25  C   -0.321531
    27  C    0.448331
    28  C    0.061983
    29  C   -0.333381
    31  C   -0.139505
    33  C   -0.255977
    35  C    0.055019
    37  Bq   0.000000
    38  Bq   0.000000
    39  Bq   0.000000
    40  Bq   0.000000
    41  Bq   0.000000
    42  Bq   0.000000
    43  Bq   0.000000
    44  Bq   0.000000
    45  Bq   0.000000
    46  Bq   0.000000
    47  Bq   0.000000
    48  Bq   0.000000
    49  Bq   0.000000
    50  Bq   0.000000
    51  Bq   0.000000
    52  Bq   0.000000
    53  Bq   0.000000
    54  Bq   0.000000
    55  Bq   0.000000
    56  Bq   0.000000
    57  Bq   0.000000
    58  Bq   0.000000
    59  Bq   0.000000
    60  Bq   0.000000
    61  Bq   0.000000
    62  Bq   0.000000
    63  Bq   0.000000
    64  Bq   0.000000
    65  Bq   0.000000
    66  Bq   0.000000
    67  Bq   0.000000
    68  Bq   0.000000
    69  Bq   0.000000
    70  Bq   0.000000
    71  Bq   0.000000
    72  Bq   0.000000
    73  Bq   0.000000
    74  Bq   0.000000
    75  Bq   0.000000
    76  Bq   0.000000
    77  Bq   0.000000
    78  Bq   0.000000
    79  Bq   0.000000
    80  Bq   0.000000
    81  Bq   0.000000
    82  Bq   0.000000
    83  Bq   0.000000
    84  Bq   0.000000
    85  Bq   0.000000
    86  Bq   0.000000
    87  Bq   0.000000
    88  Bq   0.000000
    89  Bq   0.000000
    90  Bq   0.000000
    91  Bq   0.000000
    92  Bq   0.000000
    93  Bq   0.000000
    94  Bq   0.000000
    95  Bq   0.000000
    96  Bq   0.000000
    97  Bq   0.000000
    98  Bq   0.000000
    99  Bq   0.000000
   100  Bq   0.000000
   101  Bq   0.000000
   102  Bq   0.000000
   103  Bq   0.000000
   104  Bq   0.000000
   105  Bq   0.000000
   106  Bq   0.000000
   107  Bq   0.000000
   108  Bq   0.000000
   109  Bq   0.000000
   110  Bq   0.000000
   111  Bq   0.000000
   112  Bq   0.000000
   113  Bq   0.000000
   114  Bq   0.000000
   115  Bq   0.000000
   116  Bq   0.000000
   117  Bq   0.000000
   118  Bq   0.115561
   119  Bq   0.000000
   120  Bq   0.000000
   121  Bq   0.000000
   122  Bq   0.000000
   123  Bq   0.000000
   124  Bq   0.000000
   125  Bq   0.000000
   126  Bq   0.000000
   127  Bq   0.000000
   128  Bq   0.000000
   129  Bq   0.000000
   130  Bq   0.000000
   131  Bq   0.000000
   132  Bq   0.000000
   133  Bq   0.000000
   134  Bq   0.000000
   135  Bq   0.000000
   136  Bq   0.000000
   137  Bq   0.000000
   138  Bq   0.000000
   139  Bq   0.000000
   140  Bq   0.000000
   141  Bq   0.000000
   142  Bq   0.000000
   143  Bq   0.000000
   144  Bq   0.000000
   145  Bq   0.116215
   146  Bq   0.000000
   147  Bq   0.000000
   148  Bq   0.000000
   149  Bq   0.000000
   150  Bq   0.000000
   151  Bq   0.000000
   152  Bq   0.000000
   153  Bq   0.000000
   154  Bq   0.000000
   155  Bq   0.000000
   156  Bq   0.000000
   157  Bq   0.000000
   158  Bq   0.000000
   159  Bq   0.000000
   160  Bq   0.000000
   161  Bq   0.000000
   162  Bq   0.000000
   163  Bq   0.000000
   164  Bq   0.000000
   165  Bq   0.000000
   166  Bq   0.000000
   167  Bq   0.000000
   168  Bq   0.000000
   169  Bq   0.000000
   170  Bq   0.000000
   171  Bq   0.000000
   172  Bq   0.000000
   173  Bq   0.000000
   174  Bq   0.000000
   175  Bq   0.000000
   176  Bq   0.000000
   177  Bq   0.000000
   178  Bq   0.000000
   179  Bq   0.000000
   180  Bq   0.000000
   181  Bq   0.000000
   182  Bq   0.000000
   183  Bq   0.000000
   184  Bq   0.000000
   185  Bq   0.000000
   186  Bq   0.000000
   187  Bq   0.000000
   188  Bq   0.000000
   189  Bq   0.000000
   190  Bq   0.000000
   191  Bq   0.000000
   192  Bq   0.000000
   193  Bq   0.000000
   194  Bq   0.116514
   195  Bq   0.000000
   196  Bq   0.000000
   197  Bq   0.000000
   198  Bq   0.000000
   199  Bq   0.000000
   200  Bq   0.000000
   201  Bq   0.000000
   202  Bq   0.000000
   203  Bq   0.000000
   204  Bq   0.000000
   205  Bq   0.000000
   206  Bq   0.000000
   207  Bq   0.000000
   208  Bq   0.000000
   209  Bq   0.000000
   210  Bq   0.000000
   211  Bq   0.000000
   212  Bq   0.000000
   213  Bq   0.000000
   214  Bq   0.000000
   215  Bq   0.000000
   216  Bq   0.000000
   217  Bq   0.000000
   218  Bq   0.000000
   219  Bq   0.000000
   220  Bq   0.000000
   221  Bq   0.000000
   222  Bq   0.000000
   223  Bq   0.000000
   224  Bq   0.000000
   225  Bq   0.000000
   226  Bq   0.000000
   227  Bq   0.000000
   228  Bq   0.000000
   229  Bq   0.000000
   230  Bq   0.000000
   231  Bq   0.000000
   232  Bq   0.000000
   233  Bq   0.000000
   234  Bq   0.000000
   235  Bq   0.000000
   236  Bq   0.000000
 Electronic spatial extent (au):  <R**2>=           5736.9264
 Charge=              0.0000 electrons
 Dipole moment (field-independent basis, Debye):
    X=              0.0475    Y=              0.0856    Z=              0.0029  Tot=              0.0979
 Quadrupole moment (field-independent basis, Debye-Ang):
   XX=           -113.7056   YY=           -113.9456   ZZ=           -133.2669
   XY=             -0.3834   XZ=              3.2102   YZ=             -1.1839
 Traceless Quadrupole moment (field-independent basis, Debye-Ang):
   XX=              6.6005   YY=              6.3604   ZZ=            -12.9609
   XY=             -0.3834   XZ=              3.2102   YZ=             -1.1839
 Octapole moment (field-independent basis, Debye-Ang**2):
  XXX=            -16.4668  YYY=            -16.1860  ZZZ=             -1.7007  XYY=              2.5576
  XXY=             -6.5650  XXZ=             13.6547  XZZ=             -8.9478  YZZ=            -17.7168
  YYZ=            -13.2941  XYZ=              8.8036
 Hexadecapole moment (field-independent basis, Debye-Ang**3):
 XXXX=          -3951.1638 YYYY=          -3112.2161 ZZZZ=           -504.8311 XXXY=            340.6935
 XXXZ=            156.4968 YYYX=            335.5625 YYYZ=            -87.0893 ZZZX=            120.2262
 ZZZY=           -108.7373 XXYY=          -1176.4844 XXZZ=           -856.7291 YYZZ=           -665.7275
 XXYZ=            -68.9016 YYXZ=             48.1602 ZZXY=            153.0375
 N-N= 1.610917615562D+03 E-N=-5.186891130729D+03  KE= 8.436329774449D+02
 1\1\GINC-THARO\SP\RB3LYP\6-311+G(d,p)\C22H14\YANNICK\19-Aug-2020\0\\# 
 rb3lyp/6-311+g** NMR geom=connectivity\\Title\\0,1\C,0,-4.0500558,-0.5
 771862,0.8136712\H,0,-5.0263804,-1.0082727,1.002476\C,0,-3.9381552,0.6
 617804,0.2400876\H,0,-4.8252424,1.233889,-0.0111295\C,0,-2.676841,1.24
 33246,0.0057578\C,0,-1.4974121,0.5051527,0.2848253\C,0,-1.6508332,-0.7
 338728,0.9404026\H,0,-0.7713646,-1.2730967,1.2633753\C,0,-2.8898548,-1
 .2624035,1.1994307\H,0,-2.9683706,-2.2124563,1.7152676\C,0,-2.5773185,
 2.5963696,-0.419293\H,0,-3.4870728,3.1412239,-0.6474055\C,0,-1.3741895
 ,3.2147896,-0.436403\H,0,-1.2997315,4.2742019,-0.6578144\C,0,-0.171948
 8,2.499409,-0.1734588\C,0,-0.2043917,1.1018437,0.0192689\C,0,1.0513491
 ,3.204256,-0.0676222\H,0,1.0427344,4.2819499,-0.1896997\C,0,2.1942091,
 2.5487446,0.2579577\H,0,3.1168527,3.0912848,0.4334727\C,0,2.2216473,1.
 1336562,0.293499\C,0,1.0486931,0.3945528,0.0302412\C,0,3.4483363,0.461
 4633,0.5573939\H,0,4.3095794,1.0606054,0.8334846\C,0,3.5427346,-0.8855
 926,0.4749463\H,0,4.4731467,-1.3939704,0.7038822\C,0,2.4490052,-1.6474
 447,-0.0196319\C,0,1.2150704,-1.0057258,-0.3013573\C,0,0.2531113,-1.74
 3444,-1.0216591\H,0,-0.6541356,-1.2535051,-1.3462847\C,0,0.4494193,-3.
 0628597,-1.3413779\H,0,-0.3083162,-3.5944309,-1.905406\C,0,1.6251726,-
 3.7207967,-0.9552541\H,0,1.7670048,-4.7687404,-1.1927019\C,0,2.6109872
 ,-3.0144177,-0.318305\H,0,3.5525612,-3.4902813,-0.0646367\Bq,0,3.77663
 5867,-1.7429222105,0.3425774426\Bq,0,3.7747903418,-1.6934308635,0.3494
 477123\Bq,0,3.7729448165,-1.6439395165,0.3563179821\Bq,0,3.7710992912,
 -1.5944481695,0.3631882519\Bq,0,3.769253766,-1.5449568225,0.3700585217
 \Bq,0,3.7674082407,-1.4954654754,0.3769287915\Bq,0,3.7655627154,-1.445
 9741284,0.3837990612\Bq,0,3.7637171902,-1.3964827814,0.390669331\Bq,0,
 3.7618716649,-1.3469914344,0.3975396008\Bq,0,3.7600261396,-1.297500087
 4,0.4044098706\Bq,0,3.7581806144,-1.2480087404,0.4112801404\Bq,0,3.756
 3350891,-1.1985173933,0.4181504101\Bq,0,3.7544895638,-1.1490260463,0.4
 250206799\Bq,0,3.7526440386,-1.0995346993,0.4318909497\Bq,0,3.75079851
 33,-1.0500433523,0.4387612195\Bq,0,3.748952988,-1.0005520053,0.4456314
 892\Bq,0,3.7471074628,-0.9510606583,0.452501759\Bq,0,3.7452619375,-0.9
 015693112,0.4593720288\Bq,0,3.7434164122,-0.8520779642,0.4662422986\Bq
 ,0,3.741570887,-0.8025866172,0.4731125684\Bq,0,3.7397253617,-0.7530952
 702,0.4799828381\Bq,0,3.7378798364,-0.7036039232,0.4868531079\Bq,0,3.7
 360343111,-0.6541125761,0.4937233777\Bq,0,3.7341887859,-0.6046212291,0
 .5005936475\Bq,0,3.7323432606,-0.5551298821,0.5074639173\Bq,0,3.730497
 7353,-0.5056385351,0.514334187\Bq,0,3.7286522101,-0.4561471881,0.52120
 44568\Bq,0,3.7268066848,-0.4066558411,0.5280747266\Bq,0,3.7249611595,-
 0.357164494,0.5349449964\Bq,0,3.7231156343,-0.307673147,0.5418152662\B
 q,0,3.721270109,-0.2581818,0.5486855359\Bq,0,3.7194245837,-0.208690453
 ,0.5555558057\Bq,0,3.7175790585,-0.159199106,0.5624260755\Bq,0,3.71573
 35332,-0.1097077589,0.5692963453\Bq,0,3.7138880079,-0.0602164119,0.576
 1666151\Bq,0,3.7120424827,-0.0107250649,0.5830368848\Bq,0,3.7101969574
 ,0.0387662821,0.5899071546\Bq,0,3.7083514321,0.0882576291,0.5967774244
 \Bq,0,3.7065059069,0.1377489761,0.6036476942\Bq,0,3.7046603816,0.18724
 03232,0.610517964\Bq,0,3.7028148563,0.2367316702,0.6173882337\Bq,0,3.7
 009693311,0.2862230172,0.6242585035\Bq,0,3.6991238058,0.3357143642,0.6
 311287733\Bq,0,3.6972782805,0.3852057112,0.6379990431\Bq,0,3.695432755
 3,0.4346970583,0.6448693129\Bq,0,3.69358723,0.4841884053,0.6517395826\
 Bq,0,3.6917417047,0.5336797523,0.6586098524\Bq,0,3.6898961795,0.583171
 0993,0.6654801222\Bq,0,3.6880506542,0.6326624463,0.672350392\Bq,0,3.68
 62051289,0.6821537933,0.6792206617\Bq,0,3.6843596037,0.7316451404,0.68
 60909315\Bq,0,3.6825140784,0.7811364874,0.6929612013\Bq,0,3.6806685531
 ,0.8306278344,0.6998314711\Bq,0,3.6788230279,0.8801191814,0.7067017409
 \Bq,0,3.6769775026,0.9296105284,0.7135720106\Bq,0,3.6751319773,0.97910
 18754,0.7204422804\Bq,0,3.673286452,1.0285932225,0.7273125502\Bq,0,3.6
 714409268,1.0780845695,0.73418282\Bq,0,3.6695954015,1.1275759165,0.741
 0530898\Bq,0,3.6677498762,1.1770672635,0.7479233595\Bq,0,3.665904351,1
 .2265586105,0.7547936293\Bq,0,3.6640588257,1.2760499576,0.7616638991\B
 q,0,3.6622133004,1.3255413046,0.7685341689\Bq,0,3.6603677752,1.3750326
 516,0.7754044387\Bq,0,3.6585222499,1.4245239986,0.7822747084\Bq,0,3.65
 66767246,1.4740153456,0.7891449782\Bq,0,3.6548311994,1.5235066926,0.79
 6015248\Bq,0,3.6529856741,1.5729980397,0.8028855178\Bq,0,3.6511401488,
 1.6224893867,0.8097557876\Bq,0,3.6492946236,1.6719807337,0.8166260573\
 Bq,0,3.6474490983,1.7214720807,0.8234963271\Bq,0,3.645603573,1.7709634
 277,0.8303665969\Bq,0,3.6437580478,1.8204547748,0.8372368667\Bq,0,3.64
 19125225,1.8699461218,0.8441071365\Bq,0,3.6400669972,1.9194374688,0.85
 09774062\Bq,0,3.638221472,1.9689288158,0.857847676\Bq,0,3.6363759467,2
 .0184201628,0.8647179458\Bq,0,3.6345304214,2.0679115098,0.8715882156\B
 q,0,3.6326848962,2.1174028569,0.8784584854\Bq,0,3.6308393709,2.1668942
 039,0.8853287551\Bq,0,3.6289938456,2.2163855509,0.8921990249\Bq,0,3.86
 18344974,-2.7327491509,0.2181434379\Bq,0,3.8599889721,-2.6832578039,0.
 2250137076\Bq,0,3.8581434469,-2.6337664569,0.2318839774\Bq,0,3.8562979
 216,-2.5842751098,0.2387542472\Bq,0,3.8544523963,-2.5347837628,0.24562
 4517\Bq,0,3.8526068711,-2.4852924158,0.2524947868\Bq,0,3.8507613458,-2
 .4358010688,0.2593650565\Bq,0,3.8489158205,-2.3863097218,0.2662353263\
 Bq,0,3.8470702953,-2.3368183748,0.2731055961\Bq,0,3.84522477,-2.287327
 0277,0.2799758659\Bq,0,3.8433792447,-2.2378356807,0.2868461357\Bq,0,3.
 8415337195,-2.1883443337,0.2937164054\Bq,0,3.8396881942,-2.1388529867,
 0.3005866752\Bq,0,3.8378426689,-2.0893616397,0.307456945\Bq,0,3.835997
 1437,-2.0398702926,0.3143272148\Bq,0,3.8341516184,-1.9903789456,0.3211
 974846\Bq,0,3.8323060931,-1.9408875986,0.3280677543\Bq,0,3.8304605679,
 -1.8913962516,0.3349380241\Bq,0,3.8286150426,-1.8419049046,0.341808293
 9\Bq,0,3.8267695173,-1.7924135576,0.3486785637\Bq,0,3.8249239921,-1.74
 29222105,0.3555488335\Bq,0,3.8230784668,-1.6934308635,0.3624191032\Bq,
 0,3.8212329415,-1.6439395165,0.369289373\Bq,0,3.8193874163,-1.59444816
 95,0.3761596428\Bq,0,3.817541891,-1.5449568225,0.3830299126\Bq,0,3.815
 6963657,-1.4954654754,0.3899001823\Bq,0,3.8138508405,-1.4459741284,0.3
 967704521\Bq,0,3.8120053152,-1.3964827814,0.4036407219\Bq,0,3.81015978
 99,-1.3469914344,0.4105109917\Bq,0,3.8083142647,-1.2975000874,0.417381
 2615\Bq,0,3.8064687394,-1.2480087404,0.4242515312\Bq,0,3.8046232141,-1
 .1985173933,0.431121801\Bq,0,3.8027776888,-1.1490260463,0.4379920708\B
 q,0,3.8009321636,-1.0995346993,0.4448623406\Bq,0,3.7990866383,-1.05004
 33523,0.4517326104\Bq,0,3.797241113,-1.0005520053,0.4586028801\Bq,0,3.
 7953955878,-0.9510606583,0.4654731499\Bq,0,3.7935500625,-0.9015693112,
 0.4723434197\Bq,0,3.7917045372,-0.8520779642,0.4792136895\Bq,0,3.78985
 9012,-0.8025866172,0.4860839593\Bq,0,3.7880134867,-0.7530952702,0.4929
 54229\Bq,0,3.7861679614,-0.7036039232,0.4998244988\Bq,0,3.7843224362,-
 0.6541125761,0.5066947686\Bq,0,3.7824769109,-0.6046212291,0.5135650384
 \Bq,0,3.7806313856,-0.5551298821,0.5204353082\Bq,0,3.7787858604,-0.505
 6385351,0.5273055779\Bq,0,3.7769403351,-0.4561471881,0.5341758477\Bq,0
 ,3.7750948098,-0.4066558411,0.5410461175\Bq,0,3.7732492846,-0.35716449
 4,0.5479163873\Bq,0,3.7714037593,-0.307673147,0.5547866571\Bq,0,3.7695
 58234,-0.2581818,0.5616569268\Bq,0,3.7677127088,-0.208690453,0.5685271
 966\Bq,0,3.7658671835,-0.159199106,0.5753974664\Bq,0,3.7640216582,-0.1
 097077589,0.5822677362\Bq,0,3.762176133,-0.0602164119,0.589138006\Bq,0
 ,3.7603306077,-0.0107250649,0.5960082757\Bq,0,3.7584850824,0.038766282
 1,0.6028785455\Bq,0,3.7566395572,0.0882576291,0.6097488153\Bq,0,3.7547
 940319,0.1377489761,0.6166190851\Bq,0,3.7529485066,0.1872403232,0.6234
 893548\Bq,0,3.7511029814,0.2367316702,0.6303596246\Bq,0,3.7492574561,0
 .2862230172,0.6372298944\Bq,0,3.7474119308,0.3357143642,0.6441001642\B
 q,0,3.7455664056,0.3852057112,0.650970434\Bq,0,3.7437208803,0.43469705
 83,0.6578407037\Bq,0,3.741875355,0.4841884053,0.6647109735\Bq,0,3.7400
 298297,0.5336797523,0.6715812433\Bq,0,3.7381843045,0.5831710993,0.6784
 515131\Bq,0,3.7363387792,0.6326624463,0.6853217829\Bq,0,3.7344932539,0
 .6821537933,0.6921920526\Bq,0,3.7326477287,0.7316451404,0.6990623224\B
 q,0,3.7308022034,0.7811364874,0.7059325922\Bq,0,3.7289566781,0.8306278
 344,0.712802862\Bq,0,3.7271111529,0.8801191814,0.7196731318\Bq,0,3.725
 2656276,0.9296105284,0.7265434015\Bq,0,3.7234201023,0.9791018754,0.733
 4136713\Bq,0,3.7215745771,1.0285932225,0.7402839411\Bq,0,3.7197290518,
 1.0780845695,0.7471542109\Bq,0,3.7178835265,1.1275759165,0.7540244807\
 Bq,0,3.7160380013,1.1770672635,0.7608947504\Bq,0,3.714192476,1.2265586
 105,0.7677650202\Bq,0,3.7123469507,1.2760499576,0.77463529\Bq,0,3.7105
 014255,1.3255413046,0.7815055598\Bq,0,3.7086559002,1.3750326516,0.7883
 758296\Bq,0,3.7068103749,1.4245239986,0.7952460993\Bq,0,3.7049648497,1
 .4740153456,0.8021163691\Bq,0,3.7031193244,1.5235066926,0.8089866389\B
 q,0,3.7012737991,1.5729980397,0.8158569087\Bq,0,3.6994282739,1.6224893
 867,0.8227271785\Bq,0,3.6975827486,1.6719807337,0.8295974482\Bq,0,3.69
 57372233,1.7214720807,0.836467718\Bq,0,3.6938916981,1.7709634277,0.843
 3379878\Bq,0,3.6920461728,1.8204547748,0.8502082576\Bq,0,3.6902006475,
 1.8699461218,0.8570785274\Bq,0,3.6883551223,1.9194374688,0.8639487971\
 Bq,0,3.686509597,1.9689288158,0.8708190669\Bq,0,3.6846640717,2.0184201
 628,0.8776893367\Bq,0,3.6828185464,2.0679115098,0.8845596065\Bq,0,3.68
 09730212,2.1174028569,0.8914298762\Bq,0,3.6791274959,2.1668942039,0.89
 8300146\Bq,0,3.6772819706,2.2163855509,0.9051704158\Bq,0,3.9101226224,
 -2.7327491509,0.2311148288\Bq,0,3.9082770972,-2.6832578039,0.237985098
 5\Bq,0,3.9064315719,-2.6337664569,0.2448553683\Bq,0,3.9045860466,-2.58
 42751098,0.2517256381\Bq,0,3.9027405214,-2.5347837628,0.2585959079\Bq,
 0,3.9008949961,-2.4852924158,0.2654661777\Bq,0,3.8990494708,-2.4358010
 688,0.2723364474\Bq,0,3.8972039456,-2.3863097218,0.2792067172\Bq,0,3.8
 953584203,-2.3368183748,0.286076987\Bq,0,3.893512895,-2.2873270277,0.2
 929472568\Bq,0,3.8916673698,-2.2378356807,0.2998175266\Bq,0,3.88982184
 45,-2.1883443337,0.3066877963\Bq,0,3.8879763192,-2.1388529867,0.313558
 0661\Bq,0,3.886130794,-2.0893616397,0.3204283359\Bq,0,3.8842852687,-2.
 0398702926,0.3272986057\Bq,0,3.8824397434,-1.9903789456,0.3341688754\B
 q,0,3.8805942182,-1.9408875986,0.3410391452\Bq,0,3.8787486929,-1.89139
 62516,0.347909415\\Version=ES64L-G09RevD.01\HF=-847.0032898\RMSD=7.592
 e-09\Dipole=0.0186808,0.0336671,0.0011595\Quadrupole=4.9072795,4.72882
 19,-9.6361014,-0.2850201,2.3867064,-0.880172\PG=C01 [X(C22H14)]\\@


 I do not feel obliged to believe that the same God who
 has endowed us with sense, reason, and intellect has
 intended us to forgo their use.
                   --Galileo Galilei
 Job cpu time:       0 days  2 hours 43 minutes 33.7 seconds.
 File lengths (MBytes):  RWF=    184 Int=      0 D2E=      0 Chk=     19 Scr=      1
 Normal termination of Gaussian 09 at Wed Aug 19 15:24:28 2020.

real	20m48.164s
user	163m30.161s
sys	0m3.615s
