 Entering Gaussian System, Link 0=g09
 Initial command:
 /share/programs/GAUSSIAN/64/g09/l1.exe "/scratch/yannick.29467/Gau-1272751.inp" -scrdir="/scratch/yannick.29467/"
 Entering Link 1 = /share/programs/GAUSSIAN/64/g09/l1.exe PID=   1272752.
  
 Copyright (c) 1988,1990,1992,1993,1995,1998,2003,2009,2013,
            Gaussian, Inc.  All Rights Reserved.
  
 This is part of the Gaussian(R) 09 program.  It is based on
 the Gaussian(R) 03 system (copyright 2003, Gaussian, Inc.),
 the Gaussian(R) 98 system (copyright 1998, Gaussian, Inc.),
 the Gaussian(R) 94 system (copyright 1995, Gaussian, Inc.),
 the Gaussian 92(TM) system (copyright 1992, Gaussian, Inc.),
 the Gaussian 90(TM) system (copyright 1990, Gaussian, Inc.),
 the Gaussian 88(TM) system (copyright 1988, Gaussian, Inc.),
 the Gaussian 86(TM) system (copyright 1986, Carnegie Mellon
 University), and the Gaussian 82(TM) system (copyright 1983,
 Carnegie Mellon University). Gaussian is a federally registered
 trademark of Gaussian, Inc.
  
 This software contains proprietary and confidential information,
 including trade secrets, belonging to Gaussian, Inc.
  
 This software is provided under written license and may be
 used, copied, transmitted, or stored only in accord with that
 written license.
  
 The following legend is applicable only to US Government
 contracts under FAR:
  
                    RESTRICTED RIGHTS LEGEND
  
 Use, reproduction and disclosure by the US Government is
 subject to restrictions as set forth in subparagraphs (a)
 and (c) of the Commercial Computer Software - Restricted
 Rights clause in FAR 52.227-19.
  
 Gaussian, Inc.
 340 Quinnipiac St., Bldg. 40, Wallingford CT 06492
  
  
 ---------------------------------------------------------------
 Warning -- This program may not be used in any manner that
 competes with the business of Gaussian, Inc. or will provide
 assistance to any competitor of Gaussian, Inc.  The licensee
 of this program is prohibited from giving any competitor of
 Gaussian, Inc. access to this program.  By using this program,
 the user acknowledges that Gaussian, Inc. is engaged in the
 business of creating and licensing software in the field of
 computational chemistry and represents and warrants to the
 licensee that it is not a competitor of Gaussian, Inc. and that
 it will not use this program in any manner prohibited above.
 ---------------------------------------------------------------
  

 Cite this work as:
 Gaussian 09, Revision D.01,
 M. J. Frisch, G. W. Trucks, H. B. Schlegel, G. E. Scuseria, 
 M. A. Robb, J. R. Cheeseman, G. Scalmani, V. Barone, B. Mennucci, 
 G. A. Petersson, H. Nakatsuji, M. Caricato, X. Li, H. P. Hratchian, 
 A. F. Izmaylov, J. Bloino, G. Zheng, J. L. Sonnenberg, M. Hada, 
 M. Ehara, K. Toyota, R. Fukuda, J. Hasegawa, M. Ishida, T. Nakajima, 
 Y. Honda, O. Kitao, H. Nakai, T. Vreven, J. A. Montgomery, Jr., 
 J. E. Peralta, F. Ogliaro, M. Bearpark, J. J. Heyd, E. Brothers, 
 K. N. Kudin, V. N. Staroverov, T. Keith, R. Kobayashi, J. Normand, 
 K. Raghavachari, A. Rendell, J. C. Burant, S. S. Iyengar, J. Tomasi, 
 M. Cossi, N. Rega, J. M. Millam, M. Klene, J. E. Knox, J. B. Cross, 
 V. Bakken, C. Adamo, J. Jaramillo, R. Gomperts, R. E. Stratmann, 
 O. Yazyev, A. J. Austin, R. Cammi, C. Pomelli, J. W. Ochterski, 
 R. L. Martin, K. Morokuma, V. G. Zakrzewski, G. A. Voth, 
 P. Salvador, J. J. Dannenberg, S. Dapprich, A. D. Daniels, 
 O. Farkas, J. B. Foresman, J. V. Ortiz, J. Cioslowski, 
 and D. J. Fox, Gaussian, Inc., Wallingford CT, 2013.
 
 ******************************************
 Gaussian 09:  ES64L-G09RevD.01 24-Apr-2013
                19-Aug-2020 
 ******************************************
 %nproc=8
 Will use up to    8 processors via shared memory.
 %mem=1000MB
 ----------------------------------------
 # rb3lyp/6-311+g** NMR geom=connectivity
 ----------------------------------------
 1/38=1,57=2/1;
 2/12=2,17=6,18=5,40=1/2;
 3/5=4,6=6,7=111,11=2,16=1,25=1,30=1,74=-5,116=1/1,2,8,3;
 4//1;
 5/5=2,38=5/2;
 8/6=1,10=90,11=11/1;
 10/13=100,45=16/2;
 6/7=2,8=2,9=2,10=2,28=1/1;
 99/9=1/99;
 -----
 Title
 -----
 Symbolic Z-matrix:
 Charge =  0 Multiplicity = 1
 C                    -4.05006  -0.57719   0.81367 
 H                    -5.02638  -1.00827   1.00248 
 C                    -3.93816   0.66178   0.24009 
 H                    -4.82524   1.23389  -0.01113 
 C                    -2.67684   1.24332   0.00576 
 C                    -1.49741   0.50515   0.28483 
 C                    -1.65083  -0.73387   0.9404 
 H                    -0.77136  -1.2731    1.26338 
 C                    -2.88985  -1.2624    1.19943 
 H                    -2.96837  -2.21246   1.71527 
 C                    -2.57732   2.59637  -0.41929 
 H                    -3.48707   3.14122  -0.64741 
 C                    -1.37419   3.21479  -0.4364 
 H                    -1.29973   4.2742   -0.65781 
 C                    -0.17195   2.49941  -0.17346 
 C                    -0.20439   1.10184   0.01927 
 C                     1.05135   3.20426  -0.06762 
 H                     1.04273   4.28195  -0.1897 
 C                     2.19421   2.54874   0.25796 
 H                     3.11685   3.09128   0.43347 
 C                     2.22165   1.13366   0.2935 
 C                     1.04869   0.39455   0.03024 
 C                     3.44834   0.46146   0.55739 
 H                     4.30958   1.06061   0.83348 
 C                     3.54273  -0.88559   0.47495 
 H                     4.47315  -1.39397   0.70388 
 C                     2.44901  -1.64744  -0.01963 
 C                     1.21507  -1.00573  -0.30136 
 C                     0.25311  -1.74344  -1.02166 
 H                    -0.65414  -1.25351  -1.34628 
 C                     0.44942  -3.06286  -1.34138 
 H                    -0.30832  -3.59443  -1.90541 
 C                     1.62517  -3.7208   -0.95525 
 H                     1.767    -4.76874  -1.1927 
 C                     2.61099  -3.01442  -0.31831 
 H                     3.55256  -3.49028  -0.06464 
 Bq                   -3.93197   0.96336   0.09787 
 Bq                   -3.93188   1.00839   0.07613 
 Bq                   -3.9318    1.05342   0.05439 
 Bq                   -3.93171   1.09844   0.03265 
 Bq                   -3.93163   1.14347   0.0109 
 Bq                   -3.93154   1.18849  -0.01084 
 Bq                   -3.93146   1.23352  -0.03258 
 Bq                   -3.93137   1.27854  -0.05432 
 Bq                   -3.93129   1.32357  -0.07606 
 Bq                   -3.9312    1.3686   -0.0978 
 Bq                   -3.93111   1.41362  -0.11954 
 Bq                   -3.93103   1.45865  -0.14128 
 Bq                   -3.93094   1.50367  -0.16303 
 Bq                   -3.93086   1.5487   -0.18477 
 Bq                   -3.93077   1.59372  -0.20651 
 Bq                   -3.93069   1.63875  -0.22825 
 Bq                   -3.9306    1.68378  -0.24999 
 Bq                   -3.93052   1.7288   -0.27173 
 Bq                   -3.93043   1.77383  -0.29347 
 Bq                   -3.93035   1.81885  -0.31521 
 Bq                   -3.93026   1.86388  -0.33695 
 Bq                   -3.93017   1.9089   -0.3587 
 Bq                   -3.93009   1.95393  -0.38044 
 Bq                   -3.93      1.99896  -0.40218 
 Bq                   -3.92992   2.04398  -0.42392 
 Bq                   -3.92983   2.08901  -0.44566 
 Bq                   -3.92975   2.13403  -0.4674 
 Bq                   -3.92966   2.17906  -0.48914 
 Bq                   -3.92958   2.22408  -0.51088 
 Bq                   -3.88812  -2.27849   1.66343 
 Bq                   -3.88804  -2.23346   1.64169 
 Bq                   -3.88795  -2.18843   1.61995 
 Bq                   -3.88787  -2.14341   1.59821 
 Bq                   -3.88778  -2.09838   1.57647 
 Bq                   -3.8877   -2.05336   1.55473 
 Bq                   -3.88761  -2.00833   1.53298 
 Bq                   -3.88753  -1.96331   1.51124 
 Bq                   -3.88744  -1.91828   1.4895 
 Bq                   -3.88735  -1.87325   1.46776 
 Bq                   -3.88727  -1.82823   1.44602 
 Bq                   -3.88718  -1.7832    1.42428 
 Bq                   -3.8871   -1.73818   1.40254 
 Bq                   -3.88701  -1.69315   1.3808 
 Bq                   -3.88693  -1.64813   1.35905 
 Bq                   -3.88684  -1.6031    1.33731 
 Bq                   -3.88676  -1.55807   1.31557 
 Bq                   -3.88667  -1.51305   1.29383 
 Bq                   -3.88659  -1.46802   1.27209 
 Bq                   -3.8865   -1.423     1.25035 
 Bq                   -3.88641  -1.37797   1.22861 
 Bq                   -3.88633  -1.33295   1.20687 
 Bq                   -3.88624  -1.28792   1.18513 
 Bq                   -3.88616  -1.24289   1.16338 
 Bq                   -3.88607  -1.19787   1.14164 
 Bq                   -3.88599  -1.15284   1.1199 
 Bq                   -3.8859   -1.10782   1.09816 
 Bq                   -3.88582  -1.06279   1.07642 
 Bq                   -3.88573  -1.01777   1.05468 
 Bq                   -3.88564  -0.97274   1.03294 
 Bq                   -3.88556  -0.92771   1.0112 
 Bq                   -3.88547  -0.88269   0.98945 
 Bq                   -3.88539  -0.83766   0.96771 
 Bq                   -3.8853   -0.79264   0.94597 
 Bq                   -3.88522  -0.74761   0.92423 
 Bq                   -3.88513  -0.70259   0.90249 
 Bq                   -3.88505  -0.65756   0.88075 
 Bq                   -3.88496  -0.61253   0.85901 
 Bq                   -3.88488  -0.56751   0.83727 
 Bq                   -3.88479  -0.52248   0.81552 
 Bq                   -3.8847   -0.47746   0.79378 
 Bq                   -3.88462  -0.43243   0.77204 
 Bq                   -3.88453  -0.38741   0.7503 
 Bq                   -3.88445  -0.34238   0.72856 
 Bq                   -3.88436  -0.29735   0.70682 
 Bq                   -3.88428  -0.25233   0.68508 
 Bq                   -3.88419  -0.2073    0.66334 
 Bq                   -3.88411  -0.16228   0.6416 
 Bq                   -3.88402  -0.11725   0.61985 
 Bq                   -3.88394  -0.07223   0.59811 
 Bq                   -3.88385  -0.0272    0.57637 
 Bq                   -3.88376   0.01782   0.55463 
 Bq                   -3.88368   0.06285   0.53289 
 Bq                   -3.88359   0.10788   0.51115 
 Bq                   -3.88351   0.1529    0.48941 
 Bq                   -3.88342   0.19793   0.46767 
 Bq                   -3.88334   0.24295   0.44592 
 Bq                   -3.88325   0.28798   0.42418 
 Bq                   -3.88317   0.333     0.40244 
 Bq                   -3.88308   0.37803   0.3807 
 Bq                   -3.883     0.42306   0.35896 
 Bq                   -3.88291   0.46808   0.33722 
 Bq                   -3.88282   0.51311   0.31548 
 Bq                   -3.88274   0.55813   0.29374 
 Bq                   -3.88265   0.60316   0.272 
 Bq                   -3.88257   0.64818   0.25025 
 Bq                   -3.88248   0.69321   0.22851 
 Bq                   -3.8824    0.73824   0.20677 
 Bq                   -3.88231   0.78326   0.18503 
 Bq                   -3.88223   0.82829   0.16329 
 Bq                   -3.88214   0.87331   0.14155 
 Bq                   -3.88206   0.91834   0.11981 
 Bq                   -3.88197   0.96336   0.09807 
 Bq                   -3.88188   1.00839   0.07632 
 Bq                   -3.8818    1.05342   0.05458 
 Bq                   -3.88171   1.09844   0.03284 
 Bq                   -3.88163   1.14347   0.0111 
 Bq                   -3.88154   1.18849  -0.01064 
 Bq                   -3.88146   1.23352  -0.03238 
 Bq                   -3.88137   1.27854  -0.05412 
 Bq                   -3.88129   1.32357  -0.07586 
 Bq                   -3.8812    1.3686   -0.09761 
 Bq                   -3.88112   1.41362  -0.11935 
 Bq                   -3.88103   1.45865  -0.14109 
 Bq                   -3.88094   1.50367  -0.16283 
 Bq                   -3.88086   1.5487   -0.18457 
 Bq                   -3.88077   1.59372  -0.20631 
 Bq                   -3.88069   1.63875  -0.22805 
 Bq                   -3.8806    1.68378  -0.24979 
 Bq                   -3.88052   1.7288   -0.27153 
 Bq                   -3.88043   1.77383  -0.29328 
 Bq                   -3.88035   1.81885  -0.31502 
 Bq                   -3.88026   1.86388  -0.33676 
 Bq                   -3.88018   1.9089   -0.3585 
 Bq                   -3.88009   1.95393  -0.38024 
 Bq                   -3.88      1.99896  -0.40198 
 Bq                   -3.87992   2.04398  -0.42372 
 Bq                   -3.87983   2.08901  -0.44546 
 Bq                   -3.87975   2.13403  -0.46721 
 Bq                   -3.87966   2.17906  -0.48895 
 Bq                   -3.87958   2.22408  -0.51069 
 Bq                   -3.83812  -2.27849   1.66363 
 Bq                   -3.83804  -2.23346   1.64189 
 Bq                   -3.83795  -2.18843   1.62015 
 Bq                   -3.83787  -2.14341   1.5984 
 Bq                   -3.83778  -2.09838   1.57666 
 Bq                   -3.8377   -2.05336   1.55492 
 Bq                   -3.83761  -2.00833   1.53318 
 Bq                   -3.83753  -1.96331   1.51144 
 Bq                   -3.83744  -1.91828   1.4897 
 Bq                   -3.83735  -1.87325   1.46796 
 Bq                   -3.83727  -1.82823   1.44622 
 Bq                   -3.83718  -1.7832    1.42447 
 Bq                   -3.8371   -1.73818   1.40273 
 Bq                   -3.83701  -1.69315   1.38099 
 Bq                   -3.83693  -1.64813   1.35925 
 Bq                   -3.83684  -1.6031    1.33751 
 Bq                   -3.83676  -1.55807   1.31577 
 Bq                   -3.83667  -1.51305   1.29403 
 Bq                   -3.83659  -1.46802   1.27229 
 Bq                   -3.8365   -1.423     1.25055 
 Bq                   -3.83641  -1.37797   1.2288 
 Bq                   -3.83633  -1.33295   1.20706 
 Bq                   -3.83624  -1.28792   1.18532 
 Bq                   -3.83616  -1.24289   1.16358 
 Bq                   -3.83607  -1.19787   1.14184 
 Bq                   -3.83599  -1.15284   1.1201 
 Bq                   -3.8359   -1.10782   1.09836 
 Bq                   -3.83582  -1.06279   1.07662 
 Bq                   -3.83573  -1.01777   1.05487 
 Bq                   -3.83565  -0.97274   1.03313 
 Bq                   -3.83556  -0.92771   1.01139 
 Bq                   -3.83547  -0.88269   0.98965 
 Bq                   -3.83539  -0.83766   0.96791 
 Bq                   -3.8353   -0.79264   0.94617 
 Bq                   -3.83522  -0.74761   0.92443 
 Bq                   -3.83513  -0.70259   0.90269 
 Bq                   -3.83505  -0.65756   0.88094 
 Bq                   -3.83496  -0.61253   0.8592 
 Bq                   -3.83488  -0.56751   0.83746 
 Bq                   -3.83479  -0.52248   0.81572 
 Bq                   -3.83471  -0.47746   0.79398 
 Bq                   -3.83462  -0.43243   0.77224 
 Bq                   -3.83453  -0.38741   0.7505 
 Bq                   -3.83445  -0.34238   0.72876 
 Bq                   -3.83436  -0.29735   0.70702 
 Bq                   -3.83428  -0.25233   0.68527 
 Bq                   -3.83419  -0.2073    0.66353 
 Bq                   -3.83411  -0.16228   0.64179 
 Bq                   -3.83402  -0.11725   0.62005 
 Bq                   -3.83394  -0.07223   0.59831 
 Bq                   -3.83385  -0.0272    0.57657 
 Bq                   -3.83377   0.01782   0.55483 
 Bq                   -3.83368   0.06285   0.53309 
 Bq                   -3.83359   0.10788   0.51134 
 Bq                   -3.83351   0.1529    0.4896 
 Bq                   -3.83342   0.19793   0.46786 
 Bq                   -3.83334   0.24295   0.44612 
 Bq                   -3.83325   0.28798   0.42438 
 Bq                   -3.83317   0.333     0.40264 
 Bq                   -3.83308   0.37803   0.3809 
 Bq                   -3.833     0.42306   0.35916 
 Bq                   -3.83291   0.46808   0.33742 
 Bq                   -3.83282   0.51311   0.31567 
 Bq                   -3.83274   0.55813   0.29393 
 Bq                   -3.83265   0.60316   0.27219 
 Bq                   -3.83257   0.64818   0.25045 
 Bq                   -3.83248   0.69321   0.22871 
 Bq                   -3.8324    0.73824   0.20697 
 Bq                   -3.83231   0.78326   0.18523 
 Bq                   -3.83223   0.82829   0.16349 
 
 Symmetry turned off:
 Cannot cope with ghost atoms or with translation vectors.
 Stoichiometry    C22H14
 Framework group  C1[X(C22H14)]
 NUMDOF-- NAT=    36 NAtoms=   236
 Deg. of freedom     0
 Full point group                 C1      NOp   1
                          Input orientation:                          
 ---------------------------------------------------------------------
 Center     Atomic      Atomic             Coordinates (Angstroms)
 Number     Number       Type             X           Y           Z
 ---------------------------------------------------------------------
      1          6           0       -4.050056   -0.577186    0.813671
      2          1           0       -5.026380   -1.008273    1.002476
      3          6           0       -3.938155    0.661780    0.240088
      4          1           0       -4.825242    1.233889   -0.011130
      5          6           0       -2.676841    1.243325    0.005758
      6          6           0       -1.497412    0.505153    0.284825
      7          6           0       -1.650833   -0.733873    0.940403
      8          1           0       -0.771365   -1.273097    1.263375
      9          6           0       -2.889855   -1.262404    1.199431
     10          1           0       -2.968371   -2.212456    1.715268
     11          6           0       -2.577319    2.596370   -0.419293
     12          1           0       -3.487073    3.141224   -0.647406
     13          6           0       -1.374190    3.214790   -0.436403
     14          1           0       -1.299732    4.274202   -0.657814
     15          6           0       -0.171949    2.499409   -0.173459
     16          6           0       -0.204392    1.101844    0.019269
     17          6           0        1.051349    3.204256   -0.067622
     18          1           0        1.042734    4.281950   -0.189700
     19          6           0        2.194209    2.548745    0.257958
     20          1           0        3.116853    3.091285    0.433473
     21          6           0        2.221647    1.133656    0.293499
     22          6           0        1.048693    0.394553    0.030241
     23          6           0        3.448336    0.461463    0.557394
     24          1           0        4.309579    1.060605    0.833485
     25          6           0        3.542735   -0.885593    0.474946
     26          1           0        4.473147   -1.393970    0.703882
     27          6           0        2.449005   -1.647445   -0.019632
     28          6           0        1.215070   -1.005726   -0.301357
     29          6           0        0.253111   -1.743444   -1.021659
     30          1           0       -0.654136   -1.253505   -1.346285
     31          6           0        0.449419   -3.062860   -1.341378
     32          1           0       -0.308316   -3.594431   -1.905406
     33          6           0        1.625173   -3.720797   -0.955254
     34          1           0        1.767005   -4.768740   -1.192702
     35          6           0        2.610987   -3.014418   -0.318305
     36          1           0        3.552561   -3.490281   -0.064637
     37          0           0       -3.931970    0.963365    0.097869
     38          0           0       -3.931884    1.008390    0.076128
     39          0           0       -3.931799    1.053416    0.054387
     40          0           0       -3.931713    1.098442    0.032645
     41          0           0       -3.931628    1.143467    0.010904
     42          0           0       -3.931542    1.188493   -0.010837
     43          0           0       -3.931457    1.233519   -0.032578
     44          0           0       -3.931371    1.278544   -0.054319
     45          0           0       -3.931286    1.323570   -0.076061
     46          0           0       -3.931200    1.368596   -0.097802
     47          0           0       -3.931115    1.413621   -0.119543
     48          0           0       -3.931029    1.458647   -0.141284
     49          0           0       -3.930944    1.503673   -0.163025
     50          0           0       -3.930858    1.548699   -0.184766
     51          0           0       -3.930773    1.593724   -0.206508
     52          0           0       -3.930688    1.638750   -0.228249
     53          0           0       -3.930602    1.683776   -0.249990
     54          0           0       -3.930517    1.728801   -0.271731
     55          0           0       -3.930431    1.773827   -0.293472
     56          0           0       -3.930346    1.818853   -0.315214
     57          0           0       -3.930260    1.863878   -0.336955
     58          0           0       -3.930175    1.908904   -0.358696
     59          0           0       -3.930089    1.953930   -0.380437
     60          0           0       -3.930004    1.998956   -0.402178
     61          0           0       -3.929918    2.043981   -0.423920
     62          0           0       -3.929833    2.089007   -0.445661
     63          0           0       -3.929747    2.134033   -0.467402
     64          0           0       -3.929662    2.179058   -0.489143
     65          0           0       -3.929576    2.224084   -0.510884
     66          0           0       -3.888123   -2.278486    1.663431
     67          0           0       -3.888038   -2.233460    1.641690
     68          0           0       -3.887953   -2.188434    1.619949
     69          0           0       -3.887867   -2.143409    1.598208
     70          0           0       -3.887782   -2.098383    1.576466
     71          0           0       -3.887696   -2.053357    1.554725
     72          0           0       -3.887611   -2.008331    1.532984
     73          0           0       -3.887525   -1.963306    1.511243
     74          0           0       -3.887440   -1.918280    1.489502
     75          0           0       -3.887354   -1.873254    1.467761
     76          0           0       -3.887269   -1.828229    1.446019
     77          0           0       -3.887183   -1.783203    1.424278
     78          0           0       -3.887098   -1.738177    1.402537
     79          0           0       -3.887012   -1.693152    1.380796
     80          0           0       -3.886927   -1.648126    1.359055
     81          0           0       -3.886841   -1.603100    1.337313
     82          0           0       -3.886756   -1.558074    1.315572
     83          0           0       -3.886671   -1.513049    1.293831
     84          0           0       -3.886585   -1.468023    1.272090
     85          0           0       -3.886500   -1.422997    1.250349
     86          0           0       -3.886414   -1.377972    1.228607
     87          0           0       -3.886329   -1.332946    1.206866
     88          0           0       -3.886243   -1.287920    1.185125
     89          0           0       -3.886158   -1.242895    1.163384
     90          0           0       -3.886072   -1.197869    1.141643
     91          0           0       -3.885987   -1.152843    1.119901
     92          0           0       -3.885901   -1.107818    1.098160
     93          0           0       -3.885816   -1.062792    1.076419
     94          0           0       -3.885730   -1.017766    1.054678
     95          0           0       -3.885645   -0.972740    1.032937
     96          0           0       -3.885560   -0.927715    1.011196
     97          0           0       -3.885474   -0.882689    0.989454
     98          0           0       -3.885389   -0.837663    0.967713
     99          0           0       -3.885303   -0.792638    0.945972
    100          0           0       -3.885218   -0.747612    0.924231
    101          0           0       -3.885132   -0.702586    0.902490
    102          0           0       -3.885047   -0.657561    0.880748
    103          0           0       -3.884961   -0.612535    0.859007
    104          0           0       -3.884876   -0.567509    0.837266
    105          0           0       -3.884790   -0.522483    0.815525
    106          0           0       -3.884705   -0.477458    0.793784
    107          0           0       -3.884619   -0.432432    0.772042
    108          0           0       -3.884534   -0.387406    0.750301
    109          0           0       -3.884448   -0.342381    0.728560
    110          0           0       -3.884363   -0.297355    0.706819
    111          0           0       -3.884278   -0.252329    0.685078
    112          0           0       -3.884192   -0.207304    0.663336
    113          0           0       -3.884107   -0.162278    0.641595
    114          0           0       -3.884021   -0.117252    0.619854
    115          0           0       -3.883936   -0.072226    0.598113
    116          0           0       -3.883850   -0.027201    0.576372
    117          0           0       -3.883765    0.017825    0.554631
    118          0           0       -3.883679    0.062851    0.532889
    119          0           0       -3.883594    0.107876    0.511148
    120          0           0       -3.883508    0.152902    0.489407
    121          0           0       -3.883423    0.197928    0.467666
    122          0           0       -3.883337    0.242953    0.445925
    123          0           0       -3.883252    0.287979    0.424183
    124          0           0       -3.883166    0.333005    0.402442
    125          0           0       -3.883081    0.378030    0.380701
    126          0           0       -3.882996    0.423056    0.358960
    127          0           0       -3.882910    0.468082    0.337219
    128          0           0       -3.882825    0.513108    0.315477
    129          0           0       -3.882739    0.558133    0.293736
    130          0           0       -3.882654    0.603159    0.271995
    131          0           0       -3.882568    0.648185    0.250254
    132          0           0       -3.882483    0.693210    0.228513
    133          0           0       -3.882397    0.738236    0.206771
    134          0           0       -3.882312    0.783262    0.185030
    135          0           0       -3.882226    0.828287    0.163289
    136          0           0       -3.882141    0.873313    0.141548
    137          0           0       -3.882055    0.918339    0.119807
    138          0           0       -3.881970    0.963365    0.098066
    139          0           0       -3.881884    1.008390    0.076324
    140          0           0       -3.881799    1.053416    0.054583
    141          0           0       -3.881714    1.098442    0.032842
    142          0           0       -3.881628    1.143467    0.011101
    143          0           0       -3.881543    1.188493   -0.010640
    144          0           0       -3.881457    1.233519   -0.032382
    145          0           0       -3.881372    1.278544   -0.054123
    146          0           0       -3.881286    1.323570   -0.075864
    147          0           0       -3.881201    1.368596   -0.097605
    148          0           0       -3.881115    1.413621   -0.119346
    149          0           0       -3.881030    1.458647   -0.141088
    150          0           0       -3.880944    1.503673   -0.162829
    151          0           0       -3.880859    1.548699   -0.184570
    152          0           0       -3.880773    1.593724   -0.206311
    153          0           0       -3.880688    1.638750   -0.228052
    154          0           0       -3.880602    1.683776   -0.249794
    155          0           0       -3.880517    1.728801   -0.271535
    156          0           0       -3.880432    1.773827   -0.293276
    157          0           0       -3.880346    1.818853   -0.315017
    158          0           0       -3.880261    1.863878   -0.336758
    159          0           0       -3.880175    1.908904   -0.358499
    160          0           0       -3.880090    1.953930   -0.380241
    161          0           0       -3.880004    1.998956   -0.401982
    162          0           0       -3.879919    2.043981   -0.423723
    163          0           0       -3.879833    2.089007   -0.445464
    164          0           0       -3.879748    2.134033   -0.467205
    165          0           0       -3.879662    2.179058   -0.488947
    166          0           0       -3.879577    2.224084   -0.510688
    167          0           0       -3.838124   -2.278486    1.663628
    168          0           0       -3.838038   -2.233460    1.641887
    169          0           0       -3.837953   -2.188434    1.620145
    170          0           0       -3.837867   -2.143409    1.598404
    171          0           0       -3.837782   -2.098383    1.576663
    172          0           0       -3.837697   -2.053357    1.554922
    173          0           0       -3.837611   -2.008331    1.533181
    174          0           0       -3.837526   -1.963306    1.511439
    175          0           0       -3.837440   -1.918280    1.489698
    176          0           0       -3.837355   -1.873254    1.467957
    177          0           0       -3.837269   -1.828229    1.446216
    178          0           0       -3.837184   -1.783203    1.424475
    179          0           0       -3.837098   -1.738177    1.402734
    180          0           0       -3.837013   -1.693152    1.380992
    181          0           0       -3.836927   -1.648126    1.359251
    182          0           0       -3.836842   -1.603100    1.337510
    183          0           0       -3.836756   -1.558074    1.315769
    184          0           0       -3.836671   -1.513049    1.294028
    185          0           0       -3.836585   -1.468023    1.272286
    186          0           0       -3.836500   -1.422997    1.250545
    187          0           0       -3.836415   -1.377972    1.228804
    188          0           0       -3.836329   -1.332946    1.207063
    189          0           0       -3.836244   -1.287920    1.185322
    190          0           0       -3.836158   -1.242895    1.163580
    191          0           0       -3.836073   -1.197869    1.141839
    192          0           0       -3.835987   -1.152843    1.120098
    193          0           0       -3.835902   -1.107818    1.098357
    194          0           0       -3.835816   -1.062792    1.076616
    195          0           0       -3.835731   -1.017766    1.054874
    196          0           0       -3.835645   -0.972740    1.033133
    197          0           0       -3.835560   -0.927715    1.011392
    198          0           0       -3.835474   -0.882689    0.989651
    199          0           0       -3.835389   -0.837663    0.967910
    200          0           0       -3.835303   -0.792638    0.946169
    201          0           0       -3.835218   -0.747612    0.924427
    202          0           0       -3.835133   -0.702586    0.902686
    203          0           0       -3.835047   -0.657561    0.880945
    204          0           0       -3.834962   -0.612535    0.859204
    205          0           0       -3.834876   -0.567509    0.837463
    206          0           0       -3.834791   -0.522483    0.815721
    207          0           0       -3.834705   -0.477458    0.793980
    208          0           0       -3.834620   -0.432432    0.772239
    209          0           0       -3.834534   -0.387406    0.750498
    210          0           0       -3.834449   -0.342381    0.728757
    211          0           0       -3.834363   -0.297355    0.707015
    212          0           0       -3.834278   -0.252329    0.685274
    213          0           0       -3.834192   -0.207304    0.663533
    214          0           0       -3.834107   -0.162278    0.641792
    215          0           0       -3.834022   -0.117252    0.620051
    216          0           0       -3.833936   -0.072226    0.598309
    217          0           0       -3.833851   -0.027201    0.576568
    218          0           0       -3.833765    0.017825    0.554827
    219          0           0       -3.833680    0.062851    0.533086
    220          0           0       -3.833594    0.107876    0.511345
    221          0           0       -3.833509    0.152902    0.489604
    222          0           0       -3.833423    0.197928    0.467862
    223          0           0       -3.833338    0.242953    0.446121
    224          0           0       -3.833252    0.287979    0.424380
    225          0           0       -3.833167    0.333005    0.402639
    226          0           0       -3.833081    0.378030    0.380898
    227          0           0       -3.832996    0.423056    0.359156
    228          0           0       -3.832910    0.468082    0.337415
    229          0           0       -3.832825    0.513108    0.315674
    230          0           0       -3.832740    0.558133    0.293933
    231          0           0       -3.832654    0.603159    0.272192
    232          0           0       -3.832569    0.648185    0.250450
    233          0           0       -3.832483    0.693210    0.228709
    234          0           0       -3.832398    0.738236    0.206968
    235          0           0       -3.832312    0.783262    0.185227
    236          0           0       -3.832227    0.828287    0.163486
 ---------------------------------------------------------------------
 Rotational constants (GHZ):      0.4529074      0.2836956      0.1879557
 Standard basis: 6-311+G(d,p) (5D, 7F)
 Warning:  center  37 has no basis functions!
 Warning:  center  38 has no basis functions!
 Warning:  center  39 has no basis functions!
 Warning:  center  40 has no basis functions!
 Warning:  center  41 has no basis functions!
 Warning:  center  42 has no basis functions!
 Warning:  center  43 has no basis functions!
 Warning:  center  44 has no basis functions!
 Warning:  center  45 has no basis functions!
 Warning:  center  46 has no basis functions!
 Warning:  center  47 has no basis functions!
 Warning:  center  48 has no basis functions!
 Warning:  center  49 has no basis functions!
 Warning:  center  50 has no basis functions!
 Warning:  center  51 has no basis functions!
 Warning:  center  52 has no basis functions!
 Warning:  center  53 has no basis functions!
 Warning:  center  54 has no basis functions!
 Warning:  center  55 has no basis functions!
 Warning:  center  56 has no basis functions!
 Warning:  center  57 has no basis functions!
 Warning:  center  58 has no basis functions!
 Warning:  center  59 has no basis functions!
 Warning:  center  60 has no basis functions!
 Warning:  center  61 has no basis functions!
 Warning:  center  62 has no basis functions!
 Warning:  center  63 has no basis functions!
 Warning:  center  64 has no basis functions!
 Warning:  center  65 has no basis functions!
 Warning:  center  66 has no basis functions!
 Warning:  center  67 has no basis functions!
 Warning:  center  68 has no basis functions!
 Warning:  center  69 has no basis functions!
 Warning:  center  70 has no basis functions!
 Warning:  center  71 has no basis functions!
 Warning:  center  72 has no basis functions!
 Warning:  center  73 has no basis functions!
 Warning:  center  74 has no basis functions!
 Warning:  center  75 has no basis functions!
 Warning:  center  76 has no basis functions!
 Warning:  center  77 has no basis functions!
 Warning:  center  78 has no basis functions!
 Warning:  center  79 has no basis functions!
 Warning:  center  80 has no basis functions!
 Warning:  center  81 has no basis functions!
 Warning:  center  82 has no basis functions!
 Warning:  center  83 has no basis functions!
 Warning:  center  84 has no basis functions!
 Warning:  center  85 has no basis functions!
 Warning:  center  86 has no basis functions!
 Warning:  center  87 has no basis functions!
 Warning:  center  88 has no basis functions!
 Warning:  center  89 has no basis functions!
 Warning:  center  90 has no basis functions!
 Warning:  center  91 has no basis functions!
 Warning:  center  92 has no basis functions!
 Warning:  center  93 has no basis functions!
 Warning:  center  94 has no basis functions!
 Warning:  center  95 has no basis functions!
 Warning:  center  96 has no basis functions!
 Warning:  center  97 has no basis functions!
 Warning:  center  98 has no basis functions!
 Warning:  center  99 has no basis functions!
 Warning:  center 100 has no basis functions!
 Warning:  center 101 has no basis functions!
 Warning:  center 102 has no basis functions!
 Warning:  center 103 has no basis functions!
 Warning:  center 104 has no basis functions!
 Warning:  center 105 has no basis functions!
 Warning:  center 106 has no basis functions!
 Warning:  center 107 has no basis functions!
 Warning:  center 108 has no basis functions!
 Warning:  center 109 has no basis functions!
 Warning:  center 110 has no basis functions!
 Warning:  center 111 has no basis functions!
 Warning:  center 112 has no basis functions!
 Warning:  center 113 has no basis functions!
 Warning:  center 114 has no basis functions!
 Warning:  center 115 has no basis functions!
 Warning:  center 116 has no basis functions!
 Warning:  center 117 has no basis functions!
 Warning:  center 118 has no basis functions!
 Warning:  center 119 has no basis functions!
 Warning:  center 120 has no basis functions!
 Warning:  center 121 has no basis functions!
 Warning:  center 122 has no basis functions!
 Warning:  center 123 has no basis functions!
 Warning:  center 124 has no basis functions!
 Warning:  center 125 has no basis functions!
 Warning:  center 126 has no basis functions!
 Warning:  center 127 has no basis functions!
 Warning:  center 128 has no basis functions!
 Warning:  center 129 has no basis functions!
 Warning:  center 130 has no basis functions!
 Warning:  center 131 has no basis functions!
 Warning:  center 132 has no basis functions!
 Warning:  center 133 has no basis functions!
 Warning:  center 134 has no basis functions!
 Warning:  center 135 has no basis functions!
 Warning:  center 136 has no basis functions!
 Warning:  center 137 has no basis functions!
 Warning:  center 138 has no basis functions!
 Warning:  center 139 has no basis functions!
 Warning:  center 140 has no basis functions!
 Warning:  center 141 has no basis functions!
 Warning:  center 142 has no basis functions!
 Warning:  center 143 has no basis functions!
 Warning:  center 144 has no basis functions!
 Warning:  center 145 has no basis functions!
 Warning:  center 146 has no basis functions!
 Warning:  center 147 has no basis functions!
 Warning:  center 148 has no basis functions!
 Warning:  center 149 has no basis functions!
 Warning:  center 150 has no basis functions!
 Warning:  center 151 has no basis functions!
 Warning:  center 152 has no basis functions!
 Warning:  center 153 has no basis functions!
 Warning:  center 154 has no basis functions!
 Warning:  center 155 has no basis functions!
 Warning:  center 156 has no basis functions!
 Warning:  center 157 has no basis functions!
 Warning:  center 158 has no basis functions!
 Warning:  center 159 has no basis functions!
 Warning:  center 160 has no basis functions!
 Warning:  center 161 has no basis functions!
 Warning:  center 162 has no basis functions!
 Warning:  center 163 has no basis functions!
 Warning:  center 164 has no basis functions!
 Warning:  center 165 has no basis functions!
 Warning:  center 166 has no basis functions!
 Warning:  center 167 has no basis functions!
 Warning:  center 168 has no basis functions!
 Warning:  center 169 has no basis functions!
 Warning:  center 170 has no basis functions!
 Warning:  center 171 has no basis functions!
 Warning:  center 172 has no basis functions!
 Warning:  center 173 has no basis functions!
 Warning:  center 174 has no basis functions!
 Warning:  center 175 has no basis functions!
 Warning:  center 176 has no basis functions!
 Warning:  center 177 has no basis functions!
 Warning:  center 178 has no basis functions!
 Warning:  center 179 has no basis functions!
 Warning:  center 180 has no basis functions!
 Warning:  center 181 has no basis functions!
 Warning:  center 182 has no basis functions!
 Warning:  center 183 has no basis functions!
 Warning:  center 184 has no basis functions!
 Warning:  center 185 has no basis functions!
 Warning:  center 186 has no basis functions!
 Warning:  center 187 has no basis functions!
 Warning:  center 188 has no basis functions!
 Warning:  center 189 has no basis functions!
 Warning:  center 190 has no basis functions!
 Warning:  center 191 has no basis functions!
 Warning:  center 192 has no basis functions!
 Warning:  center 193 has no basis functions!
 Warning:  center 194 has no basis functions!
 Warning:  center 195 has no basis functions!
 Warning:  center 196 has no basis functions!
 Warning:  center 197 has no basis functions!
 Warning:  center 198 has no basis functions!
 Warning:  center 199 has no basis functions!
 Warning:  center 200 has no basis functions!
 Warning:  center 201 has no basis functions!
 Warning:  center 202 has no basis functions!
 Warning:  center 203 has no basis functions!
 Warning:  center 204 has no basis functions!
 Warning:  center 205 has no basis functions!
 Warning:  center 206 has no basis functions!
 Warning:  center 207 has no basis functions!
 Warning:  center 208 has no basis functions!
 Warning:  center 209 has no basis functions!
 Warning:  center 210 has no basis functions!
 Warning:  center 211 has no basis functions!
 Warning:  center 212 has no basis functions!
 Warning:  center 213 has no basis functions!
 Warning:  center 214 has no basis functions!
 Warning:  center 215 has no basis functions!
 Warning:  center 216 has no basis functions!
 Warning:  center 217 has no basis functions!
 Warning:  center 218 has no basis functions!
 Warning:  center 219 has no basis functions!
 Warning:  center 220 has no basis functions!
 Warning:  center 221 has no basis functions!
 Warning:  center 222 has no basis functions!
 Warning:  center 223 has no basis functions!
 Warning:  center 224 has no basis functions!
 Warning:  center 225 has no basis functions!
 Warning:  center 226 has no basis functions!
 Warning:  center 227 has no basis functions!
 Warning:  center 228 has no basis functions!
 Warning:  center 229 has no basis functions!
 Warning:  center 230 has no basis functions!
 Warning:  center 231 has no basis functions!
 Warning:  center 232 has no basis functions!
 Warning:  center 233 has no basis functions!
 Warning:  center 234 has no basis functions!
 Warning:  center 235 has no basis functions!
 Warning:  center 236 has no basis functions!
   568 basis functions,   904 primitive gaussians,   590 cartesian basis functions
    73 alpha electrons       73 beta electrons
       nuclear repulsion energy      1610.9176155625 Hartrees.
 NAtoms=  236 NActive=  236 NUniq=  236 SFac= 1.00D+00 NAtFMM=   60 NAOKFM=T Big=T
 Integral buffers will be    131072 words long.
 Raffenetti 2 integral format.
 Two-electron integral symmetry is turned off.
 One-electron integrals computed using PRISM.
 NBasis=   568 RedAO= T EigKep=  1.78D-06  NBF=   568
 NBsUse=   556 1.00D-06 EigRej=  9.09D-07 NBFU=   556
 ExpMin= 4.38D-02 ExpMax= 4.56D+03 ExpMxC= 6.82D+02 IAcc=2 IRadAn=         4 AccDes= 0.00D+00
 Harris functional with IExCor=  402 and IRadAn=       4 diagonalized for initial guess.
 HarFok:  IExCor=  402 AccDes= 0.00D+00 IRadAn=         4 IDoV= 1 UseB2=F ITyADJ=14
 ICtDFT=  3500011 ScaDFX=  1.000000  1.000000  1.000000  1.000000
 FoFCou: FMM=F IPFlag=           0 FMFlag=      100000 FMFlg1=        2001
         NFxFlg=           0 DoJE=T BraDBF=F KetDBF=T FulRan=T
         wScrn=  0.000000 ICntrl=     500 IOpCl=  0 I1Cent=   200000004 NGrid=           0
         NMat0=    1 NMatS0=      1 NMatT0=    0 NMatD0=    1 NMtDS0=    0 NMtDT0=    0
 Symmetry not used in FoFCou.
 Requested convergence on RMS density matrix=1.00D-08 within 128 cycles.
 Requested convergence on MAX density matrix=1.00D-06.
 Requested convergence on             energy=1.00D-06.
 No special actions if energy rises.
 SCF Done:  E(RB3LYP) =  -847.003289847     A.U. after   15 cycles
            NFock= 15  Conv=0.76D-08     -V/T= 2.0040
 DoSCS=F DFT=T ScalE2(SS,OS)=  1.000000  1.000000
 Range of M.O.s used for correlation:     1   556
 NBasis=   568 NAE=    73 NBE=    73 NFC=     0 NFV=     0
 NROrb=    556 NOA=    73 NOB=    73 NVA=   483 NVB=   483

 **** Warning!!: The largest alpha MO coefficient is  0.10971035D+03

          Differentiating once with respect to magnetic field using GIAOs.
          Electric field/nuclear overlap derivatives assumed to be zero.
 FoFCou: FMM=F IPFlag=           0 FMFlag=      100000 FMFlg1=        2001
         NFxFlg=           0 DoJE=F BraDBF=F KetDBF=T FulRan=T
         wScrn=  0.000000 ICntrl=    6100 IOpCl=  0 I1Cent=           7 NGrid=         236
         NMat0=    1 NMatS0=      1 NMatT0=    0 NMatD0=    1 NMtDS0=    0 NMtDT0=    0
 Symmetry not used in FoFCou.
 FoFJK:  IHMeth= 1 ICntrl=    6127 DoSepK=F KAlg= 0 I1Cent=   0 FoldK=F
 IRaf=         1 NMat=   1 IRICut=       1 DoRegI=T DoRafI=F ISym2E= 0.
          There are     3 degrees of freedom in the 1st order CPHF.  IDoFFX=0 NUNeed=     3.
      3 vectors produced by pass  0 Test12= 1.18D-12 3.33D-08 XBig12= 2.07D+03 9.18D+00.
 AX will form     3 AO Fock derivatives at one time.
      3 vectors produced by pass  1 Test12= 1.18D-12 3.33D-08 XBig12= 3.56D+00 8.03D-01.
      3 vectors produced by pass  2 Test12= 1.18D-12 3.33D-08 XBig12= 2.10D-02 6.92D-02.
      3 vectors produced by pass  3 Test12= 1.18D-12 3.33D-08 XBig12= 5.45D-05 1.89D-03.
      3 vectors produced by pass  4 Test12= 1.18D-12 3.33D-08 XBig12= 1.20D-07 7.79D-05.
      3 vectors produced by pass  5 Test12= 1.18D-12 3.33D-08 XBig12= 4.02D-10 4.73D-06.
      3 vectors produced by pass  6 Test12= 1.18D-12 3.33D-08 XBig12= 1.32D-12 2.61D-07.
 InvSVY:  IOpt=1 It=  1 EMax= 1.07D-14
 Solved reduced A of dimension    21 with     3 vectors.
 Calculating GIAO nuclear magnetic shielding tensors.
 SCF GIAO Magnetic shielding tensor (ppm):
      1  C    Isotropic =    53.8139   Anisotropy =   178.0260
   XX=   -41.4327   YX=   -32.3458   ZX=    10.0287
   XY=   -28.3572   YY=    59.0527   ZY=    55.1899
   XZ=    13.1759   YZ=    58.7550   ZZ=   143.8218
   Eigenvalues:   -53.8775    42.8214   172.4979
      2  H    Isotropic =    24.3095   Anisotropy =     4.8536
   XX=    25.5771   YX=    -1.0289   ZX=     0.5661
   XY=    -0.7431   YY=    26.1829   ZY=    -2.3306
   XZ=    -0.1707   YZ=    -2.4411   ZZ=    21.1687
   Eigenvalues:    20.2108    25.1725    27.5453
      3  C    Isotropic =    51.4055   Anisotropy =   157.8639
   XX=   -31.5399   YX=    38.5015   ZX=   -17.9316
   XY=    34.3519   YY=    49.9437   ZY=    49.6392
   XZ=    -9.8383   YZ=    44.6006   ZZ=   135.8127
   Eigenvalues:   -50.5747    48.1432   156.6481
      4  H    Isotropic =    23.8290   Anisotropy =     7.1838
   XX=    25.3635   YX=     1.8486   ZX=    -0.3559
   XY=     1.9656   YY=    26.4581   ZY=    -2.4103
   XZ=    -1.2941   YZ=    -2.6614   ZZ=    19.6654
   Eigenvalues:    18.8176    24.0511    28.6182
      5  C    Isotropic =    46.0697   Anisotropy =   207.6751
   XX=   -19.2123   YX=    -4.8852   ZX=    -1.6475
   XY=     2.8938   YY=    -2.9860   ZY=    66.5656
   XZ=     2.5356   YZ=    67.9144   ZZ=   160.4073
   Eigenvalues:   -27.2455   -19.0652   184.5197
      6  C    Isotropic =    47.5218   Anisotropy =   196.9389
   XX=   -28.1552   YX=    -2.7889   ZX=    12.0660
   XY=   -14.3886   YY=    21.2063   ZY=    74.2521
   XZ=   -18.6356   YZ=    61.1113   ZZ=   149.5144
   Eigenvalues:   -30.2925    -5.9564   178.8144
      7  C    Isotropic =    49.3915   Anisotropy =   179.8333
   XX=   -12.5211   YX=    28.7048   ZX=   -24.6745
   XY=    31.5123   YY=    29.7000   ZY=    77.7459
   XZ=   -40.0095   YZ=    65.3072   ZZ=   130.9956
   Eigenvalues:   -52.1299    31.0240   169.2804
      8  H    Isotropic =    23.1586   Anisotropy =    13.5525
   XX=    28.5711   YX=     1.5482   ZX=    -3.6986
   XY=     3.2466   YY=    22.7592   ZY=    -2.1157
   XZ=    -8.3753   YZ=    -1.0821   ZZ=    18.1456
   Eigenvalues:    15.3521    21.9301    32.1936
      9  C    Isotropic =    55.1460   Anisotropy =   174.7426
   XX=    46.7071   YX=    -2.6162   ZX=    -2.8420
   XY=     0.6223   YY=    -1.6258   ZY=    92.8272
   XZ=     0.5159   YZ=    95.6598   ZZ=   120.3568
   Eigenvalues:   -52.8932    46.6901   171.6411
     10  H    Isotropic =    24.6278   Anisotropy =     7.1815
   XX=    29.1040   YX=     0.1399   ZX=    -0.3694
   XY=     0.3642   YY=    23.4778   ZY=    -1.0805
   XZ=    -2.4493   YZ=    -2.9465   ZZ=    21.3016
   Eigenvalues:    19.9703    24.4977    29.4155
     11  C    Isotropic =    51.5607   Anisotropy =   151.2142
   XX=     2.1639   YX=    40.9287   ZX=   -26.0048
   XY=    49.9131   YY=    12.2331   ZY=    42.1342
   XZ=   -15.6145   YZ=    38.6614   ZZ=   140.2851
   Eigenvalues:   -48.1951    50.5071   152.3701
     12  H    Isotropic =    23.8537   Anisotropy =     7.3815
   XX=    25.9672   YX=     2.3738   ZX=    -0.2390
   XY=     2.4320   YY=    26.3975   ZY=    -1.8291
   XZ=     0.3529   YZ=    -1.7731   ZZ=    19.1964
   Eigenvalues:    18.7149    24.0714    28.7747
     13  C    Isotropic =    52.8653   Anisotropy =   147.4265
   XX=    51.2944   YX=    19.9221   ZX=   -13.4678
   XY=    11.5478   YY=   -34.0176   ZY=    42.5079
   XZ=    -9.2241   YZ=    40.0716   ZZ=   141.3192
   Eigenvalues:   -46.5152    53.9616   151.1497
     14  H    Isotropic =    24.0156   Anisotropy =     7.3485
   XX=    28.6644   YX=     0.6281   ZX=     1.0808
   XY=     0.5926   YY=    24.4325   ZY=    -1.0823
   XZ=     1.6846   YZ=    -0.3842   ZZ=    18.9500
   Eigenvalues:    18.6430    24.4892    28.9146
     15  C    Isotropic =    46.2221   Anisotropy =   203.9048
   XX=   -27.2215   YX=    -0.0442   ZX=   -28.9124
   XY=     4.6427   YY=   -10.5571   ZY=    28.3830
   XZ=   -10.2704   YZ=    26.7376   ZZ=   176.4448
   Eigenvalues:   -30.5512   -12.9411   182.1586
     16  C    Isotropic =    51.9375   Anisotropy =   188.2004
   XX=   -19.4441   YX=     5.5046   ZX=    15.7858
   XY=    -8.3874   YY=     2.4863   ZY=    22.9264
   XZ=   -50.6243   YZ=    23.3340   ZZ=   172.7704
   Eigenvalues:   -21.0294    -0.5625   177.4045
     17  C    Isotropic =    51.9482   Anisotropy =   149.1264
   XX=    50.7296   YX=   -23.9353   ZX=   -18.4207
   XY=   -16.7271   YY=   -41.8764   ZY=    17.8662
   XZ=   -14.3278   YZ=    11.4871   ZZ=   146.9915
   Eigenvalues:   -46.7796    51.2584   151.3658
     18  H    Isotropic =    24.0122   Anisotropy =     7.5163
   XX=    28.5811   YX=    -0.0866   ZX=     1.5071
   XY=    -0.2466   YY=    24.3342   ZY=    -0.7657
   XZ=     2.5088   YZ=    -1.5208   ZZ=    19.1214
   Eigenvalues:    18.5094    24.5041    29.0231
     19  C    Isotropic =    51.7356   Anisotropy =   148.5924
   XX=     2.4559   YX=   -45.6913   ZX=   -31.2531
   XY=   -53.4448   YY=     7.4698   ZY=    -1.8888
   XZ=   -23.5601   YZ=    -1.2765   ZZ=   145.2810
   Eigenvalues:   -46.9894    51.3989   150.7972
     20  H    Isotropic =    23.9071   Anisotropy =     7.6651
   XX=    25.5796   YX=    -2.0226   ZX=     1.4905
   XY=    -1.9998   YY=    27.3706   ZY=    -0.5164
   XZ=     2.7276   YZ=    -1.1179   ZZ=    18.7711
   Eigenvalues:    18.1643    24.5398    29.0172
     21  C    Isotropic =    45.9767   Anisotropy =   203.9316
   XX=   -16.2108   YX=    13.1802   ZX=   -44.5913
   XY=     6.5714   YY=   -20.6329   ZY=     0.0949
   XZ=   -28.8984   YZ=   -13.0883   ZZ=   174.7736
   Eigenvalues:   -30.5796   -13.4215   181.9311
     22  C    Isotropic =    52.0450   Anisotropy =   188.1157
   XX=    -0.0787   YX=     2.5023   ZX=   -16.3451
   XY=    18.9327   YY=   -14.4798   ZY=   -34.4335
   XZ=   -50.6032   YZ=    19.9104   ZZ=   170.6934
   Eigenvalues:   -20.7705    -0.5500   177.4554
     23  C    Isotropic =    53.2392   Anisotropy =   146.7412
   XX=   -22.0674   YX=   -32.0012   ZX=   -49.4857
   XY=   -23.2043   YY=    44.3661   ZY=   -15.6400
   XZ=   -43.8090   YZ=   -20.2525   ZZ=   137.4189
   Eigenvalues:   -45.6776    54.3286   151.0667
     24  H    Isotropic =    23.8249   Anisotropy =     7.5289
   XX=    25.1073   YX=    -1.7330   ZX=     1.5380
   XY=    -1.5944   YY=    28.0047   ZY=     0.0879
   XZ=     1.2557   YZ=    -0.8283   ZZ=    18.3628
   Eigenvalues:    18.0848    24.5458    28.8442
     25  C    Isotropic =    51.4969   Anisotropy =   150.1066
   XX=   -28.4915   YX=    33.9684   ZX=   -52.3137
   XY=    22.0311   YY=    46.6072   ZY=    -3.8075
   XZ=   -44.5594   YZ=   -10.6355   ZZ=   136.3748
   Eigenvalues:   -48.3857    51.3083   151.5679
     26  H    Isotropic =    23.7431   Anisotropy =     7.4052
   XX=    24.0663   YX=     1.1141   ZX=     1.9989
   XY=     0.9693   YY=    28.1000   ZY=     1.6568
   XZ=     2.0795   YZ=     0.8886   ZZ=    19.0630
   Eigenvalues:    18.2615    24.2880    28.6799
     27  C    Isotropic =    45.8108   Anisotropy =   207.2710
   XX=    -2.7702   YX=    13.7697   ZX=   -61.4651
   XY=     6.5593   YY=   -12.0335   ZY=   -41.6456
   XZ=   -62.6381   YZ=   -44.9232   ZZ=   152.2361
   Eigenvalues:   -28.0803   -18.4787   183.9915
     28  C    Isotropic =    47.8398   Anisotropy =   197.2870
   XX=    19.6900   YX=    14.4398   ZX=   -60.5682
   XY=    28.5650   YY=   -19.3566   ZY=   -56.7015
   XZ=   -63.1331   YZ=   -24.4782   ZZ=   143.1859
   Eigenvalues:   -30.5979    -5.2472   179.3644
     29  C    Isotropic =    49.3441   Anisotropy =   179.7793
   XX=    -3.4110   YX=    38.3775   ZX=   -80.8875
   XY=    36.1252   YY=    25.9805   ZY=   -23.7573
   XZ=   -78.1065   YZ=    -3.9802   ZZ=   125.4627
   Eigenvalues:   -51.6645    30.4997   169.1970
     30  H    Isotropic =    23.1387   Anisotropy =    13.3222
   XX=    22.4354   YX=    -0.7013   ZX=    -0.2375
   XY=    -2.1539   YY=    28.3546   ZY=     4.5555
   XZ=    -3.4181   YZ=     8.3231   ZZ=    18.6259
   Eigenvalues:    15.2751    22.1208    32.0201
     31  C    Isotropic =    55.4410   Anisotropy =   174.9390
   XX=    17.1871   YX=   -14.0890   ZX=   -84.0024
   XY=   -17.9030   YY=    37.4745   ZY=   -50.3662
   XZ=   -84.6557   YZ=   -54.8325   ZZ=   111.6615
   Eigenvalues:   -51.9248    46.1808   172.0670
     32  H    Isotropic =    24.5337   Anisotropy =     7.2554
   XX=    24.6185   YX=    -2.5264   ZX=     0.7632
   XY=    -2.7385   YY=    27.4630   ZY=     1.0335
   XZ=     1.1913   YZ=     3.7573   ZZ=    21.5194
   Eigenvalues:    19.8987    24.3316    29.3706
     33  C    Isotropic =    53.1814   Anisotropy =   179.0596
   XX=    60.9231   YX=    35.2256   ZX=   -42.9515
   XY=    32.0226   YY=   -38.1801   ZY=   -45.5652
   XZ=   -44.2248   YZ=   -50.7831   ZZ=   136.8014
   Eigenvalues:   -55.1197    42.1095   172.5545
     34  H    Isotropic =    24.2825   Anisotropy =     5.1861
   XX=    26.7643   YX=    -0.0934   ZX=     2.5955
   XY=    -0.2993   YY=    24.8157   ZY=     0.8589
   XZ=     2.3715   YZ=     1.4580   ZZ=    21.2676
   Eigenvalues:    20.0339    25.0737    27.7399
     35  C    Isotropic =    51.5295   Anisotropy =   155.1748
   XX=    -0.5131   YX=    52.5760   ZX=   -52.1551
   XY=    55.6135   YY=    25.1843   ZY=   -14.2643
   XZ=   -45.7255   YZ=   -17.1625   ZZ=   129.9171
   Eigenvalues:   -48.3147    47.9237   154.9793
     36  H    Isotropic =    23.8384   Anisotropy =     7.3073
   XX=    24.2302   YX=     1.4459   ZX=     2.1759
   XY=     1.2147   YY=    27.1572   ZY=     2.0665
   XZ=     1.6853   YZ=     2.7775   ZZ=    20.1277
   Eigenvalues:    18.9464    23.8588    28.7099
     37  Bq   Isotropic =   -10.2967   Anisotropy =    31.1695
   XX=     3.2705   YX=    14.8922   ZX=    -6.2311
   XY=    13.9836   YY=   -33.0761   ZY=    21.7590
   XZ=    -3.6051   YZ=    19.8759   ZZ=    -1.0847
   Eigenvalues:   -47.8173     6.4441    10.4829
     38  Bq   Isotropic =    -2.4019   Anisotropy =    30.3044
   XX=    14.7031   YX=    12.6140   ZX=    -5.2739
   XY=     9.9544   YY=   -24.4127   ZY=    19.2149
   XZ=    -3.0626   YZ=    17.7138   ZZ=     2.5039
   Eigenvalues:   -36.5883    11.5815    17.8011
     39  Bq   Isotropic =     3.0717   Anisotropy =    31.3122
   XX=    22.0086   YX=    10.8012   ZX=    -4.4899
   XY=     6.9961   YY=   -16.9726   ZY=    16.1549
   XZ=    -2.6685   YZ=    14.9882   ZZ=     4.1790
   Eigenvalues:   -27.0751    12.3435    23.9465
     40  Bq   Isotropic =     6.5393   Anisotropy =    31.4863
   XX=    26.1721   YX=     9.3787   ZX=    -3.8518
   XY=     4.8867   YY=   -10.8800   ZY=    12.8971
   XZ=    -2.3787   YZ=    12.0194   ZZ=     4.3258
   Eigenvalues:   -19.1947    11.2825    27.5301
     41  Bq   Isotropic =     8.4651   Anisotropy =    30.9469
   XX=    28.0595   YX=     8.2768   ZX=    -3.3352
   XY=     3.4352   YY=    -6.0433   ZY=     9.6627
   XZ=    -2.1601   YZ=     9.0317   ZZ=     3.3790
   Eigenvalues:   -12.8108     9.1096    29.0964
     42  Bq   Isotropic =     9.2588   Anisotropy =    29.9242
   XX=    28.3473   YX=     7.4338   ZX=    -2.9186
   XY=     2.4855   YY=    -2.2937   ZY=     6.5955
   XZ=    -1.9890   YZ=     6.1726   ZZ=     1.7228
   Eigenvalues:    -7.8012     6.3693    29.2083
     43  Bq   Isotropic =     9.2550   Anisotropy =    28.6096
   XX=    27.5500   YX=     6.7956   ZX=    -2.5828
   XY=     1.9120   YY=     0.5509   ZY=     3.7829
   XZ=    -1.8475   YZ=     3.5333   ZZ=    -0.3359
   Eigenvalues:    -4.2356     3.6726    28.3281
     44  Bq   Isotropic =     8.7167   Anisotropy =    27.1577
   XX=    26.0586   YX=     6.3156   ZX=    -2.3108
   XY=     1.6144   YY=     2.6598   ZY=     1.2714
   XZ=    -1.7227   YZ=     1.1636   ZZ=    -2.5684
   Eigenvalues:    -3.1312     2.4594    26.8218
     45  Bq   Isotropic =     7.8440   Anisotropy =    25.6940
   XX=    24.1670   YX=     5.9540   ZX=    -2.0874
   XY=     1.5131   YY=     4.1798   ZY=    -0.9223
   XZ=    -1.6051   YZ=    -0.9164   ZZ=    -4.8147
   Eigenvalues:    -4.9853     3.5440    24.9733
     46  Bq   Isotropic =     6.7851   Anisotropy =    24.3172
   XX=    22.0901   YX=     5.6772   ZX=    -1.8994
   XY=     1.5465   YY=     5.2347   ZY=    -2.8018
   XZ=    -1.4880   YZ=    -2.7072   ZZ=    -6.9694
   Eigenvalues:    -7.5904     4.9492    22.9966
     47  Bq   Isotropic =     5.6459   Anisotropy =    23.1012
   XX=    19.9788   YX=     5.4578   ZX=    -1.7360
   XY=     1.6671   YY=     5.9268   ZY=    -4.3837
   XZ=    -1.3674   YZ=    -4.2225   ZZ=    -8.9678
   Eigenvalues:   -10.1329     6.0240    21.0468
     48  Bq   Isotropic =     4.5002   Anisotropy =    22.0961
   XX=    17.9329   YX=     5.2737   ZX=    -1.5882
   XY=     1.8397   YY=     6.3402   ZY=    -5.6912
   XZ=    -1.2407   YZ=    -5.4828   ZZ=   -10.7724
   Eigenvalues:   -12.4388     6.7085    19.2310
     49  Bq   Isotropic =     3.3982   Anisotropy =    21.3280
   XX=    16.0145   YX=     5.1084   ZX=    -1.4491
   XY=     2.0383   YY=     6.5437   ZY=    -6.7504
   XZ=    -1.1068   YZ=    -6.5113   ZZ=   -12.3638
   Eigenvalues:   -14.4581     7.0357    17.6168
     50  Bq   Isotropic =     2.3727   Anisotropy =    20.7955
   XX=    14.2585   YX=     4.9498   ZX=    -1.3138
   XY=     2.2449   YY=     6.5937   ZY=    -7.5873
   XZ=    -0.9655   YZ=    -7.3316   ZZ=   -13.7340
   Eigenvalues:   -16.1776     7.0595    16.2364
     51  Bq   Isotropic =     1.4448   Anisotropy =    20.4662
   XX=    12.6807   YX=     4.7901   ZX=    -1.1790
   XY=     2.4470   YY=     6.5361   ZY=    -8.2272
   XZ=    -0.8171   YZ=    -7.9664   ZZ=   -14.8824
   Eigenvalues:   -17.6002     6.8456    15.0889
     52  Bq   Isotropic =     0.6261   Anisotropy =    20.2808
   XX=    11.2841   YX=     4.6247   ZX=    -1.0427
   XY=     2.6372   YY=     6.4083   ZY=    -8.6937
   XZ=    -0.6626   YZ=    -8.4371   ZZ=   -15.8140
   Eigenvalues:   -18.7368     6.4685    14.1467
     53  Bq   Isotropic =    -0.0781   Anisotropy =    20.1691
   XX=    10.0635   YX=     4.4521   ZX=    -0.9044
   XY=     2.8117   YY=     6.2402   ZY=    -9.0091
   XZ=    -0.5031   YZ=    -8.7639   ZZ=   -16.5380
   Eigenvalues:   -19.6038     6.0016    13.3680
     54  Bq   Isotropic =    -0.6676   Anisotropy =    20.0696
   XX=     9.0086   YX=     4.2731   ZX=    -0.7645
   XY=     2.9691   YY=     6.0555   ZY=    -9.1942
   XZ=    -0.3398   YZ=    -8.9658   ZZ=   -17.0668
   Eigenvalues:   -20.2214     5.5065    12.7122
     55  Bq   Isotropic =    -1.1458   Anisotropy =    19.9413
   XX=     8.1062   YX=     4.0901   ZX=    -0.6237
   XY=     3.1107   YY=     5.8721   ZY=    -9.2681
   XZ=    -0.1740   YZ=    -9.0607   ZZ=   -17.4157
   Eigenvalues:   -20.6123     5.0265    12.1484
     56  Bq   Isotropic =    -1.5186   Anisotropy =    19.7640
   XX=     7.3422   YX=     3.9067   ZX=    -0.4837
   XY=     3.2389   YY=     5.7035   ZY=    -9.2486
   XZ=    -0.0070   YZ=    -9.0652   ZZ=   -17.6015
   Eigenvalues:   -20.8005     4.5873    11.6574
     57  Bq   Isotropic =    -1.7933   Anisotropy =    19.5331
   XX=     6.7026   YX=     3.7274   ZX=    -0.3461
   XY=     3.3572   YY=     5.5590   ZY=    -9.1517
   XZ=     0.1602   YZ=    -8.9943   ZZ=   -17.6416
   Eigenvalues:   -20.8102     4.2015    11.2288
     58  Bq   Isotropic =    -1.9781   Anisotropy =    19.2541
   XX=     6.1744   YX=     3.5570   ZX=    -0.2124
   XY=     3.4696   YY=     5.4447   ZY=    -8.9913
   XZ=     0.3266   YZ=    -8.8616   ZZ=   -17.5535
   Eigenvalues:   -20.6653     3.8730    10.8580
     59  Bq   Isotropic =    -2.0811   Anisotropy =    18.9369
   XX=     5.7467   YX=     3.4000   ZX=    -0.0843
   XY=     3.5805   YY=     5.3638   ZY=    -8.7794
   XZ=     0.4917   YZ=    -8.6790   ZZ=   -17.3536
   Eigenvalues:   -20.3876     3.6009    10.5435
     60  Bq   Isotropic =    -2.1100   Anisotropy =    18.5928
   XX=     5.4103   YX=     3.2608   ZX=     0.0373
   XY=     3.6936   YY=     5.3169   ZY=    -8.5261
   XZ=     0.6552   YZ=    -8.4565   ZZ=   -17.0571
   Eigenvalues:   -19.9972     3.3821    10.2852
     61  Bq   Isotropic =    -2.0719   Anisotropy =    18.2323
   XX=     5.1586   YX=     3.1429   ZX=     0.1515
   XY=     3.8127   YY=     5.3029   ZY=    -8.2394
   XZ=     0.8173   YZ=    -8.2025   ZZ=   -16.6773
   Eigenvalues:   -19.5116     3.2129    10.0830
     62  Bq   Isotropic =    -1.9732   Anisotropy =    17.8642
   XX=     4.9868   YX=     3.0491   ZX=     0.2585
   XY=     3.9402   YY=     5.3191   ZY=    -7.9258
   XZ=     0.9784   YZ=    -7.9239   ZZ=   -16.2256
   Eigenvalues:   -18.9460     3.0901     9.9362
     63  Bq   Isotropic =    -1.8195   Anisotropy =    17.4949
   XX=     4.8921   YX=     2.9808   ZX=     0.3588
   XY=     4.0779   YY=     5.3613   ZY=    -7.5899
   XZ=     1.1395   YZ=    -7.6263   ZZ=   -15.7118
   Eigenvalues:   -18.3132     3.0110     9.8438
     64  Bq   Isotropic =    -1.6156   Anisotropy =    17.1287
   XX=     4.8731   YX=     2.9379   ZX=     0.4536
   XY=     4.2263   YY=     5.4242   ZY=    -7.2356
   XZ=     1.3020   YZ=    -7.3140   ZZ=   -15.1440
   Eigenvalues:   -17.6240     2.9737     9.8036
     65  Bq   Isotropic =    -1.3660   Anisotropy =    16.7682
   XX=     4.9292   YX=     2.9192   ZX=     0.5449
   XY=     4.3844   YY=     5.5018   ZY=    -6.8653
   XZ=     1.4677   YZ=    -6.9907   ZZ=   -14.5290
   Eigenvalues:   -16.8878     2.9770     9.8128
     66  Bq   Isotropic =     0.3347   Anisotropy =    12.3463
   XX=     7.1890   YX=     2.7078   ZX=    -0.8855
   XY=     1.6220   YY=     1.6440   ZY=    -5.5304
   XZ=    -1.2696   YZ=    -5.8711   ZZ=    -7.8288
   Eigenvalues:   -10.5042     2.9428     8.5656
     67  Bq   Isotropic =     0.3987   Anisotropy =    12.4444
   XX=     7.6373   YX=     2.4607   ZX=    -0.7345
   XY=     1.3529   YY=     1.6901   ZY=    -5.7829
   XZ=    -1.0640   YZ=    -6.1132   ZZ=    -8.1314
   Eigenvalues:   -10.9339     3.4350     8.6950
     68  Bq   Isotropic =     0.4600   Anisotropy =    12.5353
   XX=     8.0589   YX=     2.1796   ZX=    -0.5689
   XY=     1.0585   YY=     1.7602   ZY=    -6.0586
   XZ=    -0.8441   YZ=    -6.3796   ZZ=    -8.4390
   Eigenvalues:   -11.3822     3.9454     8.8169
     69  Bq   Isotropic =     0.5200   Anisotropy =    12.6281
   XX=     8.4492   YX=     1.8690   ZX=    -0.3915
   XY=     0.7438   YY=     1.8594   ZY=    -6.3583
   XZ=    -0.6128   YZ=    -6.6715   ZZ=    -8.7485
   Eigenvalues:   -11.8461     4.4674     8.9388
     70  Bq   Isotropic =     0.5812   Anisotropy =    12.7359
   XX=     8.8059   YX=     1.5351   ZX=    -0.2054
   XY=     0.4153   YY=     1.9929   ZY=    -6.6818
   XZ=    -0.3740   YZ=    -6.9887   ZZ=    -9.0553
   Eigenvalues:   -12.3208     4.9925     9.0718
     71  Bq   Isotropic =     0.6474   Anisotropy =    12.8757
   XX=     9.1290   YX=     1.1852   ZX=    -0.0148
   XY=     0.0804   YY=     2.1662   ZY=    -7.0277
   XZ=    -0.1319   YZ=    -7.3303   ZZ=    -9.3531
   Eigenvalues:   -12.7993     5.5103     9.2311
     72  Bq   Isotropic =     0.7243   Anisotropy =    13.0677
   XX=     9.4219   YX=     0.8279   ZX=     0.1759
   XY=    -0.2518   YY=     2.3847   ZY=    -7.3933
   XZ=     0.1084   YZ=    -7.6938   ZZ=    -9.6336
   Eigenvalues:   -13.2717     6.0086     9.4361
     73  Bq   Isotropic =     0.8198   Anisotropy =    13.3311
   XX=     9.6913   YX=     0.4727   ZX=     0.3619
   XY=    -0.5716   YY=     2.6539   ZY=    -7.7741
   XZ=     0.3413   YZ=    -8.0749   ZZ=    -9.8859
   Eigenvalues:   -13.7246     6.4768     9.7071
     74  Bq   Isotropic =     0.9435   Anisotropy =    13.6747
   XX=     9.9479   YX=     0.1298   ZX=     0.5382
   XY=    -0.8679   YY=     2.9789   ZY=    -8.1633
   XZ=     0.5602   YZ=    -8.4673   ZZ=   -10.0962
   Eigenvalues:   -14.1407     6.9113    10.0600
     75  Bq   Isotropic =     1.1079   Anisotropy =    14.0878
   XX=    10.2064   YX=    -0.1905   ZX=     0.6994
   XY=    -1.1287   YY=     3.3645   ZY=    -8.5518
   XZ=     0.7580   YZ=    -8.8622   ZZ=   -10.2473
   Eigenvalues:   -14.4982     7.3220    10.4997
     76  Bq   Isotropic =     1.3271   Anisotropy =    14.5366
   XX=    10.4855   YX=    -0.4775   ZX=     0.8403
   XY=    -1.3415   YY=     3.8145   ZY=    -8.9278
   XZ=     0.9269   YZ=    -9.2478   ZZ=   -10.3188
   Eigenvalues:   -14.7702     7.7333    11.0182
     77  Bq   Isotropic =     1.6176   Anisotropy =    14.9717
   XX=    10.8079   YX=    -0.7211   ZX=     0.9560
   XY=    -1.4931   YY=     4.3315   ZY=    -9.2761
   XZ=     1.0586   YZ=    -9.6092   ZZ=   -10.2867
   Eigenvalues:   -14.9253     8.1793    11.5987
     78  Bq   Isotropic =     1.9972   Anisotropy =    15.3372
   XX=    11.1998   YX=    -0.9123   ZX=     1.0420
   XY=    -1.5707   YY=     4.9159   ZY=    -9.5784
   XZ=     1.1444   YZ=    -9.9282   ZZ=   -10.1242
   Eigenvalues:   -14.9271     8.6966    12.2220
     79  Bq   Isotropic =     2.4845   Anisotropy =    15.5780
   XX=    11.6901   YX=    -1.0433   ZX=     1.0944
   XY=    -1.5618   YY=     5.5656   ZY=    -9.8132
   XZ=     1.1758   YZ=   -10.1829   ZZ=    -9.8022
   Eigenvalues:   -14.7354     9.3190    12.8698
     80  Bq   Isotropic =     3.0977   Anisotropy =    15.6449
   XX=    12.3090   YX=    -1.1082   ZX=     1.1104
   XY=    -1.4559   YY=     6.2747   ZY=    -9.9557
   XZ=     1.1447   YZ=   -10.3485   ZZ=    -9.2907
   Eigenvalues:   -14.3075    10.0729    13.5276
     81  Bq   Isotropic =     3.8533   Anisotropy =    15.5034
   XX=    13.0867   YX=    -1.1039   ZX=     1.0884
   XY=    -1.2448   YY=     7.0330   ZY=    -9.9789
   XZ=     1.0442   YZ=   -10.3970   ZZ=    -8.5598
   Eigenvalues:   -13.5993    10.9703    14.1889
     82  Bq   Isotropic =     4.7648   Anisotropy =    15.1588
   XX=    14.0511   YX=    -1.0299   ZX=     1.0281
   XY=    -0.9239   YY=     7.8251   ZY=    -9.8533
   XZ=     0.8693   YZ=   -10.2982   ZZ=    -7.5818
   Eigenvalues:   -12.5681    11.9919    14.8707
     83  Bq   Isotropic =     5.8407   Anisotropy =    14.7198
   XX=    15.2251   YX=    -0.8886   ZX=     0.9307
   XY=    -0.4933   YY=     8.6299   ZY=    -9.5485
   XZ=     0.6176   YZ=   -10.0204   ZZ=    -6.3328
   Eigenvalues:   -11.1740    13.0423    15.6539
     84  Bq   Isotropic =     7.0830   Anisotropy =    14.4711
   XX=    16.6230   YX=    -0.6852   ZX=     0.7983
   XY=     0.0414   YY=     9.4203   ZY=    -9.0335
   XZ=     0.2899   YZ=    -9.5313   ZZ=    -4.7943
   Eigenvalues:    -9.3825    13.9011    16.7304
     85  Bq   Isotropic =     8.4851   Anisotropy =    14.6479
   XX=    18.2472   YX=    -0.4267   ZX=     0.6339
   XY=     0.6682   YY=    10.1630   ZY=    -8.2778
   XZ=    -0.1093   YZ=    -8.7989   ZZ=    -2.9547
   Eigenvalues:    -7.1658    14.3708    18.2504
     86  Bq   Isotropic =    10.0302   Anisotropy =    15.1736
   XX=    20.0826   YX=    -0.1212   ZX=     0.4405
   XY=     1.3683   YY=    10.8185   ZY=    -7.2520
   XZ=    -0.5708   YZ=    -7.7922   ZZ=    -0.8106
   Eigenvalues:    -4.5054    14.4499    20.1459
     87  Bq   Isotropic =    11.6880   Anisotropy =    15.8972
   XX=    22.0912   YX=     0.2242   ZX=     0.2199
   XY=     2.1160   YY=    11.3414   ZY=    -5.9290
   XZ=    -1.0813   YZ=    -6.4821   ZZ=     1.6315
   Eigenvalues:    -1.3933    14.1712    22.2861
     88  Bq   Isotropic =    13.4123   Anisotropy =    16.7097
   XX=    24.2044   YX=     0.6048   ZX=    -0.0281
   XY=     2.8783   YY=    11.6793   ZY=    -4.2845
   XZ=    -1.6224   YZ=    -4.8430   ZZ=     4.3531
   Eigenvalues:     2.1641    13.5206    24.5521
     89  Bq   Isotropic =    15.1355   Anisotropy =    17.5148
   XX=    26.3144   YX=     1.0202   ZX=    -0.3070
   XY=     3.6152   YY=    11.7726   ZY=    -2.2998
   XZ=    -2.1707   YZ=    -2.8541   ZZ=     7.3195
   Eigenvalues:     6.1390    12.4554    26.8120
     90  Bq   Isotropic =    16.7632   Anisotropy =    18.2014
   XX=    28.2634   YX=     1.4758   ZX=    -0.6249
   XY=     4.2790   YY=    11.5523   ZY=     0.0361
   XZ=    -2.6972   YZ=    -0.5026   ZZ=    10.4740
   Eigenvalues:    10.3189    11.0734    28.8975
     91  Bq   Isotropic =    18.1674   Anisotropy =    18.6289
   XX=    29.8336   YX=     1.9833   ZX=    -0.9949
   XY=     4.8133   YY=    10.9380   ZY=     2.7225
   XZ=    -3.1668   YZ=     2.2130   ZZ=    13.7305
   Eigenvalues:     8.7463    15.1692    30.5867
     92  Bq   Isotropic =    19.1791   Anisotropy =    18.6202
   XX=    30.7370   YX=     2.5606   ZX=    -1.4353
   XY=     5.1512   YY=     9.8355   ZY=     5.7422
   XZ=    -3.5368   YZ=     5.2780   ZZ=    16.9647
   Eigenvalues:     5.9914    19.9532    31.5926
     93  Bq   Isotropic =    19.5834   Anisotropy =    17.9690
   XX=    30.6072   YX=     3.2290   ZX=    -1.9687
   XY=     5.2109   YY=     8.1356   ZY=     9.0571
   XZ=    -3.7543   YZ=     8.6576   ZZ=    20.0073
   Eigenvalues:     2.4942    24.6932    31.5627
     94  Bq   Isotropic =    19.1160   Anisotropy =    16.9193
   XX=    28.9919   YX=     4.0068   ZX=    -2.6188
   XY=     4.8883   YY=     5.7142   ZY=    12.6036
   XZ=    -3.7526   YZ=    12.2935   ZZ=    22.6418
   Eigenvalues:    -1.8294    28.7818    30.3955
     95  Bq   Isotropic =    17.4635   Anisotropy =    23.7150
   XX=    25.3456   YX=     4.8950   ZX=    -3.4037
   XY=     4.0433   YY=     2.4361   ZY=    16.2891
   XZ=    -3.4439   YZ=    16.1013   ZZ=    24.6089
   Eigenvalues:    -7.0552    26.1723    33.2735
     96  Bq   Isotropic =    14.2725   Anisotropy =    32.9196
   XX=    19.0328   YX=     5.8493   ZX=    -4.3213
   XY=     2.4793   YY=    -1.8385   ZY=    19.9895
   XZ=    -2.7094   YZ=    19.9718   ZZ=    25.6233
   Eigenvalues:   -13.2302    19.8288    36.2190
     97  Bq   Isotropic =     9.1827   Anisotropy =    43.0924
   XX=     9.3746   YX=     6.7371   ZX=    -5.3233
   XY=    -0.0779   YY=    -7.2397   ZY=    23.5548
   XZ=    -1.3868   YZ=    23.7800   ZZ=    25.4133
   Eigenvalues:   -20.3500     9.9871    37.9110
     98  Bq   Isotropic =     1.9194   Anisotropy =    54.2151
   XX=    -4.1822   YX=     7.2924   ZX=    -6.2820
   XY=    -3.9766   YY=   -13.8653   ZY=    26.8368
   XZ=     0.7294   YZ=    27.4165   ZZ=    23.8056
   Eigenvalues:   -28.3691    -3.9355    38.0628
     99  Bq   Isotropic =    -7.5129   Anisotropy =    66.3145
   XX=   -21.6806   YX=     7.1222   ZX=    -6.9730
   XY=    -9.5415   YY=   -21.7422   ZY=    29.7703
   XZ=     3.8449   YZ=    30.8683   ZZ=    20.8842
   Eigenvalues:   -37.4978   -21.7376    36.6968
    100  Bq   Isotropic =   -18.5447   Anisotropy =    79.4796
   XX=   -42.0887   YX=     5.8660   ZX=    -7.1276
   XY=   -16.7560   YY=   -30.7595   ZY=    32.5236
   XZ=     8.0096   YZ=    34.3650   ZZ=    17.2140
   Eigenvalues:   -50.8516   -39.2242    34.4416
    101  Bq   Isotropic =   -29.8760   Anisotropy =    93.8878
   XX=   -62.9958   YX=     3.5701   ZX=    -6.6149
   XY=   -24.6344   YY=   -40.5580   ZY=    35.6197
   XZ=    12.7815   YZ=    38.4858   ZZ=    13.9259
   Eigenvalues:   -72.1194   -50.2245    32.7159
    102  Bq   Isotropic =   -39.8454   Anisotropy =   109.4353
   XX=   -81.4167   YX=     1.0623   ZX=    -5.6992
   XY=   -30.5446   YY=   -50.3103   ZY=    39.6524
   XZ=    16.7840   YZ=    43.8396   ZZ=    12.1908
   Eigenvalues:   -92.7996   -59.8481    33.1115
    103  Bq   Isotropic =   -47.3414   Anisotropy =   124.5140
   XX=   -95.9382   YX=    -0.4301   ZX=    -5.0564
   XY=   -30.7418   YY=   -58.1659   ZY=    44.1885
   XZ=    17.7525   YZ=    49.8710   ZZ=    12.0799
   Eigenvalues:  -107.0659   -70.6263    35.6679
    104  Bq   Isotropic =   -52.1252   Anisotropy =   135.1256
   XX=  -107.7076   YX=    -1.3663   ZX=    -4.8999
   XY=   -24.1522   YY=   -61.0593   ZY=    46.7958
   XZ=    14.3979   YZ=    53.7935   ZZ=    12.3913
   Eigenvalues:  -114.3249   -80.0092    37.9586
    105  Bq   Isotropic =   -53.5518   Anisotropy =   137.3074
   XX=  -116.0043   YX=    -4.9354   ZX=    -3.9348
   XY=   -15.8956   YY=   -57.3343   ZY=    45.2068
   XZ=     8.9749   YZ=    52.9132   ZZ=    12.6833
   Eigenvalues:  -119.0221   -79.6197    37.9865
    106  Bq   Isotropic =   -50.0218   Anisotropy =   131.1138
   XX=  -115.4510   YX=   -12.3938   ZX=    -1.0667
   XY=   -11.6574   YY=   -49.0060   ZY=    40.6280
   XZ=     5.1192   YZ=    48.2940   ZZ=    14.3916
   Eigenvalues:  -118.4403   -69.0125    37.3874
    107  Bq   Isotropic =   -41.0533   Anisotropy =   119.8771
   XX=  -103.0617   YX=   -20.7822   ZX=     2.8010
   XY=   -11.5297   YY=   -38.8468   ZY=    35.8336
   XZ=     3.8116   YZ=    42.9044   ZZ=    18.7485
   Eigenvalues:  -108.3029   -53.7219    38.8647
    108  Bq   Isotropic =   -28.2689   Anisotropy =   106.7932
   XX=   -81.8507   YX=   -26.9359   ZX=     6.1680
   XY=   -12.8135   YY=   -28.2497   ZY=    32.1348
   XZ=     3.9634   YZ=    38.3334   ZZ=    25.2937
   Eigenvalues:   -90.8943   -36.8390    42.9266
    109  Bq   Isotropic =   -14.1539   Anisotropy =    93.7331
   XX=   -57.2002   YX=   -29.7399   ZX=     8.2647
   XY=   -13.6064   YY=   -17.8709   ZY=    29.4642
   XZ=     4.4349   YZ=    34.7076   ZZ=    32.6095
   Eigenvalues:   -70.6515   -20.1450    48.3349
    110  Bq   Isotropic =    -0.7178   Anisotropy =    81.6575
   XX=   -33.4363   YX=   -29.6006   ZX=     9.0554
   XY=   -13.3724   YY=    -8.1858   ZY=    27.3981
   XZ=     4.6893   YZ=    31.7080   ZZ=    39.4686
   Eigenvalues:   -50.9640    -4.9100    53.7205
    111  Bq   Isotropic =    10.9509   Anisotropy =    71.0335
   XX=   -12.8449   YX=   -27.4638   ZX=     8.8485
   XY=   -12.3049   YY=     0.4506   ZY=    25.6458
   XZ=     4.6255   YZ=    29.0956   ZZ=    45.2471
   Eigenvalues:   -33.5686     8.1148    58.3066
    112  Bq   Isotropic =    20.5012   Anisotropy =    62.0366
   XX=     3.8793   YX=   -24.2115   ZX=     8.0012
   XY=   -10.7593   YY=     7.8287   ZY=    24.1010
   XZ=     4.3108   YZ=    26.7843   ZZ=    49.7956
   Eigenvalues:   -19.0360    18.6806    61.8589
    113  Bq   Isotropic =    27.9887   Anisotropy =    54.6784
   XX=    16.8862   YX=   -20.4592   ZX=     6.7930
   XY=    -9.0191   YY=    13.8711   ZY=    22.7643
   XZ=     3.8376   YZ=    24.7739   ZZ=    53.2088
   Eigenvalues:    -7.3606    26.8857    64.4410
    114  Bq   Isotropic =    33.6294   Anisotropy =    48.8927
   XX=    26.6359   YX=   -16.5691   ZX=     5.4052
   XY=    -7.2582   YY=    18.5881   ZY=    21.6745
   XZ=     3.2787   YZ=    23.0916   ZZ=    55.6643
   Eigenvalues:     1.6698    32.9940    66.2245
    115  Bq   Isotropic =    37.6642   Anisotropy =    44.5869
   XX=    33.6235   YX=   -12.7248   ZX=     3.9417
   XY=    -5.5669   YY=    22.0314   ZY=    20.8747
   XZ=     2.6816   YZ=    21.7639   ZZ=    57.3376
   Eigenvalues:     8.2988    37.3049    67.3888
    116  Bq   Isotropic =    40.2964   Anisotropy =    41.6720
   XX=    38.2637   YX=    -9.0006   ZX=     2.4546
   XY=    -3.9798   YY=    24.2577   ZY=    20.4002
   XZ=     2.0726   YZ=    20.8088   ZZ=    58.3678
   Eigenvalues:    12.7341    40.0774    68.0777
    117  Bq   Isotropic =    41.6667   Anisotropy =    40.0793
   XX=    40.8480   YX=    -5.4082   ZX=     0.9635
   XY=    -2.4978   YY=    25.3064   ZY=    20.2774
   XZ=     1.4614   YZ=    20.2364   ZZ=    58.8457
   Eigenvalues:    15.1270    41.4869    68.3862
    118  Bq   Isotropic =    41.8408   Anisotropy =    39.7720
   XX=    41.5262   YX=    -1.9248   ZX=    -0.5315
   XY=    -1.1025   YY=    25.1858   ZY=    20.5244
   XZ=     0.8454   YZ=    20.0495   ZZ=    58.8105
   Eigenvalues:    15.5706    41.5963    68.3555
    119  Bq   Isotropic =    40.8021   Anisotropy =    40.7511
   XX=    40.2936   YX=     1.4898   ZX=    -2.0419
   XY=     0.2328   YY=    23.8656   ZY=    21.1511
   XZ=     0.2146   YZ=    20.2438   ZZ=    58.2471
   Eigenvalues:    14.0988    40.3380    67.9696
    120  Bq   Isotropic =    38.4471   Anisotropy =    43.0570
   XX=    36.9814   YX=     4.8815   ZX=    -3.5853
   XY=     1.5329   YY=    21.2751   ZY=    22.1567
   XZ=    -0.4456   YZ=    20.8055   ZZ=    57.0847
   Eigenvalues:    10.6779    37.5116    67.1518
    121  Bq   Isotropic =    34.5813   Anisotropy =    46.7678
   XX=    31.2440   YX=     8.2912   ZX=    -5.1793
   XY=     2.8130   YY=    17.3055   ZY=    23.5254
   XZ=    -1.1502   YZ=    21.7061   ZZ=    55.1944
   Eigenvalues:     5.1905    32.7936    65.7599
    122  Bq   Isotropic =    28.9173   Anisotropy =    51.9930
   XX=    22.5414   YX=    11.7406   ZX=    -6.8348
   XY=     4.0711   YY=    11.8223   ZY=    25.2157
   XZ=    -1.9112   YZ=    22.8916   ZZ=    52.3883
   Eigenvalues:    -2.5913    25.7639    63.5793
    123  Bq   Isotropic =    21.0819   Anisotropy =    58.8619
   XX=    10.1227   YX=    15.2070   ZX=    -8.5427
   XY=     5.2786   YY=     4.6943   ZY=    27.1438
   XZ=    -2.7317   YZ=    24.2659   ZZ=    48.4286
   Eigenvalues:   -13.0568    15.9792    60.3231
    124  Bq   Isotropic =    10.6635   Anisotropy =    67.5043
   XX=    -6.9441   YX=    18.5795   ZX=   -10.2507
   XY=     6.3621   YY=    -4.1378   ZY=    29.1636
   XZ=    -3.5938   YZ=    25.6717   ZZ=    43.0723
   Eigenvalues:   -26.8693     3.1934    55.6663
    125  Bq   Isotropic =    -2.6253   Anisotropy =    78.0156
   XX=   -29.5702   YX=    21.5859   ZX=   -11.8260
[...]
   138  Bq   0.000000
   139  Bq   0.000000
   140  Bq   0.000000
   141  Bq   0.000000
   142  Bq   0.000000
   143  Bq   0.000000
   144  Bq   0.000000
   145  Bq   0.000000
   146  Bq   0.000000
   147  Bq   0.000000
   148  Bq   0.000000
   149  Bq   0.000000
   150  Bq   0.000000
   151  Bq   0.000000
   152  Bq   0.000000
   153  Bq   0.000000
   154  Bq   0.000000
   155  Bq   0.000000
   156  Bq   0.000000
   157  Bq   0.000000
   158  Bq   0.000000
   159  Bq   0.000000
   160  Bq   0.000000
   161  Bq   0.000000
   162  Bq   0.000000
   163  Bq   0.000000
   164  Bq   0.000000
   165  Bq   0.000000
   166  Bq   0.000000
   167  Bq   0.000000
   168  Bq   0.000000
   169  Bq   0.000000
   170  Bq   0.000000
   171  Bq   0.000000
   172  Bq   0.000000
   173  Bq   0.000000
   174  Bq   0.000000
   175  Bq   0.000000
   176  Bq   0.000000
   177  Bq   0.000000
   178  Bq   0.000000
   179  Bq   0.000000
   180  Bq   0.000000
   181  Bq   0.000000
   182  Bq   0.000000
   183  Bq   0.000000
   184  Bq   0.000000
   185  Bq   0.000000
   186  Bq   0.000000
   187  Bq   0.000000
   188  Bq   0.000000
   189  Bq   0.000000
   190  Bq   0.000000
   191  Bq   0.000000
   192  Bq   0.000000
   193  Bq   0.000000
   194  Bq   0.000000
   195  Bq   0.000000
   196  Bq   0.000000
   197  Bq   0.000000
   198  Bq   0.000000
   199  Bq   0.000000
   200  Bq   0.000000
   201  Bq   0.000000
   202  Bq   0.000000
   203  Bq   0.000000
   204  Bq   0.000000
   205  Bq   0.000000
   206  Bq   0.000000
   207  Bq   0.000000
   208  Bq   0.000000
   209  Bq   0.000000
   210  Bq   0.000000
   211  Bq   0.000000
   212  Bq   0.000000
   213  Bq   0.000000
   214  Bq   0.000000
   215  Bq   0.000000
   216  Bq   0.000000
   217  Bq   0.000000
   218  Bq   0.000000
   219  Bq   0.000000
   220  Bq   0.000000
   221  Bq   0.000000
   222  Bq   0.000000
   223  Bq   0.000000
   224  Bq   0.000000
   225  Bq   0.000000
   226  Bq   0.000000
   227  Bq   0.000000
   228  Bq   0.000000
   229  Bq   0.000000
   230  Bq   0.000000
   231  Bq   0.000000
   232  Bq   0.000000
   233  Bq   0.000000
   234  Bq   0.000000
   235  Bq   0.000000
   236  Bq   0.000000
 Sum of Mulliken charges =   0.00000
 Mulliken charges with hydrogens summed into heavy atoms:
               1
     1  C   -0.255498
     3  C    0.053849
     5  C    0.448258
     6  C    0.064351
     7  C   -0.333926
     9  C   -0.261805
    11  C   -0.322216
    13  C   -0.119315
    15  C    0.653397
    16  C    0.034822
    17  C   -0.317410
    19  C   -0.316854
    21  C    0.651066
    22  C    0.037784
    23  C   -0.117289
    25  C   -0.205316
    27  C    0.448331
    28  C    0.061983
    29  C   -0.333381
    31  C   -0.139505
    33  C   -0.255977
    35  C    0.170579
    37  Bq   0.000000
    38  Bq   0.000000
    39  Bq   0.000000
    40  Bq   0.000000
    41  Bq   0.000000
    42  Bq   0.000000
    43  Bq   0.115559
    44  Bq   0.000000
    45  Bq   0.000000
    46  Bq   0.000000
    47  Bq   0.000000
    48  Bq   0.000000
    49  Bq   0.000000
    50  Bq   0.000000
    51  Bq   0.000000
    52  Bq   0.000000
    53  Bq   0.000000
    54  Bq   0.000000
    55  Bq   0.000000
    56  Bq   0.000000
    57  Bq   0.000000
    58  Bq   0.000000
    59  Bq   0.000000
    60  Bq   0.000000
    61  Bq   0.000000
    62  Bq   0.000000
    63  Bq   0.000000
    64  Bq   0.000000
    65  Bq   0.000000
    66  Bq   0.000000
    67  Bq   0.000000
    68  Bq   0.000000
    69  Bq   0.000000
    70  Bq   0.000000
    71  Bq   0.000000
    72  Bq   0.000000
    73  Bq   0.000000
    74  Bq   0.000000
    75  Bq   0.000000
    76  Bq   0.000000
    77  Bq   0.000000
    78  Bq   0.000000
    79  Bq   0.000000
    80  Bq   0.000000
    81  Bq   0.000000
    82  Bq   0.000000
    83  Bq   0.000000
    84  Bq   0.000000
    85  Bq   0.000000
    86  Bq   0.000000
    87  Bq   0.000000
    88  Bq   0.000000
    89  Bq   0.000000
    90  Bq   0.000000
    91  Bq   0.000000
    92  Bq   0.000000
    93  Bq   0.000000
    94  Bq   0.000000
    95  Bq   0.000000
    96  Bq   0.000000
    97  Bq   0.000000
    98  Bq   0.000000
    99  Bq   0.000000
   100  Bq   0.000000
   101  Bq   0.000000
   102  Bq   0.000000
   103  Bq   0.000000
   104  Bq   0.000000
   105  Bq   0.000000
   106  Bq   0.000000
   107  Bq   0.000000
   108  Bq   0.000000
   109  Bq   0.000000
   110  Bq   0.000000
   111  Bq   0.000000
   112  Bq   0.000000
   113  Bq   0.000000
   114  Bq   0.000000
   115  Bq   0.000000
   116  Bq   0.000000
   117  Bq   0.000000
   118  Bq   0.000000
   119  Bq   0.000000
   120  Bq   0.000000
   121  Bq   0.000000
   122  Bq   0.000000
   123  Bq   0.000000
   124  Bq   0.000000
   125  Bq   0.000000
   126  Bq   0.000000
   127  Bq   0.000000
   128  Bq   0.000000
   129  Bq   0.000000
   130  Bq   0.000000
   131  Bq   0.000000
   132  Bq   0.000000
   133  Bq   0.000000
   134  Bq   0.000000
   135  Bq   0.000000
   136  Bq   0.000000
   137  Bq   0.000000
   138  Bq   0.000000
   139  Bq   0.000000
   140  Bq   0.000000
   141  Bq   0.000000
   142  Bq   0.000000
   143  Bq   0.000000
   144  Bq   0.000000
   145  Bq   0.000000
   146  Bq   0.000000
   147  Bq   0.000000
   148  Bq   0.000000
   149  Bq   0.000000
   150  Bq   0.000000
   151  Bq   0.000000
   152  Bq   0.000000
   153  Bq   0.000000
   154  Bq   0.000000
   155  Bq   0.000000
   156  Bq   0.000000
   157  Bq   0.000000
   158  Bq   0.000000
   159  Bq   0.000000
   160  Bq   0.000000
   161  Bq   0.000000
   162  Bq   0.000000
   163  Bq   0.000000
   164  Bq   0.000000
   165  Bq   0.000000
   166  Bq   0.116228
   167  Bq   0.000000
   168  Bq   0.122284
   169  Bq   0.000000
   170  Bq   0.000000
   171  Bq   0.000000
   172  Bq   0.000000
   173  Bq   0.000000
   174  Bq   0.000000
   175  Bq   0.000000
   176  Bq   0.000000
   177  Bq   0.000000
   178  Bq   0.000000
   179  Bq   0.000000
   180  Bq   0.000000
   181  Bq   0.000000
   182  Bq   0.000000
   183  Bq   0.000000
   184  Bq   0.000000
   185  Bq   0.000000
   186  Bq   0.000000
   187  Bq   0.000000
   188  Bq   0.000000
   189  Bq   0.000000
   190  Bq   0.000000
   191  Bq   0.000000
   192  Bq   0.000000
   193  Bq   0.000000
   194  Bq   0.000000
   195  Bq   0.000000
   196  Bq   0.000000
   197  Bq   0.000000
   198  Bq   0.000000
   199  Bq   0.000000
   200  Bq   0.000000
   201  Bq   0.000000
   202  Bq   0.000000
   203  Bq   0.000000
   204  Bq   0.000000
   205  Bq   0.000000
   206  Bq   0.000000
   207  Bq   0.000000
   208  Bq   0.000000
   209  Bq   0.000000
   210  Bq   0.000000
   211  Bq   0.000000
   212  Bq   0.000000
   213  Bq   0.000000
   214  Bq   0.000000
   215  Bq   0.000000
   216  Bq   0.000000
   217  Bq   0.000000
   218  Bq   0.000000
   219  Bq   0.000000
   220  Bq   0.000000
   221  Bq   0.000000
   222  Bq   0.000000
   223  Bq   0.000000
   224  Bq   0.000000
   225  Bq   0.000000
   226  Bq   0.000000
   227  Bq   0.000000
   228  Bq   0.000000
   229  Bq   0.000000
   230  Bq   0.000000
   231  Bq   0.000000
   232  Bq   0.000000
   233  Bq   0.000000
   234  Bq   0.000000
   235  Bq   0.000000
   236  Bq   0.000000
 Electronic spatial extent (au):  <R**2>=           5736.9264
 Charge=              0.0000 electrons
 Dipole moment (field-independent basis, Debye):
    X=              0.0475    Y=              0.0856    Z=              0.0029  Tot=              0.0979
 Quadrupole moment (field-independent basis, Debye-Ang):
   XX=           -113.7056   YY=           -113.9456   ZZ=           -133.2669
   XY=             -0.3834   XZ=              3.2102   YZ=             -1.1839
 Traceless Quadrupole moment (field-independent basis, Debye-Ang):
   XX=              6.6005   YY=              6.3604   ZZ=            -12.9609
   XY=             -0.3834   XZ=              3.2102   YZ=             -1.1839
 Octapole moment (field-independent basis, Debye-Ang**2):
  XXX=            -16.4668  YYY=            -16.1860  ZZZ=             -1.7007  XYY=              2.5576
  XXY=             -6.5650  XXZ=             13.6547  XZZ=             -8.9478  YZZ=            -17.7168
  YYZ=            -13.2941  XYZ=              8.8036
 Hexadecapole moment (field-independent basis, Debye-Ang**3):
 XXXX=          -3951.1638 YYYY=          -3112.2161 ZZZZ=           -504.8311 XXXY=            340.6935
 XXXZ=            156.4968 YYYX=            335.5625 YYYZ=            -87.0893 ZZZX=            120.2262
 ZZZY=           -108.7373 XXYY=          -1176.4844 XXZZ=           -856.7291 YYZZ=           -665.7275
 XXYZ=            -68.9016 YYXZ=             48.1602 ZZXY=            153.0375
 N-N= 1.610917615562D+03 E-N=-5.186891130729D+03  KE= 8.436329774449D+02
 1\1\GINC-PLANA\SP\RB3LYP\6-311+G(d,p)\C22H14\YANNICK\19-Aug-2020\0\\# 
 rb3lyp/6-311+g** NMR geom=connectivity\\Title\\0,1\C,0,-4.0500558,-0.5
 771862,0.8136712\H,0,-5.0263804,-1.0082727,1.002476\C,0,-3.9381552,0.6
 617804,0.2400876\H,0,-4.8252424,1.233889,-0.0111295\C,0,-2.676841,1.24
 33246,0.0057578\C,0,-1.4974121,0.5051527,0.2848253\C,0,-1.6508332,-0.7
 338728,0.9404026\H,0,-0.7713646,-1.2730967,1.2633753\C,0,-2.8898548,-1
 .2624035,1.1994307\H,0,-2.9683706,-2.2124563,1.7152676\C,0,-2.5773185,
 2.5963696,-0.419293\H,0,-3.4870728,3.1412239,-0.6474055\C,0,-1.3741895
 ,3.2147896,-0.436403\H,0,-1.2997315,4.2742019,-0.6578144\C,0,-0.171948
 8,2.499409,-0.1734588\C,0,-0.2043917,1.1018437,0.0192689\C,0,1.0513491
 ,3.204256,-0.0676222\H,0,1.0427344,4.2819499,-0.1896997\C,0,2.1942091,
 2.5487446,0.2579577\H,0,3.1168527,3.0912848,0.4334727\C,0,2.2216473,1.
 1336562,0.293499\C,0,1.0486931,0.3945528,0.0302412\C,0,3.4483363,0.461
 4633,0.5573939\H,0,4.3095794,1.0606054,0.8334846\C,0,3.5427346,-0.8855
 926,0.4749463\H,0,4.4731467,-1.3939704,0.7038822\C,0,2.4490052,-1.6474
 447,-0.0196319\C,0,1.2150704,-1.0057258,-0.3013573\C,0,0.2531113,-1.74
 3444,-1.0216591\H,0,-0.6541356,-1.2535051,-1.3462847\C,0,0.4494193,-3.
 0628597,-1.3413779\H,0,-0.3083162,-3.5944309,-1.905406\C,0,1.6251726,-
 3.7207967,-0.9552541\H,0,1.7670048,-4.7687404,-1.1927019\C,0,2.6109872
 ,-3.0144177,-0.318305\H,0,3.5525612,-3.4902813,-0.0646367\Bq,0,-3.9319
 695428,0.9633645194,0.09786898\Bq,0,-3.9318840766,1.0083902157,0.07612
 77895\Bq,0,-3.9317986105,1.053415912,0.0543865989\Bq,0,-3.9317131443,1
 .0984416084,0.0326454084\Bq,0,-3.9316276782,1.1434673047,0.0109042179\
 Bq,0,-3.9315422121,1.1884930011,-0.0108369726\Bq,0,-3.9314567459,1.233
 5186974,-0.0325781631\Bq,0,-3.9313712798,1.2785443937,-0.0543193536\Bq
 ,0,-3.9312858137,1.3235700901,-0.0760605442\Bq,0,-3.9312003475,1.36859
 57864,-0.0978017347\Bq,0,-3.9311148814,1.4136214827,-0.1195429252\Bq,0
 ,-3.9310294153,1.4586471791,-0.1412841157\Bq,0,-3.9309439491,1.5036728
 754,-0.1630253062\Bq,0,-3.930858483,1.5486985717,-0.1847664967\Bq,0,-3
 .9307730168,1.5937242681,-0.2065076873\Bq,0,-3.9306875507,1.6387499644
 ,-0.2282488778\Bq,0,-3.9306020846,1.6837756607,-0.2499900683\Bq,0,-3.9
 305166184,1.7288013571,-0.2717312588\Bq,0,-3.9304311523,1.7738270534,-
 0.2934724493\Bq,0,-3.9303456862,1.8188527497,-0.3152136398\Bq,0,-3.930
 26022,1.8638784461,-0.3369548304\Bq,0,-3.9301747539,1.9089041424,-0.35
 86960209\Bq,0,-3.9300892877,1.9539298388,-0.3804372114\Bq,0,-3.9300038
 216,1.9989555351,-0.4021784019\Bq,0,-3.9299183555,2.0439812314,-0.4239
 195924\Bq,0,-3.9298328893,2.0890069278,-0.4456607829\Bq,0,-3.929747423
 2,2.1340326241,-0.4674019734\Bq,0,-3.9296619571,2.1790583204,-0.489143
 164\Bq,0,-3.9295764909,2.2240840168,-0.5108843545\Bq,0,-3.888123491,-2
 .2784856168,1.6634312491\Bq,0,-3.8880380248,-2.2334599204,1.6416900586
 \Bq,0,-3.8879525587,-2.1884342241,1.6199488681\Bq,0,-3.8878670926,-2.1
 434085278,1.5982076776\Bq,0,-3.8877816264,-2.0983828314,1.576466487\Bq
 ,0,-3.8876961603,-2.0533571351,1.5547252965\Bq,0,-3.8876106942,-2.0083
 314388,1.532984106\Bq,0,-3.887525228,-1.9633057424,1.5112429155\Bq,0,-
 3.8874397619,-1.9182800461,1.489501725\Bq,0,-3.8873542957,-1.873254349
 7,1.4677605345\Bq,0,-3.8872688296,-1.8282286534,1.446019344\Bq,0,-3.88
 71833635,-1.7832029571,1.4242781534\Bq,0,-3.8870978973,-1.7381772607,1
 .4025369629\Bq,0,-3.8870124312,-1.6931515644,1.3807957724\Bq,0,-3.8869
 269651,-1.6481258681,1.3590545819\Bq,0,-3.8868414989,-1.6031001717,1.3
 373133914\Bq,0,-3.8867560328,-1.5580744754,1.3155722009\Bq,0,-3.886670
 5666,-1.5130487791,1.2938310103\Bq,0,-3.8865851005,-1.4680230827,1.272
 0898198\Bq,0,-3.8864996344,-1.4229973864,1.2503486293\Bq,0,-3.88641416
 82,-1.3779716901,1.2286074388\Bq,0,-3.8863287021,-1.3329459937,1.20686
 62483\Bq,0,-3.886243236,-1.2879202974,1.1851250578\Bq,0,-3.8861577698,
 -1.2428946011,1.1633838672\Bq,0,-3.8860723037,-1.1978689047,1.14164267
 67\Bq,0,-3.8859868375,-1.1528432084,1.1199014862\Bq,0,-3.8859013714,-1
 .107817512,1.0981602957\Bq,0,-3.8858159053,-1.0627918157,1.0764191052\
 Bq,0,-3.8857304391,-1.0177661194,1.0546779147\Bq,0,-3.885644973,-0.972
 740423,1.0329367241\Bq,0,-3.8855595069,-0.9277147267,1.0111955336\Bq,0
 ,-3.8854740407,-0.8826890304,0.9894543431\Bq,0,-3.8853885746,-0.837663
 334,0.9677131526\Bq,0,-3.8853031084,-0.7926376377,0.9459719621\Bq,0,-3
 .8852176423,-0.7476119414,0.9242307716\Bq,0,-3.8851321762,-0.702586245
 ,0.902489581\Bq,0,-3.88504671,-0.6575605487,0.8807483905\Bq,0,-3.88496
 12439,-0.6125348524,0.8590072\Bq,0,-3.8848757778,-0.567509156,0.837266
 0095\Bq,0,-3.8847903116,-0.5224834597,0.815524819\Bq,0,-3.8847048455,-
 0.4774577634,0.7937836285\Bq,0,-3.8846193793,-0.432432067,0.7720424379
 \Bq,0,-3.8845339132,-0.3874063707,0.7503012474\Bq,0,-3.8844484471,-0.3
 423806743,0.7285600569\Bq,0,-3.8843629809,-0.297354978,0.7068188664\Bq
 ,0,-3.8842775148,-0.2523292817,0.6850776759\Bq,0,-3.8841920487,-0.2073
 035853,0.6633364854\Bq,0,-3.8841065825,-0.162277889,0.6415952949\Bq,0,
 -3.8840211164,-0.1172521927,0.6198541043\Bq,0,-3.8839356502,-0.0722264
 963,0.5981129138\Bq,0,-3.8838501841,-0.0272008,0.5763717233\Bq,0,-3.88
 3764718,0.0178248963,0.5546305328\Bq,0,-3.8836792518,0.0628505927,0.53
 28893423\Bq,0,-3.8835937857,0.107876289,0.5111481518\Bq,0,-3.883508319
 6,0.1529019853,0.4894069612\Bq,0,-3.8834228534,0.1979276817,0.46766577
 07\Bq,0,-3.8833373873,0.242953378,0.4459245802\Bq,0,-3.8832519211,0.28
 79790743,0.4241833897\Bq,0,-3.883166455,0.3330047707,0.4024421992\Bq,0
 ,-3.8830809889,0.378030467,0.3807010087\Bq,0,-3.8829955227,0.423056163
 4,0.3589598181\Bq,0,-3.8829100566,0.4680818597,0.3372186276\Bq,0,-3.88
 28245905,0.513107556,0.3154774371\Bq,0,-3.8827391243,0.5581332524,0.29
 37362466\Bq,0,-3.8826536582,0.6031589487,0.2719950561\Bq,0,-3.88256819
 21,0.648184645,0.2502538656\Bq,0,-3.8824827259,0.6932103414,0.22851267
 5\Bq,0,-3.8823972598,0.7382360377,0.2067714845\Bq,0,-3.8823117936,0.78
 3261734,0.185030294\Bq,0,-3.8822263275,0.8282874304,0.1632891035\Bq,0,
 -3.8821408614,0.8733131267,0.141547913\Bq,0,-3.8820553952,0.918338823,
 0.1198067225\Bq,0,-3.8819699291,0.9633645194,0.0980655319\Bq,0,-3.8818
 84463,1.0083902157,0.0763243414\Bq,0,-3.8817989968,1.053415912,0.05458
 31509\Bq,0,-3.8817135307,1.0984416084,0.0328419604\Bq,0,-3.8816280645,
 1.1434673047,0.0111007699\Bq,0,-3.8815425984,1.1884930011,-0.010640420
 6\Bq,0,-3.8814571323,1.2335186974,-0.0323816112\Bq,0,-3.8813716661,1.2
 785443937,-0.0541228017\Bq,0,-3.8812862,1.3235700901,-0.0758639922\Bq,
 0,-3.8812007339,1.3685957864,-0.0976051827\Bq,0,-3.8811152677,1.413621
 4827,-0.1193463732\Bq,0,-3.8810298016,1.4586471791,-0.1410875637\Bq,0,
 -3.8809443354,1.5036728754,-0.1628287542\Bq,0,-3.8808588693,1.54869857
 17,-0.1845699448\Bq,0,-3.8807734032,1.5937242681,-0.2063111353\Bq,0,-3
 .880687937,1.6387499644,-0.2280523258\Bq,0,-3.8806024709,1.6837756607,
 -0.2497935163\Bq,0,-3.8805170048,1.7288013571,-0.2715347068\Bq,0,-3.88
 04315386,1.7738270534,-0.2932758973\Bq,0,-3.8803460725,1.8188527497,-0
 .3150170879\Bq,0,-3.8802606063,1.8638784461,-0.3367582784\Bq,0,-3.8801
 751402,1.9089041424,-0.3584994689\Bq,0,-3.8800896741,1.9539298388,-0.3
 802406594\Bq,0,-3.8800042079,1.9989555351,-0.4019818499\Bq,0,-3.879918
 7418,2.0439812314,-0.4237230404\Bq,0,-3.8798332757,2.0890069278,-0.445
 464231\Bq,0,-3.8797478095,2.1340326241,-0.4672054215\Bq,0,-3.879662343
 4,2.1790583204,-0.488946612\Bq,0,-3.8795768772,2.2240840168,-0.5106878
 025\Bq,0,-3.8381238773,-2.2784856168,1.6636278011\Bq,0,-3.8380384112,-
 2.2334599204,1.6418866106\Bq,0,-3.837952945,-2.1884342241,1.6201454201
 \Bq,0,-3.8378674789,-2.1434085278,1.5984042295\Bq,0,-3.8377820128,-2.0
 983828314,1.576663039\Bq,0,-3.8376965466,-2.0533571351,1.5549218485\Bq
 ,0,-3.8376110805,-2.0083314388,1.533180658\Bq,0,-3.8375256143,-1.96330
 57424,1.5114394675\Bq,0,-3.8374401482,-1.9182800461,1.489698277\Bq,0,-
 3.8373546821,-1.8732543497,1.4679570864\Bq,0,-3.8372692159,-1.82822865
 34,1.4462158959\Bq,0,-3.8371837498,-1.7832029571,1.4244747054\Bq,0,-3.
 8370982837,-1.7381772607,1.4027335149\Bq,0,-3.8370128175,-1.6931515644
 ,1.3809923244\Bq,0,-3.8369273514,-1.6481258681,1.3592511339\Bq,0,-3.83
 68418852,-1.6031001717,1.3375099433\Bq,0,-3.8367564191,-1.5580744754,1
 .3157687528\Bq,0,-3.836670953,-1.5130487791,1.2940275623\Bq,0,-3.83658
 54868,-1.4680230827,1.2722863718\Bq,0,-3.8365000207,-1.4229973864,1.25
 05451813\Bq,0,-3.8364145546,-1.3779716901,1.2288039908\Bq,0,-3.8363290
 884,-1.3329459937,1.2070628002\Bq,0,-3.8362436223,-1.2879202974,1.1853
 216097\Bq,0,-3.8361581561,-1.2428946011,1.1635804192\Bq,0,-3.83607269,
 -1.1978689047,1.1418392287\Bq,0,-3.8359872239,-1.1528432084,1.12009803
 82\Bq,0,-3.8359017577,-1.107817512,1.0983568477\Bq,0,-3.8358162916,-1.
 0627918157,1.0766156571\Bq,0,-3.8357308255,-1.0177661194,1.0548744666\
 Bq,0,-3.8356453593,-0.972740423,1.0331332761\Bq,0,-3.8355598932,-0.927
 7147267,1.0113920856\Bq,0,-3.835474427,-0.8826890304,0.9896508951\Bq,0
 ,-3.8353889609,-0.837663334,0.9679097046\Bq,0,-3.8353034948,-0.7926376
 377,0.946168514\Bq,0,-3.8352180286,-0.7476119414,0.9244273235\Bq,0,-3.
 8351325625,-0.702586245,0.902686133\Bq,0,-3.8350470964,-0.6575605487,0
 .8809449425\Bq,0,-3.8349616302,-0.6125348524,0.859203752\Bq,0,-3.83487
 61641,-0.567509156,0.8374625615\Bq,0,-3.834790698,-0.5224834597,0.8157
 21371\Bq,0,-3.8347052318,-0.4774577634,0.7939801804\Bq,0,-3.8346197657
 ,-0.432432067,0.7722389899\Bq,0,-3.8345342995,-0.3874063707,0.75049779
 94\Bq,0,-3.8344488334,-0.3423806743,0.7287566089\Bq,0,-3.8343633673,-0
 .297354978,0.7070154184\Bq,0,-3.8342779011,-0.2523292817,0.6852742279\
 Bq,0,-3.834192435,-0.2073035853,0.6635330373\Bq,0,-3.8341069689,-0.162
 277889,0.6417918468\Bq,0,-3.8340215027,-0.1172521927,0.6200506563\Bq,0
 ,-3.8339360366,-0.0722264963,0.5983094658\Bq,0,-3.8338505704,-0.027200
 8,0.5765682753\Bq,0,-3.8337651043,0.0178248963,0.5548270848\Bq,0,-3.83
 36796382,0.0628505927,0.5330858942\Bq,0,-3.833594172,0.107876289,0.511
 3447037\Bq,0,-3.8335087059,0.1529019853,0.4896035132\Bq,0,-3.833423239
 8,0.1979276817,0.4678623227\Bq,0,-3.8333377736,0.242953378,0.446121132
 2\Bq,0,-3.8332523075,0.2879790743,0.4243799417\Bq,0,-3.8331668413,0.33
 30047707,0.4026387511\Bq,0,-3.8330813752,0.378030467,0.3808975606\Bq,0
 ,-3.8329959091,0.4230561634,0.3591563701\Bq,0,-3.8329104429,0.46808185
 97,0.3374151796\Bq,0,-3.8328249768,0.513107556,0.3156739891\Bq,0,-3.83
 27395107,0.5581332524,0.2939327986\Bq,0,-3.8326540445,0.6031589487,0.2
 72191608\Bq,0,-3.8325685784,0.648184645,0.2504504175\Bq,0,-3.832483112
 2,0.6932103414,0.228709227\Bq,0,-3.8323976461,0.7382360377,0.206968036
 5\Bq,0,-3.83231218,0.783261734,0.185226846\Bq,0,-3.8322267138,0.828287
 4304,0.1634856555\\Version=ES64L-G09RevD.01\HF=-847.0032898\RMSD=7.554
 e-09\Dipole=0.0186808,0.0336671,0.0011595\Quadrupole=4.9072795,4.72882
 19,-9.6361014,-0.2850201,2.3867064,-0.880172\PG=C01 [X(C22H14)]\\@


 NEVER LOSE YOUR IGNORANCE, IT CAN'T BE REPLACED.
   -- ANDY CAPP
 Job cpu time:       0 days  3 hours 41 minutes 16.2 seconds.
 File lengths (MBytes):  RWF=    184 Int=      0 D2E=      0 Chk=     19 Scr=      1
 Normal termination of Gaussian 09 at Wed Aug 19 20:37:51 2020.

real	28m17.083s
user	221m12.033s
sys	0m4.246s
