 Entering Gaussian System, Link 0=g09
 Initial command:
 /share/programs/GAUSSIAN/64/g09/l1.exe "/scratch/yannick.29332/Gau-2201.inp" -scrdir="/scratch/yannick.29332/"
 Entering Link 1 = /share/programs/GAUSSIAN/64/g09/l1.exe PID=      2212.
  
 Copyright (c) 1988,1990,1992,1993,1995,1998,2003,2009,2013,
            Gaussian, Inc.  All Rights Reserved.
  
 This is part of the Gaussian(R) 09 program.  It is based on
 the Gaussian(R) 03 system (copyright 2003, Gaussian, Inc.),
 the Gaussian(R) 98 system (copyright 1998, Gaussian, Inc.),
 the Gaussian(R) 94 system (copyright 1995, Gaussian, Inc.),
 the Gaussian 92(TM) system (copyright 1992, Gaussian, Inc.),
 the Gaussian 90(TM) system (copyright 1990, Gaussian, Inc.),
 the Gaussian 88(TM) system (copyright 1988, Gaussian, Inc.),
 the Gaussian 86(TM) system (copyright 1986, Carnegie Mellon
 University), and the Gaussian 82(TM) system (copyright 1983,
 Carnegie Mellon University). Gaussian is a federally registered
 trademark of Gaussian, Inc.
  
 This software contains proprietary and confidential information,
 including trade secrets, belonging to Gaussian, Inc.
  
 This software is provided under written license and may be
 used, copied, transmitted, or stored only in accord with that
 written license.
  
 The following legend is applicable only to US Government
 contracts under FAR:
  
                    RESTRICTED RIGHTS LEGEND
  
 Use, reproduction and disclosure by the US Government is
 subject to restrictions as set forth in subparagraphs (a)
 and (c) of the Commercial Computer Software - Restricted
 Rights clause in FAR 52.227-19.
  
 Gaussian, Inc.
 340 Quinnipiac St., Bldg. 40, Wallingford CT 06492
  
  
 ---------------------------------------------------------------
 Warning -- This program may not be used in any manner that
 competes with the business of Gaussian, Inc. or will provide
 assistance to any competitor of Gaussian, Inc.  The licensee
 of this program is prohibited from giving any competitor of
 Gaussian, Inc. access to this program.  By using this program,
 the user acknowledges that Gaussian, Inc. is engaged in the
 business of creating and licensing software in the field of
 computational chemistry and represents and warrants to the
 licensee that it is not a competitor of Gaussian, Inc. and that
 it will not use this program in any manner prohibited above.
 ---------------------------------------------------------------
  

 Cite this work as:
 Gaussian 09, Revision D.01,
 M. J. Frisch, G. W. Trucks, H. B. Schlegel, G. E. Scuseria, 
 M. A. Robb, J. R. Cheeseman, G. Scalmani, V. Barone, B. Mennucci, 
 G. A. Petersson, H. Nakatsuji, M. Caricato, X. Li, H. P. Hratchian, 
 A. F. Izmaylov, J. Bloino, G. Zheng, J. L. Sonnenberg, M. Hada, 
 M. Ehara, K. Toyota, R. Fukuda, J. Hasegawa, M. Ishida, T. Nakajima, 
 Y. Honda, O. Kitao, H. Nakai, T. Vreven, J. A. Montgomery, Jr., 
 J. E. Peralta, F. Ogliaro, M. Bearpark, J. J. Heyd, E. Brothers, 
 K. N. Kudin, V. N. Staroverov, T. Keith, R. Kobayashi, J. Normand, 
 K. Raghavachari, A. Rendell, J. C. Burant, S. S. Iyengar, J. Tomasi, 
 M. Cossi, N. Rega, J. M. Millam, M. Klene, J. E. Knox, J. B. Cross, 
 V. Bakken, C. Adamo, J. Jaramillo, R. Gomperts, R. E. Stratmann, 
 O. Yazyev, A. J. Austin, R. Cammi, C. Pomelli, J. W. Ochterski, 
 R. L. Martin, K. Morokuma, V. G. Zakrzewski, G. A. Voth, 
 P. Salvador, J. J. Dannenberg, S. Dapprich, A. D. Daniels, 
 O. Farkas, J. B. Foresman, J. V. Ortiz, J. Cioslowski, 
 and D. J. Fox, Gaussian, Inc., Wallingford CT, 2013.
 
 ******************************************
 Gaussian 09:  ES64L-G09RevD.01 24-Apr-2013
                19-Aug-2020 
 ******************************************
 %nproc=8
 Will use up to    8 processors via shared memory.
 %mem=1000MB
 ----------------------------------------
 # rb3lyp/6-311+g** NMR geom=connectivity
 ----------------------------------------
 1/38=1,57=2/1;
 2/12=2,17=6,18=5,40=1/2;
 3/5=4,6=6,7=111,11=2,16=1,25=1,30=1,74=-5,116=1/1,2,8,3;
 4//1;
 5/5=2,38=5/2;
 8/6=1,10=90,11=11/1;
 10/13=100,45=16/2;
 6/7=2,8=2,9=2,10=2,28=1/1;
 99/9=1/99;
 -----
 Title
 -----
 Symbolic Z-matrix:
 Charge =  0 Multiplicity = 1
 C                    -4.05006  -0.57719   0.81367 
 H                    -5.02638  -1.00827   1.00248 
 C                    -3.93816   0.66178   0.24009 
 H                    -4.82524   1.23389  -0.01113 
 C                    -2.67684   1.24332   0.00576 
 C                    -1.49741   0.50515   0.28483 
 C                    -1.65083  -0.73387   0.9404 
 H                    -0.77136  -1.2731    1.26338 
 C                    -2.88985  -1.2624    1.19943 
 H                    -2.96837  -2.21246   1.71527 
 C                    -2.57732   2.59637  -0.41929 
 H                    -3.48707   3.14122  -0.64741 
 C                    -1.37419   3.21479  -0.4364 
 H                    -1.29973   4.2742   -0.65781 
 C                    -0.17195   2.49941  -0.17346 
 C                    -0.20439   1.10184   0.01927 
 C                     1.05135   3.20426  -0.06762 
 H                     1.04273   4.28195  -0.1897 
 C                     2.19421   2.54874   0.25796 
 H                     3.11685   3.09128   0.43347 
 C                     2.22165   1.13366   0.2935 
 C                     1.04869   0.39455   0.03024 
 C                     3.44834   0.46146   0.55739 
 H                     4.30958   1.06061   0.83348 
 C                     3.54273  -0.88559   0.47495 
 H                     4.47315  -1.39397   0.70388 
 C                     2.44901  -1.64744  -0.01963 
 C                     1.21507  -1.00573  -0.30136 
 C                     0.25311  -1.74344  -1.02166 
 H                    -0.65414  -1.25351  -1.34628 
 C                     0.44942  -3.06286  -1.34138 
 H                    -0.30832  -3.59443  -1.90541 
 C                     1.62517  -3.7208   -0.95525 
 H                     1.767    -4.76874  -1.1927 
 C                     2.61099  -3.01442  -0.31831 
 H                     3.55256  -3.49028  -0.06464 
 Bq                    0.87799  -1.88382  -0.76587 
 Bq                    0.87249  -1.83562  -0.75376 
 Bq                    0.86699  -1.78742  -0.74164 
 Bq                    0.86148  -1.73923  -0.72953 
 Bq                    0.85598  -1.69103  -0.71741 
 Bq                    0.85048  -1.64283  -0.70529 
 Bq                    0.84497  -1.59464  -0.69318 
 Bq                    0.83947  -1.54644  -0.68106 
 Bq                    0.83397  -1.49824  -0.66894 
 Bq                    0.82846  -1.45005  -0.65683 
 Bq                    0.82296  -1.40185  -0.64471 
 Bq                    0.81746  -1.35366  -0.63259 
 Bq                    0.81195  -1.30546  -0.62048 
 Bq                    0.80645  -1.25726  -0.60836 
 Bq                    0.80095  -1.20907  -0.59624 
 Bq                    0.79544  -1.16087  -0.58413 
 Bq                    0.78994  -1.11267  -0.57201 
 Bq                    0.78444  -1.06448  -0.55989 
 Bq                    0.77893  -1.01628  -0.54778 
 Bq                    0.77343  -0.96808  -0.53566 
 Bq                    0.76793  -0.91989  -0.52354 
 Bq                    0.76243  -0.87169  -0.51143 
 Bq                    0.75692  -0.82349  -0.49931 
 Bq                    0.75142  -0.7753   -0.48719 
 Bq                    0.74592  -0.7271   -0.47508 
 Bq                    0.74041  -0.6789   -0.46296 
 Bq                    0.73491  -0.63071  -0.45084 
 Bq                    0.72941  -0.58251  -0.43873 
 Bq                    0.7239   -0.53431  -0.42661 
 Bq                    0.7184   -0.48612  -0.41449 
 Bq                    0.7129   -0.43792  -0.40238 
 Bq                    0.70739  -0.38973  -0.39026 
 Bq                    0.70189  -0.34153  -0.37814 
 Bq                    0.69639  -0.29333  -0.36603 
 Bq                    0.69088  -0.24514  -0.35391 
 Bq                    0.68538  -0.19694  -0.34179 
 Bq                    0.67988  -0.14874  -0.32968 
 Bq                    0.67437  -0.10055  -0.31756 
 Bq                    0.66887  -0.05235  -0.30544 
 Bq                    0.66337  -0.00415  -0.29333 
 Bq                    0.65786   0.04404  -0.28121 
 Bq                    1.25371  -4.77561  -1.4722 
 Bq                    1.24821  -4.72741  -1.46008 
 Bq                    1.24271  -4.67921  -1.44796 
 Bq                    1.2372   -4.63102  -1.43585 
 Bq                    1.2317   -4.58282  -1.42373 
 Bq                    1.2262   -4.53462  -1.41161 
 Bq                    1.22069  -4.48643  -1.3995 
 Bq                    1.21519  -4.43823  -1.38738 
 Bq                    1.20969  -4.39003  -1.37526 
 Bq                    1.20418  -4.34184  -1.36315 
 Bq                    1.19868  -4.29364  -1.35103 
 Bq                    1.19318  -4.24544  -1.33891 
 Bq                    1.18767  -4.19725  -1.3268 
 Bq                    1.18217  -4.14905  -1.31468 
 Bq                    1.17667  -4.10086  -1.30256 
 Bq                    1.17116  -4.05266  -1.29045 
 Bq                    1.16566  -4.00446  -1.27833 
 Bq                    1.16016  -3.95627  -1.26621 
 Bq                    1.15465  -3.90807  -1.2541 
 Bq                    1.14915  -3.85987  -1.24198 
 Bq                    1.14365  -3.81168  -1.22986 
 Bq                    1.13814  -3.76348  -1.21775 
 Bq                    1.13264  -3.71528  -1.20563 
 Bq                    1.12714  -3.66709  -1.19351 
 Bq                    1.12163  -3.61889  -1.1814 
 Bq                    1.11613  -3.57069  -1.16928 
 Bq                    1.11063  -3.5225   -1.15716 
 Bq                    1.10512  -3.4743   -1.14505 
 Bq                    1.09962  -3.4261   -1.13293 
 Bq                    1.09412  -3.37791  -1.12081 
 Bq                    1.08861  -3.32971  -1.1087 
 Bq                    1.08311  -3.28151  -1.09658 
 Bq                    1.07761  -3.23332  -1.08446 
 Bq                    1.0721   -3.18512  -1.07235 
 Bq                    1.0666   -3.13693  -1.06023 
 Bq                    1.0611   -3.08873  -1.04811 
 Bq                    1.0556   -3.04053  -1.036 
 Bq                    1.05009  -2.99234  -1.02388 
 Bq                    1.04459  -2.94414  -1.01176 
 Bq                    1.03909  -2.89594  -0.99965 
 Bq                    1.03358  -2.84775  -0.98753 
 Bq                    1.02808  -2.79955  -0.97541 
 Bq                    1.02258  -2.75135  -0.9633 
 Bq                    1.01707  -2.70316  -0.95118 
 Bq                    1.01157  -2.65496  -0.93906 
 Bq                    1.00607  -2.60676  -0.92695 
 Bq                    1.00056  -2.55857  -0.91483 
 Bq                    0.99506  -2.51037  -0.90271 
 Bq                    0.98956  -2.46217  -0.8906 
 Bq                    0.98405  -2.41398  -0.87848 
 Bq                    0.97855  -2.36578  -0.86636 
 Bq                    0.97305  -2.31758  -0.85425 
 Bq                    0.96754  -2.26939  -0.84213 
 Bq                    0.96204  -2.22119  -0.83001 
 Bq                    0.95654  -2.173    -0.8179 
 Bq                    0.95103  -2.1248   -0.80578 
 Bq                    0.94553  -2.0766   -0.79366 
 Bq                    0.94003  -2.02841  -0.78155 
 Bq                    0.93452  -1.98021  -0.76943 
 Bq                    0.92902  -1.93201  -0.75731 
 Bq                    0.92352  -1.88382  -0.7452 
 Bq                    0.91801  -1.83562  -0.73308 
 Bq                    0.91251  -1.78742  -0.72096 
 Bq                    0.90701  -1.73923  -0.70885 
 Bq                    0.9015   -1.69103  -0.69673 
 Bq                    0.896    -1.64283  -0.68462 
 Bq                    0.8905   -1.59464  -0.6725 
 Bq                    0.88499  -1.54644  -0.66038 
 Bq                    0.87949  -1.49824  -0.64827 
 Bq                    0.87399  -1.45005  -0.63615 
 Bq                    0.86849  -1.40185  -0.62403 
 Bq                    0.86298  -1.35366  -0.61192 
 Bq                    0.85748  -1.30546  -0.5998 
 Bq                    0.85198  -1.25726  -0.58768 
 Bq                    0.84647  -1.20907  -0.57557 
 Bq                    0.84097  -1.16087  -0.56345 
 Bq                    0.83547  -1.11267  -0.55133 
 Bq                    0.82996  -1.06448  -0.53922 
 Bq                    0.82446  -1.01628  -0.5271 
 Bq                    0.81896  -0.96808  -0.51498 
 Bq                    0.81345  -0.91989  -0.50287 
 Bq                    0.80795  -0.87169  -0.49075 
 Bq                    0.80245  -0.82349  -0.47863 
 Bq                    0.79694  -0.7753   -0.46652 
 Bq                    0.79144  -0.7271   -0.4544 
 Bq                    0.78594  -0.6789   -0.44228 
 Bq                    0.78043  -0.63071  -0.43017 
 Bq                    0.77493  -0.58251  -0.41805 
 Bq                    0.76943  -0.53431  -0.40593 
 Bq                    0.76392  -0.48612  -0.39382 
 Bq                    0.75842  -0.43792  -0.3817 
 Bq                    0.75292  -0.38973  -0.36958 
 Bq                    0.74741  -0.34153  -0.35747 
 Bq                    0.74191  -0.29333  -0.34535 
 Bq                    0.73641  -0.24514  -0.33323 
 Bq                    0.7309   -0.19694  -0.32112 
 Bq                    0.7254   -0.14874  -0.309 
 Bq                    0.7199   -0.10055  -0.29688 
 Bq                    0.71439  -0.05235  -0.28477 
 Bq                    0.70889  -0.00415  -0.27265 
 Bq                    0.70339   0.04404  -0.26053 
 Bq                    1.29924  -4.77561  -1.45152 
 Bq                    1.29373  -4.72741  -1.4394 
 Bq                    1.28823  -4.67921  -1.42729 
 Bq                    1.28273  -4.63102  -1.41517 
 Bq                    1.27722  -4.58282  -1.40305 
 Bq                    1.27172  -4.53462  -1.39094 
 Bq                    1.26622  -4.48643  -1.37882 
 Bq                    1.26071  -4.43823  -1.3667 
 Bq                    1.25521  -4.39003  -1.35459 
 Bq                    1.24971  -4.34184  -1.34247 
 Bq                    1.2442   -4.29364  -1.33035 
 Bq                    1.2387   -4.24544  -1.31824 
 Bq                    1.2332   -4.19725  -1.30612 
 Bq                    1.22769  -4.14905  -1.294 
 Bq                    1.22219  -4.10086  -1.28189 
 Bq                    1.21669  -4.05266  -1.26977 
 Bq                    1.21118  -4.00446  -1.25765 
 Bq                    1.20568  -3.95627  -1.24554 
 Bq                    1.20018  -3.90807  -1.23342 
 Bq                    1.19467  -3.85987  -1.2213 
 Bq                    1.18917  -3.81168  -1.20919 
 Bq                    1.18367  -3.76348  -1.19707 
 Bq                    1.17817  -3.71528  -1.18495 
 Bq                    1.17266  -3.66709  -1.17284 
 Bq                    1.16716  -3.61889  -1.16072 
 Bq                    1.16166  -3.57069  -1.1486 
 Bq                    1.15615  -3.5225   -1.13649 
 Bq                    1.15065  -3.4743   -1.12437 
 Bq                    1.14515  -3.4261   -1.11225 
 Bq                    1.13964  -3.37791  -1.10014 
 Bq                    1.13414  -3.32971  -1.08802 
 Bq                    1.12864  -3.28151  -1.0759 
 Bq                    1.12313  -3.23332  -1.06379 
 Bq                    1.11763  -3.18512  -1.05167 
 Bq                    1.11213  -3.13693  -1.03955 
 Bq                    1.10662  -3.08873  -1.02744 
 Bq                    1.10112  -3.04053  -1.01532 
 Bq                    1.09562  -2.99234  -1.0032 
 Bq                    1.09011  -2.94414  -0.99109 
 Bq                    1.08461  -2.89594  -0.97897 
 Bq                    1.07911  -2.84775  -0.96685 
 Bq                    1.0736   -2.79955  -0.95474 
 Bq                    1.0681   -2.75135  -0.94262 
 Bq                    1.0626   -2.70316  -0.9305 
 Bq                    1.05709  -2.65496  -0.91839 
 Bq                    1.05159  -2.60676  -0.90627 
 Bq                    1.04609  -2.55857  -0.89415 
 Bq                    1.04058  -2.51037  -0.88204 
 Bq                    1.03508  -2.46217  -0.86992 
 Bq                    1.02958  -2.41398  -0.8578 
 Bq                    1.02407  -2.36578  -0.84569 
 Bq                    1.01857  -2.31758  -0.83357 
 Bq                    1.01307  -2.26939  -0.82145 
 Bq                    1.00756  -2.22119  -0.80934 
 Bq                    1.00206  -2.173    -0.79722 
 Bq                    0.99656  -2.1248   -0.7851 
 Bq                    0.99105  -2.0766   -0.77299 
 Bq                    0.98555  -2.02841  -0.76087 
 
 Symmetry turned off:
 Cannot cope with ghost atoms or with translation vectors.
 Stoichiometry    C22H14
 Framework group  C1[X(C22H14)]
 NUMDOF-- NAT=    36 NAtoms=   236
 Deg. of freedom     0
 Full point group                 C1      NOp   1
                          Input orientation:                          
 ---------------------------------------------------------------------
 Center     Atomic      Atomic             Coordinates (Angstroms)
 Number     Number       Type             X           Y           Z
 ---------------------------------------------------------------------
      1          6           0       -4.050056   -0.577186    0.813671
      2          1           0       -5.026380   -1.008273    1.002476
      3          6           0       -3.938155    0.661780    0.240088
      4          1           0       -4.825242    1.233889   -0.011130
      5          6           0       -2.676841    1.243325    0.005758
      6          6           0       -1.497412    0.505153    0.284825
      7          6           0       -1.650833   -0.733873    0.940403
      8          1           0       -0.771365   -1.273097    1.263375
      9          6           0       -2.889855   -1.262404    1.199431
     10          1           0       -2.968371   -2.212456    1.715268
     11          6           0       -2.577319    2.596370   -0.419293
     12          1           0       -3.487073    3.141224   -0.647406
     13          6           0       -1.374190    3.214790   -0.436403
     14          1           0       -1.299732    4.274202   -0.657814
     15          6           0       -0.171949    2.499409   -0.173459
     16          6           0       -0.204392    1.101844    0.019269
     17          6           0        1.051349    3.204256   -0.067622
     18          1           0        1.042734    4.281950   -0.189700
     19          6           0        2.194209    2.548745    0.257958
     20          1           0        3.116853    3.091285    0.433473
     21          6           0        2.221647    1.133656    0.293499
     22          6           0        1.048693    0.394553    0.030241
     23          6           0        3.448336    0.461463    0.557394
     24          1           0        4.309579    1.060605    0.833485
     25          6           0        3.542735   -0.885593    0.474946
     26          1           0        4.473147   -1.393970    0.703882
     27          6           0        2.449005   -1.647445   -0.019632
     28          6           0        1.215070   -1.005726   -0.301357
     29          6           0        0.253111   -1.743444   -1.021659
     30          1           0       -0.654136   -1.253505   -1.346285
     31          6           0        0.449419   -3.062860   -1.341378
     32          1           0       -0.308316   -3.594431   -1.905406
     33          6           0        1.625173   -3.720797   -0.955254
     34          1           0        1.767005   -4.768740   -1.192702
     35          6           0        2.610987   -3.014418   -0.318305
     36          1           0        3.552561   -3.490281   -0.064637
     37          0           0        0.877993   -1.883817   -0.765875
     38          0           0        0.872490   -1.835620   -0.753758
     39          0           0        0.866987   -1.787424   -0.741642
     40          0           0        0.861483   -1.739227   -0.729525
     41          0           0        0.855980   -1.691031   -0.717408
     42          0           0        0.850477   -1.642834   -0.705292
     43          0           0        0.844974   -1.594638   -0.693175
     44          0           0        0.839471   -1.546441   -0.681059
     45          0           0        0.833967   -1.498245   -0.668942
     46          0           0        0.828464   -1.450048   -0.656825
     47          0           0        0.822961   -1.401852   -0.644709
     48          0           0        0.817458   -1.353655   -0.632592
     49          0           0        0.811954   -1.305459   -0.620475
     50          0           0        0.806451   -1.257262   -0.608359
     51          0           0        0.800948   -1.209066   -0.596242
     52          0           0        0.795445   -1.160869   -0.584126
     53          0           0        0.789941   -1.112673   -0.572009
     54          0           0        0.784438   -1.064476   -0.559892
     55          0           0        0.778935   -1.016280   -0.547776
     56          0           0        0.773432   -0.968083   -0.535659
     57          0           0        0.767928   -0.919887   -0.523542
     58          0           0        0.762425   -0.871690   -0.511426
     59          0           0        0.756922   -0.823494   -0.499309
     60          0           0        0.751419   -0.775297   -0.487193
     61          0           0        0.745915   -0.727101   -0.475076
     62          0           0        0.740412   -0.678904   -0.462959
     63          0           0        0.734909   -0.630708   -0.450843
     64          0           0        0.729406   -0.582511   -0.438726
     65          0           0        0.723903   -0.534315   -0.426609
     66          0           0        0.718399   -0.486118   -0.414493
     67          0           0        0.712896   -0.437922   -0.402376
     68          0           0        0.707393   -0.389725   -0.390260
     69          0           0        0.701890   -0.341529   -0.378143
     70          0           0        0.696386   -0.293332   -0.366026
     71          0           0        0.690883   -0.245136   -0.353910
     72          0           0        0.685380   -0.196939   -0.341793
     73          0           0        0.679877   -0.148743   -0.329676
     74          0           0        0.674373   -0.100546   -0.317560
     75          0           0        0.668870   -0.052350   -0.305443
     76          0           0        0.663367   -0.004153   -0.293327
     77          0           0        0.657864    0.044043   -0.281210
     78          0           0        1.253712   -4.775606   -1.472196
     79          0           0        1.248209   -4.727410   -1.460079
     80          0           0        1.242705   -4.679213   -1.447962
     81          0           0        1.237202   -4.631017   -1.435846
     82          0           0        1.231699   -4.582820   -1.423729
     83          0           0        1.226196   -4.534624   -1.411613
     84          0           0        1.220692   -4.486427   -1.399496
     85          0           0        1.215189   -4.438231   -1.387379
     86          0           0        1.209686   -4.390034   -1.375263
     87          0           0        1.204183   -4.341838   -1.363146
     88          0           0        1.198679   -4.293641   -1.351029
     89          0           0        1.193176   -4.245445   -1.338913
     90          0           0        1.187673   -4.197248   -1.326796
     91          0           0        1.182170   -4.149052   -1.314680
     92          0           0        1.176666   -4.100855   -1.302563
     93          0           0        1.171163   -4.052659   -1.290446
     94          0           0        1.165660   -4.004462   -1.278330
     95          0           0        1.160157   -3.956266   -1.266213
     96          0           0        1.154654   -3.908069   -1.254096
     97          0           0        1.149150   -3.859873   -1.241980
     98          0           0        1.143647   -3.811676   -1.229863
     99          0           0        1.138144   -3.763480   -1.217747
    100          0           0        1.132641   -3.715283   -1.205630
    101          0           0        1.127137   -3.667087   -1.193513
    102          0           0        1.121634   -3.618890   -1.181397
    103          0           0        1.116131   -3.570694   -1.169280
    104          0           0        1.110628   -3.522497   -1.157163
    105          0           0        1.105124   -3.474301   -1.145047
    106          0           0        1.099621   -3.426104   -1.132930
    107          0           0        1.094118   -3.377908   -1.120814
    108          0           0        1.088615   -3.329711   -1.108697
    109          0           0        1.083111   -3.281515   -1.096580
    110          0           0        1.077608   -3.233318   -1.084464
    111          0           0        1.072105   -3.185122   -1.072347
    112          0           0        1.066602   -3.136925   -1.060230
    113          0           0        1.061099   -3.088729   -1.048114
    114          0           0        1.055595   -3.040532   -1.035997
    115          0           0        1.050092   -2.992336   -1.023881
    116          0           0        1.044589   -2.944139   -1.011764
    117          0           0        1.039086   -2.895943   -0.999647
    118          0           0        1.033582   -2.847746   -0.987531
    119          0           0        1.028079   -2.799550   -0.975414
    120          0           0        1.022576   -2.751353   -0.963297
    121          0           0        1.017073   -2.703157   -0.951181
    122          0           0        1.011569   -2.654960   -0.939064
    123          0           0        1.006066   -2.606764   -0.926948
    124          0           0        1.000563   -2.558567   -0.914831
    125          0           0        0.995060   -2.510371   -0.902714
    126          0           0        0.989556   -2.462174   -0.890598
    127          0           0        0.984053   -2.413978   -0.878481
    128          0           0        0.978550   -2.365781   -0.866364
    129          0           0        0.973047   -2.317585   -0.854248
    130          0           0        0.967543   -2.269388   -0.842131
    131          0           0        0.962040   -2.221192   -0.830015
    132          0           0        0.956537   -2.172995   -0.817898
    133          0           0        0.951034   -2.124799   -0.805781
    134          0           0        0.945531   -2.076602   -0.793665
    135          0           0        0.940027   -2.028406   -0.781548
    136          0           0        0.934524   -1.980210   -0.769431
    137          0           0        0.929021   -1.932013   -0.757315
    138          0           0        0.923518   -1.883817   -0.745198
    139          0           0        0.918014   -1.835620   -0.733082
    140          0           0        0.912511   -1.787424   -0.720965
    141          0           0        0.907008   -1.739227   -0.708848
    142          0           0        0.901505   -1.691031   -0.696732
    143          0           0        0.896001   -1.642834   -0.684615
    144          0           0        0.890498   -1.594638   -0.672498
    145          0           0        0.884995   -1.546441   -0.660382
    146          0           0        0.879492   -1.498245   -0.648265
    147          0           0        0.873988   -1.450048   -0.636149
    148          0           0        0.868485   -1.401852   -0.624032
    149          0           0        0.862982   -1.353655   -0.611915
    150          0           0        0.857479   -1.305459   -0.599799
    151          0           0        0.851976   -1.257262   -0.587682
    152          0           0        0.846472   -1.209066   -0.575565
    153          0           0        0.840969   -1.160869   -0.563449
    154          0           0        0.835466   -1.112673   -0.551332
    155          0           0        0.829963   -1.064476   -0.539216
    156          0           0        0.824459   -1.016280   -0.527099
    157          0           0        0.818956   -0.968083   -0.514982
    158          0           0        0.813453   -0.919887   -0.502866
    159          0           0        0.807950   -0.871690   -0.490749
    160          0           0        0.802446   -0.823494   -0.478632
    161          0           0        0.796943   -0.775297   -0.466516
    162          0           0        0.791440   -0.727101   -0.454399
    163          0           0        0.785937   -0.678904   -0.442283
    164          0           0        0.780433   -0.630708   -0.430166
    165          0           0        0.774930   -0.582511   -0.418049
    166          0           0        0.769427   -0.534315   -0.405933
    167          0           0        0.763924   -0.486118   -0.393816
    168          0           0        0.758420   -0.437922   -0.381699
    169          0           0        0.752917   -0.389725   -0.369583
    170          0           0        0.747414   -0.341529   -0.357466
    171          0           0        0.741911   -0.293332   -0.345350
    172          0           0        0.736408   -0.245136   -0.333233
    173          0           0        0.730904   -0.196939   -0.321116
    174          0           0        0.725401   -0.148743   -0.309000
    175          0           0        0.719898   -0.100546   -0.296883
    176          0           0        0.714395   -0.052350   -0.284766
    177          0           0        0.708891   -0.004153   -0.272650
    178          0           0        0.703388    0.044043   -0.260533
    179          0           0        1.299236   -4.775606   -1.451519
    180          0           0        1.293733   -4.727410   -1.439402
    181          0           0        1.288230   -4.679213   -1.427286
    182          0           0        1.282727   -4.631017   -1.415169
    183          0           0        1.277223   -4.582820   -1.403053
    184          0           0        1.271720   -4.534624   -1.390936
    185          0           0        1.266217   -4.486427   -1.378819
    186          0           0        1.260714   -4.438231   -1.366703
    187          0           0        1.255210   -4.390034   -1.354586
    188          0           0        1.249707   -4.341838   -1.342469
    189          0           0        1.244204   -4.293641   -1.330353
    190          0           0        1.238701   -4.245445   -1.318236
    191          0           0        1.233197   -4.197248   -1.306120
    192          0           0        1.227694   -4.149052   -1.294003
    193          0           0        1.222191   -4.100855   -1.281886
    194          0           0        1.216688   -4.052659   -1.269770
    195          0           0        1.211184   -4.004462   -1.257653
    196          0           0        1.205681   -3.956266   -1.245536
    197          0           0        1.200178   -3.908069   -1.233420
    198          0           0        1.194675   -3.859873   -1.221303
    199          0           0        1.189172   -3.811676   -1.209187
    200          0           0        1.183668   -3.763480   -1.197070
    201          0           0        1.178165   -3.715283   -1.184953
    202          0           0        1.172662   -3.667087   -1.172837
    203          0           0        1.167159   -3.618890   -1.160720
    204          0           0        1.161655   -3.570694   -1.148603
    205          0           0        1.156152   -3.522497   -1.136487
    206          0           0        1.150649   -3.474301   -1.124370
    207          0           0        1.145146   -3.426104   -1.112254
    208          0           0        1.139642   -3.377908   -1.100137
    209          0           0        1.134139   -3.329711   -1.088020
    210          0           0        1.128636   -3.281515   -1.075904
    211          0           0        1.123133   -3.233318   -1.063787
    212          0           0        1.117629   -3.185122   -1.051670
    213          0           0        1.112126   -3.136925   -1.039554
    214          0           0        1.106623   -3.088729   -1.027437
    215          0           0        1.101120   -3.040532   -1.015321
    216          0           0        1.095616   -2.992336   -1.003204
    217          0           0        1.090113   -2.944139   -0.991087
    218          0           0        1.084610   -2.895943   -0.978971
    219          0           0        1.079107   -2.847746   -0.966854
    220          0           0        1.073604   -2.799550   -0.954737
    221          0           0        1.068100   -2.751353   -0.942621
    222          0           0        1.062597   -2.703157   -0.930504
    223          0           0        1.057094   -2.654960   -0.918388
    224          0           0        1.051591   -2.606764   -0.906271
    225          0           0        1.046087   -2.558567   -0.894154
    226          0           0        1.040584   -2.510371   -0.882038
    227          0           0        1.035081   -2.462174   -0.869921
    228          0           0        1.029578   -2.413978   -0.857804
    229          0           0        1.024074   -2.365781   -0.845688
    230          0           0        1.018571   -2.317585   -0.833571
    231          0           0        1.013068   -2.269388   -0.821455
    232          0           0        1.007565   -2.221192   -0.809338
    233          0           0        1.002061   -2.172995   -0.797221
    234          0           0        0.996558   -2.124799   -0.785105
    235          0           0        0.991055   -2.076602   -0.772988
    236          0           0        0.985552   -2.028406   -0.760871
 ---------------------------------------------------------------------
 Rotational constants (GHZ):      0.4529074      0.2836956      0.1879557
 Standard basis: 6-311+G(d,p) (5D, 7F)
 Warning:  center  37 has no basis functions!
 Warning:  center  38 has no basis functions!
 Warning:  center  39 has no basis functions!
 Warning:  center  40 has no basis functions!
 Warning:  center  41 has no basis functions!
 Warning:  center  42 has no basis functions!
 Warning:  center  43 has no basis functions!
 Warning:  center  44 has no basis functions!
 Warning:  center  45 has no basis functions!
 Warning:  center  46 has no basis functions!
 Warning:  center  47 has no basis functions!
 Warning:  center  48 has no basis functions!
 Warning:  center  49 has no basis functions!
 Warning:  center  50 has no basis functions!
 Warning:  center  51 has no basis functions!
 Warning:  center  52 has no basis functions!
 Warning:  center  53 has no basis functions!
 Warning:  center  54 has no basis functions!
 Warning:  center  55 has no basis functions!
 Warning:  center  56 has no basis functions!
 Warning:  center  57 has no basis functions!
 Warning:  center  58 has no basis functions!
 Warning:  center  59 has no basis functions!
 Warning:  center  60 has no basis functions!
 Warning:  center  61 has no basis functions!
 Warning:  center  62 has no basis functions!
 Warning:  center  63 has no basis functions!
 Warning:  center  64 has no basis functions!
 Warning:  center  65 has no basis functions!
 Warning:  center  66 has no basis functions!
 Warning:  center  67 has no basis functions!
 Warning:  center  68 has no basis functions!
 Warning:  center  69 has no basis functions!
 Warning:  center  70 has no basis functions!
 Warning:  center  71 has no basis functions!
 Warning:  center  72 has no basis functions!
 Warning:  center  73 has no basis functions!
 Warning:  center  74 has no basis functions!
 Warning:  center  75 has no basis functions!
 Warning:  center  76 has no basis functions!
 Warning:  center  77 has no basis functions!
 Warning:  center  78 has no basis functions!
 Warning:  center  79 has no basis functions!
 Warning:  center  80 has no basis functions!
 Warning:  center  81 has no basis functions!
 Warning:  center  82 has no basis functions!
 Warning:  center  83 has no basis functions!
 Warning:  center  84 has no basis functions!
 Warning:  center  85 has no basis functions!
 Warning:  center  86 has no basis functions!
 Warning:  center  87 has no basis functions!
 Warning:  center  88 has no basis functions!
 Warning:  center  89 has no basis functions!
 Warning:  center  90 has no basis functions!
 Warning:  center  91 has no basis functions!
 Warning:  center  92 has no basis functions!
 Warning:  center  93 has no basis functions!
 Warning:  center  94 has no basis functions!
 Warning:  center  95 has no basis functions!
 Warning:  center  96 has no basis functions!
 Warning:  center  97 has no basis functions!
 Warning:  center  98 has no basis functions!
 Warning:  center  99 has no basis functions!
 Warning:  center 100 has no basis functions!
 Warning:  center 101 has no basis functions!
 Warning:  center 102 has no basis functions!
 Warning:  center 103 has no basis functions!
 Warning:  center 104 has no basis functions!
 Warning:  center 105 has no basis functions!
 Warning:  center 106 has no basis functions!
 Warning:  center 107 has no basis functions!
 Warning:  center 108 has no basis functions!
 Warning:  center 109 has no basis functions!
 Warning:  center 110 has no basis functions!
 Warning:  center 111 has no basis functions!
 Warning:  center 112 has no basis functions!
 Warning:  center 113 has no basis functions!
 Warning:  center 114 has no basis functions!
 Warning:  center 115 has no basis functions!
 Warning:  center 116 has no basis functions!
 Warning:  center 117 has no basis functions!
 Warning:  center 118 has no basis functions!
 Warning:  center 119 has no basis functions!
 Warning:  center 120 has no basis functions!
 Warning:  center 121 has no basis functions!
 Warning:  center 122 has no basis functions!
 Warning:  center 123 has no basis functions!
 Warning:  center 124 has no basis functions!
 Warning:  center 125 has no basis functions!
 Warning:  center 126 has no basis functions!
 Warning:  center 127 has no basis functions!
 Warning:  center 128 has no basis functions!
 Warning:  center 129 has no basis functions!
 Warning:  center 130 has no basis functions!
 Warning:  center 131 has no basis functions!
 Warning:  center 132 has no basis functions!
 Warning:  center 133 has no basis functions!
 Warning:  center 134 has no basis functions!
 Warning:  center 135 has no basis functions!
 Warning:  center 136 has no basis functions!
 Warning:  center 137 has no basis functions!
 Warning:  center 138 has no basis functions!
 Warning:  center 139 has no basis functions!
 Warning:  center 140 has no basis functions!
 Warning:  center 141 has no basis functions!
 Warning:  center 142 has no basis functions!
 Warning:  center 143 has no basis functions!
 Warning:  center 144 has no basis functions!
 Warning:  center 145 has no basis functions!
 Warning:  center 146 has no basis functions!
 Warning:  center 147 has no basis functions!
 Warning:  center 148 has no basis functions!
 Warning:  center 149 has no basis functions!
 Warning:  center 150 has no basis functions!
 Warning:  center 151 has no basis functions!
 Warning:  center 152 has no basis functions!
 Warning:  center 153 has no basis functions!
 Warning:  center 154 has no basis functions!
 Warning:  center 155 has no basis functions!
 Warning:  center 156 has no basis functions!
 Warning:  center 157 has no basis functions!
 Warning:  center 158 has no basis functions!
 Warning:  center 159 has no basis functions!
 Warning:  center 160 has no basis functions!
 Warning:  center 161 has no basis functions!
 Warning:  center 162 has no basis functions!
 Warning:  center 163 has no basis functions!
 Warning:  center 164 has no basis functions!
 Warning:  center 165 has no basis functions!
 Warning:  center 166 has no basis functions!
 Warning:  center 167 has no basis functions!
 Warning:  center 168 has no basis functions!
 Warning:  center 169 has no basis functions!
 Warning:  center 170 has no basis functions!
 Warning:  center 171 has no basis functions!
 Warning:  center 172 has no basis functions!
 Warning:  center 173 has no basis functions!
 Warning:  center 174 has no basis functions!
 Warning:  center 175 has no basis functions!
 Warning:  center 176 has no basis functions!
 Warning:  center 177 has no basis functions!
 Warning:  center 178 has no basis functions!
 Warning:  center 179 has no basis functions!
 Warning:  center 180 has no basis functions!
 Warning:  center 181 has no basis functions!
 Warning:  center 182 has no basis functions!
 Warning:  center 183 has no basis functions!
 Warning:  center 184 has no basis functions!
 Warning:  center 185 has no basis functions!
 Warning:  center 186 has no basis functions!
 Warning:  center 187 has no basis functions!
 Warning:  center 188 has no basis functions!
 Warning:  center 189 has no basis functions!
 Warning:  center 190 has no basis functions!
 Warning:  center 191 has no basis functions!
 Warning:  center 192 has no basis functions!
 Warning:  center 193 has no basis functions!
 Warning:  center 194 has no basis functions!
 Warning:  center 195 has no basis functions!
 Warning:  center 196 has no basis functions!
 Warning:  center 197 has no basis functions!
 Warning:  center 198 has no basis functions!
 Warning:  center 199 has no basis functions!
 Warning:  center 200 has no basis functions!
 Warning:  center 201 has no basis functions!
 Warning:  center 202 has no basis functions!
 Warning:  center 203 has no basis functions!
 Warning:  center 204 has no basis functions!
 Warning:  center 205 has no basis functions!
 Warning:  center 206 has no basis functions!
 Warning:  center 207 has no basis functions!
 Warning:  center 208 has no basis functions!
 Warning:  center 209 has no basis functions!
 Warning:  center 210 has no basis functions!
 Warning:  center 211 has no basis functions!
 Warning:  center 212 has no basis functions!
 Warning:  center 213 has no basis functions!
 Warning:  center 214 has no basis functions!
 Warning:  center 215 has no basis functions!
 Warning:  center 216 has no basis functions!
 Warning:  center 217 has no basis functions!
 Warning:  center 218 has no basis functions!
 Warning:  center 219 has no basis functions!
 Warning:  center 220 has no basis functions!
 Warning:  center 221 has no basis functions!
 Warning:  center 222 has no basis functions!
 Warning:  center 223 has no basis functions!
 Warning:  center 224 has no basis functions!
 Warning:  center 225 has no basis functions!
 Warning:  center 226 has no basis functions!
 Warning:  center 227 has no basis functions!
 Warning:  center 228 has no basis functions!
 Warning:  center 229 has no basis functions!
 Warning:  center 230 has no basis functions!
 Warning:  center 231 has no basis functions!
 Warning:  center 232 has no basis functions!
 Warning:  center 233 has no basis functions!
 Warning:  center 234 has no basis functions!
 Warning:  center 235 has no basis functions!
 Warning:  center 236 has no basis functions!
   568 basis functions,   904 primitive gaussians,   590 cartesian basis functions
    73 alpha electrons       73 beta electrons
       nuclear repulsion energy      1610.9176155625 Hartrees.
 NAtoms=  236 NActive=  236 NUniq=  236 SFac= 1.00D+00 NAtFMM=   60 NAOKFM=T Big=T
 Integral buffers will be    131072 words long.
 Raffenetti 2 integral format.
 Two-electron integral symmetry is turned off.
 One-electron integrals computed using PRISM.
 NBasis=   568 RedAO= T EigKep=  1.78D-06  NBF=   568
 NBsUse=   556 1.00D-06 EigRej=  9.09D-07 NBFU=   556
 ExpMin= 4.38D-02 ExpMax= 4.56D+03 ExpMxC= 6.82D+02 IAcc=2 IRadAn=         4 AccDes= 0.00D+00
 Harris functional with IExCor=  402 and IRadAn=       4 diagonalized for initial guess.
 HarFok:  IExCor=  402 AccDes= 0.00D+00 IRadAn=         4 IDoV= 1 UseB2=F ITyADJ=14
 ICtDFT=  3500011 ScaDFX=  1.000000  1.000000  1.000000  1.000000
 FoFCou: FMM=F IPFlag=           0 FMFlag=      100000 FMFlg1=        2001
         NFxFlg=           0 DoJE=T BraDBF=F KetDBF=T FulRan=T
         wScrn=  0.000000 ICntrl=     500 IOpCl=  0 I1Cent=   200000004 NGrid=           0
         NMat0=    1 NMatS0=      1 NMatT0=    0 NMatD0=    1 NMtDS0=    0 NMtDT0=    0
 Symmetry not used in FoFCou.
 Requested convergence on RMS density matrix=1.00D-08 within 128 cycles.
 Requested convergence on MAX density matrix=1.00D-06.
 Requested convergence on             energy=1.00D-06.
 No special actions if energy rises.
 SCF Done:  E(RB3LYP) =  -847.003289847     A.U. after   15 cycles
            NFock= 15  Conv=0.76D-08     -V/T= 2.0040
 DoSCS=F DFT=T ScalE2(SS,OS)=  1.000000  1.000000
 Range of M.O.s used for correlation:     1   556
 NBasis=   568 NAE=    73 NBE=    73 NFC=     0 NFV=     0
 NROrb=    556 NOA=    73 NOB=    73 NVA=   483 NVB=   483

 **** Warning!!: The largest alpha MO coefficient is  0.10971037D+03

          Differentiating once with respect to magnetic field using GIAOs.
          Electric field/nuclear overlap derivatives assumed to be zero.
 FoFCou: FMM=F IPFlag=           0 FMFlag=      100000 FMFlg1=        2001
         NFxFlg=           0 DoJE=F BraDBF=F KetDBF=T FulRan=T
         wScrn=  0.000000 ICntrl=    6100 IOpCl=  0 I1Cent=           7 NGrid=         236
         NMat0=    1 NMatS0=      1 NMatT0=    0 NMatD0=    1 NMtDS0=    0 NMtDT0=    0
 Symmetry not used in FoFCou.
 FoFJK:  IHMeth= 1 ICntrl=    6127 DoSepK=F KAlg= 0 I1Cent=   0 FoldK=F
 IRaf=         1 NMat=   1 IRICut=       1 DoRegI=T DoRafI=F ISym2E= 0.
          There are     3 degrees of freedom in the 1st order CPHF.  IDoFFX=0 NUNeed=     3.
      3 vectors produced by pass  0 Test12= 1.18D-12 3.33D-08 XBig12= 2.07D+03 9.18D+00.
 AX will form     3 AO Fock derivatives at one time.
      3 vectors produced by pass  1 Test12= 1.18D-12 3.33D-08 XBig12= 3.56D+00 8.03D-01.
      3 vectors produced by pass  2 Test12= 1.18D-12 3.33D-08 XBig12= 2.10D-02 6.92D-02.
      3 vectors produced by pass  3 Test12= 1.18D-12 3.33D-08 XBig12= 5.45D-05 1.89D-03.
      3 vectors produced by pass  4 Test12= 1.18D-12 3.33D-08 XBig12= 1.20D-07 7.79D-05.
      3 vectors produced by pass  5 Test12= 1.18D-12 3.33D-08 XBig12= 4.02D-10 4.73D-06.
      3 vectors produced by pass  6 Test12= 1.18D-12 3.33D-08 XBig12= 1.32D-12 2.61D-07.
 InvSVY:  IOpt=1 It=  1 EMax= 1.42D-14
 Solved reduced A of dimension    21 with     3 vectors.
 Calculating GIAO nuclear magnetic shielding tensors.
 SCF GIAO Magnetic shielding tensor (ppm):
      1  C    Isotropic =    53.8139   Anisotropy =   178.0260
   XX=   -41.4327   YX=   -32.3458   ZX=    10.0287
   XY=   -28.3572   YY=    59.0527   ZY=    55.1899
   XZ=    13.1759   YZ=    58.7550   ZZ=   143.8218
   Eigenvalues:   -53.8775    42.8214   172.4979
      2  H    Isotropic =    24.3095   Anisotropy =     4.8536
   XX=    25.5771   YX=    -1.0289   ZX=     0.5661
   XY=    -0.7431   YY=    26.1829   ZY=    -2.3306
   XZ=    -0.1707   YZ=    -2.4411   ZZ=    21.1687
   Eigenvalues:    20.2108    25.1725    27.5453
      3  C    Isotropic =    51.4055   Anisotropy =   157.8639
   XX=   -31.5399   YX=    38.5015   ZX=   -17.9316
   XY=    34.3519   YY=    49.9437   ZY=    49.6392
   XZ=    -9.8383   YZ=    44.6006   ZZ=   135.8127
   Eigenvalues:   -50.5747    48.1432   156.6481
      4  H    Isotropic =    23.8290   Anisotropy =     7.1838
   XX=    25.3635   YX=     1.8486   ZX=    -0.3559
   XY=     1.9656   YY=    26.4581   ZY=    -2.4103
   XZ=    -1.2941   YZ=    -2.6614   ZZ=    19.6654
   Eigenvalues:    18.8176    24.0511    28.6182
      5  C    Isotropic =    46.0697   Anisotropy =   207.6751
   XX=   -19.2123   YX=    -4.8852   ZX=    -1.6475
   XY=     2.8938   YY=    -2.9860   ZY=    66.5656
   XZ=     2.5356   YZ=    67.9144   ZZ=   160.4073
   Eigenvalues:   -27.2455   -19.0652   184.5197
      6  C    Isotropic =    47.5218   Anisotropy =   196.9389
   XX=   -28.1552   YX=    -2.7889   ZX=    12.0660
   XY=   -14.3886   YY=    21.2063   ZY=    74.2521
   XZ=   -18.6356   YZ=    61.1113   ZZ=   149.5144
   Eigenvalues:   -30.2925    -5.9564   178.8144
      7  C    Isotropic =    49.3915   Anisotropy =   179.8333
   XX=   -12.5211   YX=    28.7048   ZX=   -24.6745
   XY=    31.5123   YY=    29.7000   ZY=    77.7459
   XZ=   -40.0095   YZ=    65.3072   ZZ=   130.9956
   Eigenvalues:   -52.1299    31.0240   169.2804
      8  H    Isotropic =    23.1586   Anisotropy =    13.5525
   XX=    28.5711   YX=     1.5482   ZX=    -3.6986
   XY=     3.2466   YY=    22.7592   ZY=    -2.1157
   XZ=    -8.3753   YZ=    -1.0821   ZZ=    18.1456
   Eigenvalues:    15.3521    21.9301    32.1936
      9  C    Isotropic =    55.1460   Anisotropy =   174.7426
   XX=    46.7071   YX=    -2.6162   ZX=    -2.8420
   XY=     0.6223   YY=    -1.6258   ZY=    92.8272
   XZ=     0.5159   YZ=    95.6598   ZZ=   120.3568
   Eigenvalues:   -52.8932    46.6901   171.6411
     10  H    Isotropic =    24.6278   Anisotropy =     7.1815
   XX=    29.1040   YX=     0.1399   ZX=    -0.3694
   XY=     0.3642   YY=    23.4778   ZY=    -1.0805
   XZ=    -2.4493   YZ=    -2.9465   ZZ=    21.3016
   Eigenvalues:    19.9703    24.4977    29.4155
     11  C    Isotropic =    51.5607   Anisotropy =   151.2142
   XX=     2.1639   YX=    40.9287   ZX=   -26.0048
   XY=    49.9131   YY=    12.2331   ZY=    42.1342
   XZ=   -15.6145   YZ=    38.6614   ZZ=   140.2851
   Eigenvalues:   -48.1951    50.5071   152.3701
     12  H    Isotropic =    23.8537   Anisotropy =     7.3815
   XX=    25.9672   YX=     2.3738   ZX=    -0.2390
   XY=     2.4320   YY=    26.3975   ZY=    -1.8291
   XZ=     0.3529   YZ=    -1.7731   ZZ=    19.1964
   Eigenvalues:    18.7149    24.0714    28.7747
     13  C    Isotropic =    52.8653   Anisotropy =   147.4265
   XX=    51.2944   YX=    19.9221   ZX=   -13.4678
   XY=    11.5478   YY=   -34.0176   ZY=    42.5079
   XZ=    -9.2241   YZ=    40.0716   ZZ=   141.3192
   Eigenvalues:   -46.5152    53.9616   151.1497
     14  H    Isotropic =    24.0156   Anisotropy =     7.3485
   XX=    28.6644   YX=     0.6281   ZX=     1.0808
   XY=     0.5926   YY=    24.4325   ZY=    -1.0823
   XZ=     1.6846   YZ=    -0.3842   ZZ=    18.9500
   Eigenvalues:    18.6430    24.4892    28.9146
     15  C    Isotropic =    46.2221   Anisotropy =   203.9048
   XX=   -27.2215   YX=    -0.0442   ZX=   -28.9124
   XY=     4.6427   YY=   -10.5571   ZY=    28.3830
   XZ=   -10.2704   YZ=    26.7376   ZZ=   176.4448
   Eigenvalues:   -30.5512   -12.9411   182.1586
     16  C    Isotropic =    51.9375   Anisotropy =   188.2004
   XX=   -19.4441   YX=     5.5046   ZX=    15.7858
   XY=    -8.3874   YY=     2.4863   ZY=    22.9264
   XZ=   -50.6243   YZ=    23.3340   ZZ=   172.7704
   Eigenvalues:   -21.0294    -0.5625   177.4045
     17  C    Isotropic =    51.9482   Anisotropy =   149.1264
   XX=    50.7296   YX=   -23.9353   ZX=   -18.4207
   XY=   -16.7271   YY=   -41.8764   ZY=    17.8662
   XZ=   -14.3278   YZ=    11.4871   ZZ=   146.9915
   Eigenvalues:   -46.7796    51.2584   151.3658
     18  H    Isotropic =    24.0122   Anisotropy =     7.5163
   XX=    28.5811   YX=    -0.0866   ZX=     1.5071
   XY=    -0.2466   YY=    24.3342   ZY=    -0.7657
   XZ=     2.5088   YZ=    -1.5208   ZZ=    19.1214
   Eigenvalues:    18.5094    24.5041    29.0231
     19  C    Isotropic =    51.7356   Anisotropy =   148.5924
   XX=     2.4559   YX=   -45.6913   ZX=   -31.2531
   XY=   -53.4448   YY=     7.4698   ZY=    -1.8888
   XZ=   -23.5601   YZ=    -1.2765   ZZ=   145.2810
   Eigenvalues:   -46.9894    51.3989   150.7972
     20  H    Isotropic =    23.9071   Anisotropy =     7.6651
   XX=    25.5796   YX=    -2.0226   ZX=     1.4905
   XY=    -1.9998   YY=    27.3706   ZY=    -0.5164
   XZ=     2.7276   YZ=    -1.1179   ZZ=    18.7711
   Eigenvalues:    18.1643    24.5398    29.0172
     21  C    Isotropic =    45.9767   Anisotropy =   203.9316
   XX=   -16.2108   YX=    13.1802   ZX=   -44.5913
   XY=     6.5714   YY=   -20.6329   ZY=     0.0949
   XZ=   -28.8984   YZ=   -13.0883   ZZ=   174.7736
   Eigenvalues:   -30.5796   -13.4215   181.9311
     22  C    Isotropic =    52.0450   Anisotropy =   188.1157
   XX=    -0.0787   YX=     2.5023   ZX=   -16.3451
   XY=    18.9327   YY=   -14.4798   ZY=   -34.4335
   XZ=   -50.6032   YZ=    19.9104   ZZ=   170.6934
   Eigenvalues:   -20.7705    -0.5500   177.4554
     23  C    Isotropic =    53.2392   Anisotropy =   146.7412
   XX=   -22.0674   YX=   -32.0012   ZX=   -49.4857
   XY=   -23.2043   YY=    44.3661   ZY=   -15.6400
   XZ=   -43.8090   YZ=   -20.2525   ZZ=   137.4189
   Eigenvalues:   -45.6776    54.3286   151.0667
     24  H    Isotropic =    23.8249   Anisotropy =     7.5289
   XX=    25.1073   YX=    -1.7330   ZX=     1.5380
   XY=    -1.5944   YY=    28.0047   ZY=     0.0879
   XZ=     1.2557   YZ=    -0.8283   ZZ=    18.3628
   Eigenvalues:    18.0848    24.5458    28.8442
     25  C    Isotropic =    51.4969   Anisotropy =   150.1066
   XX=   -28.4915   YX=    33.9684   ZX=   -52.3137
   XY=    22.0311   YY=    46.6072   ZY=    -3.8075
   XZ=   -44.5594   YZ=   -10.6355   ZZ=   136.3748
   Eigenvalues:   -48.3857    51.3083   151.5679
     26  H    Isotropic =    23.7431   Anisotropy =     7.4052
   XX=    24.0663   YX=     1.1141   ZX=     1.9989
   XY=     0.9693   YY=    28.1000   ZY=     1.6568
   XZ=     2.0795   YZ=     0.8886   ZZ=    19.0630
   Eigenvalues:    18.2615    24.2880    28.6799
     27  C    Isotropic =    45.8108   Anisotropy =   207.2710
   XX=    -2.7702   YX=    13.7697   ZX=   -61.4651
   XY=     6.5593   YY=   -12.0335   ZY=   -41.6456
   XZ=   -62.6381   YZ=   -44.9232   ZZ=   152.2361
   Eigenvalues:   -28.0803   -18.4787   183.9915
     28  C    Isotropic =    47.8398   Anisotropy =   197.2870
   XX=    19.6900   YX=    14.4398   ZX=   -60.5682
   XY=    28.5650   YY=   -19.3566   ZY=   -56.7015
   XZ=   -63.1331   YZ=   -24.4782   ZZ=   143.1859
   Eigenvalues:   -30.5979    -5.2472   179.3644
     29  C    Isotropic =    49.3441   Anisotropy =   179.7793
   XX=    -3.4110   YX=    38.3775   ZX=   -80.8875
   XY=    36.1252   YY=    25.9805   ZY=   -23.7573
   XZ=   -78.1065   YZ=    -3.9802   ZZ=   125.4627
   Eigenvalues:   -51.6645    30.4997   169.1970
     30  H    Isotropic =    23.1387   Anisotropy =    13.3222
   XX=    22.4354   YX=    -0.7013   ZX=    -0.2375
   XY=    -2.1539   YY=    28.3546   ZY=     4.5555
   XZ=    -3.4181   YZ=     8.3231   ZZ=    18.6259
   Eigenvalues:    15.2751    22.1208    32.0201
     31  C    Isotropic =    55.4410   Anisotropy =   174.9390
   XX=    17.1871   YX=   -14.0890   ZX=   -84.0024
   XY=   -17.9030   YY=    37.4745   ZY=   -50.3662
   XZ=   -84.6557   YZ=   -54.8325   ZZ=   111.6615
   Eigenvalues:   -51.9248    46.1808   172.0670
     32  H    Isotropic =    24.5337   Anisotropy =     7.2554
   XX=    24.6185   YX=    -2.5264   ZX=     0.7632
   XY=    -2.7385   YY=    27.4630   ZY=     1.0335
   XZ=     1.1913   YZ=     3.7573   ZZ=    21.5194
   Eigenvalues:    19.8987    24.3316    29.3706
     33  C    Isotropic =    53.1814   Anisotropy =   179.0596
   XX=    60.9231   YX=    35.2256   ZX=   -42.9515
   XY=    32.0226   YY=   -38.1801   ZY=   -45.5652
   XZ=   -44.2248   YZ=   -50.7831   ZZ=   136.8014
   Eigenvalues:   -55.1197    42.1095   172.5545
     34  H    Isotropic =    24.2825   Anisotropy =     5.1861
   XX=    26.7643   YX=    -0.0934   ZX=     2.5955
   XY=    -0.2993   YY=    24.8157   ZY=     0.8589
   XZ=     2.3715   YZ=     1.4580   ZZ=    21.2676
   Eigenvalues:    20.0339    25.0737    27.7399
     35  C    Isotropic =    51.5295   Anisotropy =   155.1748
   XX=    -0.5131   YX=    52.5760   ZX=   -52.1551
   XY=    55.6135   YY=    25.1843   ZY=   -14.2643
   XZ=   -45.7255   YZ=   -17.1625   ZZ=   129.9171
   Eigenvalues:   -48.3147    47.9237   154.9793
     36  H    Isotropic =    23.8384   Anisotropy =     7.3073
   XX=    24.2302   YX=     1.4459   ZX=     2.1759
   XY=     1.2147   YY=    27.1572   ZY=     2.0665
   XZ=     1.6853   YZ=     2.7775   ZZ=    20.1277
   Eigenvalues:    18.9464    23.8588    28.7099
     37  Bq   Isotropic =    18.2717   Anisotropy =    23.0185
   XX=     4.8379   YX=     3.2668   ZX=   -13.5382
   XY=     5.6486   YY=    23.2026   ZY=     0.9949
   XZ=   -14.3434   YZ=     5.1924   ZZ=    26.7746
   Eigenvalues:    -3.0287    24.2265    33.6173
     38  Bq   Isotropic =    19.8022   Anisotropy =    25.0785
   XX=     5.9688   YX=     1.3246   ZX=   -15.1692
   XY=     4.5459   YY=    24.7887   ZY=    -0.1190
   XZ=   -15.8003   YZ=     4.1447   ZZ=    28.6490
   Eigenvalues:    -2.3431    25.2285    36.5212
     39  Bq   Isotropic =    21.6585   Anisotropy =    27.2425
   XX=     7.8535   YX=    -0.8335   ZX=   -16.6733
   XY=     3.1389   YY=    26.2763   ZY=    -1.5538
   XZ=   -17.2019   YZ=     2.8546   ZZ=    30.8457
   Eigenvalues:    -1.1846    26.3399    39.8202
     40  Bq   Isotropic =    23.7735   Anisotropy =    29.4557
   XX=    10.4218   YX=    -3.0813   ZX=   -17.9917
   XY=     1.4938   YY=    27.6033   ZY=    -3.2666
   XZ=   -18.5142   YZ=     1.3911   ZZ=    33.2955
   Eigenvalues:     0.2704    27.6395    43.4107
     41  Bq   Isotropic =    26.0438   Anisotropy =    31.6562
   XX=    13.5199   YX=    -5.2927   ZX=   -19.0900
   XY=    -0.3068   YY=    28.7227   ZY=    -5.1901
   XZ=   -19.7193   YZ=    -0.1643   ZZ=    35.8888
   Eigenvalues:     1.7811    29.2024    47.1479
     42  Bq   Isotropic =    28.3350   Anisotropy =    33.7818
   XX=    16.9179   YX=    -7.3575   ZX=   -19.9631
   XY=    -2.1719   YY=    29.6075   ZY=    -7.2364
   XZ=   -20.8156   YZ=    -1.7249   ZZ=    38.4795
   Eigenvalues:     3.0908    31.0579    50.8562
     43  Bq   Isotropic =    30.4914   Anisotropy =    35.7711
   XX=    20.3280   YX=    -9.1914   ZX=   -20.6340
   XY=    -4.0101   YY=    30.2531   ZY=    -9.3028
   XZ=   -21.8159   YZ=    -3.2057   ZZ=    40.8932
   Eigenvalues:     3.9925    33.1429    54.3388
     44  Bq   Isotropic =    32.3483   Anisotropy =    37.5610
   XX=    23.4299   YX=   -10.7397   ZX=   -21.1482
   XY=    -5.7358   YY=    30.6760   ZY=   -11.2776
   XZ=   -22.7411   YZ=    -4.5268   ZZ=    42.9391
   Eigenvalues:     4.3734    35.2826    57.3890
     45  Bq   Isotropic =    33.7445   Anisotropy =    39.0831
   XX=    25.9011   YX=   -11.9720   ZX=   -21.5624
   XY=    -7.2701   YY=    30.9085   ZY=   -13.0448
   XZ=   -23.6121   YZ=    -5.6151   ZZ=    44.4240
   Eigenvalues:     4.2111    37.2226    59.7999
     46  Bq   Isotropic =    34.5356   Anisotropy =    40.2602
   XX=    27.4466   YX=   -12.8715   ZX=   -21.9318
   XY=    -8.5391   YY=    30.9924   ZY=   -14.4886
   XZ=   -24.4411   YZ=    -6.4030   ZZ=    45.1678
   Eigenvalues:     3.5382    38.6928    61.3757
     47  Bq   Isotropic =    34.6065   Anisotropy =    41.0060
   XX=    27.8291   YX=   -13.4202   ZX=   -22.2962
   XY=    -9.4692   YY=    30.9698   ZY=   -15.4969
   XZ=   -25.2234   YZ=    -6.8273   ZZ=    45.0206
   Eigenvalues:     2.4065    39.4692    61.9438
     48  Bq   Isotropic =    33.8834   Anisotropy =    41.2267
   XX=    26.8967   YX=   -13.5871   ZX=   -22.6678
   XY=    -9.9827   YY=    30.8750   ZY=   -15.9660
   XZ=   -25.9302   YZ=    -6.8289   ZZ=    43.8784
   Eigenvalues:     0.8652    39.4171    61.3678
     49  Bq   Isotropic =    32.3437   Anisotropy =    40.8272
   XX=    24.6076   YX=   -13.3218   ZX=   -23.0225
   XY=    -9.9974   YY=    30.7250   ZY=   -15.8077
   XZ=   -26.5051   YZ=    -6.3565   ZZ=    41.6985
   Eigenvalues:    -1.0485    38.5178    59.5618
     50  Bq   Isotropic =    30.0247   Anisotropy =    39.7210
   XX=    21.0500   YX=   -12.5585   ZX=   -23.2962
   XY=    -9.4333   YY=    30.5129   ZY=   -14.9602
   XZ=   -26.8648   YZ=    -5.3744   ZZ=    38.5111
   Eigenvalues:    -3.3103    36.8790    56.5053
     51  Bq   Isotropic =    27.0280   Anisotropy =    37.8439
   XX=    16.4534   YX=   -11.2314   ZX=   -23.3886
   XY=    -8.2286   YY=    30.2037   ZY=   -13.4037
   XZ=   -26.9060   YZ=    -3.8741   ZZ=    34.4270
   Eigenvalues:    -5.8999    34.7267    52.2573
     52  Bq   Isotropic =    23.5187   Anisotropy =    35.1740
   XX=    11.1820   YX=    -9.3006   ZX=   -23.1776
   XY=    -6.3626   YY=    29.7377   ZY=   -11.1763
   XZ=   -26.5201   YZ=    -1.8887   ZZ=    29.6364
   Eigenvalues:    -8.7783    32.3663    46.9680
     53  Bq   Isotropic =    19.7155   Anisotropy =    31.7555
   XX=     5.7059   YX=    -6.7800   ZX=   -22.5420
   XY=    -3.8802   YY=    29.0428   ZY=    -8.3865
   XZ=   -25.6147   YZ=     0.4976   ZZ=    24.3979
   Eigenvalues:   -11.8504    30.1111    40.8859
     54  Bq   Isotropic =    15.8710   Anisotropy =    27.7583
   XX=     0.5452   YX=    -3.7604   ZX=   -21.3895
   XY=    -0.9092   YY=    28.0545   ZY=    -5.2140
   XZ=   -24.1374   YZ=     3.1475   ZZ=    19.0131
   Eigenvalues:   -14.9328    28.1692    34.3765
     55  Bq   Isotropic =    12.2412   Anisotropy =    24.3020
   XX=    -3.8062   YX=    -0.4143   ZX=   -19.6830
   XY=     2.3412   YY=    26.7386   ZY=    -1.8940
   XZ=   -22.0949   YZ=     5.8824   ZZ=    13.7912
   Eigenvalues:   -17.7555    26.0366    28.4426
     56  Bq   Isotropic =     9.0516   Anisotropy =    26.2296
   XX=    -6.9599   YX=     3.0206   ZX=   -17.4553
   XY=     5.6039   YY=    25.1084   ZY=     1.3148
   XZ=   -19.5597   YZ=     8.5059   ZZ=     9.0064
   Eigenvalues:   -20.0139    20.6308    26.5381
     57  Bq   Isotropic =     6.4658   Anisotropy =    29.3582
   XX=    -8.6930   YX=     6.2778   ZX=   -14.8081
   XY=     8.5956   YY=    23.2295   ZY=     4.1707
   XZ=   -16.6619   YZ=    10.8343   ZZ=     4.8609
   Eigenvalues:   -21.4469    14.8063    26.0379
     58  Bq   Isotropic =     4.5669   Anisotropy =    32.0016
   XX=    -8.9729   YX=     9.1069   ZX=   -11.8939
   XY=    11.0655   YY=    21.2108   ZY=     6.4879
   XZ=   -13.5682   YZ=    12.7248   ZZ=     1.4629
   Eigenvalues:   -21.9027     9.7021    25.9013
     59  Bq   Isotropic =     3.3566   Anisotropy =    33.8350
   XX=    -7.9393   YX=    11.3142   ZX=    -8.8888
   XY=    12.8357   YY=    19.1833   ZY=     8.1597
   XZ=   -10.4544   YZ=    14.0938   ZZ=    -1.1743
   Eigenvalues:   -21.3699     5.5263    25.9132
     60  Bq   Isotropic =     2.7685   Anisotropy =    34.7386
   XX=    -5.8551   YX=    12.7875   ZX=    -5.9633
   XY=    13.8223   YY=    17.2744   ZY=     9.1632
   XZ=    -7.4795   YZ=    14.9210   ZZ=    -3.1139
   Eigenvalues:   -19.9756     2.3536    25.9275
     61  Bq   Isotropic =     2.6920   Anisotropy =    34.7210
   XX=    -3.0425   YX=    13.4997   ZX=    -3.2593
   XY=    14.0340   YY=    15.5854   ZY=     9.5450
   XZ=    -4.7675   YZ=    15.2405   ZZ=    -4.4669
   Eigenvalues:   -17.9675     0.2042    25.8393
     62  Bq   Isotropic =     2.9964   Anisotropy =    33.8774
   XX=     0.1744   YX=    13.4947   ZX=    -0.8781
   XY=    13.5512   YY=    14.1783   ZY=     9.3974
   XZ=    -2.3994   YZ=    15.1235   ZZ=    -5.3633
   Eigenvalues:   -15.6958    -0.8962    25.5814
     63  Bq   Isotropic =     3.5516   Anisotropy =    32.3499
   XX=     3.5113   YX=    12.8641   ZX=     1.1217
   XY=    12.4970   YY=    13.0735   ZY=     8.8324
   XZ=    -0.4136   YZ=    14.6588   ZZ=    -5.9301
   Eigenvalues:   -13.5820    -0.8815    25.1182
     64  Bq   Isotropic =     4.2408   Anisotropy =    30.2972
   XX=     6.7434   YX=    11.7220   ZX=     2.7180
   XY=    11.0087   YY=    12.2569   ZY=     7.9614
   XZ=     1.1862   YZ=    13.9374   ZZ=    -6.2780
   Eigenvalues:   -11.9805     0.2640    24.4389
     65  Bq   Isotropic =     4.9678   Anisotropy =    27.8742
   XX=     9.7092   YX=    10.1845   ZX=     3.9160
   XY=     9.2158   YY=    11.6910   ZY=     6.8819
   XZ=     2.4217   YZ=    13.0420   ZZ=    -6.4968
   Eigenvalues:   -10.9526     2.3054    23.5506
     66  Bq   Isotropic =     5.6581   Anisotropy =    25.2275
   XX=    12.3028   YX=     8.3567   ZX=     4.7378
   XY=     7.2263   YY=    11.3262   ZY=     5.6716
   XZ=     3.3299   YZ=    12.0410   ZZ=    -6.6546
   Eigenvalues:   -10.3150     4.8129    22.4764
     67  Bq   Isotropic =     6.2570   Anisotropy =    22.5089
   XX=    14.4610   YX=     6.3256   ZX=     5.2134
   XY=     5.1210   YY=    11.1109   ZY=     4.3873
   XZ=     3.9543   YZ=    10.9880   ZZ=    -6.8008
   Eigenvalues:    -9.8871     7.3952    21.2630
     68  Bq   Isotropic =     6.7267   Anisotropy =    19.9359
   XX=    16.1497   YX=     4.1582   ZX=     5.3736
   XY=     2.9537   YY=    10.9988   ZY=     3.0670
   XZ=     4.3378   YZ=     9.9219   ZZ=    -6.9683
   Eigenvalues:    -9.5735     9.7364    20.0173
     69  Bq   Isotropic =     7.0424   Anisotropy =    17.9769
   XX=    17.3500   YX=     1.9046   ZX=     5.2450
   XY=     0.7557   YY=    10.9535   ZY=     1.7342
   XZ=     4.5186   YZ=     8.8699   ZZ=    -7.1763
   Eigenvalues:    -9.3349    11.4351    19.0270
     70  Bq   Isotropic =     7.1893   Anisotropy =    17.5488
   XX=    18.0489   YX=    -0.3984   ZX=     4.8472
   XY=    -1.4581   YY=    10.9513   ZY=     0.4032
   XZ=     4.5261   YZ=     7.8504   ZZ=    -7.4322
   Eigenvalues:    -9.1550    11.8344    18.8886
     71  Bq   Isotropic =     7.1608   Anisotropy =    18.9320
   XX=    18.2312   YX=    -2.7203   ZX=     4.1919
   XY=    -3.6807   YY=    10.9827   ZY=    -0.9158
   XZ=     4.3806   YZ=     6.8768   ZZ=    -7.7315
   Eigenvalues:    -9.0239    10.7241    19.7821
     72  Bq   Isotropic =     6.9570   Anisotropy =    21.2126
   XX=    17.8762   YX=    -5.0303   ZX=     3.2840
   XY=    -5.9042   YY=    11.0527   ZY=    -2.2113
   XZ=     4.0923   YZ=     5.9598   ZZ=    -8.0580
   Eigenvalues:    -8.9310     8.7032    21.0987
     73  Bq   Isotropic =     6.5855   Anisotropy =    23.7413
   XX=    16.9583   YX=    -7.2896   ZX=     2.1239
   XY=    -8.1106   YY=    11.1796   ZY=    -3.4658
   XZ=     3.6630   YZ=     5.1110   ZZ=    -8.3816
   Eigenvalues:    -8.8658     6.2092    22.4130
     74  Bq   Isotropic =     6.0630   Anisotropy =    26.2455
   XX=    15.4513   YX=    -9.4448   ZX=     0.7121
   XY=   -10.2634   YY=    11.3941   ZY=    -4.6517
   XZ=     3.0878   YZ=     4.3442   ZZ=    -8.6563
   Eigenvalues:    -8.8284     3.4575    23.5600
     75  Bq   Isotropic =     5.4183   Anisotropy =    28.5749
   XX=    13.3371   YX=   -11.4219   ZX=    -0.9460
   XY=   -12.2992   YY=    11.7353   ZY=    -5.7287
   XZ=     2.3587   YZ=     3.6763   ZZ=    -8.8174
   Eigenvalues:    -8.8694     0.6561    24.4682
     76  Bq   Isotropic =     4.6955   Anisotropy =    30.6049
   XX=    10.6193   YX=   -13.1221   ZX=    -2.8326
   XY=   -14.1226   YY=    12.2459   ZY=    -6.6434
   XZ=     1.4689   YZ=     3.1267   ZZ=    -8.7788
   Eigenvalues:    -9.2120    -1.8004    25.0987
     77  Bq   Isotropic =     3.9579   Anisotropy =    32.2083
   XX=     7.3400   YX=   -14.4221   ZX=    -4.9109
   XY=   -15.6040   YY=    12.9649   ZY=    -7.3315
   XZ=     0.4175   YZ=     2.7148   ZZ=    -8.4312
   Eigenvalues:   -10.3841    -3.1723    25.4301
     78  Bq   Isotropic =     5.3754   Anisotropy =    12.2758
   XX=     9.3637   YX=     1.0474   ZX=     7.4377
   XY=    -1.5278   YY=     7.8781   ZY=     3.0857
   XZ=     6.6686   YZ=     5.7146   ZZ=    -1.1155
   Eigenvalues:    -5.8639     8.4309    13.5593
     79  Bq   Isotropic =     5.9080   Anisotropy =    12.4441
   XX=    10.4638   YX=     0.4908   ZX=     7.6481
   XY=    -2.2031   YY=     8.0605   ZY=     2.6834
   XZ=     6.8491   YZ=     5.4056   ZZ=    -0.8002
   Eigenvalues:    -5.5344     9.0545    14.2041
     80  Bq   Isotropic =     6.4078   Anisotropy =    12.9048
   XX=    11.5046   YX=    -0.1737   ZX=     7.7905
   XY=    -2.9778   YY=     8.2487   ZY=     2.2318
   XZ=     6.9651   YZ=     5.0399   ZZ=    -0.5301
   Eigenvalues:    -5.1996     9.4119    15.0109
     81  Bq   Isotropic =     6.8632   Anisotropy =    13.6746
   XX=    12.4601   YX=    -0.9413   ZX=     7.8575
   XY=    -3.8504   YY=     8.4456   ZY=     1.7357
   XZ=     7.0079   YZ=     4.6236   ZZ=    -0.3160
   Eigenvalues:    -4.8678     9.4778    15.9796
     82  Bq   Isotropic =     7.2661   Anisotropy =    14.7103
   XX=    13.3079   YX=    -1.8046   ZX=     7.8431
   XY=    -4.8190   YY=     8.6551   ZY=     1.1996
   XZ=     6.9692   YZ=     4.1635   ZZ=    -0.1647
   Eigenvalues:    -4.5441     9.2695    17.0730
     83  Bq   Isotropic =     7.6122   Anisotropy =    15.9533
   XX=    14.0304   YX=    -2.7546   ZX=     7.7414
   XY=    -5.8810   YY=     8.8840   ZY=     0.6276
   XZ=     6.8408   YZ=     3.6665   ZZ=    -0.0778
   Eigenvalues:    -4.2287     8.8175    18.2477
     84  Bq   Isotropic =     7.9019   Anisotropy =    17.3541
   XX=    14.6136   YX=    -3.7805   ZX=     7.5459
   XY=    -7.0332   YY=     9.1427   ZY=     0.0232
   XZ=     6.6134   YZ=     3.1396   ZZ=    -0.0507
   Eigenvalues:    -3.9147     8.1491    19.4713
     85  Bq   Isotropic =     8.1409   Anisotropy =    18.8730
   XX=    15.0472   YX=    -4.8699   ZX=     7.2485
   XY=    -8.2701   YY=     9.4468   ZY=    -0.6096
   XZ=     6.2765   YZ=     2.5897   ZZ=    -0.0714
   Eigenvalues:    -3.5878     7.2874    20.7229
     86  Bq   Isotropic =     8.3402   Anisotropy =    20.4739
   XX=    15.3226   YX=    -6.0073   ZX=     6.8385
   XY=    -9.5812   YY=     9.8179   ZY=    -1.2653
   XZ=     5.8177   YZ=     2.0242   ZZ=    -0.1198
   Eigenvalues:    -3.2244     6.2556    21.9895
     87  Bq   Isotropic =     8.5169   Anisotropy =    22.1165
   XX=    15.4330   YX=    -7.1728   ZX=     6.3027
   XY=   -10.9485   YY=    10.2838   ZY=    -1.9355
   XZ=     5.2230   YZ=     1.4516   ZZ=    -0.1662
   Eigenvalues:    -2.7914     5.0808    23.2612
     88  Bq   Isotropic =     8.6937   Anisotropy =    23.7503
   XX=    15.3725   YX=    -8.3393   ZX=     5.6252
   XY=   -12.3417   YY=    10.8784   ZY=    -2.6068
   XZ=     4.4777   YZ=     0.8824   ZZ=    -0.1698
   Eigenvalues:    -2.2450     3.7989    24.5272
     89  Bq   Isotropic =     8.9002   Anisotropy =    25.3088
   XX=    15.1380   YX=    -9.4703   ZX=     4.7887
   XY=   -13.7141   YY=    11.6402   ZY=    -3.2598
   XZ=     3.5677   YZ=     0.3294   ZZ=    -0.0775
   Eigenvalues:    -1.5309     2.4588    25.7727
     90  Bq   Isotropic =     9.1727   Anisotropy =    26.7055
   XX=    14.7306   YX=   -10.5173   ZX=     3.7760
   XY=   -14.9981   YY=    12.6090   ZY=    -3.8677
   XZ=     2.4819   YZ=    -0.1919   ZZ=     0.1785
   Eigenvalues:    -0.5894     1.1311    26.9763
     91  Bq   Isotropic =     9.5546   Anisotropy =    27.8319
   XX=    14.1605   YX=   -11.4180   ZX=     2.5732
   XY=   -16.1032   YY=    13.8222   ZY=    -4.3961
   XZ=     1.2150   YZ=    -0.6640   ZZ=     0.6812
   Eigenvalues:    -0.1910     0.7456    28.1092
     92  Bq   Isotropic =    10.0964   Anisotropy =    28.5594
   XX=    13.4520   YX=   -12.0960   ZX=     1.1724
   XY=   -16.9150   YY=    15.3081   ZY=    -4.8052
   XZ=    -0.2293   YZ=    -1.0685   ZZ=     1.5290
   Eigenvalues:    -1.2367     2.3898    29.1360
     93  Bq   Isotropic =    10.8536   Anisotropy =    28.7458
   XX=    12.6499   YX=   -12.4632   ZX=    -0.4231
   XY=   -17.3006   YY=    17.0780   ZY=    -5.0531
   XZ=    -1.8348   YZ=    -1.3885   ZZ=     2.8328
   Eigenvalues:    -2.0196     4.5629    30.0174
     94  Bq   Isotropic =    11.8840   Anisotropy =    28.2498
   XX=    11.8248   YX=   -12.4258   ZX=    -2.1953
   XY=   -17.1196   YY=    19.1183   ZY=    -5.1023
   XZ=    -3.5704   YZ=    -1.6123   ZZ=     4.7089
   Eigenvalues:    -2.4016     7.3364    30.7172
     95  Bq   Isotropic =    13.2418   Anisotropy =    26.9545
   XX=    11.0754   YX=   -11.8942   ZX=    -4.1071
   XY=   -16.2419   YY=    21.3827   ZY=    -4.9275
   XZ=    -5.3890   YZ=    -1.7365   ZZ=     7.2672
   Eigenvalues:    -2.2781    10.7920    31.2114
     96  Bq   Isotropic =    14.9696   Anisotropy =    24.7999
   XX=    10.5259   YX=   -10.7985   ZX=    -6.1015
   XY=   -14.5731   YY=    23.7895   ZY=    -4.5248
   XZ=    -7.2287   YZ=    -1.7697   ZZ=    10.5932
   Eigenvalues:    -1.5791    14.9849    31.5028
     97  Bq   Isotropic =    17.0884   Anisotropy =    21.8256
   XX=    10.3142   YX=    -9.1049   ZX=    -8.1030
   XY=   -12.0821   YY=    26.2252   ZY=    -3.9187
   XZ=    -9.0178   YZ=    -1.7335   ZZ=    14.7257
   Eigenvalues:    -0.2953    19.9216    31.6388
     98  Bq   Isotropic =    19.5871   Anisotropy =    18.2265
   XX=    10.5708   YX=    -6.8328   ZX=   -10.0240
   XY=    -8.8255   YY=    28.5570   ZY=    -3.1643
   XZ=   -10.6828   YZ=    -1.6603   ZZ=    19.6334
   Eigenvalues:     1.4928    25.5304    31.7381
     99  Bq   Isotropic =    22.4138   Anisotropy =    15.0391
   XX=    11.3906   YX=    -4.0648   ZX=   -11.7751
   XY=    -4.9596   YY=    30.6535   ZY=    -2.3426
   XZ=   -12.1586   YZ=    -1.5882   ZZ=    25.1972
   Eigenvalues:     3.5945    31.2069    32.4398
    100  Bq   Isotropic =    25.4719   Anisotropy =    19.3510
   XX=    12.8034   YX=    -0.9461   ZX=   -13.2791
   XY=    -0.7322   YY=    32.4072   ZY=    -1.5486
   XZ=   -13.3994   YZ=    -1.5522   ZZ=    31.2050
   Eigenvalues:     5.7192    32.3239    38.3725
    101  Bq   Isotropic =    28.6232   Anisotropy =    24.4312
   XX=    14.7512   YX=     2.3288   ZX=   -14.4842
   XY=     3.5466   YY=    33.7544   ZY=    -0.8738
   XZ=   -14.3876   YZ=    -1.5764   ZZ=    37.3640
   Eigenvalues:     7.5509    33.4080    44.9107
    102  Bq   Isotropic =    31.6983   Anisotropy =    29.2251
   XX=    17.0820   YX=     5.5410   ZX=   -15.3730
   XY=     7.5487   YY=    34.6829   ZY=    -0.3897
   XZ=   -15.1370   YZ=    -1.6681   ZZ=    43.3300
   Eigenvalues:     8.8865    35.0267    51.1817
    103  Bq   Isotropic =    34.5133   Anisotropy =    33.4848
   XX=    19.5645   YX=     8.4775   ZX=   -15.9645
   XY=    10.9763   YY=    35.2272   ZY=    -0.1363
   XZ=   -15.6899   YZ=    -1.8166   ZZ=    48.7481
   Eigenvalues:     9.7273    36.9761    56.8365
    104  Bq   Isotropic =    36.8896   Anisotropy =    37.0274
   XX=    21.9215   YX=    10.9571   ZX=   -16.3073
   XY=    13.6007   YY=    35.4520   ZY=    -0.1190
   XZ=   -16.1080   YZ=    -1.9974   ZZ=    53.2953
   Eigenvalues:    10.2224    38.8719    61.5745
    105  Bq   Isotropic =    38.6739   Anisotropy =    39.7362
   XX=    23.8752   YX=    12.8480   ZX=   -16.4676
   XY=    15.2838   YY=    35.4304   ZY=    -0.3142
   XZ=   -16.4588   YZ=    -2.1800   ZZ=    56.7160
   Eigenvalues:    10.5409    40.3161    65.1646
    106  Bq   Isotropic =    39.7541   Anisotropy =    41.5621
   XX=    25.1927   YX=    14.0722   ZX=   -16.5134
   XY=    15.9801   YY=    35.2245   ZY=    -0.6798
   XZ=   -16.8014   YZ=    -2.3379   ZZ=    58.8452
   Eigenvalues:    10.7925    41.0078    67.4622
    107  Bq   Isotropic =    40.0709   Anisotropy =    42.5159
   XX=    25.7225   YX=    14.6011   ZX=   -16.5019
   XY=    15.7258   YY=    34.8730   ZY=    -1.1671
   XZ=   -17.1746   YZ=    -2.4563   ZZ=    59.6171
   Eigenvalues:    11.0100    40.7878    68.4148
    108  Bq   Isotropic =    39.6218   Anisotropy =    42.6545
   XX=    25.4147   YX=    14.4453   ZX=   -16.4705
   XY=    14.6197   YY=    34.3879   ZY=    -1.7304
   XZ=   -17.5903   YZ=    -2.5372   ZZ=    59.0627
   Eigenvalues:    11.1591    39.6481    68.0581
    109  Bq   Isotropic =    38.4605   Anisotropy =    42.0652
   XX=    24.3239   YX=    13.6465   ZX=   -16.4329
   XY=    12.8051   YY=    33.7585   ZY=    -2.3322
   XZ=   -18.0315   YZ=    -2.5985   ZZ=    57.2990
   Eigenvalues:    11.1519    37.7255    66.5040
    110  Bq   Isotropic =    36.6895   Anisotropy =    40.8526
   XX=    22.5956   YX=    12.2717   ZX=   -16.3801
   XY=    10.4533   YY=    32.9611   ZY=    -2.9434
   XZ=   -18.4558   YZ=    -2.6690   ZZ=    54.5119
   Eigenvalues:    10.8595    35.2844    63.9246
    111  Bq   Isotropic =    34.4488   Anisotropy =    39.1273
   XX=    20.4399   YX=    10.4114   ZX=   -16.2854
   XY=     7.7501   YY=    31.9700   ZY=    -3.5415
   XZ=   -18.8033   YZ=    -2.7799   ZZ=    50.9364
   Eigenvalues:    10.1345    32.6782    60.5337
    112  Bq   Isotropic =    31.9008   Anisotropy =    37.0002
   XX=    18.0991   YX=     8.1787   ZX=   -16.1110
   XY=     4.8850   YY=    30.7685   ZY=    -4.1074
   XZ=   -19.0069   YZ=    -2.9549   ZZ=    46.8350
   Eigenvalues:     8.8664    30.2685    56.5676
    113  Bq   Isotropic =    29.2145   Anisotropy =    34.5783
   XX=    15.8122   YX=     5.7078   ZX=   -15.8175
   XY=     2.0392   YY=    29.3564   ZY=    -4.6227
   XZ=   -19.0045   YZ=    -3.2033   ZZ=    42.4748
   Eigenvalues:     7.0749    28.3018    52.2667
    114  Bq   Isotropic =    26.5489   Anisotropy =    31.9649
   XX=    13.7843   YX=     3.1475   ZX=   -15.3720
   XY=    -0.6240   YY=    27.7547   ZY=    -5.0683
   XZ=   -18.7503   YZ=    -3.5154   ZZ=    38.1077
   Eigenvalues:     4.9620    26.8258    47.8589
    115  Bq   Isotropic =    24.0402   Anisotropy =    29.2588
   XX=    12.1643   YX=     0.6515   ZX=   -14.7553
   XY=    -2.9701   YY=    26.0048   ZY=    -5.4258
   XZ=   -18.2225   YZ=    -3.8637   ZZ=    33.9517
   Eigenvalues:     2.8414    25.7332    43.5461
    116  Bq   Isotropic =    21.7919   Anisotropy =    26.5543
   XX=    11.0334   YX=    -1.6352   ZX=   -13.9661
   XY=    -4.9005   YY=    24.1643   ZY=    -5.6791
   XZ=   -17.4276   YZ=    -4.2073   ZZ=    30.1781
   Eigenvalues:     1.0110    24.8700    39.4948
    117  Bq   Isotropic =    19.8701   Anisotropy =    23.9393
   XX=    10.4058   YX=    -3.5897   ZX=   -13.0217
   XY=    -6.3568   YY=    22.3002   ZY=    -5.8162
   XZ=   -16.3985   YZ=    -4.4996   ZZ=    26.9042
   Eigenvalues:    -0.3233    24.1039    35.8296
    118  Bq   Isotropic =    18.3037   Anisotropy =    21.4923
   XX=    10.2388   YX=    -5.1213   ZX=   -11.9549
   XY=    -7.3199   YY=    20.4799   ZY=    -5.8316
   XZ=   -15.1886   YZ=    -4.6960   ZZ=    24.1924
   Eigenvalues:    -1.0609    23.3400    32.6319
    119  Bq   Isotropic =    17.0892   Anisotropy =    19.2761
   XX=    10.4480   YX=    -6.1777   ZX=   -10.8090
   XY=    -7.8058   YY=    18.7646   ZY=    -5.7260
   XZ=   -13.8638   YZ=    -4.7598   ZZ=    22.0551
   Eigenvalues:    -1.1890    22.5167    29.9399
    120  Bq   Isotropic =    16.1975   Anisotropy =    17.3268
   XX=    10.9260   YX=    -6.7445   ZX=    -9.6317
   XY=    -7.8574   YY=    17.2036   ZY=    -5.5062
   XZ=   -12.4934   YZ=    -4.6665   ZZ=    20.4630
   Eigenvalues:    -0.7575    21.6014    27.7487
    121  Bq   Isotropic =    15.5822   Anisotropy =    15.6437
   XX=    11.5578   YX=    -6.8408   ZX=    -8.4699
   XY=    -7.5353   YY=    15.8317   ZY=    -5.1833
   XZ=   -11.1424   YZ=    -4.4043   ZZ=    19.3573
   Eigenvalues:     0.1457    20.5896    26.0114
    122  Bq   Isotropic =    15.1877   Anisotropy =    14.1955
   XX=    12.2337   YX=    -6.5116   ZX=    -7.3656
   XY=    -6.9086   YY=    14.6690   ZY=    -4.7708
   XZ=    -9.8666   YZ=    -3.9737   ZZ=    18.6604
   Eigenvalues:     1.4151    19.4966    24.6514
    123  Bq   Isotropic =    14.9560   Anisotropy =    12.9503
   XX=    12.8574   YX=    -5.8194   ZX=    -6.3539
   XY=    -6.0472   YY=    13.7233   ZY=    -4.2833
   XZ=    -8.7096   YZ=    -3.3850   ZZ=    18.2872
   Eigenvalues:     2.9425    18.3359    23.5895
    124  Bq   Isotropic =    14.8325   Anisotropy =    11.8992
   XX=    13.3509   YX=    -4.8364   ZX=    -5.4626
   XY=    -5.0166   YY=    12.9929   ZY=    -3.7347
   XZ=    -7.7031   YZ=    -2.6560   ZZ=    18.1538
   Eigenvalues:     4.6273    17.1049    22.7653
    125  Bq   Isotropic =    14.7700   Anisotropy =    11.0516
   XX=    13.6555   YX=    -3.6387   ZX=    -4.7131
[...]
   142  Bq   0.000000
   143  Bq   0.000000
   144  Bq   0.000000
   145  Bq   0.000000
   146  Bq   0.000000
   147  Bq   0.000000
   148  Bq   0.000000
   149  Bq   0.000000
   150  Bq   0.000000
   151  Bq   0.000000
   152  Bq   0.000000
   153  Bq   0.000000
   154  Bq   0.000000
   155  Bq   0.000000
   156  Bq   0.000000
   157  Bq   0.000000
   158  Bq   0.000000
   159  Bq   0.000000
   160  Bq   0.000000
   161  Bq   0.000000
   162  Bq   0.000000
   163  Bq   0.000000
   164  Bq   0.000000
   165  Bq   0.000000
   166  Bq   0.000000
   167  Bq   0.000000
   168  Bq   0.000000
   169  Bq   0.000000
   170  Bq   0.000000
   171  Bq   0.000000
   172  Bq   0.000000
   173  Bq   0.000000
   174  Bq   0.000000
   175  Bq   0.000000
   176  Bq   0.000000
   177  Bq   0.000000
   178  Bq   0.000000
   179  Bq   0.000000
   180  Bq   0.000000
   181  Bq   0.000000
   182  Bq   0.000000
   183  Bq   0.000000
   184  Bq   0.000000
   185  Bq   0.000000
   186  Bq   0.000000
   187  Bq   0.000000
   188  Bq   0.000000
   189  Bq   0.000000
   190  Bq   0.000000
   191  Bq   0.000000
   192  Bq   0.000000
   193  Bq   0.000000
   194  Bq   0.000000
   195  Bq   0.000000
   196  Bq   0.000000
   197  Bq   0.000000
   198  Bq   0.000000
   199  Bq   0.000000
   200  Bq   0.000000
   201  Bq   0.000000
   202  Bq   0.000000
   203  Bq   0.000000
   204  Bq   0.000000
   205  Bq   0.000000
   206  Bq   0.000000
   207  Bq   0.000000
   208  Bq   0.000000
   209  Bq   0.000000
   210  Bq   0.000000
   211  Bq   0.000000
   212  Bq   0.000000
   213  Bq   0.000000
   214  Bq   0.000000
   215  Bq   0.000000
   216  Bq   0.000000
   217  Bq   0.000000
   218  Bq   0.000000
   219  Bq   0.000000
   220  Bq   0.000000
   221  Bq   0.000000
   222  Bq   0.000000
   223  Bq   0.000000
   224  Bq   0.000000
   225  Bq   0.000000
   226  Bq   0.000000
   227  Bq   0.000000
   228  Bq   0.000000
   229  Bq   0.000000
   230  Bq   0.000000
   231  Bq   0.000000
   232  Bq   0.000000
   233  Bq   0.000000
   234  Bq   0.000000
   235  Bq   0.000000
   236  Bq   0.000000
 Sum of Mulliken charges =   0.00000
 Mulliken charges with hydrogens summed into heavy atoms:
               1
     1  C   -0.255498
     3  C    0.169409
     5  C    0.448258
     6  C    0.064351
     7  C   -0.333926
     9  C   -0.139521
    11  C   -0.205988
    13  C   -0.119315
    15  C    0.653397
    16  C    0.034822
    17  C   -0.317410
    19  C   -0.316854
    21  C    0.651066
    22  C    0.037784
    23  C   -0.117289
    25  C   -0.205316
    27  C    0.448331
    28  C    0.061983
    29  C   -0.333381
    31  C   -0.139505
    33  C   -0.379734
    35  C    0.170579
    37  Bq   0.000000
    38  Bq   0.000000
    39  Bq   0.000000
    40  Bq   0.000000
    41  Bq   0.000000
    42  Bq   0.000000
    43  Bq   0.000000
    44  Bq   0.000000
    45  Bq   0.000000
    46  Bq   0.000000
    47  Bq   0.000000
    48  Bq   0.000000
    49  Bq   0.000000
    50  Bq   0.000000
    51  Bq   0.000000
    52  Bq   0.000000
    53  Bq   0.000000
    54  Bq   0.000000
    55  Bq   0.000000
    56  Bq   0.000000
    57  Bq   0.000000
    58  Bq   0.000000
    59  Bq   0.000000
    60  Bq   0.000000
    61  Bq   0.000000
    62  Bq   0.000000
    63  Bq   0.000000
    64  Bq   0.000000
    65  Bq   0.000000
    66  Bq   0.000000
    67  Bq   0.000000
    68  Bq   0.000000
    69  Bq   0.000000
    70  Bq   0.000000
    71  Bq   0.000000
    72  Bq   0.000000
    73  Bq   0.000000
    74  Bq   0.000000
    75  Bq   0.000000
    76  Bq   0.000000
    77  Bq   0.000000
    78  Bq   0.000000
    79  Bq   0.000000
    80  Bq   0.000000
    81  Bq   0.000000
    82  Bq   0.000000
    83  Bq   0.000000
    84  Bq   0.000000
    85  Bq   0.000000
    86  Bq   0.000000
    87  Bq   0.000000
    88  Bq   0.000000
    89  Bq   0.000000
    90  Bq   0.000000
    91  Bq   0.000000
    92  Bq   0.000000
    93  Bq   0.000000
    94  Bq   0.000000
    95  Bq   0.000000
    96  Bq   0.000000
    97  Bq   0.000000
    98  Bq   0.000000
    99  Bq   0.000000
   100  Bq   0.000000
   101  Bq   0.000000
   102  Bq   0.000000
   103  Bq   0.000000
   104  Bq   0.000000
   105  Bq   0.000000
   106  Bq   0.000000
   107  Bq   0.000000
   108  Bq   0.000000
   109  Bq   0.000000
   110  Bq   0.000000
   111  Bq   0.000000
   112  Bq   0.000000
   113  Bq   0.000000
   114  Bq   0.000000
   115  Bq   0.000000
   116  Bq   0.000000
   117  Bq   0.000000
   118  Bq   0.000000
   119  Bq   0.000000
   120  Bq   0.000000
   121  Bq   0.000000
   122  Bq   0.000000
   123  Bq   0.000000
   124  Bq   0.000000
   125  Bq   0.000000
   126  Bq   0.000000
   127  Bq   0.000000
   128  Bq   0.000000
   129  Bq   0.000000
   130  Bq   0.000000
   131  Bq   0.000000
   132  Bq   0.000000
   133  Bq   0.000000
   134  Bq   0.000000
   135  Bq   0.000000
   136  Bq   0.000000
   137  Bq   0.000000
   138  Bq   0.000000
   139  Bq   0.000000
   140  Bq   0.000000
   141  Bq   0.000000
   142  Bq   0.000000
   143  Bq   0.000000
   144  Bq   0.000000
   145  Bq   0.000000
   146  Bq   0.000000
   147  Bq   0.000000
   148  Bq   0.000000
   149  Bq   0.000000
   150  Bq   0.000000
   151  Bq   0.000000
   152  Bq   0.000000
   153  Bq   0.000000
   154  Bq   0.000000
   155  Bq   0.000000
   156  Bq   0.000000
   157  Bq   0.000000
   158  Bq   0.000000
   159  Bq   0.000000
   160  Bq   0.000000
   161  Bq   0.000000
   162  Bq   0.000000
   163  Bq   0.000000
   164  Bq   0.000000
   165  Bq   0.000000
   166  Bq   0.000000
   167  Bq   0.000000
   168  Bq   0.000000
   169  Bq   0.000000
   170  Bq   0.000000
   171  Bq   0.000000
   172  Bq   0.000000
   173  Bq   0.000000
   174  Bq   0.000000
   175  Bq   0.000000
   176  Bq   0.000000
   177  Bq   0.000000
   178  Bq   0.000000
   179  Bq   0.123756
   180  Bq   0.000000
   181  Bq   0.000000
   182  Bq   0.000000
   183  Bq   0.000000
   184  Bq   0.000000
   185  Bq   0.000000
   186  Bq   0.000000
   187  Bq   0.000000
   188  Bq   0.000000
   189  Bq   0.000000
   190  Bq   0.000000
   191  Bq   0.000000
   192  Bq   0.000000
   193  Bq   0.000000
   194  Bq   0.000000
   195  Bq   0.000000
   196  Bq   0.000000
   197  Bq   0.000000
   198  Bq   0.000000
   199  Bq   0.000000
   200  Bq   0.000000
   201  Bq   0.000000
   202  Bq   0.000000
   203  Bq   0.000000
   204  Bq   0.000000
   205  Bq   0.000000
   206  Bq   0.000000
   207  Bq   0.000000
   208  Bq   0.000000
   209  Bq   0.000000
   210  Bq   0.000000
   211  Bq   0.000000
   212  Bq   0.000000
   213  Bq   0.000000
   214  Bq   0.000000
   215  Bq   0.000000
   216  Bq   0.000000
   217  Bq   0.000000
   218  Bq   0.000000
   219  Bq   0.000000
   220  Bq   0.000000
   221  Bq   0.000000
   222  Bq   0.000000
   223  Bq   0.000000
   224  Bq   0.000000
   225  Bq   0.000000
   226  Bq   0.000000
   227  Bq   0.000000
   228  Bq   0.000000
   229  Bq   0.000000
   230  Bq   0.000000
   231  Bq   0.000000
   232  Bq   0.000000
   233  Bq   0.000000
   234  Bq   0.000000
   235  Bq   0.000000
   236  Bq   0.000000
 Electronic spatial extent (au):  <R**2>=           5736.9264
 Charge=              0.0000 electrons
 Dipole moment (field-independent basis, Debye):
    X=              0.0475    Y=              0.0856    Z=              0.0029  Tot=              0.0979
 Quadrupole moment (field-independent basis, Debye-Ang):
   XX=           -113.7056   YY=           -113.9456   ZZ=           -133.2669
   XY=             -0.3834   XZ=              3.2102   YZ=             -1.1839
 Traceless Quadrupole moment (field-independent basis, Debye-Ang):
   XX=              6.6005   YY=              6.3604   ZZ=            -12.9609
   XY=             -0.3834   XZ=              3.2102   YZ=             -1.1839
 Octapole moment (field-independent basis, Debye-Ang**2):
  XXX=            -16.4668  YYY=            -16.1860  ZZZ=             -1.7007  XYY=              2.5576
  XXY=             -6.5650  XXZ=             13.6547  XZZ=             -8.9478  YZZ=            -17.7168
  YYZ=            -13.2941  XYZ=              8.8036
 Hexadecapole moment (field-independent basis, Debye-Ang**3):
 XXXX=          -3951.1638 YYYY=          -3112.2161 ZZZZ=           -504.8311 XXXY=            340.6935
 XXXZ=            156.4968 YYYX=            335.5625 YYYZ=            -87.0893 ZZZX=            120.2262
 ZZZY=           -108.7373 XXYY=          -1176.4844 XXZZ=           -856.7291 YYZZ=           -665.7275
 XXYZ=            -68.9016 YYXZ=             48.1602 ZZXY=            153.0375
 N-N= 1.610917615562D+03 E-N=-5.186891130729D+03  KE= 8.436329774449D+02
 1\1\GINC-THARO\SP\RB3LYP\6-311+G(d,p)\C22H14\YANNICK\19-Aug-2020\0\\# 
 rb3lyp/6-311+g** NMR geom=connectivity\\Title\\0,1\C,0,-4.0500558,-0.5
 771862,0.8136712\H,0,-5.0263804,-1.0082727,1.002476\C,0,-3.9381552,0.6
 617804,0.2400876\H,0,-4.8252424,1.233889,-0.0111295\C,0,-2.676841,1.24
 33246,0.0057578\C,0,-1.4974121,0.5051527,0.2848253\C,0,-1.6508332,-0.7
 338728,0.9404026\H,0,-0.7713646,-1.2730967,1.2633753\C,0,-2.8898548,-1
 .2624035,1.1994307\H,0,-2.9683706,-2.2124563,1.7152676\C,0,-2.5773185,
 2.5963696,-0.419293\H,0,-3.4870728,3.1412239,-0.6474055\C,0,-1.3741895
 ,3.2147896,-0.436403\H,0,-1.2997315,4.2742019,-0.6578144\C,0,-0.171948
 8,2.499409,-0.1734588\C,0,-0.2043917,1.1018437,0.0192689\C,0,1.0513491
 ,3.204256,-0.0676222\H,0,1.0427344,4.2819499,-0.1896997\C,0,2.1942091,
 2.5487446,0.2579577\H,0,3.1168527,3.0912848,0.4334727\C,0,2.2216473,1.
 1336562,0.293499\C,0,1.0486931,0.3945528,0.0302412\C,0,3.4483363,0.461
 4633,0.5573939\H,0,4.3095794,1.0606054,0.8334846\C,0,3.5427346,-0.8855
 926,0.4749463\H,0,4.4731467,-1.3939704,0.7038822\C,0,2.4490052,-1.6474
 447,-0.0196319\C,0,1.2150704,-1.0057258,-0.3013573\C,0,0.2531113,-1.74
 3444,-1.0216591\H,0,-0.6541356,-1.2535051,-1.3462847\C,0,0.4494193,-3.
 0628597,-1.3413779\H,0,-0.3083162,-3.5944309,-1.905406\C,0,1.6251726,-
 3.7207967,-0.9552541\H,0,1.7670048,-4.7687404,-1.1927019\C,0,2.6109872
 ,-3.0144177,-0.318305\H,0,3.5525612,-3.4902813,-0.0646367\Bq,0,0.87799
 31632,-1.8838165198,-0.7658749297\Bq,0,0.8724899266,-1.8356200284,-0.7
 537583044\Bq,0,0.8669866899,-1.7874235371,-0.7416416792\Bq,0,0.8614834
 532,-1.7392270457,-0.729525054\Bq,0,0.8559802165,-1.6910305543,-0.7174
 084287\Bq,0,0.8504769798,-1.642834063,-0.7052918035\Bq,0,0.8449737431,
 -1.5946375716,-0.6931751783\Bq,0,0.8394705064,-1.5464410803,-0.6810585
 531\Bq,0,0.8339672698,-1.4982445889,-0.6689419278\Bq,0,0.8284640331,-1
 .4500480976,-0.6568253026\Bq,0,0.8229607964,-1.4018516062,-0.644708677
 4\Bq,0,0.8174575597,-1.3536551149,-0.6325920521\Bq,0,0.811954323,-1.30
 54586235,-0.6204754269\Bq,0,0.8064510863,-1.2572621321,-0.6083588017\B
 q,0,0.8009478496,-1.2090656408,-0.5962421765\Bq,0,0.795444613,-1.16086
 91494,-0.5841255512\Bq,0,0.7899413763,-1.1126726581,-0.572008926\Bq,0,
 0.7844381396,-1.0644761667,-0.5598923008\Bq,0,0.7789349029,-1.01627967
 54,-0.5477756755\Bq,0,0.7734316662,-0.968083184,-0.5356590503\Bq,0,0.7
 679284295,-0.9198866927,-0.5235424251\Bq,0,0.7624251928,-0.8716902013,
 -0.5114257999\Bq,0,0.7569219562,-0.8234937099,-0.4993091746\Bq,0,0.751
 4187195,-0.7752972186,-0.4871925494\Bq,0,0.7459154828,-0.7271007272,-0
 .4750759242\Bq,0,0.7404122461,-0.6789042359,-0.4629592989\Bq,0,0.73490
 90094,-0.6307077445,-0.4508426737\Bq,0,0.7294057727,-0.5825112532,-0.4
 387260485\Bq,0,0.723902536,-0.5343147618,-0.4266094233\Bq,0,0.71839929
 94,-0.4861182704,-0.414492798\Bq,0,0.7128960627,-0.4379217791,-0.40237
 61728\Bq,0,0.707392826,-0.3897252877,-0.3902595476\Bq,0,0.7018895893,-
 0.3415287964,-0.3781429223\Bq,0,0.6963863526,-0.293332305,-0.366026297
 1\Bq,0,0.6908831159,-0.2451358137,-0.3539096719\Bq,0,0.6853798792,-0.1
 969393223,-0.3417930467\Bq,0,0.6798766426,-0.148742831,-0.3296764214\B
 q,0,0.6743734059,-0.1005463396,-0.3175597962\Bq,0,0.6688701692,-0.0523
 498482,-0.305443171\Bq,0,0.6633669325,-0.0041533569,-0.2933265457\Bq,0
 ,0.6578636958,0.0440431345,-0.2812099205\Bq,0,1.2537118011,-4.77560600
 11,-1.4721957496\Bq,0,1.2482085644,-4.7274095098,-1.4600791244\Bq,0,1.
 2427053277,-4.6792130184,-1.4479624991\Bq,0,1.237202091,-4.6310165271,
 -1.4358458739\Bq,0,1.2316988543,-4.5828200357,-1.4237292487\Bq,0,1.226
 1956176,-4.5346235444,-1.4116126234\Bq,0,1.220692381,-4.486427053,-1.3
 994959982\Bq,0,1.2151891443,-4.4382305616,-1.387379373\Bq,0,1.20968590
 76,-4.3900340703,-1.3752627478\Bq,0,1.2041826709,-4.3418375789,-1.3631
 461225\Bq,0,1.1986794342,-4.2936410876,-1.3510294973\Bq,0,1.1931761975
 ,-4.2454445962,-1.3389128721\Bq,0,1.1876729608,-4.1972481049,-1.326796
 2468\Bq,0,1.1821697241,-4.1490516135,-1.3146796216\Bq,0,1.1766664875,-
 4.1008551222,-1.3025629964\Bq,0,1.1711632508,-4.0526586308,-1.29044637
 12\Bq,0,1.1656600141,-4.0044621394,-1.2783297459\Bq,0,1.1601567774,-3.
 9562656481,-1.2662131207\Bq,0,1.1546535407,-3.9080691567,-1.2540964955
 \Bq,0,1.149150304,-3.8598726654,-1.2419798702\Bq,0,1.1436470673,-3.811
 676174,-1.229863245\Bq,0,1.1381438307,-3.7634796827,-1.2177466198\Bq,0
 ,1.132640594,-3.7152831913,-1.2056299946\Bq,0,1.1271373573,-3.66708669
 99,-1.1935133693\Bq,0,1.1216341206,-3.6188902086,-1.1813967441\Bq,0,1.
 1161308839,-3.5706937172,-1.1692801189\Bq,0,1.1106276472,-3.5224972259
 ,-1.1571634936\Bq,0,1.1051244105,-3.4743007345,-1.1450468684\Bq,0,1.09
 96211739,-3.4261042432,-1.1329302432\Bq,0,1.0941179372,-3.3779077518,-
 1.120813618\Bq,0,1.0886147005,-3.3297112605,-1.1086969927\Bq,0,1.08311
 14638,-3.2815147691,-1.0965803675\Bq,0,1.0776082271,-3.2333182777,-1.0
 844637423\Bq,0,1.0721049904,-3.1851217864,-1.072347117\Bq,0,1.06660175
 37,-3.136925295,-1.0602304918\Bq,0,1.0610985171,-3.0887288037,-1.04811
 38666\Bq,0,1.0555952804,-3.0405323123,-1.0359972413\Bq,0,1.0500920437,
 -2.992335821,-1.0238806161\Bq,0,1.044588807,-2.9441393296,-1.011763990
 9\Bq,0,1.0390855703,-2.8959428383,-0.9996473657\Bq,0,1.0335823336,-2.8
 477463469,-0.9875307404\Bq,0,1.0280790969,-2.7995498555,-0.9754141152\
 Bq,0,1.0225758603,-2.7513533642,-0.96329749\Bq,0,1.0170726236,-2.70315
 68728,-0.9511808647\Bq,0,1.0115693869,-2.6549603815,-0.9390642395\Bq,0
 ,1.0060661502,-2.6067638901,-0.9269476143\Bq,0,1.0005629135,-2.5585673
 988,-0.9148309891\Bq,0,0.9950596768,-2.5103709074,-0.9027143638\Bq,0,0
 .9895564401,-2.462174416,-0.8905977386\Bq,0,0.9840532035,-2.4139779247
 ,-0.8784811134\Bq,0,0.9785499668,-2.3657814333,-0.8663644881\Bq,0,0.97
 30467301,-2.317584942,-0.8542478629\Bq,0,0.9675434934,-2.2693884506,-0
 .8421312377\Bq,0,0.9620402567,-2.2211919593,-0.8300146125\Bq,0,0.95653
 702,-2.1729954679,-0.8178979872\Bq,0,0.9510337833,-2.1247989766,-0.805
 781362\Bq,0,0.9455305466,-2.0766024852,-0.7936647368\Bq,0,0.94002731,-
 2.0284059938,-0.7815481115\Bq,0,0.9345240733,-1.9802095025,-0.76943148
 63\Bq,0,0.9290208366,-1.9320130111,-0.7573148611\Bq,0,0.9235175999,-1.
 8838165198,-0.7451982359\Bq,0,0.9180143632,-1.8356200284,-0.7330816106
 \Bq,0,0.9125111265,-1.7874235371,-0.7209649854\Bq,0,0.9070078898,-1.73
 92270457,-0.7088483602\Bq,0,0.9015046532,-1.6910305543,-0.6967317349\B
 q,0,0.8960014165,-1.642834063,-0.6846151097\Bq,0,0.8904981798,-1.59463
 75716,-0.6724984845\Bq,0,0.8849949431,-1.5464410803,-0.6603818592\Bq,0
 ,0.8794917064,-1.4982445889,-0.648265234\Bq,0,0.8739884697,-1.45004809
 76,-0.6361486088\Bq,0,0.868485233,-1.4018516062,-0.6240319836\Bq,0,0.8
 629819964,-1.3536551149,-0.6119153583\Bq,0,0.8574787597,-1.3054586235,
 -0.5997987331\Bq,0,0.851975523,-1.2572621321,-0.5876821079\Bq,0,0.8464
 722863,-1.2090656408,-0.5755654826\Bq,0,0.8409690496,-1.1608691494,-0.
 5634488574\Bq,0,0.8354658129,-1.1126726581,-0.5513322322\Bq,0,0.829962
 5762,-1.0644761667,-0.539215607\Bq,0,0.8244593396,-1.0162796754,-0.527
 0989817\Bq,0,0.8189561029,-0.968083184,-0.5149823565\Bq,0,0.8134528662
 ,-0.9198866927,-0.5028657313\Bq,0,0.8079496295,-0.8716902013,-0.490749
 106\Bq,0,0.8024463928,-0.8234937099,-0.4786324808\Bq,0,0.7969431561,-0
 .7752972186,-0.4665158556\Bq,0,0.7914399194,-0.7271007272,-0.454399230
 4\Bq,0,0.7859366828,-0.6789042359,-0.4422826051\Bq,0,0.7804334461,-0.6
 307077445,-0.4301659799\Bq,0,0.7749302094,-0.5825112532,-0.4180493547\
 Bq,0,0.7694269727,-0.5343147618,-0.4059327294\Bq,0,0.763923736,-0.4861
 182704,-0.3938161042\Bq,0,0.7584204993,-0.4379217791,-0.381699479\Bq,0
 ,0.7529172626,-0.3897252877,-0.3695828538\Bq,0,0.747414026,-0.34152879
 64,-0.3574662285\Bq,0,0.7419107893,-0.293332305,-0.3453496033\Bq,0,0.7
 364075526,-0.2451358137,-0.3332329781\Bq,0,0.7309043159,-0.1969393223,
 -0.3211163528\Bq,0,0.7254010792,-0.148742831,-0.3089997276\Bq,0,0.7198
 978425,-0.1005463396,-0.2968831024\Bq,0,0.7143946058,-0.0523498482,-0.
 2847664771\Bq,0,0.7088913691,-0.0041533569,-0.2726498519\Bq,0,0.703388
 1325,0.0440431345,-0.2605332267\Bq,0,1.2992362377,-4.7756060011,-1.451
 5190558\Bq,0,1.293733001,-4.7274095098,-1.4394024305\Bq,0,1.2882297644
 ,-4.6792130184,-1.4272858053\Bq,0,1.2827265277,-4.6310165271,-1.415169
 1801\Bq,0,1.277223291,-4.5828200357,-1.4030525549\Bq,0,1.2717200543,-4
 .5346235444,-1.3909359296\Bq,0,1.2662168176,-4.486427053,-1.3788193044
 \Bq,0,1.2607135809,-4.4382305616,-1.3667026792\Bq,0,1.2552103442,-4.39
 00340703,-1.3545860539\Bq,0,1.2497071076,-4.3418375789,-1.3424694287\B
 q,0,1.2442038709,-4.2936410876,-1.3303528035\Bq,0,1.2387006342,-4.2454
 445962,-1.3182361783\Bq,0,1.2331973975,-4.1972481049,-1.306119553\Bq,0
 ,1.2276941608,-4.1490516135,-1.2940029278\Bq,0,1.2221909241,-4.1008551
 222,-1.2818863026\Bq,0,1.2166876874,-4.0526586308,-1.2697696773\Bq,0,1
 .2111844507,-4.0044621394,-1.2576530521\Bq,0,1.2056812141,-3.956265648
 1,-1.2455364269\Bq,0,1.2001779774,-3.9080691567,-1.2334198017\Bq,0,1.1
 946747407,-3.8598726654,-1.2213031764\Bq,0,1.189171504,-3.811676174,-1
 .2091865512\Bq,0,1.1836682673,-3.7634796827,-1.197069926\Bq,0,1.178165
 0306,-3.7152831913,-1.1849533007\Bq,0,1.1726617939,-3.6670866999,-1.17
 28366755\Bq,0,1.1671585573,-3.6188902086,-1.1607200503\Bq,0,1.16165532
 06,-3.5706937172,-1.1486034251\Bq,0,1.1561520839,-3.5224972259,-1.1364
 867998\Bq,0,1.1506488472,-3.4743007345,-1.1243701746\Bq,0,1.1451456105
 ,-3.4261042432,-1.1122535494\Bq,0,1.1396423738,-3.3779077518,-1.100136
 9241\Bq,0,1.1341391371,-3.3297112605,-1.0880202989\Bq,0,1.1286359005,-
 3.2815147691,-1.0759036737\Bq,0,1.1231326638,-3.2333182777,-1.06378704
 84\Bq,0,1.1176294271,-3.1851217864,-1.0516704232\Bq,0,1.1121261904,-3.
 136925295,-1.039553798\Bq,0,1.1066229537,-3.0887288037,-1.0274371728\B
 q,0,1.101119717,-3.0405323123,-1.0153205475\Bq,0,1.0956164803,-2.99233
 5821,-1.0032039223\Bq,0,1.0901132437,-2.9441393296,-0.9910872971\Bq,0,
 1.084610007,-2.8959428383,-0.9789706718\Bq,0,1.0791067703,-2.847746346
 9,-0.9668540466\Bq,0,1.0736035336,-2.7995498555,-0.9547374214\Bq,0,1.0
 681002969,-2.7513533642,-0.9426207962\Bq,0,1.0625970602,-2.7031568728,
 -0.9305041709\Bq,0,1.0570938235,-2.6549603815,-0.9183875457\Bq,0,1.051
 5905869,-2.6067638901,-0.9062709205\Bq,0,1.0460873502,-2.5585673988,-0
 .8941542952\Bq,0,1.0405841135,-2.5103709074,-0.88203767\Bq,0,1.0350808
 768,-2.462174416,-0.8699210448\Bq,0,1.0295776401,-2.4139779247,-0.8578
 044196\Bq,0,1.0240744034,-2.3657814333,-0.8456877943\Bq,0,1.0185711667
 ,-2.317584942,-0.8335711691\Bq,0,1.0130679301,-2.2693884506,-0.8214545
 439\Bq,0,1.0075646934,-2.2211919593,-0.8093379186\Bq,0,1.0020614567,-2
 .1729954679,-0.7972212934\Bq,0,0.99655822,-2.1247989766,-0.7851046682\
 Bq,0,0.9910549833,-2.0766024852,-0.772988043\Bq,0,0.9855517466,-2.0284
 059938,-0.7608714177\\Version=ES64L-G09RevD.01\HF=-847.0032898\RMSD=7.
 568e-09\Dipole=0.0186808,0.0336671,0.0011595\Quadrupole=4.9072795,4.72
 88219,-9.6361014,-0.2850201,2.3867064,-0.880172\PG=C01 [X(C22H14)]\\@


 A leading authority is anyone who has guessed right more than once.
 -- Frank A. Clark
 Job cpu time:       0 days  2 hours 43 minutes  3.8 seconds.
 File lengths (MBytes):  RWF=    184 Int=      0 D2E=      0 Chk=     19 Scr=      1
 Normal termination of Gaussian 09 at Wed Aug 19 16:24:51 2020.

real	20m44.491s
user	163m0.229s
sys	0m3.643s
