 Entering Gaussian System, Link 0=g09
 Initial command:
 /share/programs/GAUSSIAN/64/g09/l1.exe "/scratch/yannick.29444/Gau-1257871.inp" -scrdir="/scratch/yannick.29444/"
 Entering Link 1 = /share/programs/GAUSSIAN/64/g09/l1.exe PID=   1257872.
  
 Copyright (c) 1988,1990,1992,1993,1995,1998,2003,2009,2013,
            Gaussian, Inc.  All Rights Reserved.
  
 This is part of the Gaussian(R) 09 program.  It is based on
 the Gaussian(R) 03 system (copyright 2003, Gaussian, Inc.),
 the Gaussian(R) 98 system (copyright 1998, Gaussian, Inc.),
 the Gaussian(R) 94 system (copyright 1995, Gaussian, Inc.),
 the Gaussian 92(TM) system (copyright 1992, Gaussian, Inc.),
 the Gaussian 90(TM) system (copyright 1990, Gaussian, Inc.),
 the Gaussian 88(TM) system (copyright 1988, Gaussian, Inc.),
 the Gaussian 86(TM) system (copyright 1986, Carnegie Mellon
 University), and the Gaussian 82(TM) system (copyright 1983,
 Carnegie Mellon University). Gaussian is a federally registered
 trademark of Gaussian, Inc.
  
 This software contains proprietary and confidential information,
 including trade secrets, belonging to Gaussian, Inc.
  
 This software is provided under written license and may be
 used, copied, transmitted, or stored only in accord with that
 written license.
  
 The following legend is applicable only to US Government
 contracts under FAR:
  
                    RESTRICTED RIGHTS LEGEND
  
 Use, reproduction and disclosure by the US Government is
 subject to restrictions as set forth in subparagraphs (a)
 and (c) of the Commercial Computer Software - Restricted
 Rights clause in FAR 52.227-19.
  
 Gaussian, Inc.
 340 Quinnipiac St., Bldg. 40, Wallingford CT 06492
  
  
 ---------------------------------------------------------------
 Warning -- This program may not be used in any manner that
 competes with the business of Gaussian, Inc. or will provide
 assistance to any competitor of Gaussian, Inc.  The licensee
 of this program is prohibited from giving any competitor of
 Gaussian, Inc. access to this program.  By using this program,
 the user acknowledges that Gaussian, Inc. is engaged in the
 business of creating and licensing software in the field of
 computational chemistry and represents and warrants to the
 licensee that it is not a competitor of Gaussian, Inc. and that
 it will not use this program in any manner prohibited above.
 ---------------------------------------------------------------
  

 Cite this work as:
 Gaussian 09, Revision D.01,
 M. J. Frisch, G. W. Trucks, H. B. Schlegel, G. E. Scuseria, 
 M. A. Robb, J. R. Cheeseman, G. Scalmani, V. Barone, B. Mennucci, 
 G. A. Petersson, H. Nakatsuji, M. Caricato, X. Li, H. P. Hratchian, 
 A. F. Izmaylov, J. Bloino, G. Zheng, J. L. Sonnenberg, M. Hada, 
 M. Ehara, K. Toyota, R. Fukuda, J. Hasegawa, M. Ishida, T. Nakajima, 
 Y. Honda, O. Kitao, H. Nakai, T. Vreven, J. A. Montgomery, Jr., 
 J. E. Peralta, F. Ogliaro, M. Bearpark, J. J. Heyd, E. Brothers, 
 K. N. Kudin, V. N. Staroverov, T. Keith, R. Kobayashi, J. Normand, 
 K. Raghavachari, A. Rendell, J. C. Burant, S. S. Iyengar, J. Tomasi, 
 M. Cossi, N. Rega, J. M. Millam, M. Klene, J. E. Knox, J. B. Cross, 
 V. Bakken, C. Adamo, J. Jaramillo, R. Gomperts, R. E. Stratmann, 
 O. Yazyev, A. J. Austin, R. Cammi, C. Pomelli, J. W. Ochterski, 
 R. L. Martin, K. Morokuma, V. G. Zakrzewski, G. A. Voth, 
 P. Salvador, J. J. Dannenberg, S. Dapprich, A. D. Daniels, 
 O. Farkas, J. B. Foresman, J. V. Ortiz, J. Cioslowski, 
 and D. J. Fox, Gaussian, Inc., Wallingford CT, 2013.
 
 ******************************************
 Gaussian 09:  ES64L-G09RevD.01 24-Apr-2013
                19-Aug-2020 
 ******************************************
 %nproc=8
 Will use up to    8 processors via shared memory.
 %mem=1000MB
 ----------------------------------------
 # rb3lyp/6-311+g** NMR geom=connectivity
 ----------------------------------------
 1/38=1,57=2/1;
 2/12=2,17=6,18=5,40=1/2;
 3/5=4,6=6,7=111,11=2,16=1,25=1,30=1,74=-5,116=1/1,2,8,3;
 4//1;
 5/5=2,38=5/2;
 8/6=1,10=90,11=11/1;
 10/13=100,45=16/2;
 6/7=2,8=2,9=2,10=2,28=1/1;
 99/9=1/99;
 -----
 Title
 -----
 Symbolic Z-matrix:
 Charge =  0 Multiplicity = 1
 C                    -4.05006  -0.57719   0.81367 
 H                    -5.02638  -1.00827   1.00248 
 C                    -3.93816   0.66178   0.24009 
 H                    -4.82524   1.23389  -0.01113 
 C                    -2.67684   1.24332   0.00576 
 C                    -1.49741   0.50515   0.28483 
 C                    -1.65083  -0.73387   0.9404 
 H                    -0.77136  -1.2731    1.26338 
 C                    -2.88985  -1.2624    1.19943 
 H                    -2.96837  -2.21246   1.71527 
 C                    -2.57732   2.59637  -0.41929 
 H                    -3.48707   3.14122  -0.64741 
 C                    -1.37419   3.21479  -0.4364 
 H                    -1.29973   4.2742   -0.65781 
 C                    -0.17195   2.49941  -0.17346 
 C                    -0.20439   1.10184   0.01927 
 C                     1.05135   3.20426  -0.06762 
 H                     1.04273   4.28195  -0.1897 
 C                     2.19421   2.54874   0.25796 
 H                     3.11685   3.09128   0.43347 
 C                     2.22165   1.13366   0.2935 
 C                     1.04869   0.39455   0.03024 
 C                     3.44834   0.46146   0.55739 
 H                     4.30958   1.06061   0.83348 
 C                     3.54273  -0.88559   0.47495 
 H                     4.47315  -1.39397   0.70388 
 C                     2.44901  -1.64744  -0.01963 
 C                     1.21507  -1.00573  -0.30136 
 C                     0.25311  -1.74344  -1.02166 
 H                    -0.65414  -1.25351  -1.34628 
 C                     0.44942  -3.06286  -1.34138 
 H                    -0.30832  -3.59443  -1.90541 
 C                     1.62517  -3.7208   -0.95525 
 H                     1.767    -4.76874  -1.1927 
 C                     2.61099  -3.01442  -0.31831 
 H                     3.55256  -3.49028  -0.06464 
 Bq                   -2.03523  -0.74761   0.9315 
 Bq                   -2.03515  -0.70259   0.90976 
 Bq                   -2.03506  -0.65756   0.88802 
 Bq                   -2.03498  -0.61253   0.86628 
 Bq                   -2.03489  -0.56751   0.84454 
 Bq                   -2.0348   -0.52248   0.8228 
 Bq                   -2.03472  -0.47746   0.80106 
 Bq                   -2.03463  -0.43243   0.77931 
 Bq                   -2.03455  -0.38741   0.75757 
 Bq                   -2.03446  -0.34238   0.73583 
 Bq                   -2.03438  -0.29735   0.71409 
 Bq                   -2.03429  -0.25233   0.69235 
 Bq                   -2.03421  -0.2073    0.67061 
 Bq                   -2.03412  -0.16228   0.64887 
 Bq                   -2.03404  -0.11725   0.62713 
 Bq                   -2.03395  -0.07223   0.60539 
 Bq                   -2.03386  -0.0272    0.58364 
 Bq                   -2.03378   0.01782   0.5619 
 Bq                   -2.03369   0.06285   0.54016 
 Bq                   -2.03361   0.10788   0.51842 
 Bq                   -2.03352   0.1529    0.49668 
 Bq                   -2.03344   0.19793   0.47494 
 Bq                   -2.03335   0.24295   0.4532 
 Bq                   -2.03327   0.28798   0.43146 
 Bq                   -2.03318   0.333     0.40971 
 Bq                   -2.0331    0.37803   0.38797 
 Bq                   -2.03301   0.42306   0.36623 
 Bq                   -2.03292   0.46808   0.34449 
 Bq                   -2.03284   0.51311   0.32275 
 Bq                   -2.03275   0.55813   0.30101 
 Bq                   -2.03267   0.60316   0.27927 
 Bq                   -2.03258   0.64818   0.25753 
 Bq                   -2.0325    0.69321   0.23579 
 Bq                   -2.03241   0.73824   0.21404 
 Bq                   -2.03233   0.78326   0.1923 
 Bq                   -2.03224   0.82829   0.17056 
 Bq                   -2.03216   0.87331   0.14882 
 Bq                   -2.03207   0.91834   0.12708 
 Bq                   -2.03198   0.96336   0.10534 
 Bq                   -2.0319    1.00839   0.0836 
 Bq                   -2.03181   1.05342   0.06186 
 Bq                   -2.03173   1.09844   0.04011 
 Bq                   -2.03164   1.14347   0.01837 
 Bq                   -2.03156   1.18849  -0.00337 
 Bq                   -2.03147   1.23352  -0.02511 
 Bq                   -2.03139   1.27854  -0.04685 
 Bq                   -2.0313    1.32357  -0.06859 
 Bq                   -2.03122   1.3686   -0.09033 
 Bq                   -2.03113   1.41362  -0.11207 
 Bq                   -2.03104   1.45865  -0.13382 
 Bq                   -2.03096   1.50367  -0.15556 
 Bq                   -2.03087   1.5487   -0.1773 
 Bq                   -2.03079   1.59372  -0.19904 
 Bq                   -2.0307    1.63875  -0.22078 
 Bq                   -2.03062   1.68378  -0.24252 
 Bq                   -2.03053   1.7288   -0.26426 
 Bq                   -2.03045   1.77383  -0.286 
 Bq                   -2.03036   1.81885  -0.30774 
 Bq                   -2.03027   1.86388  -0.32949 
 Bq                   -2.03019   1.9089   -0.35123 
 Bq                   -2.0301    1.95393  -0.37297 
 Bq                   -2.03002   1.99896  -0.39471 
 Bq                   -2.02993   2.04398  -0.41645 
 Bq                   -2.02985   2.08901  -0.43819 
 Bq                   -2.02976   2.13403  -0.45993 
 Bq                   -2.02968   2.17906  -0.48167 
 Bq                   -2.02959   2.22408  -0.50342 
 Bq                   -1.98814  -2.27849   1.6709 
 Bq                   -1.98805  -2.23346   1.64916 
 Bq                   -1.98797  -2.18843   1.62742 
 Bq                   -1.98788  -2.14341   1.60568 
 Bq                   -1.9878   -2.09838   1.58394 
 Bq                   -1.98771  -2.05336   1.56219 
 Bq                   -1.98763  -2.00833   1.54045 
 Bq                   -1.98754  -1.96331   1.51871 
 Bq                   -1.98745  -1.91828   1.49697 
 Bq                   -1.98737  -1.87325   1.47523 
 Bq                   -1.98728  -1.82823   1.45349 
 Bq                   -1.9872   -1.7832    1.43175 
 Bq                   -1.98711  -1.73818   1.41001 
 Bq                   -1.98703  -1.69315   1.38826 
 Bq                   -1.98694  -1.64813   1.36652 
 Bq                   -1.98686  -1.6031    1.34478 
 Bq                   -1.98677  -1.55807   1.32304 
 Bq                   -1.98669  -1.51305   1.3013 
 Bq                   -1.9866   -1.46802   1.27956 
 Bq                   -1.98651  -1.423     1.25782 
 Bq                   -1.98643  -1.37797   1.23608 
 Bq                   -1.98634  -1.33295   1.21434 
 Bq                   -1.98626  -1.28792   1.19259 
 Bq                   -1.98617  -1.24289   1.17085 
 Bq                   -1.98609  -1.19787   1.14911 
 Bq                   -1.986    -1.15284   1.12737 
 Bq                   -1.98592  -1.10782   1.10563 
 Bq                   -1.98583  -1.06279   1.08389 
 Bq                   -1.98575  -1.01777   1.06215 
 Bq                   -1.98566  -0.97274   1.04041 
 Bq                   -1.98557  -0.92771   1.01866 
 Bq                   -1.98549  -0.88269   0.99692 
 Bq                   -1.9854   -0.83766   0.97518 
 Bq                   -1.98532  -0.79264   0.95344 
 Bq                   -1.98523  -0.74761   0.9317 
 Bq                   -1.98515  -0.70259   0.90996 
 Bq                   -1.98506  -0.65756   0.88822 
 Bq                   -1.98498  -0.61253   0.86648 
 Bq                   -1.98489  -0.56751   0.84473 
 Bq                   -1.9848   -0.52248   0.82299 
 Bq                   -1.98472  -0.47746   0.80125 
 Bq                   -1.98463  -0.43243   0.77951 
 Bq                   -1.98455  -0.38741   0.75777 
 Bq                   -1.98446  -0.34238   0.73603 
 Bq                   -1.98438  -0.29735   0.71429 
 Bq                   -1.98429  -0.25233   0.69255 
 Bq                   -1.98421  -0.2073    0.67081 
 Bq                   -1.98412  -0.16228   0.64906 
 Bq                   -1.98404  -0.11725   0.62732 
 Bq                   -1.98395  -0.07223   0.60558 
 Bq                   -1.98386  -0.0272    0.58384 
 Bq                   -1.98378   0.01782   0.5621 
 Bq                   -1.98369   0.06285   0.54036 
 Bq                   -1.98361   0.10788   0.51862 
 Bq                   -1.98352   0.1529    0.49688 
 Bq                   -1.98344   0.19793   0.47513 
 Bq                   -1.98335   0.24295   0.45339 
 Bq                   -1.98327   0.28798   0.43165 
 Bq                   -1.98318   0.333     0.40991 
 Bq                   -1.9831    0.37803   0.38817 
 Bq                   -1.98301   0.42306   0.36643 
 Bq                   -1.98292   0.46808   0.34469 
 Bq                   -1.98284   0.51311   0.32295 
 Bq                   -1.98275   0.55813   0.30121 
 Bq                   -1.98267   0.60316   0.27946 
 Bq                   -1.98258   0.64818   0.25772 
 Bq                   -1.9825    0.69321   0.23598 
 Bq                   -1.98241   0.73824   0.21424 
 Bq                   -1.98233   0.78326   0.1925 
 Bq                   -1.98224   0.82829   0.17076 
 Bq                   -1.98216   0.87331   0.14902 
 Bq                   -1.98207   0.91834   0.12728 
 Bq                   -1.98198   0.96336   0.10553 
 Bq                   -1.9819    1.00839   0.08379 
 Bq                   -1.98181   1.05342   0.06205 
 Bq                   -1.98173   1.09844   0.04031 
 Bq                   -1.98164   1.14347   0.01857 
 Bq                   -1.98156   1.18849  -0.00317 
 Bq                   -1.98147   1.23352  -0.02491 
 Bq                   -1.98139   1.27854  -0.04665 
 Bq                   -1.9813    1.32357  -0.0684 
 Bq                   -1.98122   1.3686   -0.09014 
 Bq                   -1.98113   1.41362  -0.11188 
 Bq                   -1.98104   1.45865  -0.13362 
 Bq                   -1.98096   1.50367  -0.15536 
 Bq                   -1.98087   1.5487   -0.1771 
 Bq                   -1.98079   1.59372  -0.19884 
 Bq                   -1.9807    1.63875  -0.22058 
 Bq                   -1.98062   1.68378  -0.24232 
 Bq                   -1.98053   1.7288   -0.26407 
 Bq                   -1.98045   1.77383  -0.28581 
 Bq                   -1.98036   1.81885  -0.30755 
 Bq                   -1.98028   1.86388  -0.32929 
 Bq                   -1.98019   1.9089   -0.35103 
 Bq                   -1.9801    1.95393  -0.37277 
 Bq                   -1.98002   1.99896  -0.39451 
 Bq                   -1.97993   2.04398  -0.41625 
 Bq                   -1.97985   2.08901  -0.438 
 Bq                   -1.97976   2.13403  -0.45974 
 Bq                   -1.97968   2.17906  -0.48148 
 Bq                   -1.97959   2.22408  -0.50322 
 Bq                   -1.93814  -2.27849   1.6711 
 Bq                   -1.93805  -2.23346   1.64936 
 Bq                   -1.93797  -2.18843   1.62761 
 Bq                   -1.93788  -2.14341   1.60587 
 Bq                   -1.9378   -2.09838   1.58413 
 Bq                   -1.93771  -2.05336   1.56239 
 Bq                   -1.93763  -2.00833   1.54065 
 Bq                   -1.93754  -1.96331   1.51891 
 Bq                   -1.93745  -1.91828   1.49717 
 Bq                   -1.93737  -1.87325   1.47543 
 Bq                   -1.93728  -1.82823   1.45368 
 Bq                   -1.9372   -1.7832    1.43194 
 Bq                   -1.93711  -1.73818   1.4102 
 Bq                   -1.93703  -1.69315   1.38846 
 Bq                   -1.93694  -1.64813   1.36672 
 Bq                   -1.93686  -1.6031    1.34498 
 Bq                   -1.93677  -1.55807   1.32324 
 Bq                   -1.93669  -1.51305   1.3015 
 Bq                   -1.9366   -1.46802   1.27976 
 Bq                   -1.93651  -1.423     1.25801 
 Bq                   -1.93643  -1.37797   1.23627 
 Bq                   -1.93634  -1.33295   1.21453 
 Bq                   -1.93626  -1.28792   1.19279 
 Bq                   -1.93617  -1.24289   1.17105 
 Bq                   -1.93609  -1.19787   1.14931 
 Bq                   -1.936    -1.15284   1.12757 
 Bq                   -1.93592  -1.10782   1.10583 
 Bq                   -1.93583  -1.06279   1.08408 
 Bq                   -1.93575  -1.01777   1.06234 
 Bq                   -1.93566  -0.97274   1.0406 
 Bq                   -1.93557  -0.92771   1.01886 
 Bq                   -1.93549  -0.88269   0.99712 
 
 Symmetry turned off:
 Cannot cope with ghost atoms or with translation vectors.
 Stoichiometry    C22H14
 Framework group  C1[X(C22H14)]
 NUMDOF-- NAT=    36 NAtoms=   236
 Deg. of freedom     0
 Full point group                 C1      NOp   1
                          Input orientation:                          
 ---------------------------------------------------------------------
 Center     Atomic      Atomic             Coordinates (Angstroms)
 Number     Number       Type             X           Y           Z
 ---------------------------------------------------------------------
      1          6           0       -4.050056   -0.577186    0.813671
      2          1           0       -5.026380   -1.008273    1.002476
      3          6           0       -3.938155    0.661780    0.240088
      4          1           0       -4.825242    1.233889   -0.011130
      5          6           0       -2.676841    1.243325    0.005758
      6          6           0       -1.497412    0.505153    0.284825
      7          6           0       -1.650833   -0.733873    0.940403
      8          1           0       -0.771365   -1.273097    1.263375
      9          6           0       -2.889855   -1.262404    1.199431
     10          1           0       -2.968371   -2.212456    1.715268
     11          6           0       -2.577319    2.596370   -0.419293
     12          1           0       -3.487073    3.141224   -0.647406
     13          6           0       -1.374190    3.214790   -0.436403
     14          1           0       -1.299732    4.274202   -0.657814
     15          6           0       -0.171949    2.499409   -0.173459
     16          6           0       -0.204392    1.101844    0.019269
     17          6           0        1.051349    3.204256   -0.067622
     18          1           0        1.042734    4.281950   -0.189700
     19          6           0        2.194209    2.548745    0.257958
     20          1           0        3.116853    3.091285    0.433473
     21          6           0        2.221647    1.133656    0.293499
     22          6           0        1.048693    0.394553    0.030241
     23          6           0        3.448336    0.461463    0.557394
     24          1           0        4.309579    1.060605    0.833485
     25          6           0        3.542735   -0.885593    0.474946
     26          1           0        4.473147   -1.393970    0.703882
     27          6           0        2.449005   -1.647445   -0.019632
     28          6           0        1.215070   -1.005726   -0.301357
     29          6           0        0.253111   -1.743444   -1.021659
     30          1           0       -0.654136   -1.253505   -1.346285
     31          6           0        0.449419   -3.062860   -1.341378
     32          1           0       -0.308316   -3.594431   -1.905406
     33          6           0        1.625173   -3.720797   -0.955254
     34          1           0        1.767005   -4.768740   -1.192702
     35          6           0        2.610987   -3.014418   -0.318305
     36          1           0        3.552561   -3.490281   -0.064637
     37          0           0       -2.035232   -0.747612    0.931503
     38          0           0       -2.035146   -0.702586    0.909762
     39          0           0       -2.035061   -0.657561    0.888021
     40          0           0       -2.034976   -0.612535    0.866280
     41          0           0       -2.034890   -0.567509    0.844538
     42          0           0       -2.034805   -0.522483    0.822797
     43          0           0       -2.034719   -0.477458    0.801056
     44          0           0       -2.034634   -0.432432    0.779315
     45          0           0       -2.034548   -0.387406    0.757574
     46          0           0       -2.034463   -0.342381    0.735832
     47          0           0       -2.034377   -0.297355    0.714091
     48          0           0       -2.034292   -0.252329    0.692350
     49          0           0       -2.034206   -0.207304    0.670609
     50          0           0       -2.034121   -0.162278    0.648868
     51          0           0       -2.034035   -0.117252    0.627127
     52          0           0       -2.033950   -0.072226    0.605385
     53          0           0       -2.033864   -0.027201    0.583644
     54          0           0       -2.033779    0.017825    0.561903
     55          0           0       -2.033694    0.062851    0.540162
     56          0           0       -2.033608    0.107876    0.518421
     57          0           0       -2.033523    0.152902    0.496679
     58          0           0       -2.033437    0.197928    0.474938
     59          0           0       -2.033352    0.242953    0.453197
     60          0           0       -2.033266    0.287979    0.431456
     61          0           0       -2.033181    0.333005    0.409715
     62          0           0       -2.033095    0.378030    0.387973
     63          0           0       -2.033010    0.423056    0.366232
     64          0           0       -2.032924    0.468082    0.344491
     65          0           0       -2.032839    0.513108    0.322750
     66          0           0       -2.032753    0.558133    0.301009
     67          0           0       -2.032668    0.603159    0.279267
     68          0           0       -2.032582    0.648185    0.257526
     69          0           0       -2.032497    0.693210    0.235785
     70          0           0       -2.032412    0.738236    0.214044
     71          0           0       -2.032326    0.783262    0.192303
     72          0           0       -2.032241    0.828287    0.170562
     73          0           0       -2.032155    0.873313    0.148820
     74          0           0       -2.032070    0.918339    0.127079
     75          0           0       -2.031984    0.963365    0.105338
     76          0           0       -2.031899    1.008390    0.083597
     77          0           0       -2.031813    1.053416    0.061856
     78          0           0       -2.031728    1.098442    0.040114
     79          0           0       -2.031642    1.143467    0.018373
     80          0           0       -2.031557    1.188493   -0.003368
     81          0           0       -2.031471    1.233519   -0.025109
     82          0           0       -2.031386    1.278544   -0.046850
     83          0           0       -2.031300    1.323570   -0.068592
     84          0           0       -2.031215    1.368596   -0.090333
     85          0           0       -2.031130    1.413621   -0.112074
     86          0           0       -2.031044    1.458647   -0.133815
     87          0           0       -2.030959    1.503673   -0.155556
     88          0           0       -2.030873    1.548699   -0.177298
     89          0           0       -2.030788    1.593724   -0.199039
     90          0           0       -2.030702    1.638750   -0.220780
     91          0           0       -2.030617    1.683776   -0.242521
     92          0           0       -2.030531    1.728801   -0.264262
     93          0           0       -2.030446    1.773827   -0.286003
     94          0           0       -2.030360    1.818853   -0.307745
     95          0           0       -2.030275    1.863878   -0.329486
     96          0           0       -2.030189    1.908904   -0.351227
     97          0           0       -2.030104    1.953930   -0.372968
     98          0           0       -2.030019    1.998956   -0.394709
     99          0           0       -2.029933    2.043981   -0.416451
    100          0           0       -2.029848    2.089007   -0.438192
    101          0           0       -2.029762    2.134033   -0.459933
    102          0           0       -2.029677    2.179058   -0.481674
    103          0           0       -2.029591    2.224084   -0.503415
    104          0           0       -1.988138   -2.278486    1.670900
    105          0           0       -1.988053   -2.233460    1.649159
    106          0           0       -1.987967   -2.188434    1.627418
    107          0           0       -1.987882   -2.143409    1.605677
    108          0           0       -1.987796   -2.098383    1.583935
    109          0           0       -1.987711   -2.053357    1.562194
    110          0           0       -1.987625   -2.008331    1.540453
    111          0           0       -1.987540   -1.963306    1.518712
    112          0           0       -1.987454   -1.918280    1.496971
    113          0           0       -1.987369   -1.873254    1.475230
    114          0           0       -1.987284   -1.828229    1.453488
    115          0           0       -1.987198   -1.783203    1.431747
    116          0           0       -1.987113   -1.738177    1.410006
    117          0           0       -1.987027   -1.693152    1.388265
    118          0           0       -1.986942   -1.648126    1.366524
    119          0           0       -1.986856   -1.603100    1.344782
    120          0           0       -1.986771   -1.558074    1.323041
    121          0           0       -1.986685   -1.513049    1.301300
    122          0           0       -1.986600   -1.468023    1.279559
    123          0           0       -1.986514   -1.422997    1.257818
    124          0           0       -1.986429   -1.377972    1.236076
    125          0           0       -1.986343   -1.332946    1.214335
    126          0           0       -1.986258   -1.287920    1.192594
    127          0           0       -1.986172   -1.242895    1.170853
    128          0           0       -1.986087   -1.197869    1.149112
    129          0           0       -1.986002   -1.152843    1.127370
    130          0           0       -1.985916   -1.107818    1.105629
    131          0           0       -1.985831   -1.062792    1.083888
    132          0           0       -1.985745   -1.017766    1.062147
    133          0           0       -1.985660   -0.972740    1.040406
    134          0           0       -1.985574   -0.927715    1.018665
    135          0           0       -1.985489   -0.882689    0.996923
    136          0           0       -1.985403   -0.837663    0.975182
    137          0           0       -1.985318   -0.792638    0.953441
    138          0           0       -1.985232   -0.747612    0.931700
    139          0           0       -1.985147   -0.702586    0.909959
    140          0           0       -1.985061   -0.657561    0.888217
    141          0           0       -1.984976   -0.612535    0.866476
    142          0           0       -1.984890   -0.567509    0.844735
    143          0           0       -1.984805   -0.522483    0.822994
    144          0           0       -1.984720   -0.477458    0.801253
    145          0           0       -1.984634   -0.432432    0.779511
    146          0           0       -1.984549   -0.387406    0.757770
    147          0           0       -1.984463   -0.342381    0.736029
    148          0           0       -1.984378   -0.297355    0.714288
    149          0           0       -1.984292   -0.252329    0.692547
    150          0           0       -1.984207   -0.207304    0.670805
    151          0           0       -1.984121   -0.162278    0.649064
    152          0           0       -1.984036   -0.117252    0.627323
    153          0           0       -1.983950   -0.072226    0.605582
    154          0           0       -1.983865   -0.027201    0.583841
    155          0           0       -1.983779    0.017825    0.562100
    156          0           0       -1.983694    0.062851    0.540358
    157          0           0       -1.983608    0.107876    0.518617
    158          0           0       -1.983523    0.152902    0.496876
    159          0           0       -1.983438    0.197928    0.475135
    160          0           0       -1.983352    0.242953    0.453394
    161          0           0       -1.983267    0.287979    0.431652
    162          0           0       -1.983181    0.333005    0.409911
    163          0           0       -1.983096    0.378030    0.388170
    164          0           0       -1.983010    0.423056    0.366429
    165          0           0       -1.982925    0.468082    0.344688
    166          0           0       -1.982839    0.513108    0.322946
    167          0           0       -1.982754    0.558133    0.301205
    168          0           0       -1.982668    0.603159    0.279464
    169          0           0       -1.982583    0.648185    0.257723
    170          0           0       -1.982497    0.693210    0.235982
    171          0           0       -1.982412    0.738236    0.214240
    172          0           0       -1.982326    0.783262    0.192499
    173          0           0       -1.982241    0.828287    0.170758
    174          0           0       -1.982156    0.873313    0.149017
    175          0           0       -1.982070    0.918339    0.127276
    176          0           0       -1.981985    0.963365    0.105535
    177          0           0       -1.981899    1.008390    0.083793
    178          0           0       -1.981814    1.053416    0.062052
    179          0           0       -1.981728    1.098442    0.040311
    180          0           0       -1.981643    1.143467    0.018570
    181          0           0       -1.981557    1.188493   -0.003171
    182          0           0       -1.981472    1.233519   -0.024913
    183          0           0       -1.981386    1.278544   -0.046654
    184          0           0       -1.981301    1.323570   -0.068395
    185          0           0       -1.981215    1.368596   -0.090136
    186          0           0       -1.981130    1.413621   -0.111877
    187          0           0       -1.981044    1.458647   -0.133619
    188          0           0       -1.980959    1.503673   -0.155360
    189          0           0       -1.980874    1.548699   -0.177101
    190          0           0       -1.980788    1.593724   -0.198842
    191          0           0       -1.980703    1.638750   -0.220583
    192          0           0       -1.980617    1.683776   -0.242325
    193          0           0       -1.980532    1.728801   -0.264066
    194          0           0       -1.980446    1.773827   -0.285807
    195          0           0       -1.980361    1.818853   -0.307548
    196          0           0       -1.980275    1.863878   -0.329289
    197          0           0       -1.980190    1.908904   -0.351030
    198          0           0       -1.980104    1.953930   -0.372772
    199          0           0       -1.980019    1.998956   -0.394513
    200          0           0       -1.979933    2.043981   -0.416254
    201          0           0       -1.979848    2.089007   -0.437995
    202          0           0       -1.979762    2.134033   -0.459736
    203          0           0       -1.979677    2.179058   -0.481478
    204          0           0       -1.979592    2.224084   -0.503219
    205          0           0       -1.938139   -2.278486    1.671097
    206          0           0       -1.938053   -2.233460    1.649356
    207          0           0       -1.937968   -2.188434    1.627614
    208          0           0       -1.937882   -2.143409    1.605873
    209          0           0       -1.937797   -2.098383    1.584132
    210          0           0       -1.937711   -2.053357    1.562391
    211          0           0       -1.937626   -2.008331    1.540650
    212          0           0       -1.937540   -1.963306    1.518908
    213          0           0       -1.937455   -1.918280    1.497167
    214          0           0       -1.937369   -1.873254    1.475426
    215          0           0       -1.937284   -1.828229    1.453685
    216          0           0       -1.937198   -1.783203    1.431944
    217          0           0       -1.937113   -1.738177    1.410202
    218          0           0       -1.937027   -1.693152    1.388461
    219          0           0       -1.936942   -1.648126    1.366720
    220          0           0       -1.936857   -1.603100    1.344979
    221          0           0       -1.936771   -1.558074    1.323238
    222          0           0       -1.936686   -1.513049    1.301497
    223          0           0       -1.936600   -1.468023    1.279755
    224          0           0       -1.936515   -1.422997    1.258014
    225          0           0       -1.936429   -1.377972    1.236273
    226          0           0       -1.936344   -1.332946    1.214532
    227          0           0       -1.936258   -1.287920    1.192791
    228          0           0       -1.936173   -1.242895    1.171049
    229          0           0       -1.936087   -1.197869    1.149308
    230          0           0       -1.936002   -1.152843    1.127567
    231          0           0       -1.935916   -1.107818    1.105826
    232          0           0       -1.935831   -1.062792    1.084085
    233          0           0       -1.935746   -1.017766    1.062343
    234          0           0       -1.935660   -0.972740    1.040602
    235          0           0       -1.935575   -0.927715    1.018861
    236          0           0       -1.935489   -0.882689    0.997120
 ---------------------------------------------------------------------
 Rotational constants (GHZ):      0.4529074      0.2836956      0.1879557
 Standard basis: 6-311+G(d,p) (5D, 7F)
 Warning:  center  37 has no basis functions!
 Warning:  center  38 has no basis functions!
 Warning:  center  39 has no basis functions!
 Warning:  center  40 has no basis functions!
 Warning:  center  41 has no basis functions!
 Warning:  center  42 has no basis functions!
 Warning:  center  43 has no basis functions!
 Warning:  center  44 has no basis functions!
 Warning:  center  45 has no basis functions!
 Warning:  center  46 has no basis functions!
 Warning:  center  47 has no basis functions!
 Warning:  center  48 has no basis functions!
 Warning:  center  49 has no basis functions!
 Warning:  center  50 has no basis functions!
 Warning:  center  51 has no basis functions!
 Warning:  center  52 has no basis functions!
 Warning:  center  53 has no basis functions!
 Warning:  center  54 has no basis functions!
 Warning:  center  55 has no basis functions!
 Warning:  center  56 has no basis functions!
 Warning:  center  57 has no basis functions!
 Warning:  center  58 has no basis functions!
 Warning:  center  59 has no basis functions!
 Warning:  center  60 has no basis functions!
 Warning:  center  61 has no basis functions!
 Warning:  center  62 has no basis functions!
 Warning:  center  63 has no basis functions!
 Warning:  center  64 has no basis functions!
 Warning:  center  65 has no basis functions!
 Warning:  center  66 has no basis functions!
 Warning:  center  67 has no basis functions!
 Warning:  center  68 has no basis functions!
 Warning:  center  69 has no basis functions!
 Warning:  center  70 has no basis functions!
 Warning:  center  71 has no basis functions!
 Warning:  center  72 has no basis functions!
 Warning:  center  73 has no basis functions!
 Warning:  center  74 has no basis functions!
 Warning:  center  75 has no basis functions!
 Warning:  center  76 has no basis functions!
 Warning:  center  77 has no basis functions!
 Warning:  center  78 has no basis functions!
 Warning:  center  79 has no basis functions!
 Warning:  center  80 has no basis functions!
 Warning:  center  81 has no basis functions!
 Warning:  center  82 has no basis functions!
 Warning:  center  83 has no basis functions!
 Warning:  center  84 has no basis functions!
 Warning:  center  85 has no basis functions!
 Warning:  center  86 has no basis functions!
 Warning:  center  87 has no basis functions!
 Warning:  center  88 has no basis functions!
 Warning:  center  89 has no basis functions!
 Warning:  center  90 has no basis functions!
 Warning:  center  91 has no basis functions!
 Warning:  center  92 has no basis functions!
 Warning:  center  93 has no basis functions!
 Warning:  center  94 has no basis functions!
 Warning:  center  95 has no basis functions!
 Warning:  center  96 has no basis functions!
 Warning:  center  97 has no basis functions!
 Warning:  center  98 has no basis functions!
 Warning:  center  99 has no basis functions!
 Warning:  center 100 has no basis functions!
 Warning:  center 101 has no basis functions!
 Warning:  center 102 has no basis functions!
 Warning:  center 103 has no basis functions!
 Warning:  center 104 has no basis functions!
 Warning:  center 105 has no basis functions!
 Warning:  center 106 has no basis functions!
 Warning:  center 107 has no basis functions!
 Warning:  center 108 has no basis functions!
 Warning:  center 109 has no basis functions!
 Warning:  center 110 has no basis functions!
 Warning:  center 111 has no basis functions!
 Warning:  center 112 has no basis functions!
 Warning:  center 113 has no basis functions!
 Warning:  center 114 has no basis functions!
 Warning:  center 115 has no basis functions!
 Warning:  center 116 has no basis functions!
 Warning:  center 117 has no basis functions!
 Warning:  center 118 has no basis functions!
 Warning:  center 119 has no basis functions!
 Warning:  center 120 has no basis functions!
 Warning:  center 121 has no basis functions!
 Warning:  center 122 has no basis functions!
 Warning:  center 123 has no basis functions!
 Warning:  center 124 has no basis functions!
 Warning:  center 125 has no basis functions!
 Warning:  center 126 has no basis functions!
 Warning:  center 127 has no basis functions!
 Warning:  center 128 has no basis functions!
 Warning:  center 129 has no basis functions!
 Warning:  center 130 has no basis functions!
 Warning:  center 131 has no basis functions!
 Warning:  center 132 has no basis functions!
 Warning:  center 133 has no basis functions!
 Warning:  center 134 has no basis functions!
 Warning:  center 135 has no basis functions!
 Warning:  center 136 has no basis functions!
 Warning:  center 137 has no basis functions!
 Warning:  center 138 has no basis functions!
 Warning:  center 139 has no basis functions!
 Warning:  center 140 has no basis functions!
 Warning:  center 141 has no basis functions!
 Warning:  center 142 has no basis functions!
 Warning:  center 143 has no basis functions!
 Warning:  center 144 has no basis functions!
 Warning:  center 145 has no basis functions!
 Warning:  center 146 has no basis functions!
 Warning:  center 147 has no basis functions!
 Warning:  center 148 has no basis functions!
 Warning:  center 149 has no basis functions!
 Warning:  center 150 has no basis functions!
 Warning:  center 151 has no basis functions!
 Warning:  center 152 has no basis functions!
 Warning:  center 153 has no basis functions!
 Warning:  center 154 has no basis functions!
 Warning:  center 155 has no basis functions!
 Warning:  center 156 has no basis functions!
 Warning:  center 157 has no basis functions!
 Warning:  center 158 has no basis functions!
 Warning:  center 159 has no basis functions!
 Warning:  center 160 has no basis functions!
 Warning:  center 161 has no basis functions!
 Warning:  center 162 has no basis functions!
 Warning:  center 163 has no basis functions!
 Warning:  center 164 has no basis functions!
 Warning:  center 165 has no basis functions!
 Warning:  center 166 has no basis functions!
 Warning:  center 167 has no basis functions!
 Warning:  center 168 has no basis functions!
 Warning:  center 169 has no basis functions!
 Warning:  center 170 has no basis functions!
 Warning:  center 171 has no basis functions!
 Warning:  center 172 has no basis functions!
 Warning:  center 173 has no basis functions!
 Warning:  center 174 has no basis functions!
 Warning:  center 175 has no basis functions!
 Warning:  center 176 has no basis functions!
 Warning:  center 177 has no basis functions!
 Warning:  center 178 has no basis functions!
 Warning:  center 179 has no basis functions!
 Warning:  center 180 has no basis functions!
 Warning:  center 181 has no basis functions!
 Warning:  center 182 has no basis functions!
 Warning:  center 183 has no basis functions!
 Warning:  center 184 has no basis functions!
 Warning:  center 185 has no basis functions!
 Warning:  center 186 has no basis functions!
 Warning:  center 187 has no basis functions!
 Warning:  center 188 has no basis functions!
 Warning:  center 189 has no basis functions!
 Warning:  center 190 has no basis functions!
 Warning:  center 191 has no basis functions!
 Warning:  center 192 has no basis functions!
 Warning:  center 193 has no basis functions!
 Warning:  center 194 has no basis functions!
 Warning:  center 195 has no basis functions!
 Warning:  center 196 has no basis functions!
 Warning:  center 197 has no basis functions!
 Warning:  center 198 has no basis functions!
 Warning:  center 199 has no basis functions!
 Warning:  center 200 has no basis functions!
 Warning:  center 201 has no basis functions!
 Warning:  center 202 has no basis functions!
 Warning:  center 203 has no basis functions!
 Warning:  center 204 has no basis functions!
 Warning:  center 205 has no basis functions!
 Warning:  center 206 has no basis functions!
 Warning:  center 207 has no basis functions!
 Warning:  center 208 has no basis functions!
 Warning:  center 209 has no basis functions!
 Warning:  center 210 has no basis functions!
 Warning:  center 211 has no basis functions!
 Warning:  center 212 has no basis functions!
 Warning:  center 213 has no basis functions!
 Warning:  center 214 has no basis functions!
 Warning:  center 215 has no basis functions!
 Warning:  center 216 has no basis functions!
 Warning:  center 217 has no basis functions!
 Warning:  center 218 has no basis functions!
 Warning:  center 219 has no basis functions!
 Warning:  center 220 has no basis functions!
 Warning:  center 221 has no basis functions!
 Warning:  center 222 has no basis functions!
 Warning:  center 223 has no basis functions!
 Warning:  center 224 has no basis functions!
 Warning:  center 225 has no basis functions!
 Warning:  center 226 has no basis functions!
 Warning:  center 227 has no basis functions!
 Warning:  center 228 has no basis functions!
 Warning:  center 229 has no basis functions!
 Warning:  center 230 has no basis functions!
 Warning:  center 231 has no basis functions!
 Warning:  center 232 has no basis functions!
 Warning:  center 233 has no basis functions!
 Warning:  center 234 has no basis functions!
 Warning:  center 235 has no basis functions!
 Warning:  center 236 has no basis functions!
   568 basis functions,   904 primitive gaussians,   590 cartesian basis functions
    73 alpha electrons       73 beta electrons
       nuclear repulsion energy      1610.9176155625 Hartrees.
 NAtoms=  236 NActive=  236 NUniq=  236 SFac= 1.00D+00 NAtFMM=   60 NAOKFM=T Big=T
 Integral buffers will be    131072 words long.
 Raffenetti 2 integral format.
 Two-electron integral symmetry is turned off.
 One-electron integrals computed using PRISM.
 NBasis=   568 RedAO= T EigKep=  1.78D-06  NBF=   568
 NBsUse=   556 1.00D-06 EigRej=  9.09D-07 NBFU=   556
 ExpMin= 4.38D-02 ExpMax= 4.56D+03 ExpMxC= 6.82D+02 IAcc=2 IRadAn=         4 AccDes= 0.00D+00
 Harris functional with IExCor=  402 and IRadAn=       4 diagonalized for initial guess.
 HarFok:  IExCor=  402 AccDes= 0.00D+00 IRadAn=         4 IDoV= 1 UseB2=F ITyADJ=14
 ICtDFT=  3500011 ScaDFX=  1.000000  1.000000  1.000000  1.000000
 FoFCou: FMM=F IPFlag=           0 FMFlag=      100000 FMFlg1=        2001
         NFxFlg=           0 DoJE=T BraDBF=F KetDBF=T FulRan=T
         wScrn=  0.000000 ICntrl=     500 IOpCl=  0 I1Cent=   200000004 NGrid=           0
         NMat0=    1 NMatS0=      1 NMatT0=    0 NMatD0=    1 NMtDS0=    0 NMtDT0=    0
 Symmetry not used in FoFCou.
 Requested convergence on RMS density matrix=1.00D-08 within 128 cycles.
 Requested convergence on MAX density matrix=1.00D-06.
 Requested convergence on             energy=1.00D-06.
 No special actions if energy rises.
 SCF Done:  E(RB3LYP) =  -847.003289847     A.U. after   15 cycles
            NFock= 15  Conv=0.75D-08     -V/T= 2.0040
 DoSCS=F DFT=T ScalE2(SS,OS)=  1.000000  1.000000
 Range of M.O.s used for correlation:     1   556
 NBasis=   568 NAE=    73 NBE=    73 NFC=     0 NFV=     0
 NROrb=    556 NOA=    73 NOB=    73 NVA=   483 NVB=   483

 **** Warning!!: The largest alpha MO coefficient is  0.10971035D+03

          Differentiating once with respect to magnetic field using GIAOs.
          Electric field/nuclear overlap derivatives assumed to be zero.
 FoFCou: FMM=F IPFlag=           0 FMFlag=      100000 FMFlg1=        2001
         NFxFlg=           0 DoJE=F BraDBF=F KetDBF=T FulRan=T
         wScrn=  0.000000 ICntrl=    6100 IOpCl=  0 I1Cent=           7 NGrid=         236
         NMat0=    1 NMatS0=      1 NMatT0=    0 NMatD0=    1 NMtDS0=    0 NMtDT0=    0
 Symmetry not used in FoFCou.
 FoFJK:  IHMeth= 1 ICntrl=    6127 DoSepK=F KAlg= 0 I1Cent=   0 FoldK=F
 IRaf=         1 NMat=   1 IRICut=       1 DoRegI=T DoRafI=F ISym2E= 0.
          There are     3 degrees of freedom in the 1st order CPHF.  IDoFFX=0 NUNeed=     3.
      3 vectors produced by pass  0 Test12= 1.18D-12 3.33D-08 XBig12= 2.07D+03 9.18D+00.
 AX will form     3 AO Fock derivatives at one time.
      3 vectors produced by pass  1 Test12= 1.18D-12 3.33D-08 XBig12= 3.56D+00 8.03D-01.
      3 vectors produced by pass  2 Test12= 1.18D-12 3.33D-08 XBig12= 2.10D-02 6.92D-02.
      3 vectors produced by pass  3 Test12= 1.18D-12 3.33D-08 XBig12= 5.45D-05 1.89D-03.
      3 vectors produced by pass  4 Test12= 1.18D-12 3.33D-08 XBig12= 1.20D-07 7.79D-05.
      3 vectors produced by pass  5 Test12= 1.18D-12 3.33D-08 XBig12= 4.02D-10 4.73D-06.
      3 vectors produced by pass  6 Test12= 1.18D-12 3.33D-08 XBig12= 1.32D-12 2.61D-07.
 InvSVY:  IOpt=1 It=  1 EMax= 7.11D-15
 Solved reduced A of dimension    21 with     3 vectors.
 Calculating GIAO nuclear magnetic shielding tensors.
 SCF GIAO Magnetic shielding tensor (ppm):
      1  C    Isotropic =    53.8139   Anisotropy =   178.0260
   XX=   -41.4327   YX=   -32.3458   ZX=    10.0287
   XY=   -28.3572   YY=    59.0527   ZY=    55.1899
   XZ=    13.1759   YZ=    58.7550   ZZ=   143.8218
   Eigenvalues:   -53.8775    42.8214   172.4979
      2  H    Isotropic =    24.3095   Anisotropy =     4.8536
   XX=    25.5771   YX=    -1.0289   ZX=     0.5661
   XY=    -0.7431   YY=    26.1829   ZY=    -2.3306
   XZ=    -0.1707   YZ=    -2.4411   ZZ=    21.1687
   Eigenvalues:    20.2108    25.1725    27.5453
      3  C    Isotropic =    51.4055   Anisotropy =   157.8639
   XX=   -31.5399   YX=    38.5015   ZX=   -17.9316
   XY=    34.3519   YY=    49.9437   ZY=    49.6392
   XZ=    -9.8383   YZ=    44.6006   ZZ=   135.8127
   Eigenvalues:   -50.5747    48.1432   156.6481
      4  H    Isotropic =    23.8290   Anisotropy =     7.1838
   XX=    25.3635   YX=     1.8486   ZX=    -0.3559
   XY=     1.9656   YY=    26.4581   ZY=    -2.4103
   XZ=    -1.2941   YZ=    -2.6614   ZZ=    19.6654
   Eigenvalues:    18.8176    24.0511    28.6182
      5  C    Isotropic =    46.0697   Anisotropy =   207.6751
   XX=   -19.2123   YX=    -4.8852   ZX=    -1.6475
   XY=     2.8938   YY=    -2.9860   ZY=    66.5656
   XZ=     2.5356   YZ=    67.9144   ZZ=   160.4073
   Eigenvalues:   -27.2455   -19.0652   184.5197
      6  C    Isotropic =    47.5218   Anisotropy =   196.9389
   XX=   -28.1552   YX=    -2.7889   ZX=    12.0660
   XY=   -14.3886   YY=    21.2063   ZY=    74.2521
   XZ=   -18.6356   YZ=    61.1113   ZZ=   149.5144
   Eigenvalues:   -30.2925    -5.9564   178.8144
      7  C    Isotropic =    49.3915   Anisotropy =   179.8333
   XX=   -12.5211   YX=    28.7048   ZX=   -24.6745
   XY=    31.5123   YY=    29.7000   ZY=    77.7459
   XZ=   -40.0095   YZ=    65.3072   ZZ=   130.9956
   Eigenvalues:   -52.1299    31.0240   169.2804
      8  H    Isotropic =    23.1586   Anisotropy =    13.5525
   XX=    28.5711   YX=     1.5482   ZX=    -3.6986
   XY=     3.2466   YY=    22.7592   ZY=    -2.1157
   XZ=    -8.3753   YZ=    -1.0821   ZZ=    18.1456
   Eigenvalues:    15.3521    21.9301    32.1936
      9  C    Isotropic =    55.1460   Anisotropy =   174.7426
   XX=    46.7071   YX=    -2.6162   ZX=    -2.8420
   XY=     0.6223   YY=    -1.6258   ZY=    92.8272
   XZ=     0.5159   YZ=    95.6598   ZZ=   120.3568
   Eigenvalues:   -52.8932    46.6901   171.6411
     10  H    Isotropic =    24.6278   Anisotropy =     7.1815
   XX=    29.1040   YX=     0.1399   ZX=    -0.3694
   XY=     0.3642   YY=    23.4778   ZY=    -1.0805
   XZ=    -2.4493   YZ=    -2.9465   ZZ=    21.3016
   Eigenvalues:    19.9703    24.4977    29.4155
     11  C    Isotropic =    51.5607   Anisotropy =   151.2142
   XX=     2.1639   YX=    40.9287   ZX=   -26.0048
   XY=    49.9131   YY=    12.2331   ZY=    42.1342
   XZ=   -15.6145   YZ=    38.6614   ZZ=   140.2851
   Eigenvalues:   -48.1951    50.5071   152.3701
     12  H    Isotropic =    23.8537   Anisotropy =     7.3815
   XX=    25.9672   YX=     2.3738   ZX=    -0.2390
   XY=     2.4320   YY=    26.3975   ZY=    -1.8291
   XZ=     0.3529   YZ=    -1.7731   ZZ=    19.1964
   Eigenvalues:    18.7149    24.0714    28.7747
     13  C    Isotropic =    52.8653   Anisotropy =   147.4265
   XX=    51.2944   YX=    19.9221   ZX=   -13.4678
   XY=    11.5478   YY=   -34.0176   ZY=    42.5079
   XZ=    -9.2241   YZ=    40.0716   ZZ=   141.3192
   Eigenvalues:   -46.5152    53.9616   151.1497
     14  H    Isotropic =    24.0156   Anisotropy =     7.3485
   XX=    28.6644   YX=     0.6281   ZX=     1.0808
   XY=     0.5926   YY=    24.4325   ZY=    -1.0823
   XZ=     1.6846   YZ=    -0.3842   ZZ=    18.9500
   Eigenvalues:    18.6430    24.4892    28.9146
     15  C    Isotropic =    46.2221   Anisotropy =   203.9048
   XX=   -27.2215   YX=    -0.0442   ZX=   -28.9124
   XY=     4.6427   YY=   -10.5571   ZY=    28.3830
   XZ=   -10.2704   YZ=    26.7376   ZZ=   176.4448
   Eigenvalues:   -30.5512   -12.9411   182.1586
     16  C    Isotropic =    51.9375   Anisotropy =   188.2004
   XX=   -19.4441   YX=     5.5046   ZX=    15.7858
   XY=    -8.3874   YY=     2.4863   ZY=    22.9264
   XZ=   -50.6243   YZ=    23.3340   ZZ=   172.7704
   Eigenvalues:   -21.0294    -0.5625   177.4045
     17  C    Isotropic =    51.9482   Anisotropy =   149.1264
   XX=    50.7296   YX=   -23.9353   ZX=   -18.4207
   XY=   -16.7271   YY=   -41.8764   ZY=    17.8662
   XZ=   -14.3278   YZ=    11.4871   ZZ=   146.9915
   Eigenvalues:   -46.7796    51.2584   151.3658
     18  H    Isotropic =    24.0122   Anisotropy =     7.5163
   XX=    28.5811   YX=    -0.0866   ZX=     1.5071
   XY=    -0.2466   YY=    24.3342   ZY=    -0.7657
   XZ=     2.5088   YZ=    -1.5208   ZZ=    19.1214
   Eigenvalues:    18.5094    24.5041    29.0231
     19  C    Isotropic =    51.7356   Anisotropy =   148.5924
   XX=     2.4559   YX=   -45.6913   ZX=   -31.2531
   XY=   -53.4448   YY=     7.4698   ZY=    -1.8888
   XZ=   -23.5601   YZ=    -1.2765   ZZ=   145.2810
   Eigenvalues:   -46.9894    51.3989   150.7972
     20  H    Isotropic =    23.9071   Anisotropy =     7.6651
   XX=    25.5796   YX=    -2.0226   ZX=     1.4905
   XY=    -1.9998   YY=    27.3706   ZY=    -0.5164
   XZ=     2.7276   YZ=    -1.1179   ZZ=    18.7711
   Eigenvalues:    18.1643    24.5398    29.0172
     21  C    Isotropic =    45.9767   Anisotropy =   203.9316
   XX=   -16.2108   YX=    13.1802   ZX=   -44.5913
   XY=     6.5714   YY=   -20.6329   ZY=     0.0949
   XZ=   -28.8984   YZ=   -13.0883   ZZ=   174.7736
   Eigenvalues:   -30.5796   -13.4215   181.9311
     22  C    Isotropic =    52.0450   Anisotropy =   188.1157
   XX=    -0.0787   YX=     2.5023   ZX=   -16.3451
   XY=    18.9327   YY=   -14.4798   ZY=   -34.4335
   XZ=   -50.6032   YZ=    19.9104   ZZ=   170.6934
   Eigenvalues:   -20.7705    -0.5500   177.4554
     23  C    Isotropic =    53.2392   Anisotropy =   146.7412
   XX=   -22.0674   YX=   -32.0012   ZX=   -49.4857
   XY=   -23.2043   YY=    44.3661   ZY=   -15.6400
   XZ=   -43.8090   YZ=   -20.2525   ZZ=   137.4189
   Eigenvalues:   -45.6776    54.3286   151.0667
     24  H    Isotropic =    23.8249   Anisotropy =     7.5289
   XX=    25.1073   YX=    -1.7330   ZX=     1.5380
   XY=    -1.5944   YY=    28.0047   ZY=     0.0879
   XZ=     1.2557   YZ=    -0.8283   ZZ=    18.3628
   Eigenvalues:    18.0848    24.5458    28.8442
     25  C    Isotropic =    51.4969   Anisotropy =   150.1066
   XX=   -28.4915   YX=    33.9684   ZX=   -52.3137
   XY=    22.0311   YY=    46.6072   ZY=    -3.8075
   XZ=   -44.5594   YZ=   -10.6355   ZZ=   136.3748
   Eigenvalues:   -48.3857    51.3083   151.5679
     26  H    Isotropic =    23.7431   Anisotropy =     7.4052
   XX=    24.0663   YX=     1.1141   ZX=     1.9989
   XY=     0.9693   YY=    28.1000   ZY=     1.6568
   XZ=     2.0795   YZ=     0.8886   ZZ=    19.0630
   Eigenvalues:    18.2615    24.2880    28.6799
     27  C    Isotropic =    45.8108   Anisotropy =   207.2710
   XX=    -2.7702   YX=    13.7697   ZX=   -61.4651
   XY=     6.5593   YY=   -12.0335   ZY=   -41.6456
   XZ=   -62.6381   YZ=   -44.9232   ZZ=   152.2361
   Eigenvalues:   -28.0803   -18.4787   183.9915
     28  C    Isotropic =    47.8398   Anisotropy =   197.2870
   XX=    19.6900   YX=    14.4398   ZX=   -60.5682
   XY=    28.5650   YY=   -19.3566   ZY=   -56.7015
   XZ=   -63.1331   YZ=   -24.4782   ZZ=   143.1859
   Eigenvalues:   -30.5979    -5.2472   179.3644
     29  C    Isotropic =    49.3441   Anisotropy =   179.7793
   XX=    -3.4110   YX=    38.3775   ZX=   -80.8875
   XY=    36.1252   YY=    25.9805   ZY=   -23.7573
   XZ=   -78.1065   YZ=    -3.9802   ZZ=   125.4627
   Eigenvalues:   -51.6645    30.4997   169.1970
     30  H    Isotropic =    23.1387   Anisotropy =    13.3222
   XX=    22.4354   YX=    -0.7013   ZX=    -0.2375
   XY=    -2.1539   YY=    28.3546   ZY=     4.5555
   XZ=    -3.4181   YZ=     8.3231   ZZ=    18.6259
   Eigenvalues:    15.2751    22.1208    32.0201
     31  C    Isotropic =    55.4410   Anisotropy =   174.9390
   XX=    17.1871   YX=   -14.0890   ZX=   -84.0024
   XY=   -17.9030   YY=    37.4745   ZY=   -50.3662
   XZ=   -84.6557   YZ=   -54.8325   ZZ=   111.6615
   Eigenvalues:   -51.9248    46.1808   172.0670
     32  H    Isotropic =    24.5337   Anisotropy =     7.2554
   XX=    24.6185   YX=    -2.5264   ZX=     0.7632
   XY=    -2.7385   YY=    27.4630   ZY=     1.0335
   XZ=     1.1913   YZ=     3.7573   ZZ=    21.5194
   Eigenvalues:    19.8987    24.3316    29.3706
     33  C    Isotropic =    53.1814   Anisotropy =   179.0596
   XX=    60.9231   YX=    35.2256   ZX=   -42.9515
   XY=    32.0226   YY=   -38.1801   ZY=   -45.5652
   XZ=   -44.2248   YZ=   -50.7831   ZZ=   136.8014
   Eigenvalues:   -55.1197    42.1095   172.5545
     34  H    Isotropic =    24.2825   Anisotropy =     5.1861
   XX=    26.7643   YX=    -0.0934   ZX=     2.5955
   XY=    -0.2993   YY=    24.8157   ZY=     0.8589
   XZ=     2.3715   YZ=     1.4580   ZZ=    21.2676
   Eigenvalues:    20.0339    25.0737    27.7399
     35  C    Isotropic =    51.5295   Anisotropy =   155.1748
   XX=    -0.5131   YX=    52.5760   ZX=   -52.1551
   XY=    55.6135   YY=    25.1843   ZY=   -14.2643
   XZ=   -45.7255   YZ=   -17.1625   ZZ=   129.9171
   Eigenvalues:   -48.3147    47.9237   154.9793
     36  H    Isotropic =    23.8384   Anisotropy =     7.3073
   XX=    24.2302   YX=     1.4459   ZX=     2.1759
   XY=     1.2147   YY=    27.1572   ZY=     2.0665
   XZ=     1.6853   YZ=     2.7775   ZZ=    20.1277
   Eigenvalues:    18.9464    23.8588    28.7099
     37  Bq   Isotropic =     8.3352   Anisotropy =    71.6599
   XX=   -30.6575   YX=     3.2522   ZX=    -6.5804
   XY=    12.5700   YY=    12.3943   ZY=    24.6760
   XZ=   -17.8171   YZ=    21.2878   ZZ=    43.2687
   Eigenvalues:   -35.7128     4.6098    56.1085
     38  Bq   Isotropic =     5.8767   Anisotropy =    70.6596
   XX=   -32.9021   YX=     8.7435   ZX=    -9.3132
   XY=    16.7699   YY=    10.3781   ZY=    24.0413
   XZ=   -19.2766   YZ=    21.4560   ZZ=    40.1542
   Eigenvalues:   -41.5474     6.1945    52.9831
     39  Bq   Isotropic =     4.6889   Anisotropy =    67.8509
   XX=   -32.1435   YX=    13.9111   ZX=   -11.7554
   XY=    20.0442   YY=     8.8238   ZY=    23.0734
   XZ=   -20.0915   YZ=    21.2018   ZZ=    37.3865
   Eigenvalues:   -44.7369     8.8808    49.9229
     40  Bq   Isotropic =     4.7561   Anisotropy =    63.6079
   XX=   -28.6472   YX=    18.2553   ZX=   -13.6780
   XY=    22.1990   YY=     7.7877   ZY=    21.9030
   XZ=   -20.3005   YZ=    20.5995   ZZ=    35.1277
   Eigenvalues:   -45.1596    12.2665    47.1613
     41  Bq   Isotropic =     5.8696   Anisotropy =    58.4235
   XX=   -23.0517   YX=    21.4042   ZX=   -14.9265
   XY=    23.1629   YY=     7.2471   ZY=    20.6487
   XZ=   -19.9860   YZ=    19.7434   ZZ=    33.4134
   Eigenvalues:   -43.0988    15.8890    44.8186
     42  Bq   Isotropic =     7.7121   Anisotropy =    52.8054
   XX=   -16.1902   YX=    23.1822   ZX=   -15.4482
   XY=    22.9882   YY=     7.1388   ZY=    19.3926
   XZ=   -19.2538   YZ=    18.7197   ZZ=    32.1876
   Eigenvalues:   -39.0959    19.3165    42.9157
     43  Bq   Isotropic =     9.9478   Anisotropy =    47.1942
   XX=    -8.8882   YX=    23.6156   ZX=   -15.2873
   XY=    21.8318   YY=     7.3833   ZY=    18.1812
   XZ=   -18.2207   YZ=    17.5960   ZZ=    31.3482
   Eigenvalues:   -33.7891    22.2218    41.4106
     44  Bq   Isotropic =    12.2864   Anisotropy =    41.9211
   XX=    -1.8181   YX=    22.8782   ZX=   -14.5543
   XY=    19.9133   YY=     7.8939   ZY=    17.0378
   XZ=   -17.0022   YZ=    16.4233   ZZ=    30.7834
   Eigenvalues:   -27.7840    24.4094    40.2338
     45  Bq   Isotropic =    14.5122   Anisotropy =    37.1961
   XX=     4.5586   YX=    21.2167   ZX=   -13.3865
   XY=    17.4659   YY=     8.5834   ZY=    15.9760
   XZ=   -15.7009   YZ=    15.2410   ZZ=    30.3945
   Eigenvalues:   -21.5779    25.8048    39.3096
     46  Bq   Isotropic =    16.4846   Anisotropy =    33.1169
   XX=     9.9787   YX=    18.8863   ZX=   -11.9172
   XY=    14.6986   YY=     9.3706   ZY=    15.0046
   XZ=   -14.3985   YZ=    14.0795   ZZ=    30.1046
   Eigenvalues:   -15.5360    26.4274    38.5626
     47  Bq   Isotropic =    18.1257   Anisotropy =    29.6926
   XX=    14.3308   YX=    16.1129   ZX=   -10.2592
   XY=    11.7765   YY=    10.1869   ZY=    14.1299
   XZ=   -13.1536   YZ=    12.9607   ZZ=    29.8594
   Eigenvalues:    -9.9002    26.3567    37.9208
     48  Bq   Isotropic =    19.4026   Anisotropy =    26.8846
   XX=    17.6035   YX=    13.0780   ZX=    -8.4987
   XY=     8.8162   YY=    10.9805   ZY=    13.3539
   XZ=   -12.0030   YZ=    11.8989   ZZ=    29.6238
   Eigenvalues:    -4.8147    25.6968    37.3256
     49  Bq   Isotropic =    20.3122   Anisotropy =    24.6446
   XX=    19.8412   YX=     9.9184   ZX=    -6.6968
   XY=     5.8901   YY=    11.7174   ZY=    12.6749
   XZ=   -10.9657   YZ=    10.9005   ZZ=    29.3780
   Eigenvalues:    -0.3569    24.5515    36.7419
     50  Bq   Isotropic =    20.8693   Anisotropy =    22.9335
   XX=    21.1122   YX=     6.7337   ZX=    -4.8947
   XY=     3.0360   YY=    12.3810   ZY=    12.0870
   XZ=   -10.0478   YZ=     9.9664   ZZ=    29.1147
   Eigenvalues:     3.4267    23.0230    36.1583
     51  Bq   Isotropic =    21.0984   Anisotropy =    21.7220
   XX=    21.4871   YX=     3.5967   ZX=    -3.1191
   XY=     0.2680   YY=    12.9708   ZY=    11.5810
   XZ=    -9.2469   YZ=     9.0925   ZZ=    28.8372
   Eigenvalues:     6.4699    21.2455    35.5797
     52  Bq   Isotropic =    21.0288   Anisotropy =    20.9877
   XX=    21.0276   YX=     0.5640   ZX=    -1.3886
   XY=    -2.4118   YY=    13.5003   ZY=    11.1455
   XZ=    -8.5573   YZ=     8.2725   ZZ=    28.5585
   Eigenvalues:     8.5825    19.4833    35.0206
     53  Bq   Isotropic =    20.6935   Anisotropy =    20.7114
   XX=    19.7833   YX=    -2.3126   ZX=     0.2807
   XY=    -5.0016   YY=    13.9957   ZY=    10.7679
   XZ=    -7.9731   YZ=     7.4993   ZZ=    28.3014
   Eigenvalues:     9.2744    18.3050    34.5010
     54  Bq   Isotropic =    20.1295   Anisotropy =    20.8756
   XX=    17.7950   YX=    -4.9774   ZX=     1.8696
   XY=    -7.4895   YY=    14.4935   ZY=    10.4360
   XZ=    -7.4922   YZ=     6.7680   ZZ=    28.1001
   Eigenvalues:     8.0855    18.2566    34.0466
     55  Bq   Isotropic =    19.3813   Anisotropy =    21.4630
   XX=    15.1045   YX=    -7.3628   ZX=     3.3519
   XY=    -9.8447   YY=    15.0382   ZY=    10.1397
   XZ=    -7.1174   YZ=     6.0783   ZZ=    28.0012
   Eigenvalues:     5.4817    18.9722    33.6900
     56  Bq   Isotropic =    18.5041   Anisotropy =    22.4550
   XX=    11.7688   YX=    -9.3853   ZX=     4.6914
   XY=   -12.0109   YY=    15.6787   ZY=     9.8731
   XZ=    -6.8584   YZ=     5.4371   ZZ=    28.0647
   Eigenvalues:     2.1577    19.8804    33.4741
     57  Bq   Isotropic =    17.5683   Anisotropy =    23.8334
   XX=     7.8768   YX=   -10.9447   ZX=     5.8403
   XY=   -13.9037   YY=    16.4637   ZY=     9.6365
   XZ=    -6.7311   YZ=     4.8612   ZZ=    28.3643
   Eigenvalues:    -1.4942    20.7419    33.4572
     58  Bq   Isotropic =    16.6627   Anisotropy =    25.5885
   XX=     3.5666   YX=   -11.9292   ZX=     6.7407
   XY=   -15.4119   YY=    17.4359   ZY=     9.4391
   XZ=    -6.7557   YZ=     4.3788   ZZ=    28.9854
   Eigenvalues:    -5.2212    21.4875    33.7216
     59  Bq   Isotropic =    15.8948   Anisotropy =    27.7294
   XX=    -0.9600   YX=   -12.2268   ZX=     7.3287
   XY=   -16.4059   YY=    18.6246   ZY=     9.2999
   XZ=    -6.9530   YZ=     4.0304   ZZ=    30.0199
   Eigenvalues:    -8.7962    22.0996    34.3811
     60  Bq   Isotropic =    15.3881   Anisotropy =    30.2815
   XX=    -5.4316   YX=   -11.7423   ZX=     7.5426
   XY=   -16.7521   YY=    20.0381   ZY=     9.2487
   XZ=    -7.3390   YZ=     3.8663   ZZ=    31.5578
   Eigenvalues:   -11.9860    22.5745    35.5757
     61  Bq   Isotropic =    15.2723   Anisotropy =    33.2556
   XX=    -9.5147   YX=   -10.4210   ZX=     7.3339
   XY=   -16.3345   YY=    21.6574   ZY=     9.3241
   XZ=    -7.9178   YZ=     3.9413   ZZ=    33.6742
   Eigenvalues:   -14.5558    22.9299    37.4427
     62  Bq   Isotropic =    15.6687   Anisotropy =    36.6076
   XX=   -12.8411   YX=    -8.2725   ZX=     6.6809
   XY=   -15.0807   YY=    23.4342   ZY=     9.5678
   XZ=    -8.6748   YZ=     4.3053   ZZ=    36.4131
   Eigenvalues:   -16.2941    23.2265    40.0738
     63  Bq   Isotropic =    16.6695   Anisotropy =    40.2219
   XX=   -15.0550   YX=    -5.3880   ZX=     5.5996
   XY=   -12.9859   YY=    25.2932   ZY=    10.0163
   XZ=    -9.5726   YZ=     4.9901   ZZ=    39.7704
   Eigenvalues:   -17.0506    23.5750    43.4841
     64  Bq   Isotropic =    18.3154   Anisotropy =    43.9293
   XX=   -15.8756   YX=    -1.9449   ZX=     4.1506
   XY=   -10.1289   YY=    27.1421   ZY=    10.6896
   XZ=   -10.5508   YZ=     5.9970   ZZ=    43.6796
   Eigenvalues:   -16.7770    24.1215    47.6016
     65  Bq   Isotropic =    20.5775   Anisotropy =    47.5354
   XX=   -15.1592   YX=     1.8092   ZX=     2.4355
   XY=    -6.6725   YY=    28.8852   ZY=    11.5805
   XZ=   -11.5323   YZ=     7.2873   ZZ=    48.0064
   Eigenvalues:   -15.5563    25.0210    52.2678
     66  Bq   Isotropic =    23.3500   Anisotropy =    50.8480
   XX=   -12.9440   YX=     5.5909   ZX=     0.5844
   XY=    -2.8464   YY=    30.4395   ZY=    12.6475
   XZ=   -12.4335   YZ=     8.7810   ZZ=    52.5545
   Eigenvalues:   -13.6031    26.4044    57.2487
     67  Bq   Isotropic =    26.4572   Anisotropy =    53.6988
   XX=    -9.4599   YX=     9.1254   ZX=    -1.2640
   XY=     1.0850   YY=    31.7473   ZY=    13.8157
   XZ=   -13.1764   YZ=    10.3644   ZZ=    57.0842
   Eigenvalues:   -11.2211    28.3363    62.2564
     68  Bq   Isotropic =    29.6746   Anisotropy =    55.9589
   XX=    -5.0985   YX=    12.1879   ZX=    -2.9837
   XY=     4.8610   YY=    32.7828   ZY=    14.9829
   XZ=   -13.6994   YZ=    11.9051   ZZ=    61.3393
   Eigenvalues:    -8.7250    30.7682    66.9805
     69  Bq   Isotropic =    32.7584   Anisotropy =    57.5463
   XX=    -0.3510   YX=    14.6308   ZX=    -4.4772
   XY=     8.2579   YY=    33.5505   ZY=    16.0340
   XZ=   -13.9634   YZ=    13.2703   ZZ=    65.0758
   Eigenvalues:    -6.3599    33.5125    71.1226
     70  Bq   Isotropic =    35.4765   Anisotropy =    58.4236
   XX=     4.2682   YX=    16.3896   ZX=    -5.6831
   XY=    11.1098   YY=    34.0766   ZY=    16.8557
   XZ=   -13.9531   YZ=    14.3436   ZZ=    68.0849
   Eigenvalues:    -4.2623    36.2663    74.4256
     71  Bq   Isotropic =    37.6334   Anisotropy =    58.5909
   XX=     8.2943   YX=    17.4688   ZX=    -6.5742
   XY=    13.3124   YY=    34.3975   ZY=    17.3517
   XZ=   -13.6731   YZ=    15.0371   ZZ=    70.2085
   Eigenvalues:    -2.4764    38.6826    76.6940
     72  Bq   Isotropic =    39.0867   Anisotropy =    58.0751
   XX=    11.3665   YX=    17.9177   ZX=    -7.1488
   XY=    14.8145   YY=    34.5486   ZY=    17.4531
   XZ=   -13.1421   YZ=    15.2981   ZZ=    71.3450
   Eigenvalues:    -0.9961    40.4527    77.8034
     73  Bq   Isotropic =    39.7547   Anisotropy =    56.9202
   XX=    13.2589   YX=    17.8029   ZX=    -7.4195
   XY=    15.6034   YY=    34.5563   ZY=    17.1253
   XZ=   -12.3863   YZ=    15.1105   ZZ=    71.4488
   Eigenvalues:     0.1982    41.3643    77.7014
     74  Bq   Isotropic =    39.6172   Anisotropy =    55.1804
   XX=    13.8908   YX=    17.1879   ZX=    -7.4050
   XY=    15.6904   YY=    34.4334   ZY=    16.3695
   XZ=   -11.4351   YZ=    14.4930   ZZ=    70.5273
   Eigenvalues:     1.1184    41.3290    76.4041
     75  Bq   Isotropic =    38.7110   Anisotropy =    52.9170
   XX=    13.3191   YX=    16.1227   ZX=    -7.1239
   XY=    15.1026   YY=    34.1785   ZY=    15.2216
   XZ=   -10.3184   YZ=    13.4949   ZZ=    68.6354
   Eigenvalues:     1.7600    40.3840    73.9890
     76  Bq   Isotropic =    37.1223   Anisotropy =    50.1965
   XX=    11.7203   YX=    14.6438   ZX=    -6.5947
   XY=    13.8814   YY=    33.7770   ZY=    13.7480
   XZ=    -9.0682   YZ=    12.1901   ZZ=    65.8696
   Eigenvalues:     2.1012    38.6791    70.5866
     77  Bq   Isotropic =    34.9765   Anisotropy =    47.0917
   XX=     9.3628   YX=    12.7831   ZX=    -5.8383
   XY=    12.0862   YY=    33.2047   ZY=    12.0388
   XZ=    -7.7201   YZ=    10.6708   ZZ=    62.3620
   Eigenvalues:     2.1071    36.4514    66.3710
     78  Bq   Isotropic =    32.4267   Anisotropy =    43.6831
   XX=     6.5731   YX=    10.5813   ZX=    -4.8834
   XY=     9.8013   YY=    32.4335   ZY=    10.2000
   XZ=    -6.3163   YZ=     9.0392   ZZ=    58.2735
   Eigenvalues:     1.7436    33.9877    61.5488
     79  Bq   Isotropic =    29.6409   Anisotropy =    40.0594
   XX=     3.6977   YX=     8.1006   ZX=    -3.7702
   XY=     7.1413   YY=    31.4391   ZY=     8.3426
   XZ=    -4.9068   YZ=     7.3991   ZZ=    53.7860
   Eigenvalues:     1.0049    31.5707    56.3472
     80  Bq   Isotropic =    26.7884   Anisotropy =    36.3175
   XX=     1.0638   YX=     5.4324   ZX=    -2.5533
   XY=     4.2509   YY=    30.2088   ZY=     6.5725
   XZ=    -3.5483   YZ=     5.8473   ZZ=    49.0925
   Eigenvalues:    -0.0525    29.4177    51.0000
     81  Bq   Isotropic =    24.0260   Anisotropy =    32.5598
   XX=    -1.0575   YX=     2.6965   ZX=    -1.2989
   XY=     1.2973   YY=    28.7492   ZY=     4.9789
   XZ=    -2.3000   YZ=     4.4648   ZZ=    44.3865
   Eigenvalues:    -1.2896    27.6352    45.7326
     82  Bq   Isotropic =    21.4865   Anisotropy =    28.8887
   XX=    -2.4778   YX=     0.0321   ZX=    -0.0803
   XY=    -1.5445   YY=    27.0892   ZY=     3.6270
   XZ=    -1.2183   YZ=     3.3109   ZZ=    39.8481
   Eigenvalues:    -2.5046    26.2185    40.7457
     83  Bq   Isotropic =    19.2690   Anisotropy =    25.3998
   XX=    -3.1055   YX=    -2.4178   ZX=     1.0311
   XY=    -4.1100   YY=    25.2802   ZY=     2.5522
   XZ=    -0.3497   YZ=     2.4189   ZZ=    35.6323
   Eigenvalues:    -3.4858    25.0906    36.2022
     84  Bq   Isotropic =    17.4344   Anisotropy =    22.1734
   XX=    -2.9445   YX=    -4.5239   ZX=     1.9740
   XY=    -6.2637   YY=    23.3894   ZY=     1.7606
   XZ=     0.2747   YZ=     1.7963   ZZ=    31.8583
   Eigenvalues:    -4.0649    24.1514    32.2166
     85  Bq   Isotropic =    16.0053   Anisotropy =    19.2678
   XX=    -2.0793   YX=    -6.1861   ZX=     2.7045
   XY=    -7.9121   YY=    21.4917   ZY=     1.2325
   XZ=     0.6420   YZ=     1.4279   ZZ=    28.6035
   Eigenvalues:    -4.1447    23.3101    28.8505
     86  Bq   Isotropic =    14.9707   Anisotropy =    16.7133
   XX=    -0.6503   YX=    -7.3416   ZX=     3.1995
   XY=    -9.0093   YY=    19.6595   ZY=     0.9301
   XZ=     0.7579   YZ=     1.2816   ZZ=    25.9031
   Eigenvalues:    -3.7009    22.5002    26.1129
     87  Bq   Isotropic =    14.2934   Anisotropy =    14.5097
   XX=     1.1720   YX=    -7.9679   ZX=     3.4569
   XY=    -9.5543   YY=    17.9540   ZY=     0.8047
   XZ=     0.6435   YZ=     1.3150   ZZ=    23.7541
   Eigenvalues:    -2.7679    21.6816    23.9665
     88  Bq   Isotropic =    13.9186   Anisotropy =    12.6489
   XX=     3.2123   YX=    -8.0773   ZX=     3.4931
   XY=    -9.5821   YY=    16.4203   ZY=     0.8052
   XZ=     0.3310   YZ=     1.4828   ZZ=    22.1233
   Eigenvalues:    -1.4196    20.8242    22.3513
     89  Bq   Isotropic =    13.7834   Anisotropy =    11.1923
   XX=     5.3085   YX=    -7.7095   ZX=     3.3382
   XY=    -9.1522   YY=    15.0851   ZY=     0.8830
   XZ=    -0.1416   YZ=     1.7414   ZZ=    20.9565
   Eigenvalues:     0.2503    19.8549    21.2449
     90  Bq   Isotropic =    13.8233   Anisotropy =    10.1895
   XX=     7.3228   YX=    -6.9215   ZX=     3.0305
   XY=    -8.3360   YY=    13.9585   ZY=     0.9956
   XZ=    -0.7353   YZ=     2.0530   ZZ=    20.1884
   Eigenvalues:     2.1428    18.7107    20.6163
     91  Bq   Isotropic =    13.9785   Anisotropy =     9.5401
   XX=     9.1466   YX=    -5.7787   ZX=     2.6125
   XY=    -7.2064   YY=    13.0373   ZY=     1.1085
   XZ=    -1.4141   YZ=     2.3878   ZZ=    19.7516
   Eigenvalues:     4.1644    17.4326    20.3386
     92  Bq   Isotropic =    14.1976   Anisotropy =     9.1692
   XX=    10.7000   YX=    -4.3483   ZX=     2.1272
   XY=    -5.8309   YY=    12.3099   ZY=     1.1947
   XZ=    -2.1463   YZ=     2.7242   ZZ=    19.5829
   Eigenvalues:     6.2302    16.0522    20.3104
     93  Bq   Isotropic =    14.4395   Anisotropy =     9.0464
   XX=    11.9284   YX=    -2.6949   ZX=     1.6158
   XY=    -4.2673   YY=    11.7614   ZY=     1.2343
   XZ=    -2.9058   YZ=     3.0488   ZZ=    19.6288
   Eigenvalues:     8.2548    14.5934    20.4704
     94  Bq   Isotropic =    14.6748   Anisotropy =     9.1551
   XX=    12.7978   YX=    -0.8789   ZX=     1.1169
   XY=    -2.5630   YY=    11.3782   ZY=     1.2126
   XZ=    -3.6712   YZ=     3.3553   ZZ=    19.8482
   Eigenvalues:    10.0583    13.1878    20.7781
     95  Bq   Isotropic =    14.8857   Anisotropy =     9.4845
   XX=    13.2908   YX=     1.0428   ZX=     0.6665
   XY=    -0.7565   YY=    11.1516   ZY=     1.1197
   XZ=    -4.4243   YZ=     3.6436   ZZ=    20.2147
   Eigenvalues:    10.4279    13.0204    21.2087
     96  Bq   Isotropic =    15.0667   Anisotropy =    10.0269
   XX=    13.4031   YX=     3.0148   ZX=     0.2986
   XY=     1.1191   YY=    11.0811   ZY=     0.9495
   XZ=    -5.1484   YZ=     3.9187   ZZ=    20.7160
   Eigenvalues:     8.9230    14.5258    21.7513
     97  Bq   Isotropic =    15.2241   Anisotropy =    10.7728
   XX=    13.1422   YX=     4.9799   ZX=     0.0454
   XY=     3.0318   YY=    11.1762   ZY=     0.6999
   XZ=    -5.8262   YZ=     4.1895   ZZ=    21.3538
   Eigenvalues:     7.0680    16.1982    22.4059
     98  Bq   Isotropic =    15.3758   Anisotropy =    11.7050
   XX=    12.5288   YX=     6.8758   ZX=    -0.0626
   XY=     4.9452   YY=    11.4564   ZY=     0.3733
   XZ=    -6.4383   YZ=     4.4683   ZZ=    22.1420
   Eigenvalues:     5.1247    17.8235    23.1791
     99  Bq   Isotropic =    15.5517   Anisotropy =    12.7945
   XX=    11.5989   YX=     8.6328   ZX=     0.0030
   XY=     6.8137   YY=    11.9514   ZY=    -0.0220
   XZ=    -6.9622   YZ=     4.7695   ZZ=    23.1047
   Eigenvalues:     3.1849    19.3888    24.0813
    100  Bq   Isotropic =    15.7929   Anisotropy =    14.0069
   XX=    10.4082   YX=    10.1720   ZX=     0.2665
   XY=     8.5786   YY=    12.6975   ZY=    -0.4702
   XZ=    -7.3725   YZ=     5.1089   ZZ=    24.2729
   Eigenvalues:     1.3390    20.9088    25.1308
    101  Bq   Isotropic =    16.1506   Anisotropy =    15.3282
   XX=     9.0373   YX=    11.4071   ZX=     0.7450
   XY=    10.1664   YY=    13.7341   ZY=    -0.9464
   XZ=    -7.6417   YZ=     5.5023   ZZ=    25.6804
   Eigenvalues:    -0.3053    22.3878    26.3694
    102  Bq   Isotropic =    16.6838   Anisotropy =    16.7944
   XX=     7.5949   YX=    12.2488   ZX=     1.4444
   XY=    11.4888   YY=    15.0972   ZY=    -1.4160
   XZ=    -7.7427   YZ=     5.9632   ZZ=    27.3594
   Eigenvalues:    -1.6220    23.7934    27.8801
    103  Bq   Isotropic =    17.4544   Anisotropy =    18.4691
   XX=     6.2185   YX=    12.6125   ZX=     2.3543
   XY=    12.4483   YY=    16.8111   ZY=    -1.8354
   XZ=    -7.6521   YZ=     6.5001   ZZ=    29.3338
   Eigenvalues:    -2.4734    25.0696    29.7672
    104  Bq   Isotropic =     0.3697   Anisotropy =    11.8339
   XX=     8.0593   YX=    -1.6289   ZX=    -0.2505
   XY=     0.1198   YY=     1.1378   ZY=    -6.7754
   XZ=    -3.3416   YZ=    -8.6270   ZZ=    -8.0880
   Eigenvalues:   -12.6330     5.4831     8.2590
    105  Bq   Isotropic =     0.4564   Anisotropy =    12.6088
   XX=     8.6190   YX=    -1.4082   ZX=    -0.3415
   XY=     0.3737   YY=     1.1770   ZY=    -7.0797
   XZ=    -3.4633   YZ=    -8.9847   ZZ=    -8.4267
   Eigenvalues:   -13.1506     5.6575     8.8623
    106  Bq   Isotropic =     0.5569   Anisotropy =    13.4156
   XX=     9.1760   YX=    -1.1571   ZX=    -0.4409
   XY=     0.6504   YY=     1.2473   ZY=    -7.4021
   XZ=    -3.5870   YZ=    -9.3645   ZZ=    -8.7526
   Eigenvalues:   -13.6681     5.8381     9.5006
    107  Bq   Isotropic =     0.6765   Anisotropy =    14.2423
   XX=     9.7287   YX=    -0.8805   ZX=    -0.5457
   XY=     0.9442   YY=     1.3563   ZY=    -7.7407
   XZ=    -3.7098   YZ=    -9.7651   ZZ=    -9.0555
   Eigenvalues:   -14.1747     6.0327    10.1714
    108  Bq   Isotropic =     0.8221   Anisotropy =    15.0746
   XX=    10.2771   YX=    -0.5853   ZX=    -0.6525
   XY=     1.2481   YY=     1.5120   ZY=    -8.0925
   XZ=    -3.8278   YZ=   -10.1836   ZZ=    -9.3227
   Eigenvalues:   -14.6564     6.2510    10.8718
    109  Bq   Isotropic =     1.0029   Anisotropy =    15.8948
   XX=    10.8237   YX=    -0.2801   ZX=    -0.7570
   XY=     1.5528   YY=     1.7232   ZY=    -8.4524
   XZ=    -3.9367   YZ=   -10.6157   ZZ=    -9.5382
   Eigenvalues:   -15.0952     6.5045    11.5995
    110  Bq   Isotropic =     1.2301   Anisotropy =    16.6817
   XX=    11.3736   YX=     0.0249   ZX=    -0.8544
   XY=     1.8472   YY=     1.9991   ZY=    -8.8134
   XZ=    -4.0312   YZ=   -11.0548   ZZ=    -9.6823
   Eigenvalues:   -15.4683     6.8075    12.3512
    111  Bq   Isotropic =     1.5176   Anisotropy =    17.4090
   XX=    11.9349   YX=     0.3175   ZX=    -0.9391
   XY=     2.1180   YY=     2.3492   ZY=    -9.1658
   XZ=    -4.1055   YZ=   -11.4921   ZZ=    -9.7314
   Eigenvalues:   -15.7477     7.1768    13.1236
    112  Bq   Isotropic =     1.8814   Anisotropy =    18.0458
   XX=    12.5187   YX=     0.5840   ZX=    -1.0050
   XY=     2.3498   YY=     2.7831   ZY=    -9.4971
   XZ=    -4.1531   YZ=   -11.9157   ZZ=    -9.6576
   Eigenvalues:   -15.8998     7.6320    13.9119
    113  Bq   Isotropic =     2.3400   Anisotropy =    18.5558
   XX=    13.1390   YX=     0.8091   ZX=    -1.0458
   XY=     2.5251   YY=     3.3098   ZY=    -9.7918
   XZ=    -4.1668   YZ=   -12.3106   ZZ=    -9.4288
   Eigenvalues:   -15.8852     8.1947    14.7106
    114  Bq   Isotropic =     2.9137   Anisotropy =    18.8978
   XX=    13.8129   YX=     0.9765   ZX=    -1.0547
   XY=     2.6244   YY=     3.9372   ZY=   -10.0304
   XZ=    -4.1389   YZ=   -12.6587   ZZ=    -9.0091
   Eigenvalues:   -15.6591     8.8879    15.5122
    115  Bq   Isotropic =     3.6237   Anisotropy =    19.0273
   XX=    14.5596   YX=     1.0691   ZX=    -1.0252
   XY=     2.6263   YY=     4.6711   ZY=   -10.1903
   XZ=    -4.0617   YZ=   -12.9380   ZZ=    -8.3596
   Eigenvalues:   -15.1718     9.7343    16.3085
    116  Bq   Isotropic =     4.4913   Anisotropy =    18.8989
   XX=    15.3995   YX=     1.0694   ZX=    -0.9508
   XY=     2.5089   YY=     5.5142   ZY=   -10.2452
   XZ=    -3.9273   YZ=   -13.1230   ZZ=    -7.4396
   Eigenvalues:   -14.3703    10.7537    17.0906
    117  Bq   Isotropic =     5.5366   Anisotropy =    18.4736
   XX=    16.3530   YX=     0.9604   ZX=    -0.8261
   XY=     2.2498   YY=     6.4650   ZY=   -10.1654
   XZ=    -3.7289   YZ=   -13.1852   ZZ=    -6.2081
   Eigenvalues:   -13.1996    11.9572    17.8523
    118  Bq   Isotropic =     6.7764   Anisotropy =    17.7330
   XX=    17.4387   YX=     0.7261   ZX=    -0.6463
   XY=     1.8276   YY=     7.5165   ZY=    -9.9183
   XZ=    -3.4613   YZ=   -13.0929   ZZ=    -4.6260
   Eigenvalues:   -11.6058    13.3366    18.5984
    119  Bq   Isotropic =     8.2224   Anisotropy =    16.7186
   XX=    18.6701   YX=     0.3523   ZX=    -0.4083
   XY=     1.2241   YY=     8.6552   ZY=    -9.4694
   XZ=    -3.1219   YZ=   -12.8128   ZZ=    -2.6582
   Eigenvalues:    -9.5388    14.8379    19.3681
    120  Bq   Isotropic =     9.8786   Anisotropy =    15.6213
   XX=    20.0521   YX=    -0.1725   ZX=    -0.1109
   XY=     0.4258   YY=     9.8602   ZY=    -8.7832
   XZ=    -2.7120   YZ=   -12.3103   ZZ=    -0.2765
   Eigenvalues:    -6.9566    16.2996    20.2928
    121  Bq   Isotropic =    11.7388   Anisotropy =    14.8451
   XX=    21.5757   YX=    -0.8568   ZX=     0.2452
   XY=    -0.5736   YY=    11.1032   ZY=    -7.8248
   XZ=    -2.2390   YZ=   -11.5520   ZZ=     2.5376
   Eigenvalues:    -3.8316    17.4124    21.6355
    122  Bq   Isotropic =    13.7829   Anisotropy =    14.6321
   XX=    23.2117   YX=    -1.7049   ZX=     0.6566
   XY=    -1.7700   YY=    12.3480   ZY=    -6.5621
   XZ=    -1.7170   YZ=   -10.5068   ZZ=     5.7892
   Eigenvalues:    -0.1609    17.9721    23.5377
    123  Bq   Isotropic =    15.9735   Anisotropy =    14.7796
   XX=    24.9024   YX=    -2.7171   ZX=     1.1173
   XY=    -3.1462   YY=    13.5519   ZY=    -4.9688
   XZ=    -1.1693   YZ=    -9.1496   ZZ=     9.4663
   Eigenvalues:     4.0056    18.0885    25.8266
    124  Bq   Isotropic =    18.2513   Anisotropy =    15.0159
   XX=    26.5531   YX=    -3.8883   ZX=     1.6184
   XY=    -4.6688   YY=    14.6663   ZY=    -3.0278
   XZ=    -0.6294   YZ=    -7.4640   ZZ=    13.5344
   Eigenvalues:     8.4584    18.0336    28.2619
    125  Bq   Isotropic =    20.5306   Anisotropy =    15.1393
   XX=    28.0231   YX=    -5.2070   ZX=     2.1474
[...]
   137  Bq   0.000000
   138  Bq   0.000000
   139  Bq   0.000000
   140  Bq   0.000000
   141  Bq   0.000000
   142  Bq   0.000000
   143  Bq   0.000000
   144  Bq   0.000000
   145  Bq   0.000000
   146  Bq   0.000000
   147  Bq   0.000000
   148  Bq   0.000000
   149  Bq   0.000000
   150  Bq   0.000000
   151  Bq   0.000000
   152  Bq   0.000000
   153  Bq   0.000000
   154  Bq   0.000000
   155  Bq   0.000000
   156  Bq   0.000000
   157  Bq   0.000000
   158  Bq   0.000000
   159  Bq   0.000000
   160  Bq   0.000000
   161  Bq   0.000000
   162  Bq   0.000000
   163  Bq   0.000000
   164  Bq   0.000000
   165  Bq   0.000000
   166  Bq   0.000000
   167  Bq   0.000000
   168  Bq   0.000000
   169  Bq   0.000000
   170  Bq   0.000000
   171  Bq   0.000000
   172  Bq   0.000000
   173  Bq   0.000000
   174  Bq   0.000000
   175  Bq   0.000000
   176  Bq   0.000000
   177  Bq   0.000000
   178  Bq   0.000000
   179  Bq   0.000000
   180  Bq   0.000000
   181  Bq   0.000000
   182  Bq   0.000000
   183  Bq   0.000000
   184  Bq   0.000000
   185  Bq   0.000000
   186  Bq   0.000000
   187  Bq   0.000000
   188  Bq   0.000000
   189  Bq   0.000000
   190  Bq   0.000000
   191  Bq   0.000000
   192  Bq   0.000000
   193  Bq   0.000000
   194  Bq   0.000000
   195  Bq   0.000000
   196  Bq   0.000000
   197  Bq   0.000000
   198  Bq   0.000000
   199  Bq   0.000000
   200  Bq   0.000000
   201  Bq   0.000000
   202  Bq   0.000000
   203  Bq   0.000000
   204  Bq   0.000000
   205  Bq   0.000000
   206  Bq   0.000000
   207  Bq   0.000000
   208  Bq   0.000000
   209  Bq   0.000000
   210  Bq   0.000000
   211  Bq   0.000000
   212  Bq   0.000000
   213  Bq   0.000000
   214  Bq   0.000000
   215  Bq   0.000000
   216  Bq   0.000000
   217  Bq   0.000000
   218  Bq   0.000000
   219  Bq   0.000000
   220  Bq   0.000000
   221  Bq   0.000000
   222  Bq   0.000000
   223  Bq   0.000000
   224  Bq   0.000000
   225  Bq   0.000000
   226  Bq   0.000000
   227  Bq   0.000000
   228  Bq   0.000000
   229  Bq   0.000000
   230  Bq   0.000000
   231  Bq   0.000000
   232  Bq   0.000000
   233  Bq   0.000000
   234  Bq   0.000000
   235  Bq   0.000000
   236  Bq   0.000000
 Sum of Mulliken charges =   0.00000
 Mulliken charges with hydrogens summed into heavy atoms:
               1
     1  C   -0.255498
     3  C    0.169409
     5  C    0.448258
     6  C    0.064351
     7  C   -0.333926
     9  C   -0.261805
    11  C   -0.205988
    13  C   -0.119315
    15  C    0.653397
    16  C    0.034822
    17  C   -0.317410
    19  C   -0.316854
    21  C    0.651066
    22  C    0.037784
    23  C   -0.117289
    25  C   -0.205316
    27  C    0.448331
    28  C    0.061983
    29  C   -0.333381
    31  C   -0.139505
    33  C   -0.255977
    35  C    0.170579
    37  Bq   0.000000
    38  Bq   0.000000
    39  Bq   0.000000
    40  Bq   0.000000
    41  Bq   0.000000
    42  Bq   0.000000
    43  Bq   0.000000
    44  Bq   0.000000
    45  Bq   0.000000
    46  Bq   0.000000
    47  Bq   0.000000
    48  Bq   0.000000
    49  Bq   0.000000
    50  Bq   0.000000
    51  Bq   0.000000
    52  Bq   0.000000
    53  Bq   0.000000
    54  Bq   0.000000
    55  Bq   0.000000
    56  Bq   0.000000
    57  Bq   0.000000
    58  Bq   0.000000
    59  Bq   0.000000
    60  Bq   0.000000
    61  Bq   0.000000
    62  Bq   0.000000
    63  Bq   0.000000
    64  Bq   0.000000
    65  Bq   0.000000
    66  Bq   0.000000
    67  Bq   0.000000
    68  Bq   0.000000
    69  Bq   0.000000
    70  Bq   0.000000
    71  Bq   0.000000
    72  Bq   0.000000
    73  Bq   0.000000
    74  Bq   0.000000
    75  Bq   0.000000
    76  Bq   0.000000
    77  Bq   0.000000
    78  Bq   0.000000
    79  Bq   0.000000
    80  Bq   0.000000
    81  Bq   0.000000
    82  Bq   0.000000
    83  Bq   0.000000
    84  Bq   0.000000
    85  Bq   0.000000
    86  Bq   0.000000
    87  Bq   0.000000
    88  Bq   0.000000
    89  Bq   0.000000
    90  Bq   0.000000
    91  Bq   0.000000
    92  Bq   0.000000
    93  Bq   0.000000
    94  Bq   0.000000
    95  Bq   0.000000
    96  Bq   0.000000
    97  Bq   0.000000
    98  Bq   0.000000
    99  Bq   0.000000
   100  Bq   0.000000
   101  Bq   0.000000
   102  Bq   0.000000
   103  Bq   0.000000
   104  Bq   0.000000
   105  Bq   0.122284
   106  Bq   0.000000
   107  Bq   0.000000
   108  Bq   0.000000
   109  Bq   0.000000
   110  Bq   0.000000
   111  Bq   0.000000
   112  Bq   0.000000
   113  Bq   0.000000
   114  Bq   0.000000
   115  Bq   0.000000
   116  Bq   0.000000
   117  Bq   0.000000
   118  Bq   0.000000
   119  Bq   0.000000
   120  Bq   0.000000
   121  Bq   0.000000
   122  Bq   0.000000
   123  Bq   0.000000
   124  Bq   0.000000
   125  Bq   0.000000
   126  Bq   0.000000
   127  Bq   0.000000
   128  Bq   0.000000
   129  Bq   0.000000
   130  Bq   0.000000
   131  Bq   0.000000
   132  Bq   0.000000
   133  Bq   0.000000
   134  Bq   0.000000
   135  Bq   0.000000
   136  Bq   0.000000
   137  Bq   0.000000
   138  Bq   0.000000
   139  Bq   0.000000
   140  Bq   0.000000
   141  Bq   0.000000
   142  Bq   0.000000
   143  Bq   0.000000
   144  Bq   0.000000
   145  Bq   0.000000
   146  Bq   0.000000
   147  Bq   0.000000
   148  Bq   0.000000
   149  Bq   0.000000
   150  Bq   0.000000
   151  Bq   0.000000
   152  Bq   0.000000
   153  Bq   0.000000
   154  Bq   0.000000
   155  Bq   0.000000
   156  Bq   0.000000
   157  Bq   0.000000
   158  Bq   0.000000
   159  Bq   0.000000
   160  Bq   0.000000
   161  Bq   0.000000
   162  Bq   0.000000
   163  Bq   0.000000
   164  Bq   0.000000
   165  Bq   0.000000
   166  Bq   0.000000
   167  Bq   0.000000
   168  Bq   0.000000
   169  Bq   0.000000
   170  Bq   0.000000
   171  Bq   0.000000
   172  Bq   0.000000
   173  Bq   0.000000
   174  Bq   0.000000
   175  Bq   0.000000
   176  Bq   0.000000
   177  Bq   0.000000
   178  Bq   0.000000
   179  Bq   0.000000
   180  Bq   0.000000
   181  Bq   0.000000
   182  Bq   0.000000
   183  Bq   0.000000
   184  Bq   0.000000
   185  Bq   0.000000
   186  Bq   0.000000
   187  Bq   0.000000
   188  Bq   0.000000
   189  Bq   0.000000
   190  Bq   0.000000
   191  Bq   0.000000
   192  Bq   0.000000
   193  Bq   0.000000
   194  Bq   0.000000
   195  Bq   0.000000
   196  Bq   0.000000
   197  Bq   0.000000
   198  Bq   0.000000
   199  Bq   0.000000
   200  Bq   0.000000
   201  Bq   0.000000
   202  Bq   0.000000
   203  Bq   0.000000
   204  Bq   0.000000
   205  Bq   0.000000
   206  Bq   0.000000
   207  Bq   0.000000
   208  Bq   0.000000
   209  Bq   0.000000
   210  Bq   0.000000
   211  Bq   0.000000
   212  Bq   0.000000
   213  Bq   0.000000
   214  Bq   0.000000
   215  Bq   0.000000
   216  Bq   0.000000
   217  Bq   0.000000
   218  Bq   0.000000
   219  Bq   0.000000
   220  Bq   0.000000
   221  Bq   0.000000
   222  Bq   0.000000
   223  Bq   0.000000
   224  Bq   0.000000
   225  Bq   0.000000
   226  Bq   0.000000
   227  Bq   0.000000
   228  Bq   0.000000
   229  Bq   0.000000
   230  Bq   0.000000
   231  Bq   0.000000
   232  Bq   0.000000
   233  Bq   0.000000
   234  Bq   0.000000
   235  Bq   0.000000
   236  Bq   0.000000
 Electronic spatial extent (au):  <R**2>=           5736.9264
 Charge=              0.0000 electrons
 Dipole moment (field-independent basis, Debye):
    X=              0.0475    Y=              0.0856    Z=              0.0029  Tot=              0.0979
 Quadrupole moment (field-independent basis, Debye-Ang):
   XX=           -113.7056   YY=           -113.9456   ZZ=           -133.2669
   XY=             -0.3834   XZ=              3.2102   YZ=             -1.1839
 Traceless Quadrupole moment (field-independent basis, Debye-Ang):
   XX=              6.6005   YY=              6.3604   ZZ=            -12.9609
   XY=             -0.3834   XZ=              3.2102   YZ=             -1.1839
 Octapole moment (field-independent basis, Debye-Ang**2):
  XXX=            -16.4668  YYY=            -16.1860  ZZZ=             -1.7007  XYY=              2.5576
  XXY=             -6.5650  XXZ=             13.6547  XZZ=             -8.9478  YZZ=            -17.7168
  YYZ=            -13.2941  XYZ=              8.8036
 Hexadecapole moment (field-independent basis, Debye-Ang**3):
 XXXX=          -3951.1638 YYYY=          -3112.2161 ZZZZ=           -504.8311 XXXY=            340.6935
 XXXZ=            156.4968 YYYX=            335.5625 YYYZ=            -87.0893 ZZZX=            120.2262
 ZZZY=           -108.7373 XXYY=          -1176.4844 XXZZ=           -856.7291 YYZZ=           -665.7275
 XXYZ=            -68.9016 YYXZ=             48.1602 ZZXY=            153.0375
 N-N= 1.610917615562D+03 E-N=-5.186891130729D+03  KE= 8.436329774448D+02
 1\1\GINC-PLANA\SP\RB3LYP\6-311+G(d,p)\C22H14\YANNICK\19-Aug-2020\0\\# 
 rb3lyp/6-311+g** NMR geom=connectivity\\Title\\0,1\C,0,-4.0500558,-0.5
 771862,0.8136712\H,0,-5.0263804,-1.0082727,1.002476\C,0,-3.9381552,0.6
 617804,0.2400876\H,0,-4.8252424,1.233889,-0.0111295\C,0,-2.676841,1.24
 33246,0.0057578\C,0,-1.4974121,0.5051527,0.2848253\C,0,-1.6508332,-0.7
 338728,0.9404026\H,0,-0.7713646,-1.2730967,1.2633753\C,0,-2.8898548,-1
 .2624035,1.1994307\H,0,-2.9683706,-2.2124563,1.7152676\C,0,-2.5773185,
 2.5963696,-0.419293\H,0,-3.4870728,3.1412239,-0.6474055\C,0,-1.3741895
 ,3.2147896,-0.436403\H,0,-1.2997315,4.2742019,-0.6578144\C,0,-0.171948
 8,2.499409,-0.1734588\C,0,-0.2043917,1.1018437,0.0192689\C,0,1.0513491
 ,3.204256,-0.0676222\H,0,1.0427344,4.2819499,-0.1896997\C,0,2.1942091,
 2.5487446,0.2579577\H,0,3.1168527,3.0912848,0.4334727\C,0,2.2216473,1.
 1336562,0.293499\C,0,1.0486931,0.3945528,0.0302412\C,0,3.4483363,0.461
 4633,0.5573939\H,0,4.3095794,1.0606054,0.8334846\C,0,3.5427346,-0.8855
 926,0.4749463\H,0,4.4731467,-1.3939704,0.7038822\C,0,2.4490052,-1.6474
 447,-0.0196319\C,0,1.2150704,-1.0057258,-0.3013573\C,0,0.2531113,-1.74
 3444,-1.0216591\H,0,-0.6541356,-1.2535051,-1.3462847\C,0,0.4494193,-3.
 0628597,-1.3413779\H,0,-0.3083162,-3.5944309,-1.905406\C,0,1.6251726,-
 3.7207967,-0.9552541\H,0,1.7670048,-4.7687404,-1.1927019\C,0,2.6109872
 ,-3.0144177,-0.318305\H,0,3.5525612,-3.4902813,-0.0646367\Bq,0,-2.0352
 319365,-0.7476119414,0.9315031945\Bq,0,-2.0351464703,-0.702586245,0.90
 9762004\Bq,0,-2.0350610042,-0.6575605487,0.8880208135\Bq,0,-2.03497553
 8,-0.6125348524,0.8662796229\Bq,0,-2.0348900719,-0.567509156,0.8445384
 324\Bq,0,-2.0348046058,-0.5224834597,0.8227972419\Bq,0,-2.0347191396,-
 0.4774577634,0.8010560514\Bq,0,-2.0346336735,-0.432432067,0.7793148609
 \Bq,0,-2.0345482074,-0.3874063707,0.7575736704\Bq,0,-2.0344627412,-0.3
 423806743,0.7358324798\Bq,0,-2.0343772751,-0.297354978,0.7140912893\Bq
 ,0,-2.0342918089,-0.2523292817,0.6923500988\Bq,0,-2.0342063428,-0.2073
 035853,0.6706089083\Bq,0,-2.0341208767,-0.162277889,0.6488677178\Bq,0,
 -2.0340354105,-0.1172521927,0.6271265273\Bq,0,-2.0339499444,-0.0722264
 963,0.6053853367\Bq,0,-2.0338644783,-0.0272008,0.5836441462\Bq,0,-2.03
 37790121,0.0178248963,0.5619029557\Bq,0,-2.033693546,0.0628505927,0.54
 01617652\Bq,0,-2.0336080798,0.107876289,0.5184205747\Bq,0,-2.033522613
 7,0.1529019853,0.4966793842\Bq,0,-2.0334371476,0.1979276817,0.47493819
 37\Bq,0,-2.0333516814,0.242953378,0.4531970031\Bq,0,-2.0332662153,0.28
 79790743,0.4314558126\Bq,0,-2.0331807492,0.3330047707,0.4097146221\Bq,
 0,-2.033095283,0.378030467,0.3879734316\Bq,0,-2.0330098169,0.423056163
 4,0.3662322411\Bq,0,-2.0329243507,0.4680818597,0.3444910506\Bq,0,-2.03
 28388846,0.513107556,0.32274986\Bq,0,-2.0327534185,0.5581332524,0.3010
 086695\Bq,0,-2.0326679523,0.6031589487,0.279267479\Bq,0,-2.0325824862,
 0.648184645,0.2575262885\Bq,0,-2.0324970201,0.6932103414,0.235785098\B
 q,0,-2.0324115539,0.7382360377,0.2140439075\Bq,0,-2.0323260878,0.78326
 1734,0.1923027169\Bq,0,-2.0322406216,0.8282874304,0.1705615264\Bq,0,-2
 .0321551555,0.8733131267,0.1488203359\Bq,0,-2.0320696894,0.918338823,0
 .1270791454\Bq,0,-2.0319842232,0.9633645194,0.1053379549\Bq,0,-2.03189
 87571,1.0083902157,0.0835967644\Bq,0,-2.031813291,1.053415912,0.061855
 5738\Bq,0,-2.0317278248,1.0984416084,0.0401143833\Bq,0,-2.0316423587,1
 .1434673047,0.0183731928\Bq,0,-2.0315568925,1.1884930011,-0.0033679977
 \Bq,0,-2.0314714264,1.2335186974,-0.0251091882\Bq,0,-2.0313859603,1.27
 85443937,-0.0468503787\Bq,0,-2.0313004941,1.3235700901,-0.0685915693\B
 q,0,-2.031215028,1.3685957864,-0.0903327598\Bq,0,-2.0311295619,1.41362
 14827,-0.1120739503\Bq,0,-2.0310440957,1.4586471791,-0.1338151408\Bq,0
 ,-2.0309586296,1.5036728754,-0.1555563313\Bq,0,-2.0308731634,1.5486985
 717,-0.1772975218\Bq,0,-2.0307876973,1.5937242681,-0.1990387124\Bq,0,-
 2.0307022312,1.6387499644,-0.2207799029\Bq,0,-2.030616765,1.6837756607
 ,-0.2425210934\Bq,0,-2.0305312989,1.7288013571,-0.2642622839\Bq,0,-2.0
 304458328,1.7738270534,-0.2860034744\Bq,0,-2.0303603666,1.8188527497,-
 0.3077446649\Bq,0,-2.0302749005,1.8638784461,-0.3294858554\Bq,0,-2.030
 1894344,1.9089041424,-0.351227046\Bq,0,-2.0301039682,1.9539298388,-0.3
 729682365\Bq,0,-2.0300185021,1.9989555351,-0.394709427\Bq,0,-2.0299330
 359,2.0439812314,-0.4164506175\Bq,0,-2.0298475698,2.0890069278,-0.4381
 91808\Bq,0,-2.0297621037,2.1340326241,-0.4599329985\Bq,0,-2.0296766375
 ,2.1790583204,-0.4816741891\Bq,0,-2.0295911714,2.2240840168,-0.5034153
 796\Bq,0,-1.9881381715,-2.2784856168,1.670900224\Bq,0,-1.9880527053,-2
 .2334599204,1.6491590335\Bq,0,-1.9879672392,-2.1884342241,1.627417843\
 Bq,0,-1.987881773,-2.1434085278,1.6056766525\Bq,0,-1.9877963069,-2.098
 3828314,1.583935462\Bq,0,-1.9877108408,-2.0533571351,1.5621942714\Bq,0
 ,-1.9876253746,-2.0083314388,1.5404530809\Bq,0,-1.9875399085,-1.963305
 7424,1.5187118904\Bq,0,-1.9874544424,-1.9182800461,1.4969706999\Bq,0,-
 1.9873689762,-1.8732543497,1.4752295094\Bq,0,-1.9872835101,-1.82822865
 34,1.4534883189\Bq,0,-1.9871980439,-1.7832029571,1.4317471283\Bq,0,-1.
 9871125778,-1.7381772607,1.4100059378\Bq,0,-1.9870271117,-1.6931515644
 ,1.3882647473\Bq,0,-1.9869416455,-1.6481258681,1.3665235568\Bq,0,-1.98
 68561794,-1.6031001717,1.3447823663\Bq,0,-1.9867707133,-1.5580744754,1
 .3230411758\Bq,0,-1.9866852471,-1.5130487791,1.3012999852\Bq,0,-1.9865
 99781,-1.4680230827,1.2795587947\Bq,0,-1.9865143148,-1.4229973864,1.25
 78176042\Bq,0,-1.9864288487,-1.3779716901,1.2360764137\Bq,0,-1.9863433
 826,-1.3329459937,1.2143352232\Bq,0,-1.9862579164,-1.2879202974,1.1925
 940327\Bq,0,-1.9861724503,-1.2428946011,1.1708528421\Bq,0,-1.986086984
 2,-1.1978689047,1.1491116516\Bq,0,-1.986001518,-1.1528432084,1.1273704
 611\Bq,0,-1.9859160519,-1.107817512,1.1056292706\Bq,0,-1.9858305857,-1
 .0627918157,1.0838880801\Bq,0,-1.9857451196,-1.0177661194,1.0621468896
 \Bq,0,-1.9856596535,-0.972740423,1.040405699\Bq,0,-1.9855741873,-0.927
 7147267,1.0186645085\Bq,0,-1.9854887212,-0.8826890304,0.996923318\Bq,0
 ,-1.9854032551,-0.837663334,0.9751821275\Bq,0,-1.9853177889,-0.7926376
 377,0.953440937\Bq,0,-1.9852323228,-0.7476119414,0.9316997465\Bq,0,-1.
 9851468566,-0.702586245,0.9099585559\Bq,0,-1.9850613905,-0.6575605487,
 0.8882173654\Bq,0,-1.9849759244,-0.6125348524,0.8664761749\Bq,0,-1.984
 8904582,-0.567509156,0.8447349844\Bq,0,-1.9848049921,-0.5224834597,0.8
 229937939\Bq,0,-1.984719526,-0.4774577634,0.8012526034\Bq,0,-1.9846340
 598,-0.432432067,0.7795114129\Bq,0,-1.9845485937,-0.3874063707,0.75777
 02223\Bq,0,-1.9844631275,-0.3423806743,0.7360290318\Bq,0,-1.9843776614
 ,-0.297354978,0.7142878413\Bq,0,-1.9842921953,-0.2523292817,0.69254665
 08\Bq,0,-1.9842067291,-0.2073035853,0.6708054603\Bq,0,-1.984121263,-0.
 162277889,0.6490642698\Bq,0,-1.9840357969,-0.1172521927,0.6273230792\B
 q,0,-1.9839503307,-0.0722264963,0.6055818887\Bq,0,-1.9838648646,-0.027
 2008,0.5838406982\Bq,0,-1.9837793984,0.0178248963,0.5620995077\Bq,0,-1
 .9836939323,0.0628505927,0.5403583172\Bq,0,-1.9836084662,0.107876289,0
 .5186171267\Bq,0,-1.983523,0.1529019853,0.4968759361\Bq,0,-1.983437533
 9,0.1979276817,0.4751347456\Bq,0,-1.9833520678,0.242953378,0.453393555
 1\Bq,0,-1.9832666016,0.2879790743,0.4316523646\Bq,0,-1.9831811355,0.33
 30047707,0.4099111741\Bq,0,-1.9830956693,0.378030467,0.3881699836\Bq,0
 ,-1.9830102032,0.4230561634,0.366428793\Bq,0,-1.9829247371,0.468081859
 7,0.3446876025\Bq,0,-1.9828392709,0.513107556,0.322946412\Bq,0,-1.9827
 538048,0.5581332524,0.3012052215\Bq,0,-1.9826683387,0.6031589487,0.279
 464031\Bq,0,-1.9825828725,0.648184645,0.2577228405\Bq,0,-1.9824974064,
 0.6932103414,0.2359816499\Bq,0,-1.9824119403,0.7382360377,0.2142404594
 \Bq,0,-1.9823264741,0.783261734,0.1924992689\Bq,0,-1.982241008,0.82828
 74304,0.1707580784\Bq,0,-1.9821555418,0.8733131267,0.1490168879\Bq,0,-
 1.9820700757,0.918338823,0.1272756974\Bq,0,-1.9819846096,0.9633645194,
 0.1055345068\Bq,0,-1.9818991434,1.0083902157,0.0837933163\Bq,0,-1.9818
 136773,1.053415912,0.0620521258\Bq,0,-1.9817282112,1.0984416084,0.0403
 109353\Bq,0,-1.981642745,1.1434673047,0.0185697448\Bq,0,-1.9815572789,
 1.1884930011,-0.0031714457\Bq,0,-1.9814718127,1.2335186974,-0.02491263
 63\Bq,0,-1.9813863466,1.2785443937,-0.0466538268\Bq,0,-1.9813008805,1.
 3235700901,-0.0683950173\Bq,0,-1.9812154143,1.3685957864,-0.0901362078
 \Bq,0,-1.9811299482,1.4136214827,-0.1118773983\Bq,0,-1.9810444821,1.45
 86471791,-0.1336185888\Bq,0,-1.9809590159,1.5036728754,-0.1553597793\B
 q,0,-1.9808735498,1.5486985717,-0.1771009699\Bq,0,-1.9807880836,1.5937
 242681,-0.1988421604\Bq,0,-1.9807026175,1.6387499644,-0.2205833509\Bq,
 0,-1.9806171514,1.6837756607,-0.2423245414\Bq,0,-1.9805316852,1.728801
 3571,-0.2640657319\Bq,0,-1.9804462191,1.7738270534,-0.2858069224\Bq,0,
 -1.980360753,1.8188527497,-0.307548113\Bq,0,-1.9802752868,1.8638784461
 ,-0.3292893035\Bq,0,-1.9801898207,1.9089041424,-0.351030494\Bq,0,-1.98
 01043545,1.9539298388,-0.3727716845\Bq,0,-1.9800188884,1.9989555351,-0
 .394512875\Bq,0,-1.9799334223,2.0439812314,-0.4162540655\Bq,0,-1.97984
 79561,2.0890069278,-0.4379952561\Bq,0,-1.97976249,2.1340326241,-0.4597
 364466\Bq,0,-1.9796770239,2.1790583204,-0.4814776371\Bq,0,-1.979591557
 7,2.2240840168,-0.5032188276\Bq,0,-1.9381385578,-2.2784856168,1.671096
 776\Bq,0,-1.9380530916,-2.2334599204,1.6493555855\Bq,0,-1.9379676255,-
 2.1884342241,1.627614395\Bq,0,-1.9378821594,-2.1434085278,1.6058732044
 \Bq,0,-1.9377966932,-2.0983828314,1.5841320139\Bq,0,-1.9377112271,-2.0
 533571351,1.5623908234\Bq,0,-1.937625761,-2.0083314388,1.5406496329\Bq
 ,0,-1.9375402948,-1.9633057424,1.5189084424\Bq,0,-1.9374548287,-1.9182
 800461,1.4971672519\Bq,0,-1.9373693625,-1.8732543497,1.4754260613\Bq,0
 ,-1.9372838964,-1.8282286534,1.4536848708\Bq,0,-1.9371984303,-1.783202
 9571,1.4319436803\Bq,0,-1.9371129641,-1.7381772607,1.4102024898\Bq,0,-
 1.937027498,-1.6931515644,1.3884612993\Bq,0,-1.9369420319,-1.648125868
 1,1.3667201088\Bq,0,-1.9368565657,-1.6031001717,1.3449789182\Bq,0,-1.9
 367710996,-1.5580744754,1.3232377277\Bq,0,-1.9366856334,-1.5130487791,
 1.3014965372\Bq,0,-1.9366001673,-1.4680230827,1.2797553467\Bq,0,-1.936
 5147012,-1.4229973864,1.2580141562\Bq,0,-1.936429235,-1.3779716901,1.2
 362729657\Bq,0,-1.9363437689,-1.3329459937,1.2145317751\Bq,0,-1.936258
 3028,-1.2879202974,1.1927905846\Bq,0,-1.9361728366,-1.2428946011,1.171
 0493941\Bq,0,-1.9360873705,-1.1978689047,1.1493082036\Bq,0,-1.93600190
 43,-1.1528432084,1.1275670131\Bq,0,-1.9359164382,-1.107817512,1.105825
 8226\Bq,0,-1.9358309721,-1.0627918157,1.084084632\Bq,0,-1.9357455059,-
 1.0177661194,1.0623434415\Bq,0,-1.9356600398,-0.972740423,1.040602251\
 Bq,0,-1.9355745737,-0.9277147267,1.0188610605\Bq,0,-1.9354891075,-0.88
 26890304,0.99711987\\Version=ES64L-G09RevD.01\HF=-847.0032898\RMSD=7.5
 05e-09\Dipole=0.0186808,0.0336671,0.0011595\Quadrupole=4.9072795,4.728
 8219,-9.6361014,-0.2850201,2.3867064,-0.880172\PG=C01 [X(C22H14)]\\@


 ON A CLEAR DISK YOU CAN SEEK FOREVER.
 Job cpu time:       0 days  4 hours  4 minutes 51.5 seconds.
 File lengths (MBytes):  RWF=    184 Int=      0 D2E=      0 Chk=     19 Scr=      1
 Normal termination of Gaussian 09 at Wed Aug 19 20:00:51 2020.

real	31m15.304s
user	244m46.469s
sys	0m5.142s
