 Entering Gaussian System, Link 0=g09
 Initial command:
 /share/programs/GAUSSIAN/64/g09/l1.exe "/scratch/yannick.29434/Gau-17733.inp" -scrdir="/scratch/yannick.29434/"
 Entering Link 1 = /share/programs/GAUSSIAN/64/g09/l1.exe PID=     17734.
  
 Copyright (c) 1988,1990,1992,1993,1995,1998,2003,2009,2013,
            Gaussian, Inc.  All Rights Reserved.
  
 This is part of the Gaussian(R) 09 program.  It is based on
 the Gaussian(R) 03 system (copyright 2003, Gaussian, Inc.),
 the Gaussian(R) 98 system (copyright 1998, Gaussian, Inc.),
 the Gaussian(R) 94 system (copyright 1995, Gaussian, Inc.),
 the Gaussian 92(TM) system (copyright 1992, Gaussian, Inc.),
 the Gaussian 90(TM) system (copyright 1990, Gaussian, Inc.),
 the Gaussian 88(TM) system (copyright 1988, Gaussian, Inc.),
 the Gaussian 86(TM) system (copyright 1986, Carnegie Mellon
 University), and the Gaussian 82(TM) system (copyright 1983,
 Carnegie Mellon University). Gaussian is a federally registered
 trademark of Gaussian, Inc.
  
 This software contains proprietary and confidential information,
 including trade secrets, belonging to Gaussian, Inc.
  
 This software is provided under written license and may be
 used, copied, transmitted, or stored only in accord with that
 written license.
  
 The following legend is applicable only to US Government
 contracts under FAR:
  
                    RESTRICTED RIGHTS LEGEND
  
 Use, reproduction and disclosure by the US Government is
 subject to restrictions as set forth in subparagraphs (a)
 and (c) of the Commercial Computer Software - Restricted
 Rights clause in FAR 52.227-19.
  
 Gaussian, Inc.
 340 Quinnipiac St., Bldg. 40, Wallingford CT 06492
  
  
 ---------------------------------------------------------------
 Warning -- This program may not be used in any manner that
 competes with the business of Gaussian, Inc. or will provide
 assistance to any competitor of Gaussian, Inc.  The licensee
 of this program is prohibited from giving any competitor of
 Gaussian, Inc. access to this program.  By using this program,
 the user acknowledges that Gaussian, Inc. is engaged in the
 business of creating and licensing software in the field of
 computational chemistry and represents and warrants to the
 licensee that it is not a competitor of Gaussian, Inc. and that
 it will not use this program in any manner prohibited above.
 ---------------------------------------------------------------
  

 Cite this work as:
 Gaussian 09, Revision D.01,
 M. J. Frisch, G. W. Trucks, H. B. Schlegel, G. E. Scuseria, 
 M. A. Robb, J. R. Cheeseman, G. Scalmani, V. Barone, B. Mennucci, 
 G. A. Petersson, H. Nakatsuji, M. Caricato, X. Li, H. P. Hratchian, 
 A. F. Izmaylov, J. Bloino, G. Zheng, J. L. Sonnenberg, M. Hada, 
 M. Ehara, K. Toyota, R. Fukuda, J. Hasegawa, M. Ishida, T. Nakajima, 
 Y. Honda, O. Kitao, H. Nakai, T. Vreven, J. A. Montgomery, Jr., 
 J. E. Peralta, F. Ogliaro, M. Bearpark, J. J. Heyd, E. Brothers, 
 K. N. Kudin, V. N. Staroverov, T. Keith, R. Kobayashi, J. Normand, 
 K. Raghavachari, A. Rendell, J. C. Burant, S. S. Iyengar, J. Tomasi, 
 M. Cossi, N. Rega, J. M. Millam, M. Klene, J. E. Knox, J. B. Cross, 
 V. Bakken, C. Adamo, J. Jaramillo, R. Gomperts, R. E. Stratmann, 
 O. Yazyev, A. J. Austin, R. Cammi, C. Pomelli, J. W. Ochterski, 
 R. L. Martin, K. Morokuma, V. G. Zakrzewski, G. A. Voth, 
 P. Salvador, J. J. Dannenberg, S. Dapprich, A. D. Daniels, 
 O. Farkas, J. B. Foresman, J. V. Ortiz, J. Cioslowski, 
 and D. J. Fox, Gaussian, Inc., Wallingford CT, 2013.
 
 ******************************************
 Gaussian 09:  ES64L-G09RevD.01 24-Apr-2013
                19-Aug-2020 
 ******************************************
 %nproc=8
 Will use up to    8 processors via shared memory.
 %mem=1000MB
 ----------------------------------------
 # rb3lyp/6-311+g** NMR geom=connectivity
 ----------------------------------------
 1/38=1,57=2/1;
 2/12=2,17=6,18=5,40=1/2;
 3/5=4,6=6,7=111,11=2,16=1,25=1,30=1,74=-5,116=1/1,2,8,3;
 4//1;
 5/5=2,38=5/2;
 8/6=1,10=90,11=11/1;
 10/13=100,45=16/2;
 6/7=2,8=2,9=2,10=2,28=1/1;
 99/9=1/99;
 -----
 Title
 -----
 Symbolic Z-matrix:
 Charge =  0 Multiplicity = 1
 C                    -4.05006  -0.57719   0.81367 
 H                    -5.02638  -1.00827   1.00248 
 C                    -3.93816   0.66178   0.24009 
 H                    -4.82524   1.23389  -0.01113 
 C                    -2.67684   1.24332   0.00576 
 C                    -1.49741   0.50515   0.28483 
 C                    -1.65083  -0.73387   0.9404 
 H                    -0.77136  -1.2731    1.26338 
 C                    -2.88985  -1.2624    1.19943 
 H                    -2.96837  -2.21246   1.71527 
 C                    -2.57732   2.59637  -0.41929 
 H                    -3.48707   3.14122  -0.64741 
 C                    -1.37419   3.21479  -0.4364 
 H                    -1.29973   4.2742   -0.65781 
 C                    -0.17195   2.49941  -0.17346 
 C                    -0.20439   1.10184   0.01927 
 C                     1.05135   3.20426  -0.06762 
 H                     1.04273   4.28195  -0.1897 
 C                     2.19421   2.54874   0.25796 
 H                     3.11685   3.09128   0.43347 
 C                     2.22165   1.13366   0.2935 
 C                     1.04869   0.39455   0.03024 
 C                     3.44834   0.46146   0.55739 
 H                     4.30958   1.06061   0.83348 
 C                     3.54273  -0.88559   0.47495 
 H                     4.47315  -1.39397   0.70388 
 C                     2.44901  -1.64744  -0.01963 
 C                     1.21507  -1.00573  -0.30136 
 C                     0.25311  -1.74344  -1.02166 
 H                    -0.65414  -1.25351  -1.34628 
 C                     0.44942  -3.06286  -1.34138 
 H                    -0.30832  -3.59443  -1.90541 
 C                     1.62517  -3.7208   -0.95525 
 H                     1.767    -4.76874  -1.1927 
 C                     2.61099  -3.01442  -0.31831 
 H                     3.55256  -3.49028  -0.06464 
 Bq                   -4.93025   1.86388  -0.34089 
 Bq                   -4.93017   1.9089   -0.36263 
 Bq                   -4.93008   1.95393  -0.38437 
 Bq                   -4.93      1.99896  -0.40611 
 Bq                   -4.92991   2.04398  -0.42785 
 Bq                   -4.92983   2.08901  -0.44959 
 Bq                   -4.92974   2.13403  -0.47133 
 Bq                   -4.92965   2.17906  -0.49307 
 Bq                   -4.92957   2.22408  -0.51482 
 Bq                   -4.88812  -2.27849   1.6595 
 Bq                   -4.88803  -2.23346   1.63776 
 Bq                   -4.88794  -2.18843   1.61602 
 Bq                   -4.88786  -2.14341   1.59428 
 Bq                   -4.88777  -2.09838   1.57254 
 Bq                   -4.88769  -2.05336   1.55079 
 Bq                   -4.8876   -2.00833   1.52905 
 Bq                   -4.88752  -1.96331   1.50731 
 Bq                   -4.88743  -1.91828   1.48557 
 Bq                   -4.88735  -1.87325   1.46383 
 Bq                   -4.88726  -1.82823   1.44209 
 Bq                   -4.88718  -1.7832    1.42035 
 Bq                   -4.88709  -1.73818   1.39861 
 Bq                   -4.887    -1.69315   1.37686 
 Bq                   -4.88692  -1.64813   1.35512 
 Bq                   -4.88683  -1.6031    1.33338 
 Bq                   -4.88675  -1.55807   1.31164 
 Bq                   -4.88666  -1.51305   1.2899 
 Bq                   -4.88658  -1.46802   1.26816 
 Bq                   -4.88649  -1.423     1.24642 
 Bq                   -4.88641  -1.37797   1.22468 
 Bq                   -4.88632  -1.33295   1.20294 
 Bq                   -4.88624  -1.28792   1.18119 
 Bq                   -4.88615  -1.24289   1.15945 
 Bq                   -4.88606  -1.19787   1.13771 
 Bq                   -4.88598  -1.15284   1.11597 
 Bq                   -4.88589  -1.10782   1.09423 
 Bq                   -4.88581  -1.06279   1.07249 
 Bq                   -4.88572  -1.01777   1.05075 
 Bq                   -4.88564  -0.97274   1.02901 
 Bq                   -4.88555  -0.92771   1.00726 
 Bq                   -4.88547  -0.88269   0.98552 
 Bq                   -4.88538  -0.83766   0.96378 
 Bq                   -4.8853   -0.79264   0.94204 
 Bq                   -4.88521  -0.74761   0.9203 
 Bq                   -4.88512  -0.70259   0.89856 
 Bq                   -4.88504  -0.65756   0.87682 
 Bq                   -4.88495  -0.61253   0.85508 
 Bq                   -4.88487  -0.56751   0.83333 
 Bq                   -4.88478  -0.52248   0.81159 
 Bq                   -4.8847   -0.47746   0.78985 
 Bq                   -4.88461  -0.43243   0.76811 
 Bq                   -4.88453  -0.38741   0.74637 
 Bq                   -4.88444  -0.34238   0.72463 
 Bq                   -4.88436  -0.29735   0.70289 
 Bq                   -4.88427  -0.25233   0.68115 
 Bq                   -4.88418  -0.2073    0.65941 
 Bq                   -4.8841   -0.16228   0.63766 
 Bq                   -4.88401  -0.11725   0.61592 
 Bq                   -4.88393  -0.07223   0.59418 
 Bq                   -4.88384  -0.0272    0.57244 
 Bq                   -4.88376   0.01782   0.5507 
 Bq                   -4.88367   0.06285   0.52896 
 Bq                   -4.88359   0.10788   0.50722 
 Bq                   -4.8835    0.1529    0.48548 
 Bq                   -4.88342   0.19793   0.46373 
 Bq                   -4.88333   0.24295   0.44199 
 Bq                   -4.88324   0.28798   0.42025 
 Bq                   -4.88316   0.333     0.39851 
 Bq                   -4.88307   0.37803   0.37677 
 Bq                   -4.88299   0.42306   0.35503 
 Bq                   -4.8829    0.46808   0.33329 
 Bq                   -4.88282   0.51311   0.31155 
 Bq                   -4.88273   0.55813   0.28981 
 Bq                   -4.88265   0.60316   0.26806 
 Bq                   -4.88256   0.64818   0.24632 
 Bq                   -4.88247   0.69321   0.22458 
 Bq                   -4.88239   0.73824   0.20284 
 Bq                   -4.8823    0.78326   0.1811 
 Bq                   -4.88222   0.82829   0.15936 
 Bq                   -4.88213   0.87331   0.13762 
 Bq                   -4.88205   0.91834   0.11588 
 Bq                   -4.88196   0.96336   0.09413 
 Bq                   -4.88188   1.00839   0.07239 
 Bq                   -4.88179   1.05342   0.05065 
 Bq                   -4.88171   1.09844   0.02891 
 Bq                   -4.88162   1.14347   0.00717 
 Bq                   -4.88153   1.18849  -0.01457 
 Bq                   -4.88145   1.23352  -0.03631 
 Bq                   -4.88136   1.27854  -0.05805 
 Bq                   -4.88128   1.32357  -0.0798 
 Bq                   -4.88119   1.3686   -0.10154 
 Bq                   -4.88111   1.41362  -0.12328 
 Bq                   -4.88102   1.45865  -0.14502 
 Bq                   -4.88094   1.50367  -0.16676 
 Bq                   -4.88085   1.5487   -0.1885 
 Bq                   -4.88077   1.59372  -0.21024 
 Bq                   -4.88068   1.63875  -0.23198 
 Bq                   -4.88059   1.68378  -0.25372 
 Bq                   -4.88051   1.7288   -0.27547 
 Bq                   -4.88042   1.77383  -0.29721 
 Bq                   -4.88034   1.81885  -0.31895 
 Bq                   -4.88025   1.86388  -0.34069 
 Bq                   -4.88017   1.9089   -0.36243 
 Bq                   -4.88008   1.95393  -0.38417 
 Bq                   -4.88      1.99896  -0.40591 
 Bq                   -4.87991   2.04398  -0.42765 
 Bq                   -4.87983   2.08901  -0.4494 
 Bq                   -4.87974   2.13403  -0.47114 
 Bq                   -4.87965   2.17906  -0.49288 
 Bq                   -4.87957   2.22408  -0.51462 
 Bq                   -4.83812  -2.27849   1.6597 
 Bq                   -4.83803  -2.23346   1.63796 
 Bq                   -4.83795  -2.18843   1.61621 
 Bq                   -4.83786  -2.14341   1.59447 
 Bq                   -4.83777  -2.09838   1.57273 
 Bq                   -4.83769  -2.05336   1.55099 
 Bq                   -4.8376   -2.00833   1.52925 
 Bq                   -4.83752  -1.96331   1.50751 
 Bq                   -4.83743  -1.91828   1.48577 
 Bq                   -4.83735  -1.87325   1.46403 
 Bq                   -4.83726  -1.82823   1.44228 
 Bq                   -4.83718  -1.7832    1.42054 
 Bq                   -4.83709  -1.73818   1.3988 
 Bq                   -4.83701  -1.69315   1.37706 
 Bq                   -4.83692  -1.64813   1.35532 
 Bq                   -4.83683  -1.6031    1.33358 
 Bq                   -4.83675  -1.55807   1.31184 
 Bq                   -4.83666  -1.51305   1.2901 
 Bq                   -4.83658  -1.46802   1.26836 
 Bq                   -4.83649  -1.423     1.24661 
 Bq                   -4.83641  -1.37797   1.22487 
 Bq                   -4.83632  -1.33295   1.20313 
 Bq                   -4.83624  -1.28792   1.18139 
 Bq                   -4.83615  -1.24289   1.15965 
 Bq                   -4.83606  -1.19787   1.13791 
 Bq                   -4.83598  -1.15284   1.11617 
 Bq                   -4.83589  -1.10782   1.09443 
 Bq                   -4.83581  -1.06279   1.07268 
 Bq                   -4.83572  -1.01777   1.05094 
 Bq                   -4.83564  -0.97274   1.0292 
 Bq                   -4.83555  -0.92771   1.00746 
 Bq                   -4.83547  -0.88269   0.98572 
 Bq                   -4.83538  -0.83766   0.96398 
 Bq                   -4.8353   -0.79264   0.94224 
 Bq                   -4.83521  -0.74761   0.9205 
 Bq                   -4.83512  -0.70259   0.89876 
 Bq                   -4.83504  -0.65756   0.87701 
 Bq                   -4.83495  -0.61253   0.85527 
 Bq                   -4.83487  -0.56751   0.83353 
 Bq                   -4.83478  -0.52248   0.81179 
 Bq                   -4.8347   -0.47746   0.79005 
 Bq                   -4.83461  -0.43243   0.76831 
 Bq                   -4.83453  -0.38741   0.74657 
 Bq                   -4.83444  -0.34238   0.72483 
 Bq                   -4.83436  -0.29735   0.70308 
 Bq                   -4.83427  -0.25233   0.68134 
 Bq                   -4.83418  -0.2073    0.6596 
 Bq                   -4.8341   -0.16228   0.63786 
 Bq                   -4.83401  -0.11725   0.61612 
 Bq                   -4.83393  -0.07223   0.59438 
 Bq                   -4.83384  -0.0272    0.57264 
 Bq                   -4.83376   0.01782   0.5509 
 Bq                   -4.83367   0.06285   0.52915 
 Bq                   -4.83359   0.10788   0.50741 
 Bq                   -4.8335    0.1529    0.48567 
 Bq                   -4.83342   0.19793   0.46393 
 Bq                   -4.83333   0.24295   0.44219 
 Bq                   -4.83324   0.28798   0.42045 
 Bq                   -4.83316   0.333     0.39871 
 Bq                   -4.83307   0.37803   0.37697 
 Bq                   -4.83299   0.42306   0.35523 
 Bq                   -4.8329    0.46808   0.33348 
 Bq                   -4.83282   0.51311   0.31174 
 Bq                   -4.83273   0.55813   0.29 
 Bq                   -4.83265   0.60316   0.26826 
 Bq                   -4.83256   0.64818   0.24652 
 Bq                   -4.83248   0.69321   0.22478 
 Bq                   -4.83239   0.73824   0.20304 
 Bq                   -4.8323    0.78326   0.1813 
 Bq                   -4.83222   0.82829   0.15955 
 Bq                   -4.83213   0.87331   0.13781 
 Bq                   -4.83205   0.91834   0.11607 
 Bq                   -4.83196   0.96336   0.09433 
 Bq                   -4.83188   1.00839   0.07259 
 Bq                   -4.83179   1.05342   0.05085 
 Bq                   -4.83171   1.09844   0.02911 
 Bq                   -4.83162   1.14347   0.00737 
 Bq                   -4.83154   1.18849  -0.01437 
 Bq                   -4.83145   1.23352  -0.03612 
 Bq                   -4.83136   1.27854  -0.05786 
 Bq                   -4.83128   1.32357  -0.0796 
 Bq                   -4.83119   1.3686   -0.10134 
 Bq                   -4.83111   1.41362  -0.12308 
 Bq                   -4.83102   1.45865  -0.14482 
 Bq                   -4.83094   1.50367  -0.16656 
 Bq                   -4.83085   1.5487   -0.1883 
 Bq                   -4.83077   1.59372  -0.21005 
 Bq                   -4.83068   1.63875  -0.23179 
 Bq                   -4.8306    1.68378  -0.25353 
 Bq                   -4.83051   1.7288   -0.27527 
 
 Symmetry turned off:
 Cannot cope with ghost atoms or with translation vectors.
 Stoichiometry    C22H14
 Framework group  C1[X(C22H14)]
 NUMDOF-- NAT=    36 NAtoms=   236
 Deg. of freedom     0
 Full point group                 C1      NOp   1
                          Input orientation:                          
 ---------------------------------------------------------------------
 Center     Atomic      Atomic             Coordinates (Angstroms)
 Number     Number       Type             X           Y           Z
 ---------------------------------------------------------------------
      1          6           0       -4.050056   -0.577186    0.813671
      2          1           0       -5.026380   -1.008273    1.002476
      3          6           0       -3.938155    0.661780    0.240088
      4          1           0       -4.825242    1.233889   -0.011130
      5          6           0       -2.676841    1.243325    0.005758
      6          6           0       -1.497412    0.505153    0.284825
      7          6           0       -1.650833   -0.733873    0.940403
      8          1           0       -0.771365   -1.273097    1.263375
      9          6           0       -2.889855   -1.262404    1.199431
     10          1           0       -2.968371   -2.212456    1.715268
     11          6           0       -2.577319    2.596370   -0.419293
     12          1           0       -3.487073    3.141224   -0.647406
     13          6           0       -1.374190    3.214790   -0.436403
     14          1           0       -1.299732    4.274202   -0.657814
     15          6           0       -0.171949    2.499409   -0.173459
     16          6           0       -0.204392    1.101844    0.019269
     17          6           0        1.051349    3.204256   -0.067622
     18          1           0        1.042734    4.281950   -0.189700
     19          6           0        2.194209    2.548745    0.257958
     20          1           0        3.116853    3.091285    0.433473
     21          6           0        2.221647    1.133656    0.293499
     22          6           0        1.048693    0.394553    0.030241
     23          6           0        3.448336    0.461463    0.557394
     24          1           0        4.309579    1.060605    0.833485
     25          6           0        3.542735   -0.885593    0.474946
     26          1           0        4.473147   -1.393970    0.703882
     27          6           0        2.449005   -1.647445   -0.019632
     28          6           0        1.215070   -1.005726   -0.301357
     29          6           0        0.253111   -1.743444   -1.021659
     30          1           0       -0.654136   -1.253505   -1.346285
     31          6           0        0.449419   -3.062860   -1.341378
     32          1           0       -0.308316   -3.594431   -1.905406
     33          6           0        1.625173   -3.720797   -0.955254
     34          1           0        1.767005   -4.768740   -1.192702
     35          6           0        2.610987   -3.014418   -0.318305
     36          1           0        3.552561   -3.490281   -0.064637
     37          0           0       -4.930252    1.863878   -0.340886
     38          0           0       -4.930167    1.908904   -0.362627
     39          0           0       -4.930082    1.953930   -0.384368
     40          0           0       -4.929996    1.998956   -0.406109
     41          0           0       -4.929911    2.043981   -0.427851
     42          0           0       -4.929825    2.089007   -0.449592
     43          0           0       -4.929740    2.134033   -0.471333
     44          0           0       -4.929654    2.179058   -0.493074
     45          0           0       -4.929569    2.224084   -0.514815
     46          0           0       -4.888116   -2.278486    1.659500
     47          0           0       -4.888030   -2.233460    1.637759
     48          0           0       -4.887945   -2.188434    1.616018
     49          0           0       -4.887859   -2.143409    1.594277
     50          0           0       -4.887774   -2.098383    1.572535
     51          0           0       -4.887688   -2.053357    1.550794
     52          0           0       -4.887603   -2.008331    1.529053
     53          0           0       -4.887518   -1.963306    1.507312
     54          0           0       -4.887432   -1.918280    1.485571
     55          0           0       -4.887347   -1.873254    1.463829
     56          0           0       -4.887261   -1.828229    1.442088
     57          0           0       -4.887176   -1.783203    1.420347
     58          0           0       -4.887090   -1.738177    1.398606
     59          0           0       -4.887005   -1.693152    1.376865
     60          0           0       -4.886919   -1.648126    1.355124
     61          0           0       -4.886834   -1.603100    1.333382
     62          0           0       -4.886748   -1.558074    1.311641
     63          0           0       -4.886663   -1.513049    1.289900
     64          0           0       -4.886577   -1.468023    1.268159
     65          0           0       -4.886492   -1.422997    1.246418
     66          0           0       -4.886406   -1.377972    1.224676
     67          0           0       -4.886321   -1.332946    1.202935
     68          0           0       -4.886236   -1.287920    1.181194
     69          0           0       -4.886150   -1.242895    1.159453
     70          0           0       -4.886065   -1.197869    1.137712
     71          0           0       -4.885979   -1.152843    1.115970
     72          0           0       -4.885894   -1.107818    1.094229
     73          0           0       -4.885808   -1.062792    1.072488
     74          0           0       -4.885723   -1.017766    1.050747
     75          0           0       -4.885637   -0.972740    1.029006
     76          0           0       -4.885552   -0.927715    1.007264
     77          0           0       -4.885466   -0.882689    0.985523
     78          0           0       -4.885381   -0.837663    0.963782
     79          0           0       -4.885295   -0.792638    0.942041
     80          0           0       -4.885210   -0.747612    0.920300
     81          0           0       -4.885124   -0.702586    0.898559
     82          0           0       -4.885039   -0.657561    0.876817
     83          0           0       -4.884954   -0.612535    0.855076
     84          0           0       -4.884868   -0.567509    0.833335
     85          0           0       -4.884783   -0.522483    0.811594
     86          0           0       -4.884697   -0.477458    0.789853
     87          0           0       -4.884612   -0.432432    0.768111
     88          0           0       -4.884526   -0.387406    0.746370
     89          0           0       -4.884441   -0.342381    0.724629
     90          0           0       -4.884355   -0.297355    0.702888
     91          0           0       -4.884270   -0.252329    0.681147
     92          0           0       -4.884184   -0.207304    0.659405
     93          0           0       -4.884099   -0.162278    0.637664
     94          0           0       -4.884013   -0.117252    0.615923
     95          0           0       -4.883928   -0.072226    0.594182
     96          0           0       -4.883842   -0.027201    0.572441
     97          0           0       -4.883757    0.017825    0.550699
     98          0           0       -4.883672    0.062851    0.528958
     99          0           0       -4.883586    0.107876    0.507217
    100          0           0       -4.883501    0.152902    0.485476
    101          0           0       -4.883415    0.197928    0.463735
    102          0           0       -4.883330    0.242953    0.441994
    103          0           0       -4.883244    0.287979    0.420252
    104          0           0       -4.883159    0.333005    0.398511
    105          0           0       -4.883073    0.378030    0.376770
    106          0           0       -4.882988    0.423056    0.355029
    107          0           0       -4.882902    0.468082    0.333288
    108          0           0       -4.882817    0.513108    0.311546
    109          0           0       -4.882731    0.558133    0.289805
    110          0           0       -4.882646    0.603159    0.268064
    111          0           0       -4.882560    0.648185    0.246323
    112          0           0       -4.882475    0.693210    0.224582
    113          0           0       -4.882390    0.738236    0.202840
    114          0           0       -4.882304    0.783262    0.181099
    115          0           0       -4.882219    0.828287    0.159358
    116          0           0       -4.882133    0.873313    0.137617
    117          0           0       -4.882048    0.918339    0.115876
    118          0           0       -4.881962    0.963365    0.094134
    119          0           0       -4.881877    1.008390    0.072393
    120          0           0       -4.881791    1.053416    0.050652
    121          0           0       -4.881706    1.098442    0.028911
    122          0           0       -4.881620    1.143467    0.007170
    123          0           0       -4.881535    1.188493   -0.014571
    124          0           0       -4.881449    1.233519   -0.036313
    125          0           0       -4.881364    1.278544   -0.058054
    126          0           0       -4.881278    1.323570   -0.079795
    127          0           0       -4.881193    1.368596   -0.101536
    128          0           0       -4.881108    1.413621   -0.123277
    129          0           0       -4.881022    1.458647   -0.145019
    130          0           0       -4.880937    1.503673   -0.166760
    131          0           0       -4.880851    1.548699   -0.188501
    132          0           0       -4.880766    1.593724   -0.210242
    133          0           0       -4.880680    1.638750   -0.231983
    134          0           0       -4.880595    1.683776   -0.253725
    135          0           0       -4.880509    1.728801   -0.275466
    136          0           0       -4.880424    1.773827   -0.297207
    137          0           0       -4.880338    1.818853   -0.318948
    138          0           0       -4.880253    1.863878   -0.340689
    139          0           0       -4.880167    1.908904   -0.362431
    140          0           0       -4.880082    1.953930   -0.384172
    141          0           0       -4.879996    1.998956   -0.405913
    142          0           0       -4.879911    2.043981   -0.427654
    143          0           0       -4.879826    2.089007   -0.449395
    144          0           0       -4.879740    2.134033   -0.471136
    145          0           0       -4.879655    2.179058   -0.492878
    146          0           0       -4.879569    2.224084   -0.514619
    147          0           0       -4.838116   -2.278486    1.659697
    148          0           0       -4.838031   -2.233460    1.637956
    149          0           0       -4.837945   -2.188434    1.616214
    150          0           0       -4.837860   -2.143409    1.594473
    151          0           0       -4.837774   -2.098383    1.572732
    152          0           0       -4.837689   -2.053357    1.550991
    153          0           0       -4.837603   -2.008331    1.529250
    154          0           0       -4.837518   -1.963306    1.507508
    155          0           0       -4.837432   -1.918280    1.485767
    156          0           0       -4.837347   -1.873254    1.464026
    157          0           0       -4.837261   -1.828229    1.442285
    158          0           0       -4.837176   -1.783203    1.420544
    159          0           0       -4.837091   -1.738177    1.398802
    160          0           0       -4.837005   -1.693152    1.377061
    161          0           0       -4.836920   -1.648126    1.355320
    162          0           0       -4.836834   -1.603100    1.333579
    163          0           0       -4.836749   -1.558074    1.311838
    164          0           0       -4.836663   -1.513049    1.290097
    165          0           0       -4.836578   -1.468023    1.268355
    166          0           0       -4.836492   -1.422997    1.246614
    167          0           0       -4.836407   -1.377972    1.224873
    168          0           0       -4.836321   -1.332946    1.203132
    169          0           0       -4.836236   -1.287920    1.181391
    170          0           0       -4.836150   -1.242895    1.159649
    171          0           0       -4.836065   -1.197869    1.137908
    172          0           0       -4.835979   -1.152843    1.116167
    173          0           0       -4.835894   -1.107818    1.094426
    174          0           0       -4.835809   -1.062792    1.072685
    175          0           0       -4.835723   -1.017766    1.050943
    176          0           0       -4.835638   -0.972740    1.029202
    177          0           0       -4.835552   -0.927715    1.007461
    178          0           0       -4.835467   -0.882689    0.985720
    179          0           0       -4.835381   -0.837663    0.963979
    180          0           0       -4.835296   -0.792638    0.942237
    181          0           0       -4.835210   -0.747612    0.920496
    182          0           0       -4.835125   -0.702586    0.898755
    183          0           0       -4.835039   -0.657561    0.877014
    184          0           0       -4.834954   -0.612535    0.855273
    185          0           0       -4.834868   -0.567509    0.833532
    186          0           0       -4.834783   -0.522483    0.811790
    187          0           0       -4.834698   -0.477458    0.790049
    188          0           0       -4.834612   -0.432432    0.768308
    189          0           0       -4.834527   -0.387406    0.746567
    190          0           0       -4.834441   -0.342381    0.724826
    191          0           0       -4.834356   -0.297355    0.703084
    192          0           0       -4.834270   -0.252329    0.681343
    193          0           0       -4.834185   -0.207304    0.659602
    194          0           0       -4.834099   -0.162278    0.637861
    195          0           0       -4.834014   -0.117252    0.616120
    196          0           0       -4.833928   -0.072226    0.594378
    197          0           0       -4.833843   -0.027201    0.572637
    198          0           0       -4.833757    0.017825    0.550896
    199          0           0       -4.833672    0.062851    0.529155
    200          0           0       -4.833586    0.107876    0.507414
    201          0           0       -4.833501    0.152902    0.485672
    202          0           0       -4.833416    0.197928    0.463931
    203          0           0       -4.833330    0.242953    0.442190
    204          0           0       -4.833245    0.287979    0.420449
    205          0           0       -4.833159    0.333005    0.398708
    206          0           0       -4.833074    0.378030    0.376967
    207          0           0       -4.832988    0.423056    0.355225
    208          0           0       -4.832903    0.468082    0.333484
    209          0           0       -4.832817    0.513108    0.311743
    210          0           0       -4.832732    0.558133    0.290002
    211          0           0       -4.832646    0.603159    0.268261
    212          0           0       -4.832561    0.648185    0.246519
    213          0           0       -4.832475    0.693210    0.224778
    214          0           0       -4.832390    0.738236    0.203037
    215          0           0       -4.832304    0.783262    0.181296
    216          0           0       -4.832219    0.828287    0.159555
    217          0           0       -4.832134    0.873313    0.137813
    218          0           0       -4.832048    0.918339    0.116072
    219          0           0       -4.831963    0.963365    0.094331
    220          0           0       -4.831877    1.008390    0.072590
    221          0           0       -4.831792    1.053416    0.050849
    222          0           0       -4.831706    1.098442    0.029107
    223          0           0       -4.831621    1.143467    0.007366
    224          0           0       -4.831535    1.188493   -0.014375
    225          0           0       -4.831450    1.233519   -0.036116
    226          0           0       -4.831364    1.278544   -0.057857
    227          0           0       -4.831279    1.323570   -0.079598
    228          0           0       -4.831193    1.368596   -0.101340
    229          0           0       -4.831108    1.413621   -0.123081
    230          0           0       -4.831022    1.458647   -0.144822
    231          0           0       -4.830937    1.503673   -0.166563
    232          0           0       -4.830852    1.548699   -0.188304
    233          0           0       -4.830766    1.593724   -0.210046
    234          0           0       -4.830681    1.638750   -0.231787
    235          0           0       -4.830595    1.683776   -0.253528
    236          0           0       -4.830510    1.728801   -0.275269
 ---------------------------------------------------------------------
 Rotational constants (GHZ):      0.4529074      0.2836956      0.1879557
 Standard basis: 6-311+G(d,p) (5D, 7F)
 Warning:  center  37 has no basis functions!
 Warning:  center  38 has no basis functions!
 Warning:  center  39 has no basis functions!
 Warning:  center  40 has no basis functions!
 Warning:  center  41 has no basis functions!
 Warning:  center  42 has no basis functions!
 Warning:  center  43 has no basis functions!
 Warning:  center  44 has no basis functions!
 Warning:  center  45 has no basis functions!
 Warning:  center  46 has no basis functions!
 Warning:  center  47 has no basis functions!
 Warning:  center  48 has no basis functions!
 Warning:  center  49 has no basis functions!
 Warning:  center  50 has no basis functions!
 Warning:  center  51 has no basis functions!
 Warning:  center  52 has no basis functions!
 Warning:  center  53 has no basis functions!
 Warning:  center  54 has no basis functions!
 Warning:  center  55 has no basis functions!
 Warning:  center  56 has no basis functions!
 Warning:  center  57 has no basis functions!
 Warning:  center  58 has no basis functions!
 Warning:  center  59 has no basis functions!
 Warning:  center  60 has no basis functions!
 Warning:  center  61 has no basis functions!
 Warning:  center  62 has no basis functions!
 Warning:  center  63 has no basis functions!
 Warning:  center  64 has no basis functions!
 Warning:  center  65 has no basis functions!
 Warning:  center  66 has no basis functions!
 Warning:  center  67 has no basis functions!
 Warning:  center  68 has no basis functions!
 Warning:  center  69 has no basis functions!
 Warning:  center  70 has no basis functions!
 Warning:  center  71 has no basis functions!
 Warning:  center  72 has no basis functions!
 Warning:  center  73 has no basis functions!
 Warning:  center  74 has no basis functions!
 Warning:  center  75 has no basis functions!
 Warning:  center  76 has no basis functions!
 Warning:  center  77 has no basis functions!
 Warning:  center  78 has no basis functions!
 Warning:  center  79 has no basis functions!
 Warning:  center  80 has no basis functions!
 Warning:  center  81 has no basis functions!
 Warning:  center  82 has no basis functions!
 Warning:  center  83 has no basis functions!
 Warning:  center  84 has no basis functions!
 Warning:  center  85 has no basis functions!
 Warning:  center  86 has no basis functions!
 Warning:  center  87 has no basis functions!
 Warning:  center  88 has no basis functions!
 Warning:  center  89 has no basis functions!
 Warning:  center  90 has no basis functions!
 Warning:  center  91 has no basis functions!
 Warning:  center  92 has no basis functions!
 Warning:  center  93 has no basis functions!
 Warning:  center  94 has no basis functions!
 Warning:  center  95 has no basis functions!
 Warning:  center  96 has no basis functions!
 Warning:  center  97 has no basis functions!
 Warning:  center  98 has no basis functions!
 Warning:  center  99 has no basis functions!
 Warning:  center 100 has no basis functions!
 Warning:  center 101 has no basis functions!
 Warning:  center 102 has no basis functions!
 Warning:  center 103 has no basis functions!
 Warning:  center 104 has no basis functions!
 Warning:  center 105 has no basis functions!
 Warning:  center 106 has no basis functions!
 Warning:  center 107 has no basis functions!
 Warning:  center 108 has no basis functions!
 Warning:  center 109 has no basis functions!
 Warning:  center 110 has no basis functions!
 Warning:  center 111 has no basis functions!
 Warning:  center 112 has no basis functions!
 Warning:  center 113 has no basis functions!
 Warning:  center 114 has no basis functions!
 Warning:  center 115 has no basis functions!
 Warning:  center 116 has no basis functions!
 Warning:  center 117 has no basis functions!
 Warning:  center 118 has no basis functions!
 Warning:  center 119 has no basis functions!
 Warning:  center 120 has no basis functions!
 Warning:  center 121 has no basis functions!
 Warning:  center 122 has no basis functions!
 Warning:  center 123 has no basis functions!
 Warning:  center 124 has no basis functions!
 Warning:  center 125 has no basis functions!
 Warning:  center 126 has no basis functions!
 Warning:  center 127 has no basis functions!
 Warning:  center 128 has no basis functions!
 Warning:  center 129 has no basis functions!
 Warning:  center 130 has no basis functions!
 Warning:  center 131 has no basis functions!
 Warning:  center 132 has no basis functions!
 Warning:  center 133 has no basis functions!
 Warning:  center 134 has no basis functions!
 Warning:  center 135 has no basis functions!
 Warning:  center 136 has no basis functions!
 Warning:  center 137 has no basis functions!
 Warning:  center 138 has no basis functions!
 Warning:  center 139 has no basis functions!
 Warning:  center 140 has no basis functions!
 Warning:  center 141 has no basis functions!
 Warning:  center 142 has no basis functions!
 Warning:  center 143 has no basis functions!
 Warning:  center 144 has no basis functions!
 Warning:  center 145 has no basis functions!
 Warning:  center 146 has no basis functions!
 Warning:  center 147 has no basis functions!
 Warning:  center 148 has no basis functions!
 Warning:  center 149 has no basis functions!
 Warning:  center 150 has no basis functions!
 Warning:  center 151 has no basis functions!
 Warning:  center 152 has no basis functions!
 Warning:  center 153 has no basis functions!
 Warning:  center 154 has no basis functions!
 Warning:  center 155 has no basis functions!
 Warning:  center 156 has no basis functions!
 Warning:  center 157 has no basis functions!
 Warning:  center 158 has no basis functions!
 Warning:  center 159 has no basis functions!
 Warning:  center 160 has no basis functions!
 Warning:  center 161 has no basis functions!
 Warning:  center 162 has no basis functions!
 Warning:  center 163 has no basis functions!
 Warning:  center 164 has no basis functions!
 Warning:  center 165 has no basis functions!
 Warning:  center 166 has no basis functions!
 Warning:  center 167 has no basis functions!
 Warning:  center 168 has no basis functions!
 Warning:  center 169 has no basis functions!
 Warning:  center 170 has no basis functions!
 Warning:  center 171 has no basis functions!
 Warning:  center 172 has no basis functions!
 Warning:  center 173 has no basis functions!
 Warning:  center 174 has no basis functions!
 Warning:  center 175 has no basis functions!
 Warning:  center 176 has no basis functions!
 Warning:  center 177 has no basis functions!
 Warning:  center 178 has no basis functions!
 Warning:  center 179 has no basis functions!
 Warning:  center 180 has no basis functions!
 Warning:  center 181 has no basis functions!
 Warning:  center 182 has no basis functions!
 Warning:  center 183 has no basis functions!
 Warning:  center 184 has no basis functions!
 Warning:  center 185 has no basis functions!
 Warning:  center 186 has no basis functions!
 Warning:  center 187 has no basis functions!
 Warning:  center 188 has no basis functions!
 Warning:  center 189 has no basis functions!
 Warning:  center 190 has no basis functions!
 Warning:  center 191 has no basis functions!
 Warning:  center 192 has no basis functions!
 Warning:  center 193 has no basis functions!
 Warning:  center 194 has no basis functions!
 Warning:  center 195 has no basis functions!
 Warning:  center 196 has no basis functions!
 Warning:  center 197 has no basis functions!
 Warning:  center 198 has no basis functions!
 Warning:  center 199 has no basis functions!
 Warning:  center 200 has no basis functions!
 Warning:  center 201 has no basis functions!
 Warning:  center 202 has no basis functions!
 Warning:  center 203 has no basis functions!
 Warning:  center 204 has no basis functions!
 Warning:  center 205 has no basis functions!
 Warning:  center 206 has no basis functions!
 Warning:  center 207 has no basis functions!
 Warning:  center 208 has no basis functions!
 Warning:  center 209 has no basis functions!
 Warning:  center 210 has no basis functions!
 Warning:  center 211 has no basis functions!
 Warning:  center 212 has no basis functions!
 Warning:  center 213 has no basis functions!
 Warning:  center 214 has no basis functions!
 Warning:  center 215 has no basis functions!
 Warning:  center 216 has no basis functions!
 Warning:  center 217 has no basis functions!
 Warning:  center 218 has no basis functions!
 Warning:  center 219 has no basis functions!
 Warning:  center 220 has no basis functions!
 Warning:  center 221 has no basis functions!
 Warning:  center 222 has no basis functions!
 Warning:  center 223 has no basis functions!
 Warning:  center 224 has no basis functions!
 Warning:  center 225 has no basis functions!
 Warning:  center 226 has no basis functions!
 Warning:  center 227 has no basis functions!
 Warning:  center 228 has no basis functions!
 Warning:  center 229 has no basis functions!
 Warning:  center 230 has no basis functions!
 Warning:  center 231 has no basis functions!
 Warning:  center 232 has no basis functions!
 Warning:  center 233 has no basis functions!
 Warning:  center 234 has no basis functions!
 Warning:  center 235 has no basis functions!
 Warning:  center 236 has no basis functions!
   568 basis functions,   904 primitive gaussians,   590 cartesian basis functions
    73 alpha electrons       73 beta electrons
       nuclear repulsion energy      1610.9176155625 Hartrees.
 NAtoms=  236 NActive=  236 NUniq=  236 SFac= 1.00D+00 NAtFMM=   60 NAOKFM=T Big=T
 Integral buffers will be    131072 words long.
 Raffenetti 2 integral format.
 Two-electron integral symmetry is turned off.
 One-electron integrals computed using PRISM.
 NBasis=   568 RedAO= T EigKep=  1.78D-06  NBF=   568
 NBsUse=   556 1.00D-06 EigRej=  9.09D-07 NBFU=   556
 ExpMin= 4.38D-02 ExpMax= 4.56D+03 ExpMxC= 6.82D+02 IAcc=2 IRadAn=         4 AccDes= 0.00D+00
 Harris functional with IExCor=  402 and IRadAn=       4 diagonalized for initial guess.
 HarFok:  IExCor=  402 AccDes= 0.00D+00 IRadAn=         4 IDoV= 1 UseB2=F ITyADJ=14
 ICtDFT=  3500011 ScaDFX=  1.000000  1.000000  1.000000  1.000000
 FoFCou: FMM=F IPFlag=           0 FMFlag=      100000 FMFlg1=        2001
         NFxFlg=           0 DoJE=T BraDBF=F KetDBF=T FulRan=T
         wScrn=  0.000000 ICntrl=     500 IOpCl=  0 I1Cent=   200000004 NGrid=           0
         NMat0=    1 NMatS0=      1 NMatT0=    0 NMatD0=    1 NMtDS0=    0 NMtDT0=    0
 Symmetry not used in FoFCou.
 Requested convergence on RMS density matrix=1.00D-08 within 128 cycles.
 Requested convergence on MAX density matrix=1.00D-06.
 Requested convergence on             energy=1.00D-06.
 No special actions if energy rises.
 SCF Done:  E(RB3LYP) =  -847.003289847     A.U. after   15 cycles
            NFock= 15  Conv=0.75D-08     -V/T= 2.0040
 DoSCS=F DFT=T ScalE2(SS,OS)=  1.000000  1.000000
 Range of M.O.s used for correlation:     1   556
 NBasis=   568 NAE=    73 NBE=    73 NFC=     0 NFV=     0
 NROrb=    556 NOA=    73 NOB=    73 NVA=   483 NVB=   483

 **** Warning!!: The largest alpha MO coefficient is  0.10971036D+03

          Differentiating once with respect to magnetic field using GIAOs.
          Electric field/nuclear overlap derivatives assumed to be zero.
 FoFCou: FMM=F IPFlag=           0 FMFlag=      100000 FMFlg1=        2001
         NFxFlg=           0 DoJE=F BraDBF=F KetDBF=T FulRan=T
         wScrn=  0.000000 ICntrl=    6100 IOpCl=  0 I1Cent=           7 NGrid=         236
         NMat0=    1 NMatS0=      1 NMatT0=    0 NMatD0=    1 NMtDS0=    0 NMtDT0=    0
 Symmetry not used in FoFCou.
 FoFJK:  IHMeth= 1 ICntrl=    6127 DoSepK=F KAlg= 0 I1Cent=   0 FoldK=F
 IRaf=         1 NMat=   1 IRICut=       1 DoRegI=T DoRafI=F ISym2E= 0.
          There are     3 degrees of freedom in the 1st order CPHF.  IDoFFX=0 NUNeed=     3.
      3 vectors produced by pass  0 Test12= 1.18D-12 3.33D-08 XBig12= 2.07D+03 9.18D+00.
 AX will form     3 AO Fock derivatives at one time.
      3 vectors produced by pass  1 Test12= 1.18D-12 3.33D-08 XBig12= 3.56D+00 8.03D-01.
      3 vectors produced by pass  2 Test12= 1.18D-12 3.33D-08 XBig12= 2.10D-02 6.92D-02.
      3 vectors produced by pass  3 Test12= 1.18D-12 3.33D-08 XBig12= 5.45D-05 1.89D-03.
      3 vectors produced by pass  4 Test12= 1.18D-12 3.33D-08 XBig12= 1.20D-07 7.79D-05.
      3 vectors produced by pass  5 Test12= 1.18D-12 3.33D-08 XBig12= 4.02D-10 4.73D-06.
      3 vectors produced by pass  6 Test12= 1.18D-12 3.33D-08 XBig12= 1.32D-12 2.61D-07.
 InvSVY:  IOpt=1 It=  1 EMax= 4.26D-14
 Solved reduced A of dimension    21 with     3 vectors.
 Calculating GIAO nuclear magnetic shielding tensors.
 SCF GIAO Magnetic shielding tensor (ppm):
      1  C    Isotropic =    53.8139   Anisotropy =   178.0260
   XX=   -41.4327   YX=   -32.3458   ZX=    10.0287
   XY=   -28.3572   YY=    59.0527   ZY=    55.1899
   XZ=    13.1759   YZ=    58.7550   ZZ=   143.8218
   Eigenvalues:   -53.8775    42.8214   172.4979
      2  H    Isotropic =    24.3095   Anisotropy =     4.8536
   XX=    25.5771   YX=    -1.0289   ZX=     0.5661
   XY=    -0.7431   YY=    26.1829   ZY=    -2.3306
   XZ=    -0.1707   YZ=    -2.4411   ZZ=    21.1687
   Eigenvalues:    20.2108    25.1725    27.5453
      3  C    Isotropic =    51.4055   Anisotropy =   157.8639
   XX=   -31.5399   YX=    38.5015   ZX=   -17.9316
   XY=    34.3519   YY=    49.9437   ZY=    49.6392
   XZ=    -9.8383   YZ=    44.6006   ZZ=   135.8127
   Eigenvalues:   -50.5747    48.1432   156.6481
      4  H    Isotropic =    23.8290   Anisotropy =     7.1838
   XX=    25.3635   YX=     1.8486   ZX=    -0.3559
   XY=     1.9656   YY=    26.4581   ZY=    -2.4103
   XZ=    -1.2941   YZ=    -2.6614   ZZ=    19.6654
   Eigenvalues:    18.8176    24.0511    28.6182
      5  C    Isotropic =    46.0697   Anisotropy =   207.6751
   XX=   -19.2123   YX=    -4.8852   ZX=    -1.6475
   XY=     2.8938   YY=    -2.9860   ZY=    66.5656
   XZ=     2.5356   YZ=    67.9144   ZZ=   160.4073
   Eigenvalues:   -27.2455   -19.0652   184.5197
      6  C    Isotropic =    47.5218   Anisotropy =   196.9389
   XX=   -28.1552   YX=    -2.7889   ZX=    12.0660
   XY=   -14.3886   YY=    21.2063   ZY=    74.2521
   XZ=   -18.6356   YZ=    61.1113   ZZ=   149.5144
   Eigenvalues:   -30.2925    -5.9564   178.8144
      7  C    Isotropic =    49.3915   Anisotropy =   179.8333
   XX=   -12.5211   YX=    28.7048   ZX=   -24.6745
   XY=    31.5123   YY=    29.7000   ZY=    77.7459
   XZ=   -40.0095   YZ=    65.3072   ZZ=   130.9956
   Eigenvalues:   -52.1299    31.0240   169.2804
      8  H    Isotropic =    23.1586   Anisotropy =    13.5525
   XX=    28.5711   YX=     1.5482   ZX=    -3.6986
   XY=     3.2466   YY=    22.7592   ZY=    -2.1157
   XZ=    -8.3753   YZ=    -1.0821   ZZ=    18.1456
   Eigenvalues:    15.3521    21.9301    32.1936
      9  C    Isotropic =    55.1460   Anisotropy =   174.7426
   XX=    46.7071   YX=    -2.6162   ZX=    -2.8420
   XY=     0.6223   YY=    -1.6258   ZY=    92.8272
   XZ=     0.5159   YZ=    95.6598   ZZ=   120.3568
   Eigenvalues:   -52.8932    46.6901   171.6411
     10  H    Isotropic =    24.6278   Anisotropy =     7.1815
   XX=    29.1040   YX=     0.1399   ZX=    -0.3694
   XY=     0.3642   YY=    23.4778   ZY=    -1.0805
   XZ=    -2.4493   YZ=    -2.9465   ZZ=    21.3016
   Eigenvalues:    19.9703    24.4977    29.4155
     11  C    Isotropic =    51.5607   Anisotropy =   151.2142
   XX=     2.1639   YX=    40.9287   ZX=   -26.0048
   XY=    49.9131   YY=    12.2331   ZY=    42.1342
   XZ=   -15.6145   YZ=    38.6614   ZZ=   140.2851
   Eigenvalues:   -48.1951    50.5071   152.3701
     12  H    Isotropic =    23.8537   Anisotropy =     7.3815
   XX=    25.9672   YX=     2.3738   ZX=    -0.2390
   XY=     2.4320   YY=    26.3975   ZY=    -1.8291
   XZ=     0.3529   YZ=    -1.7731   ZZ=    19.1964
   Eigenvalues:    18.7149    24.0714    28.7747
     13  C    Isotropic =    52.8653   Anisotropy =   147.4265
   XX=    51.2944   YX=    19.9221   ZX=   -13.4678
   XY=    11.5478   YY=   -34.0176   ZY=    42.5079
   XZ=    -9.2241   YZ=    40.0716   ZZ=   141.3192
   Eigenvalues:   -46.5152    53.9616   151.1497
     14  H    Isotropic =    24.0156   Anisotropy =     7.3485
   XX=    28.6644   YX=     0.6281   ZX=     1.0808
   XY=     0.5926   YY=    24.4325   ZY=    -1.0823
   XZ=     1.6846   YZ=    -0.3842   ZZ=    18.9500
   Eigenvalues:    18.6430    24.4892    28.9146
     15  C    Isotropic =    46.2221   Anisotropy =   203.9048
   XX=   -27.2215   YX=    -0.0442   ZX=   -28.9124
   XY=     4.6427   YY=   -10.5571   ZY=    28.3830
   XZ=   -10.2704   YZ=    26.7376   ZZ=   176.4448
   Eigenvalues:   -30.5512   -12.9411   182.1586
     16  C    Isotropic =    51.9375   Anisotropy =   188.2004
   XX=   -19.4441   YX=     5.5046   ZX=    15.7858
   XY=    -8.3874   YY=     2.4863   ZY=    22.9264
   XZ=   -50.6243   YZ=    23.3340   ZZ=   172.7704
   Eigenvalues:   -21.0294    -0.5625   177.4045
     17  C    Isotropic =    51.9482   Anisotropy =   149.1264
   XX=    50.7296   YX=   -23.9353   ZX=   -18.4207
   XY=   -16.7271   YY=   -41.8764   ZY=    17.8662
   XZ=   -14.3278   YZ=    11.4871   ZZ=   146.9915
   Eigenvalues:   -46.7796    51.2584   151.3658
     18  H    Isotropic =    24.0122   Anisotropy =     7.5163
   XX=    28.5811   YX=    -0.0866   ZX=     1.5071
   XY=    -0.2466   YY=    24.3342   ZY=    -0.7657
   XZ=     2.5088   YZ=    -1.5208   ZZ=    19.1214
   Eigenvalues:    18.5094    24.5041    29.0231
     19  C    Isotropic =    51.7356   Anisotropy =   148.5924
   XX=     2.4559   YX=   -45.6913   ZX=   -31.2531
   XY=   -53.4448   YY=     7.4698   ZY=    -1.8888
   XZ=   -23.5601   YZ=    -1.2765   ZZ=   145.2810
   Eigenvalues:   -46.9894    51.3989   150.7972
     20  H    Isotropic =    23.9071   Anisotropy =     7.6651
   XX=    25.5796   YX=    -2.0226   ZX=     1.4905
   XY=    -1.9998   YY=    27.3706   ZY=    -0.5164
   XZ=     2.7276   YZ=    -1.1179   ZZ=    18.7711
   Eigenvalues:    18.1643    24.5398    29.0172
     21  C    Isotropic =    45.9767   Anisotropy =   203.9316
   XX=   -16.2108   YX=    13.1802   ZX=   -44.5913
   XY=     6.5714   YY=   -20.6329   ZY=     0.0949
   XZ=   -28.8984   YZ=   -13.0883   ZZ=   174.7736
   Eigenvalues:   -30.5796   -13.4215   181.9311
     22  C    Isotropic =    52.0450   Anisotropy =   188.1157
   XX=    -0.0787   YX=     2.5023   ZX=   -16.3451
   XY=    18.9327   YY=   -14.4798   ZY=   -34.4335
   XZ=   -50.6032   YZ=    19.9104   ZZ=   170.6934
   Eigenvalues:   -20.7705    -0.5500   177.4554
     23  C    Isotropic =    53.2392   Anisotropy =   146.7412
   XX=   -22.0674   YX=   -32.0012   ZX=   -49.4857
   XY=   -23.2043   YY=    44.3661   ZY=   -15.6400
   XZ=   -43.8090   YZ=   -20.2525   ZZ=   137.4189
   Eigenvalues:   -45.6776    54.3286   151.0667
     24  H    Isotropic =    23.8249   Anisotropy =     7.5289
   XX=    25.1073   YX=    -1.7330   ZX=     1.5380
   XY=    -1.5944   YY=    28.0047   ZY=     0.0879
   XZ=     1.2557   YZ=    -0.8283   ZZ=    18.3628
   Eigenvalues:    18.0848    24.5458    28.8442
     25  C    Isotropic =    51.4969   Anisotropy =   150.1066
   XX=   -28.4915   YX=    33.9684   ZX=   -52.3137
   XY=    22.0311   YY=    46.6072   ZY=    -3.8075
   XZ=   -44.5594   YZ=   -10.6355   ZZ=   136.3748
   Eigenvalues:   -48.3857    51.3083   151.5679
     26  H    Isotropic =    23.7431   Anisotropy =     7.4052
   XX=    24.0663   YX=     1.1141   ZX=     1.9989
   XY=     0.9693   YY=    28.1000   ZY=     1.6568
   XZ=     2.0795   YZ=     0.8886   ZZ=    19.0630
   Eigenvalues:    18.2615    24.2880    28.6799
     27  C    Isotropic =    45.8108   Anisotropy =   207.2710
   XX=    -2.7702   YX=    13.7697   ZX=   -61.4651
   XY=     6.5593   YY=   -12.0335   ZY=   -41.6456
   XZ=   -62.6381   YZ=   -44.9232   ZZ=   152.2361
   Eigenvalues:   -28.0803   -18.4787   183.9915
     28  C    Isotropic =    47.8398   Anisotropy =   197.2870
   XX=    19.6900   YX=    14.4398   ZX=   -60.5682
   XY=    28.5650   YY=   -19.3566   ZY=   -56.7015
   XZ=   -63.1331   YZ=   -24.4782   ZZ=   143.1859
   Eigenvalues:   -30.5979    -5.2472   179.3644
     29  C    Isotropic =    49.3441   Anisotropy =   179.7793
   XX=    -3.4110   YX=    38.3775   ZX=   -80.8875
   XY=    36.1252   YY=    25.9805   ZY=   -23.7573
   XZ=   -78.1065   YZ=    -3.9802   ZZ=   125.4627
   Eigenvalues:   -51.6645    30.4997   169.1970
     30  H    Isotropic =    23.1387   Anisotropy =    13.3222
   XX=    22.4354   YX=    -0.7013   ZX=    -0.2375
   XY=    -2.1539   YY=    28.3546   ZY=     4.5555
   XZ=    -3.4181   YZ=     8.3231   ZZ=    18.6259
   Eigenvalues:    15.2751    22.1208    32.0201
     31  C    Isotropic =    55.4410   Anisotropy =   174.9390
   XX=    17.1871   YX=   -14.0890   ZX=   -84.0024
   XY=   -17.9030   YY=    37.4745   ZY=   -50.3662
   XZ=   -84.6557   YZ=   -54.8325   ZZ=   111.6615
   Eigenvalues:   -51.9248    46.1808   172.0670
     32  H    Isotropic =    24.5337   Anisotropy =     7.2554
   XX=    24.6185   YX=    -2.5264   ZX=     0.7632
   XY=    -2.7385   YY=    27.4630   ZY=     1.0335
   XZ=     1.1913   YZ=     3.7573   ZZ=    21.5194
   Eigenvalues:    19.8987    24.3316    29.3706
     33  C    Isotropic =    53.1814   Anisotropy =   179.0596
   XX=    60.9231   YX=    35.2256   ZX=   -42.9515
   XY=    32.0226   YY=   -38.1801   ZY=   -45.5652
   XZ=   -44.2248   YZ=   -50.7831   ZZ=   136.8014
   Eigenvalues:   -55.1197    42.1095   172.5545
     34  H    Isotropic =    24.2825   Anisotropy =     5.1861
   XX=    26.7643   YX=    -0.0934   ZX=     2.5955
   XY=    -0.2993   YY=    24.8157   ZY=     0.8589
   XZ=     2.3715   YZ=     1.4580   ZZ=    21.2676
   Eigenvalues:    20.0339    25.0737    27.7399
     35  C    Isotropic =    51.5295   Anisotropy =   155.1748
   XX=    -0.5131   YX=    52.5760   ZX=   -52.1551
   XY=    55.6135   YY=    25.1843   ZY=   -14.2643
   XZ=   -45.7255   YZ=   -17.1625   ZZ=   129.9171
   Eigenvalues:   -48.3147    47.9237   154.9793
     36  H    Isotropic =    23.8384   Anisotropy =     7.3073
   XX=    24.2302   YX=     1.4459   ZX=     2.1759
   XY=     1.2147   YY=    27.1572   ZY=     2.0665
   XZ=     1.6853   YZ=     2.7775   ZZ=    20.1277
   Eigenvalues:    18.9464    23.8588    28.7099
     37  Bq   Isotropic =     0.7156   Anisotropy =    11.3503
   XX=     3.0695   YX=    -1.3693   ZX=     1.2482
   XY=    -2.1933   YY=     5.1213   ZY=    -5.4266
   XZ=     1.3275   YZ=    -5.6525   ZZ=    -6.0440
   Eigenvalues:    -8.3496     2.2140     8.2825
     38  Bq   Isotropic =     0.2907   Anisotropy =    10.8985
   XX=     2.6970   YX=    -1.2554   ZX=     1.2042
   XY=    -1.9927   YY=     4.5585   ZY=    -5.2643
   XZ=     1.2789   YZ=    -5.4719   ZZ=    -6.3834
   Eigenvalues:    -8.6031     1.9188     7.5563
     39  Bq   Isotropic =    -0.0624   Anisotropy =    10.4320
   XX=     2.4060   YX=    -1.1476   ZX=     1.1641
   XY=    -1.7982   YY=     4.0512   ZY=    -5.0911
   XZ=     1.2368   YZ=    -5.2840   ZZ=    -6.6444
   Eigenvalues:    -8.7756     1.6961     6.8922
     40  Bq   Isotropic =    -0.3550   Anisotropy =     9.9611
   XX=     2.1823   YX=    -1.0469   ZX=     1.1284
   XY=    -1.6126   YY=     3.5931   ZY=    -4.9113
   XZ=     1.2013   YZ=    -5.0929   ZZ=    -6.8406
   Eigenvalues:    -8.8826     1.5318     6.2857
     41  Bq   Isotropic =    -0.5969   Anisotropy =     9.4939
   XX=     2.0143   YX=    -0.9542   ZX=     1.0973
   XY=    -1.4379   YY=     3.1782   ZY=    -4.7283
   XZ=     1.1727   YZ=    -4.9017   ZZ=    -6.9831
   Eigenvalues:    -8.9369     1.4139     5.7324
     42  Bq   Isotropic =    -0.7959   Anisotropy =     9.0365
   XX=     1.8920   YX=    -0.8699   ZX=     1.0710
   XY=    -1.2755   YY=     2.8014   ZY=    -4.5448
   XZ=     1.1508   YZ=    -4.7127   ZZ=    -7.0812
   Eigenvalues:    -8.9488     1.3326     5.2284
     43  Bq   Isotropic =    -0.9588   Anisotropy =     8.5937
   XX=     1.8078   YX=    -0.7941   ZX=     1.0494
   XY=    -1.1262   YY=     2.4582   ZY=    -4.3626
   XZ=     1.1353   YZ=    -4.5275   ZZ=    -7.1425
   Eigenvalues:    -8.9263     1.2795     4.7703
     44  Bq   Isotropic =    -1.0910   Anisotropy =     8.1700
   XX=     1.7551   YX=    -0.7270   ZX=     1.0325
   XY=    -0.9902   YY=     2.1448   ZY=    -4.1828
   XZ=     1.1259   YZ=    -4.3470   ZZ=    -7.1728
   Eigenvalues:    -8.8761     1.2476     4.3557
     45  Bq   Isotropic =    -1.1968   Anisotropy =     7.7695
   XX=     1.7287   YX=    -0.6686   ZX=     1.0202
   XY=    -0.8680   YY=     1.8580   ZY=    -4.0066
   XZ=     1.1224   YZ=    -4.1721   ZZ=    -7.1771
   Eigenvalues:    -8.8033     1.2299     3.9828
     46  Bq   Isotropic =    -0.8938   Anisotropy =     7.8389
   XX=     1.5719   YX=     1.5222   ZX=    -0.6750
   XY=     1.9055   YY=     0.9678   ZY=    -3.6138
   XZ=    -1.7145   YZ=    -4.0206   ZZ=    -5.2213
   Eigenvalues:    -7.0549     0.0413     4.3321
     47  Bq   Isotropic =    -0.8825   Anisotropy =     8.0549
   XX=     1.6402   YX=     1.5000   ZX=    -0.6562
   XY=     1.9357   YY=     1.0824   ZY=    -3.7864
   XZ=    -1.7220   YZ=    -4.1961   ZZ=    -5.3702
   Eigenvalues:    -7.2891     0.1541     4.4874
     48  Bq   Isotropic =    -0.8614   Anisotropy =     8.2833
   XX=     1.7160   YX=     1.4735   ZX=    -0.6351
   XY=     1.9675   YY=     1.2145   ZY=    -3.9689
   XZ=    -1.7297   YZ=    -4.3821   ZZ=    -5.5147
   Eigenvalues:    -7.5243     0.2793     4.6608
     49  Bq   Isotropic =    -0.8281   Anisotropy =     8.5248
   XX=     1.8011   YX=     1.4422   ZX=    -0.6113
   XY=     2.0008   YY=     1.3666   ZY=    -4.1612
   XZ=    -1.7379   YZ=    -4.5786   ZZ=    -5.6519
   Eigenvalues:    -7.7580     0.4187     4.8551
     50  Bq   Isotropic =    -0.7798   Anisotropy =     8.7799
   XX=     1.8981   YX=     1.4055   ZX=    -0.5847
   XY=     2.0357   YY=     1.5413   ZY=    -4.3631
   XZ=    -1.7467   YZ=    -4.7855   ZZ=    -5.7788
   Eigenvalues:    -7.9868     0.5740     5.0735
     51  Bq   Isotropic =    -0.7133   Anisotropy =     9.0490
   XX=     2.0096   YX=     1.3630   ZX=    -0.5549
   XY=     2.0721   YY=     1.7418   ZY=    -4.5743
   XZ=    -1.7560   YZ=    -5.0028   ZZ=    -5.8912
   Eigenvalues:    -8.2069     0.7477     5.3194
     52  Bq   Isotropic =    -0.6246   Anisotropy =     9.3317
   XX=     2.1390   YX=     1.3138   ZX=    -0.5217
   XY=     2.1095   YY=     1.9715   ZY=    -4.7942
   XZ=    -1.7660   YZ=    -5.2297   ZZ=    -5.9844
   Eigenvalues:    -8.4132     0.9428     5.5965
     53  Bq   Isotropic =    -0.5092   Anisotropy =     9.6273
   XX=     2.2902   YX=     1.2569   ZX=    -0.4845
   XY=     2.1475   YY=     2.2346   ZY=    -5.0220
   XZ=    -1.7767   YZ=    -5.4658   ZZ=    -6.0524
   Eigenvalues:    -8.5994     1.1628     5.9090
     54  Bq   Isotropic =    -0.3614   Anisotropy =     9.9341
   XX=     2.4678   YX=     1.1910   ZX=    -0.4427
   XY=     2.1853   YY=     2.5360   ZY=    -5.2563
   XZ=    -1.7879   YZ=    -5.7097   ZZ=    -6.0880
   Eigenvalues:    -8.7579     1.4123     6.2613
     55  Bq   Isotropic =    -0.1745   Anisotropy =    10.2495
   XX=     2.6773   YX=     1.1147   ZX=    -0.3956
   XY=     2.2216   YY=     2.8814   ZY=    -5.4955
   XZ=    -1.7995   YZ=    -5.9599   ZZ=    -6.0822
   Eigenvalues:    -8.8790     1.6970     6.6585
     56  Bq   Isotropic =     0.0597   Anisotropy =    10.5697
   XX=     2.9256   YX=     1.0260   ZX=    -0.3423
   XY=     2.2549   YY=     3.2774   ZY=    -5.7372
   XZ=    -1.8113   YZ=    -6.2142   ZZ=    -6.0240
   Eigenvalues:    -8.9507     2.0236     7.1062
     57  Bq   Isotropic =     0.3510   Anisotropy =    10.8892
   XX=     3.2210   YX=     0.9227   ZX=    -0.2817
   XY=     2.2829   YY=     3.7319   ZY=    -5.9779
   XZ=    -1.8227   YZ=    -6.4694   ZZ=    -5.8998
   Eigenvalues:    -8.9580     2.4006     7.6105
     58  Bq   Isotropic =     0.7116   Anisotropy =    11.2005
   XX=     3.5737   YX=     0.8022   ZX=    -0.2125
   XY=     2.3029   YY=     4.2541   ZY=    -6.2132
   XZ=    -1.8331   YZ=    -6.7212   ZZ=    -5.6931
   Eigenvalues:    -8.8824     2.8385     8.1785
     59  Bq   Isotropic =     1.1556   Anisotropy =    11.4937
   XX=     3.9959   YX=     0.6617   ZX=    -0.1334
   XY=     2.3115   YY=     4.8546   ZY=    -6.4373
   XZ=    -1.8417   YZ=    -6.9640   ZZ=    -5.3837
   Eigenvalues:    -8.7010     3.3497     8.8181
     60  Bq   Isotropic =     1.7000   Anisotropy =    11.7566
   XX=     4.5023   YX=     0.4979   ZX=    -0.0428
   XY=     2.3042   YY=     5.5455   ZY=    -6.6426
   XZ=    -1.8474   YZ=    -7.1905   ZZ=    -4.9477
   Eigenvalues:    -8.3863     3.9486     9.5378
     61  Bq   Isotropic =     2.3642   Anisotropy =    11.9744
   XX=     5.1096   YX=     0.3074   ZX=     0.0609
   XY=     2.2760   YY=     6.3402   ZY=    -6.8198
   XZ=    -1.8489   YZ=    -7.3915   ZZ=    -4.3571
   Eigenvalues:    -7.9060     4.6516    10.3471
     62  Bq   Isotropic =     3.1695   Anisotropy =    12.1301
   XX=     5.8361   YX=     0.0868   ZX=     0.1795
   XY=     2.2211   YY=     7.2533   ZY=    -6.9578
   XZ=    -1.8444   YZ=    -7.5560   ZZ=    -3.5809
   Eigenvalues:    -7.2235     5.4759    11.2562
     63  Bq   Isotropic =     4.1384   Anisotropy =    12.2064
   XX=     6.7006   YX=    -0.1675   ZX=     0.3146
   XY=     2.1327   YY=     8.2999   ZY=    -7.0440
   XZ=    -1.8321   YZ=    -7.6717   ZZ=    -2.5854
   Eigenvalues:    -6.2991     6.4383    12.2760
     64  Bq   Isotropic =     5.2930   Anisotropy =    12.1875
   XX=     7.7209   YX=    -0.4588   ZX=     0.4677
   XY=     2.0037   YY=     9.4947   ZY=    -7.0648
   XZ=    -1.8101   YZ=    -7.7250   ZZ=    -1.3365
   Eigenvalues:    -5.0917     7.5527    13.4180
     65  Bq   Isotropic =     6.6539   Anisotropy =    12.0619
   XX=     8.9117   YX=    -0.7900   ZX=     0.6404
   XY=     1.8267   YY=    10.8514   ZY=    -7.0063
   XZ=    -1.7760   YZ=    -7.7022   ZZ=     0.1987
   Eigenvalues:    -3.5613     8.8279    14.6952
     66  Bq   Isotropic =     8.2384   Anisotropy =    11.8247
   XX=    10.2840   YX=    -1.1628   ZX=     0.8334
   XY=     1.5937   YY=    12.3813   ZY=    -6.8543
   XZ=    -1.7274   YZ=    -7.5891   ZZ=     2.0499
   Eigenvalues:    -1.6709    10.2646    16.1216
     67  Bq   Isotropic =    10.0593   Anisotropy =    11.4795
   XX=    11.8433   YX=    -1.5767   ZX=     1.0464
   XY=     1.2966   YY=    14.0923   ZY=    -6.5945
   XZ=    -1.6620   YZ=    -7.3713   ZZ=     4.2424
   Eigenvalues:     0.6123    11.8534    17.7123
     68  Bq   Isotropic =    12.1226   Anisotropy =    11.0378
   XX=    13.5881   YX=    -2.0266   ZX=     1.2772
   XY=     0.9272   YY=    15.9865   ZY=    -6.2121
   XZ=    -1.5766   YZ=    -7.0334   ZZ=     6.7933
   Eigenvalues:     3.3136    13.5731    19.4811
     69  Bq   Isotropic =    14.4219   Anisotropy =    10.5182
   XX=    15.5049   YX=    -2.5013   ZX=     1.5195
   XY=     0.4779   YY=    18.0565   ZY=    -5.6936
   XZ=    -1.4682   YZ=    -6.5603   ZZ=     9.7045
   Eigenvalues:     6.4432    15.3885    21.4341
     70  Bq   Isotropic =    16.9273   Anisotropy =     9.9463
   XX=    17.5560   YX=    -2.9805   ZX=     1.7628
   XY=    -0.0567   YY=    20.2786   ZY=    -5.0313
   XZ=    -1.3339   YZ=    -5.9417   ZZ=    12.9472
   Eigenvalues:     9.9771    17.2465    23.5582
     71  Bq   Isotropic =    19.5692   Anisotropy =     9.3556
   XX=    19.6630   YX=    -3.4363   ZX=     1.9919
   XY=    -0.6769   YY=    22.6045   ZY=    -4.2334
   XZ=    -1.1719   YZ=    -5.1815   ZZ=    16.4401
   Eigenvalues:    13.8261    19.0753    25.8063
     72  Bq   Isotropic =    22.2260   Anisotropy =     8.7869
   XX=    21.6943   YX=    -3.8347   ZX=     2.1888
   XY=    -1.3763   YY=    24.9536   ZY=    -3.3333
   XZ=    -0.9817   YZ=    -4.3077   ZZ=    20.0302
   Eigenvalues:    17.7857    20.8085    28.0840
     73  Bq   Isotropic =    24.7209   Anisotropy =     8.2873
   XX=    23.4675   YX=    -4.1365   ZX=     2.3323
   XY=    -2.1390   YY=    27.2106   ZY=    -2.3952
   XZ=    -0.7635   YZ=    -3.3768   ZZ=    23.4845
   Eigenvalues:    21.2197    22.6973    30.2457
     74  Bq   Isotropic =    26.8247   Anisotropy =     7.9247
   XX=    24.7612   YX=    -4.3004   ZX=     2.3990
   XY=    -2.9324   YY=    29.2254   ZY=    -1.5202
   XZ=    -0.5178   YZ=    -2.4781   ZZ=    26.4875
   Eigenvalues:    22.7362    25.6301    32.1079
     75  Bq   Isotropic =    28.2904   Anisotropy =     7.8157
   XX=    25.3515   YX=    -4.3087   ZX=     2.3776
   XY=    -3.6958   YY=    30.8338   ZY=    -0.8432
   XZ=    -0.2542   YZ=    -1.7364   ZZ=    28.6858
   Eigenvalues:    23.2197    28.1506    33.5008
     76  Bq   Isotropic =    28.9608   Anisotropy =     8.0767
   XX=    25.1148   YX=    -4.1831   ZX=     2.2842
   XY=    -4.3505   YY=    31.9223   ZY=    -0.4778
   XZ=     0.0007   YZ=    -1.2690   ZZ=    29.8454
   Eigenvalues:    22.9973    29.5399    34.3453
     77  Bq   Isotropic =    28.8427   Anisotropy =     8.7257
   XX=    24.0962   YX=    -3.9504   ZX=     2.1424
   XY=    -4.8317   YY=    32.4761   ZY=    -0.4576
   XZ=     0.2115   YZ=    -1.1244   ZZ=    29.9558
   Eigenvalues:    22.1396    29.7286    34.6598
     78  Bq   Isotropic =    28.0489   Anisotropy =     9.6976
   XX=    22.4545   YX=    -3.6115   ZX=     1.9606
   XY=    -5.1026   YY=    32.5467   ZY=    -0.7529
   XZ=     0.3508   YZ=    -1.2874   ZZ=    29.1456
   Eigenvalues:    20.7695    28.8633    34.5140
     79  Bq   Isotropic =    26.7240   Anisotropy =    10.9129
   XX=    20.3889   YX=    -3.1518   ZX=     1.7344
   XY=    -5.1465   YY=    32.2021   ZY=    -1.3089
   XZ=     0.4035   YZ=    -1.7120   ZZ=    27.5810
   Eigenvalues:    19.0391    27.1336    33.9993
     80  Bq   Isotropic =    25.0142   Anisotropy =    12.2917
   XX=    18.1011   YX=    -2.5570   ZX=     1.4563
   XY=    -4.9623   YY=    31.5101   ZY=    -2.0621
   XZ=     0.3638   YZ=    -2.3397   ZZ=    25.4315
   Eigenvalues:    17.1057    24.7283    33.2087
     81  Bq   Isotropic =    23.0529   Anisotropy =    13.7533
   XX=    15.7733   YX=    -1.8222   ZX=     1.1220
   XY=    -4.5661   YY=    30.5320   ZY=    -2.9482
   XZ=     0.2340   YZ=    -3.1099   ZZ=    22.8534
   Eigenvalues:    15.1113    21.8256    32.2218
     82  Bq   Isotropic =    20.9528   Anisotropy =    15.2224
   XX=    13.5583   YX=    -0.9571   ZX=     0.7332
   XY=    -3.9899   YY=    29.3191   ZY=    -3.9089
   XZ=     0.0247   YZ=    -3.9656   ZZ=    19.9809
   Eigenvalues:    13.1708    18.5864    31.1011
     83  Bq   Isotropic =    18.8071   Anisotropy =    16.6309
   XX=    11.5785   YX=     0.0110   ZX=     0.2995
   XY=    -3.2768   YY=    27.9144   ZY=    -4.8929
   XZ=    -0.2468   YZ=    -4.8563   ZZ=    16.9285
   Eigenvalues:    11.3672    15.1598    29.8944
     84  Bq   Isotropic =    16.6941   Anisotropy =    17.9175
   XX=     9.9264   YX=     1.0390   ZX=    -0.1617
   XY=    -2.4764   YY=    26.3576   ZY=    -5.8551
   XZ=    -0.5586   YZ=    -5.7370   ZZ=    13.7983
   Eigenvalues:     9.7149    11.7283    28.6392
     85  Bq   Isotropic =    14.6792   Anisotropy =    19.0295
   XX=     8.6641   YX=     2.0729   ZX=    -0.6270
   XY=    -1.6411   YY=    24.6895   ZY=    -6.7574
   XZ=    -0.8868   YZ=    -6.5694   ZZ=    10.6841
   Eigenvalues:     7.6382     9.0340    27.3656
     86  Bq   Isotropic =    12.8145   Anisotropy =    19.9262
   XX=     7.8206   YX=     3.0536   ZX=    -1.0703
   XY=    -0.8217   YY=    22.9534   ZY=    -7.5696
   XZ=    -1.2074   YZ=    -7.3231   ZZ=     7.6694
   Eigenvalues:     4.5158     7.8291    26.0986
     87  Bq   Isotropic =    11.1367   Anisotropy =    20.5827
   XX=     7.3921   YX=     3.9242   ZX=    -1.4657
   XY=    -0.0641   YY=    21.1946   ZY=    -8.2717
   XZ=    -1.4987   YZ=    -7.9779   ZZ=     4.8235
   Eigenvalues:     1.4056     7.1460    24.8586
     88  Bq   Isotropic =     9.6669   Anisotropy =    20.9915
   XX=     7.3444   YX=     4.6352   ZX=    -1.7901
   XY=     0.5941   YY=    19.4577   ZY=    -8.8545
   XZ=    -1.7429   YZ=    -8.5241   ZZ=     2.1987
   Eigenvalues:    -1.4647     6.8042    23.6612
     89  Bq   Isotropic =     8.4107   Anisotropy =    21.1603
   XX=     7.6194   YX=     5.1496   ZX=    -2.0258
   XY=     1.1263   YY=    17.7843   ZY=    -9.3191
   XZ=    -1.9271   YZ=    -8.9616   ZZ=    -0.1716
   Eigenvalues:    -4.0390     6.7536    22.5176
     90  Bq   Isotropic =     7.3610   Anisotropy =    21.1088
   XX=     8.1427   YX=     5.4447   ZX=    -2.1614
   XY=     1.5178   YY=    16.2109   ZY=    -9.6744
   XZ=    -2.0441   YZ=    -9.2988   ZZ=    -2.2706
   Eigenvalues:    -6.2979     6.9474    21.4335
     91  Bq   Isotropic =     6.5011   Anisotropy =    20.8638
   XX=     8.8323   YX=     5.5128   ZX=    -2.1925
   XY=     1.7653   YY=    14.7671   ZY=    -9.9351
   XZ=    -2.0924   YZ=    -9.5490   ZZ=    -4.0961
   Eigenvalues:    -8.2427     7.3357    20.4103
     92  Bq   Isotropic =     5.8085   Anisotropy =    20.4552
   XX=     9.6064   YX=     5.3602   ZX=    -2.1210
   XY=     1.8758   YY=    13.4753   ZY=   -10.1187
   XZ=    -2.0749   YZ=    -9.7286   ZZ=    -5.6564
   Eigenvalues:    -9.8881     7.8682    19.4453
     93  Bq   Isotropic =     5.2575   Anisotropy =    19.9125
   XX=    10.3893   YX=     5.0049   ZX=    -1.9547
   XY=     1.8643   YY=    12.3504   ZY=   -10.2432
   XZ=    -1.9986   YZ=    -9.8546   ZZ=    -6.9672
   Eigenvalues:   -11.2572     8.4972    18.5325
     94  Bq   Isotropic =     4.8224   Anisotropy =    19.2623
   XX=    11.1149   YX=     4.4741   ZX=    -1.7055
   XY=     1.7509   YY=    11.4007   ZY=   -10.3259
   XZ=    -1.8729   YZ=    -9.9433   ZZ=    -8.0484
   Eigenvalues:   -12.3772     9.1805    17.6640
     95  Bq   Isotropic =     4.4793   Anisotropy =    18.5279
   XX=    11.7302   YX=     3.8013   ZX=    -1.3886
   XY=     1.5593   YY=    10.6291   ZY=   -10.3818
   XZ=    -1.7090   YZ=   -10.0086   ZZ=    -8.9212
   Eigenvalues:   -13.2760     9.8828    16.8312
     96  Bq   Isotropic =     4.2077   Anisotropy =    17.7294
   XX=    12.1950   YX=     3.0238   ZX=    -1.0213
   XY=     1.3142   YY=    10.0342   ZY=   -10.4231
   XZ=    -1.5184   YZ=   -10.0620   ZZ=    -9.6061
   Eigenvalues:   -13.9795    10.5753    16.0273
     97  Bq   Isotropic =     3.9913   Anisotropy =    16.8886
   XX=    12.4830   YX=     2.1810   ZX=    -0.6220
   XY=     1.0404   YY=     9.6118   ZY=   -10.4587
   XZ=    -1.3126   YZ=   -10.1118   ZZ=   -10.1209
   Eigenvalues:   -14.5095    11.2329    15.2504
     98  Bq   Isotropic =     3.8189   Anisotropy =    16.0454
   XX=    12.5808   YX=     1.3125   ZX=    -0.2090
   XY=     0.7617   YY=     9.3556   ZY=   -10.4943
   XZ=    -1.1028   YZ=   -10.1630   ZZ=   -10.4796
   Eigenvalues:   -14.8826    11.8235    14.5159
     99  Bq   Isotropic =     3.6848   Anisotropy =    15.3387
   XX=    12.4874   YX=     0.4570   ZX=     0.1993
   XY=     0.5008   YY=     9.2586   ZY=   -10.5323
   XZ=    -0.8994   YZ=   -10.2177   ZZ=   -10.6915
   Eigenvalues:   -15.1095    12.2534    13.9107
    100  Bq   Isotropic =     3.5885   Anisotropy =    15.2369
   XX=    12.2136   YX=    -0.3487   ZX=     0.5855
   XY=     0.2783   YY=     9.3133   ZY=   -10.5719
   XZ=    -0.7122   YZ=   -10.2748   ZZ=   -10.7612
   Eigenvalues:   -15.1946    12.2137    13.7465
    101  Bq   Isotropic =     3.5347   Anisotropy =    15.8103
   XX=    11.7811   YX=    -1.0704   ZX=     0.9334
   XY=     0.1135   YY=     9.5116   ZY=   -10.6094
   XZ=    -0.5497   YZ=   -10.3304   ZZ=   -10.6887
   Eigenvalues:   -15.1361    11.6653    14.0749
    102  Bq   Isotropic =     3.5324   Anisotropy =    16.5359
   XX=    11.2218   YX=    -1.6779   ZX=     1.2286
   XY=     0.0231   YY=     9.8453   ZY=   -10.6382
   XZ=    -0.4200   YZ=   -10.3782   ZZ=   -10.4698
   Eigenvalues:   -14.9274    10.9683    14.5564
    103  Bq   Isotropic =     3.5949   Anisotropy =    17.2325
   XX=    10.5772   YX=    -2.1455   ZX=     1.4589
   XY=     0.0213   YY=    10.3050   ZY=   -10.6497
   XZ=    -0.3296   YZ=   -10.4096   ZZ=   -10.0975
   Eigenvalues:   -14.5575    10.2590    15.0833
    104  Bq   Isotropic =     3.7381   Anisotropy =    17.8525
   XX=     9.8963   YX=    -2.4536   ZX=     1.6149
   XY=     0.1192   YY=    10.8806   ZY=   -10.6333
   XZ=    -0.2840   YZ=   -10.4144   ZZ=    -9.5625
   Eigenvalues:   -14.0128     9.5874    15.6398
    105  Bq   Isotropic =     3.9798   Anisotropy =    18.3744
   XX=     9.2347   YX=    -2.5900   ZX=     1.6907
   XY=     0.3235   YY=    11.5602   ZY=   -10.5770
   XZ=    -0.2866   YZ=   -10.3810   ZZ=    -8.8554
   Eigenvalues:   -13.2785     8.9886    16.2294
    106  Bq   Isotropic =     4.3383   Anisotropy =    18.7828
   XX=     8.6518   YX=    -2.5508   ZX=     1.6844
   XY=     0.6360   YY=    12.3306   ZY=   -10.4685
   XZ=    -0.3389   YZ=   -10.2976   ZZ=    -7.9673
   Eigenvalues:   -12.3406     8.4954    16.8602
    107  Bq   Isotropic =     4.8310   Anisotropy =    19.0639
   XX=     8.2075   YX=    -2.3418   ZX=     1.5985
   XY=     1.0524   YY=    13.1771   ZY=   -10.2959
   XZ=    -0.4396   YZ=   -10.1527   ZZ=    -6.8916
   Eigenvalues:   -11.1871     8.1398    17.5402
    108  Bq   Isotropic =     5.4726   Anisotropy =    19.2052
   XX=     7.9590   YX=    -1.9784   ZX=     1.4402
   XY=     1.5621   YY=    14.0841   ZY=   -10.0484
   XZ=    -0.5848   YZ=    -9.9363   ZZ=    -5.6254
   Eigenvalues:    -9.8106     7.9522    18.2760
    109  Bq   Isotropic =     6.2737   Anisotropy =    19.1965
   XX=     7.9565   YX=    -1.4856   ZX=     1.2214
   XY=     2.1476   YY=    15.0353   ZY=    -9.7181
   XZ=    -0.7675   YZ=    -9.6406   ZZ=    -4.1707
   Eigenvalues:    -8.2095     7.9593    19.0714
    110  Bq   Isotropic =     7.2392   Anisotropy =    19.0307
   XX=     8.2388   YX=    -0.8966   ZX=     0.9576
   XY=     2.7855   YY=    16.0145   ZY=    -9.3005
   XZ=    -0.9778   YZ=    -9.2616   ZZ=    -2.5358
   Eigenvalues:    -6.3904     8.1816    19.9263
    111  Bq   Isotropic =     8.3662   Anisotropy =    18.7059
   XX=     8.8296   YX=    -0.2507   ZX=     0.6672
   XY=     3.4472   YY=    17.0060   ZY=    -8.7961
   XZ=    -1.2035   YZ=    -8.7999   ZZ=    -0.7370
   Eigenvalues:    -4.3698     8.6315    20.8368
    112  Bq   Isotropic =     9.6432   Anisotropy =    18.2263
   XX=     9.7344   YX=     0.4098   ZX=     0.3703
   XY=     4.1013   YY=    17.9946   ZY=    -8.2109
   XZ=    -1.4310   YZ=    -8.2615   ZZ=     1.2006
   Eigenvalues:    -2.1756     9.3111    21.7941
    113  Bq   Isotropic =    11.0491   Anisotropy =    17.6036
   XX=    10.9390   YX=     1.0423   ZX=     0.0867
   XY=     4.7156   YY=    18.9661   ZY=    -7.5571
   XZ=    -1.6459   YZ=    -7.6583   ZZ=     3.2424
   Eigenvalues:     0.1519    10.2107    22.7849
    114  Bq   Isotropic =    12.5538   Anisotropy =    16.8561
   XX=    12.4098   YX=     1.6081   ZX=    -0.1653
   XY=     5.2593   YY=    19.9066   ZY=    -6.8524
   XZ=    -1.8339   YZ=    -7.0078   ZZ=     5.3451
   Eigenvalues:     2.5612    11.3091    23.7912
    115  Bq   Isotropic =    14.1196   Anisotropy =    16.0062
   XX=    14.0966   YX=     2.0745   ZX=    -0.3704
   XY=     5.7041   YY=    20.8029   ZY=    -6.1187
   XZ=    -1.9816   YZ=    -6.3315   ZZ=     7.4592
   Eigenvalues:     4.9927    12.5757    24.7904
    116  Bq   Isotropic =    15.7034   Anisotropy =    15.0762
   XX=    15.9362   YX=     2.4167   ZX=    -0.5169
   XY=     6.0237   YY=    21.6418   ZY=    -5.3800
   XZ=    -2.0761   YZ=    -5.6530   ZZ=     9.5322
   Eigenvalues:     7.3826    13.9735    25.7542
    117  Bq   Isotropic =    17.2581   Anisotropy =    14.0828
   XX=    17.8553   YX=     2.6185   ZX=    -0.5975
   XY=     6.1923   YY=    22.4084   ZY=    -4.6607
   XZ=    -2.1050   YZ=    -4.9967   ZZ=    11.5104
   Eigenvalues:     9.6655    15.4620    26.6466
    118  Bq   Isotropic =    18.7299   Anisotropy =    13.0349
   XX=    19.7703   YX=     2.6720   ZX=    -0.6088
   XY=     6.1831   YY=    23.0827   ZY=    -3.9855
   XZ=    -2.0559   YZ=    -4.3873   ZZ=    13.3366
   Eigenvalues:    11.7721    16.9977    27.4198
    119  Bq   Isotropic =    20.0520   Anisotropy =    11.9371
   XX=    21.5814   YX=     2.5766   ZX=    -0.5512
   XY=     5.9702   YY=    23.6345   ZY=    -3.3826
   XZ=    -1.9173   YZ=    -3.8529   ZZ=    14.9402
   Eigenvalues:    13.6179    18.5280    28.0101
    120  Bq   Isotropic =    21.1360   Anisotropy =    10.7994
   XX=    23.1658   YX=     2.3388   ZX=    -0.4285
   XY=     5.5364   YY=    24.0177   ZY=    -2.8864
   XZ=    -1.6818   YZ=    -3.4282   ZZ=    16.2246
   Eigenvalues:    15.0901    19.9824    28.3356
    121  Bq   Isotropic =    21.8707   Anisotropy =     9.6391
   XX=    24.3785   YX=     1.9719   ZX=    -0.2473
   XY=     4.8783   YY=    24.1690   ZY=    -2.5381
   XZ=    -1.3459   YZ=    -3.1547   ZZ=    17.0647
   Eigenvalues:    16.0439    21.2715    28.2968
    122  Bq   Isotropic =    22.1326   Anisotropy =     8.4514
   XX=    25.0564   YX=     1.4934   ZX=    -0.0167
   XY=     3.9823   YY=    24.0169   ZY=    -2.3816
   XZ=    -0.9041   YZ=    -3.0764   ZZ=    17.3245
   Eigenvalues:    16.3229    22.3081    27.7668
    123  Bq   Isotropic =    21.7924   Anisotropy =     7.1927
   XX=    24.9989   YX=     0.9329   ZX=     0.2460
   XY=     2.8128   YY=    23.5024   ZY=    -2.4669
   XZ=    -0.3627   YZ=    -3.2327   ZZ=    16.8759
   Eigenvalues:    15.7788    23.0109    26.5876
    124  Bq   Isotropic =    20.7679   Anisotropy =     5.8985
   XX=    24.0382   YX=     0.3612   ZX=     0.5012
   XY=     1.4486   YY=    22.6155   ZY=    -2.8195
   XZ=     0.2024   YZ=    -3.6242   ZZ=    15.6499
   Eigenvalues:    14.3433    23.2601    24.7002
    125  Bq   Isotropic =    19.1650   Anisotropy =     5.8167
   XX=    22.2954   YX=    -0.1278   ZX=     0.7066
[...]
   141  Bq   0.000000
   142  Bq   0.000000
   143  Bq   0.000000
   144  Bq   0.000000
   145  Bq   0.000000
   146  Bq   0.000000
   147  Bq   0.000000
   148  Bq   0.000000
   149  Bq   0.000000
   150  Bq   0.000000
   151  Bq   0.000000
   152  Bq   0.000000
   153  Bq   0.000000
   154  Bq   0.000000
   155  Bq   0.000000
   156  Bq   0.000000
   157  Bq   0.000000
   158  Bq   0.000000
   159  Bq   0.000000
   160  Bq   0.000000
   161  Bq   0.000000
   162  Bq   0.000000
   163  Bq   0.000000
   164  Bq   0.000000
   165  Bq   0.000000
   166  Bq   0.000000
   167  Bq   0.000000
   168  Bq   0.000000
   169  Bq   0.000000
   170  Bq   0.000000
   171  Bq   0.000000
   172  Bq   0.000000
   173  Bq   0.000000
   174  Bq   0.000000
   175  Bq   0.000000
   176  Bq   0.000000
   177  Bq   0.000000
   178  Bq   0.000000
   179  Bq   0.000000
   180  Bq   0.000000
   181  Bq   0.000000
   182  Bq   0.000000
   183  Bq   0.000000
   184  Bq   0.000000
   185  Bq   0.000000
   186  Bq   0.000000
   187  Bq   0.000000
   188  Bq   0.000000
   189  Bq   0.000000
   190  Bq   0.000000
   191  Bq   0.000000
   192  Bq   0.000000
   193  Bq   0.000000
   194  Bq   0.000000
   195  Bq   0.000000
   196  Bq   0.000000
   197  Bq   0.000000
   198  Bq   0.000000
   199  Bq   0.000000
   200  Bq   0.000000
   201  Bq   0.000000
   202  Bq   0.000000
   203  Bq   0.000000
   204  Bq   0.000000
   205  Bq   0.000000
   206  Bq   0.000000
   207  Bq   0.000000
   208  Bq   0.000000
   209  Bq   0.000000
   210  Bq   0.000000
   211  Bq   0.000000
   212  Bq   0.000000
   213  Bq   0.000000
   214  Bq   0.000000
   215  Bq   0.000000
   216  Bq   0.000000
   217  Bq   0.000000
   218  Bq   0.000000
   219  Bq   0.000000
   220  Bq   0.000000
   221  Bq   0.000000
   222  Bq   0.000000
   223  Bq   0.000000
   224  Bq   0.000000
   225  Bq   0.000000
   226  Bq   0.000000
   227  Bq   0.000000
   228  Bq   0.000000
   229  Bq   0.000000
   230  Bq   0.000000
   231  Bq   0.000000
   232  Bq   0.000000
   233  Bq   0.000000
   234  Bq   0.000000
   235  Bq   0.000000
   236  Bq   0.000000
 Sum of Mulliken charges =   0.00000
 Mulliken charges with hydrogens summed into heavy atoms:
               1
     1  C   -0.379265
     3  C    0.053849
     5  C    0.448258
     6  C    0.064351
     7  C   -0.333926
     9  C   -0.139521
    11  C   -0.205988
    13  C   -0.119315
    15  C    0.653397
    16  C    0.034822
    17  C   -0.317410
    19  C   -0.316854
    21  C    0.651066
    22  C    0.037784
    23  C   -0.117289
    25  C   -0.205316
    27  C    0.448331
    28  C    0.061983
    29  C   -0.333381
    31  C   -0.139505
    33  C   -0.255977
    35  C    0.170579
    37  Bq   0.000000
    38  Bq   0.000000
    39  Bq   0.000000
    40  Bq   0.000000
    41  Bq   0.000000
    42  Bq   0.000000
    43  Bq   0.000000
    44  Bq   0.000000
    45  Bq   0.000000
    46  Bq   0.000000
    47  Bq   0.000000
    48  Bq   0.000000
    49  Bq   0.000000
    50  Bq   0.000000
    51  Bq   0.000000
    52  Bq   0.000000
    53  Bq   0.000000
    54  Bq   0.000000
    55  Bq   0.000000
    56  Bq   0.000000
    57  Bq   0.000000
    58  Bq   0.000000
    59  Bq   0.000000
    60  Bq   0.000000
    61  Bq   0.000000
    62  Bq   0.000000
    63  Bq   0.000000
    64  Bq   0.000000
    65  Bq   0.000000
    66  Bq   0.000000
    67  Bq   0.000000
    68  Bq   0.000000
    69  Bq   0.000000
    70  Bq   0.000000
    71  Bq   0.000000
    72  Bq   0.000000
    73  Bq   0.000000
    74  Bq   0.000000
    75  Bq   0.123768
    76  Bq   0.000000
    77  Bq   0.000000
    78  Bq   0.000000
    79  Bq   0.000000
    80  Bq   0.000000
    81  Bq   0.000000
    82  Bq   0.000000
    83  Bq   0.000000
    84  Bq   0.000000
    85  Bq   0.000000
    86  Bq   0.000000
    87  Bq   0.000000
    88  Bq   0.000000
    89  Bq   0.000000
    90  Bq   0.000000
    91  Bq   0.000000
    92  Bq   0.000000
    93  Bq   0.000000
    94  Bq   0.000000
    95  Bq   0.000000
    96  Bq   0.000000
    97  Bq   0.000000
    98  Bq   0.000000
    99  Bq   0.000000
   100  Bq   0.000000
   101  Bq   0.000000
   102  Bq   0.000000
   103  Bq   0.000000
   104  Bq   0.000000
   105  Bq   0.000000
   106  Bq   0.000000
   107  Bq   0.000000
   108  Bq   0.000000
   109  Bq   0.000000
   110  Bq   0.000000
   111  Bq   0.000000
   112  Bq   0.000000
   113  Bq   0.000000
   114  Bq   0.000000
   115  Bq   0.000000
   116  Bq   0.000000
   117  Bq   0.000000
   118  Bq   0.000000
   119  Bq   0.000000
   120  Bq   0.000000
   121  Bq   0.000000
   122  Bq   0.000000
   123  Bq   0.000000
   124  Bq   0.000000
   125  Bq   0.000000
   126  Bq   0.000000
   127  Bq   0.000000
   128  Bq   0.000000
   129  Bq   0.000000
   130  Bq   0.000000
   131  Bq   0.000000
   132  Bq   0.000000
   133  Bq   0.000000
   134  Bq   0.000000
   135  Bq   0.000000
   136  Bq   0.000000
   137  Bq   0.000000
   138  Bq   0.000000
   139  Bq   0.000000
   140  Bq   0.000000
   141  Bq   0.000000
   142  Bq   0.000000
   143  Bq   0.000000
   144  Bq   0.000000
   145  Bq   0.000000
   146  Bq   0.000000
   147  Bq   0.000000
   148  Bq   0.000000
   149  Bq   0.000000
   150  Bq   0.000000
   151  Bq   0.000000
   152  Bq   0.000000
   153  Bq   0.000000
   154  Bq   0.000000
   155  Bq   0.000000
   156  Bq   0.000000
   157  Bq   0.000000
   158  Bq   0.000000
   159  Bq   0.000000
   160  Bq   0.000000
   161  Bq   0.000000
   162  Bq   0.000000
   163  Bq   0.000000
   164  Bq   0.000000
   165  Bq   0.000000
   166  Bq   0.000000
   167  Bq   0.000000
   168  Bq   0.000000
   169  Bq   0.000000
   170  Bq   0.000000
   171  Bq   0.000000
   172  Bq   0.000000
   173  Bq   0.000000
   174  Bq   0.000000
   175  Bq   0.000000
   176  Bq   0.000000
   177  Bq   0.000000
   178  Bq   0.000000
   179  Bq   0.000000
   180  Bq   0.000000
   181  Bq   0.000000
   182  Bq   0.000000
   183  Bq   0.000000
   184  Bq   0.000000
   185  Bq   0.000000
   186  Bq   0.000000
   187  Bq   0.000000
   188  Bq   0.000000
   189  Bq   0.000000
   190  Bq   0.000000
   191  Bq   0.000000
   192  Bq   0.000000
   193  Bq   0.000000
   194  Bq   0.000000
   195  Bq   0.000000
   196  Bq   0.000000
   197  Bq   0.000000
   198  Bq   0.000000
   199  Bq   0.000000
   200  Bq   0.000000
   201  Bq   0.000000
   202  Bq   0.000000
   203  Bq   0.000000
   204  Bq   0.000000
   205  Bq   0.000000
   206  Bq   0.000000
   207  Bq   0.000000
   208  Bq   0.000000
   209  Bq   0.000000
   210  Bq   0.000000
   211  Bq   0.000000
   212  Bq   0.000000
   213  Bq   0.000000
   214  Bq   0.000000
   215  Bq   0.000000
   216  Bq   0.000000
   217  Bq   0.000000
   218  Bq   0.000000
   219  Bq   0.000000
   220  Bq   0.000000
   221  Bq   0.000000
   222  Bq   0.000000
   223  Bq   0.000000
   224  Bq   0.000000
   225  Bq   0.115559
   226  Bq   0.000000
   227  Bq   0.000000
   228  Bq   0.000000
   229  Bq   0.000000
   230  Bq   0.000000
   231  Bq   0.000000
   232  Bq   0.000000
   233  Bq   0.000000
   234  Bq   0.000000
   235  Bq   0.000000
   236  Bq   0.000000
 Electronic spatial extent (au):  <R**2>=           5736.9264
 Charge=              0.0000 electrons
 Dipole moment (field-independent basis, Debye):
    X=              0.0475    Y=              0.0856    Z=              0.0029  Tot=              0.0979
 Quadrupole moment (field-independent basis, Debye-Ang):
   XX=           -113.7056   YY=           -113.9456   ZZ=           -133.2669
   XY=             -0.3834   XZ=              3.2102   YZ=             -1.1839
 Traceless Quadrupole moment (field-independent basis, Debye-Ang):
   XX=              6.6005   YY=              6.3604   ZZ=            -12.9609
   XY=             -0.3834   XZ=              3.2102   YZ=             -1.1839
 Octapole moment (field-independent basis, Debye-Ang**2):
  XXX=            -16.4668  YYY=            -16.1860  ZZZ=             -1.7007  XYY=              2.5576
  XXY=             -6.5650  XXZ=             13.6547  XZZ=             -8.9478  YZZ=            -17.7168
  YYZ=            -13.2941  XYZ=              8.8036
 Hexadecapole moment (field-independent basis, Debye-Ang**3):
 XXXX=          -3951.1638 YYYY=          -3112.2161 ZZZZ=           -504.8311 XXXY=            340.6935
 XXXZ=            156.4968 YYYX=            335.5625 YYYZ=            -87.0893 ZZZX=            120.2262
 ZZZY=           -108.7373 XXYY=          -1176.4844 XXZZ=           -856.7291 YYZZ=           -665.7275
 XXYZ=            -68.9016 YYXZ=             48.1602 ZZXY=            153.0375
 N-N= 1.610917615562D+03 E-N=-5.186891130729D+03  KE= 8.436329774449D+02
 1\1\GINC-XHYSTOS\SP\RB3LYP\6-311+G(d,p)\C22H14\YANNICK\19-Aug-2020\0\\
 # rb3lyp/6-311+g** NMR geom=connectivity\\Title\\0,1\C,0,-4.0500558,-0
 .5771862,0.8136712\H,0,-5.0263804,-1.0082727,1.002476\C,0,-3.9381552,0
 .6617804,0.2400876\H,0,-4.8252424,1.233889,-0.0111295\C,0,-2.676841,1.
 2433246,0.0057578\C,0,-1.4974121,0.5051527,0.2848253\C,0,-1.6508332,-0
 .7338728,0.9404026\H,0,-0.7713646,-1.2730967,1.2633753\C,0,-2.8898548,
 -1.2624035,1.1994307\H,0,-2.9683706,-2.2124563,1.7152676\C,0,-2.577318
 5,2.5963696,-0.419293\H,0,-3.4870728,3.1412239,-0.6474055\C,0,-1.37418
 95,3.2147896,-0.436403\H,0,-1.2997315,4.2742019,-0.6578144\C,0,-0.1719
 488,2.499409,-0.1734588\C,0,-0.2043917,1.1018437,0.0192689\C,0,1.05134
 91,3.204256,-0.0676222\H,0,1.0427344,4.2819499,-0.1896997\C,0,2.194209
 1,2.5487446,0.2579577\H,0,3.1168527,3.0912848,0.4334727\C,0,2.2216473,
 1.1336562,0.293499\C,0,1.0486931,0.3945528,0.0302412\C,0,3.4483363,0.4
 614633,0.5573939\H,0,4.3095794,1.0606054,0.8334846\C,0,3.5427346,-0.88
 55926,0.4749463\H,0,4.4731467,-1.3939704,0.7038822\C,0,2.4490052,-1.64
 74447,-0.0196319\C,0,1.2150704,-1.0057258,-0.3013573\C,0,0.2531113,-1.
 743444,-1.0216591\H,0,-0.6541356,-1.2535051,-1.3462847\C,0,0.4494193,-
 3.0628597,-1.3413779\H,0,-0.3083162,-3.5944309,-1.905406\C,0,1.6251726
 ,-3.7207967,-0.9552541\H,0,1.7670048,-4.7687404,-1.1927019\C,0,2.61098
 72,-3.0144177,-0.318305\H,0,3.5525612,-3.4902813,-0.0646367\Bq,0,-4.93
 02524934,1.8638784461,-0.3408858698\Bq,0,-4.9301670273,1.9089041424,-0
 .3626270603\Bq,0,-4.9300815612,1.9539298388,-0.3843682508\Bq,0,-4.9299
 96095,1.9989555351,-0.4061094413\Bq,0,-4.9299106289,2.0439812314,-0.42
 78506318\Bq,0,-4.9298251628,2.0890069278,-0.4495918224\Bq,0,-4.9297396
 966,2.1340326241,-0.4713330129\Bq,0,-4.9296542305,2.1790583204,-0.4930
 742034\Bq,0,-4.9295687643,2.2240840168,-0.5148153939\Bq,0,-4.888115764
 4,-2.2784856168,1.6595002097\Bq,0,-4.8880302983,-2.2334599204,1.637759
 0192\Bq,0,-4.8879448321,-2.1884342241,1.6160178287\Bq,0,-4.887859366,-
 2.1434085278,1.5942766381\Bq,0,-4.8877738999,-2.0983828314,1.572535447
 6\Bq,0,-4.8876884337,-2.0533571351,1.5507942571\Bq,0,-4.8876029676,-2.
 0083314388,1.5290530666\Bq,0,-4.8875175015,-1.9633057424,1.5073118761\
 Bq,0,-4.8874320353,-1.9182800461,1.4855706856\Bq,0,-4.8873465692,-1.87
 32543497,1.463829495\Bq,0,-4.887261103,-1.8282286534,1.4420883045\Bq,0
 ,-4.8871756369,-1.7832029571,1.420347114\Bq,0,-4.8870901708,-1.7381772
 607,1.3986059235\Bq,0,-4.8870047046,-1.6931515644,1.376864733\Bq,0,-4.
 8869192385,-1.6481258681,1.3551235425\Bq,0,-4.8868337724,-1.6031001717
 ,1.3333823519\Bq,0,-4.8867483062,-1.5580744754,1.3116411614\Bq,0,-4.88
 66628401,-1.5130487791,1.2898999709\Bq,0,-4.8865773739,-1.4680230827,1
 .2681587804\Bq,0,-4.8864919078,-1.4229973864,1.2464175899\Bq,0,-4.8864
 064417,-1.3779716901,1.2246763994\Bq,0,-4.8863209755,-1.3329459937,1.2
 029352089\Bq,0,-4.8862355094,-1.2879202974,1.1811940183\Bq,0,-4.886150
 0433,-1.2428946011,1.1594528278\Bq,0,-4.8860645771,-1.1978689047,1.137
 7116373\Bq,0,-4.885979111,-1.1528432084,1.1159704468\Bq,0,-4.885893644
 8,-1.107817512,1.0942292563\Bq,0,-4.8858081787,-1.0627918157,1.0724880
 658\Bq,0,-4.8857227126,-1.0177661194,1.0507468752\Bq,0,-4.8856372464,-
 0.972740423,1.0290056847\Bq,0,-4.8855517803,-0.9277147267,1.0072644942
 \Bq,0,-4.8854663142,-0.8826890304,0.9855233037\Bq,0,-4.885380848,-0.83
 7663334,0.9637821132\Bq,0,-4.8852953819,-0.7926376377,0.9420409227\Bq,
 0,-4.8852099157,-0.7476119414,0.9202997321\Bq,0,-4.8851244496,-0.70258
 6245,0.8985585416\Bq,0,-4.8850389835,-0.6575605487,0.8768173511\Bq,0,-
 4.8849535173,-0.6125348524,0.8550761606\Bq,0,-4.8848680512,-0.56750915
 6,0.8333349701\Bq,0,-4.8847825851,-0.5224834597,0.8115937796\Bq,0,-4.8
 846971189,-0.4774577634,0.789852589\Bq,0,-4.8846116528,-0.432432067,0.
 7681113985\Bq,0,-4.8845261866,-0.3874063707,0.746370208\Bq,0,-4.884440
 7205,-0.3423806743,0.7246290175\Bq,0,-4.8843552544,-0.297354978,0.7028
 87827\Bq,0,-4.8842697882,-0.2523292817,0.6811466365\Bq,0,-4.8841843221
 ,-0.2073035853,0.6594054459\Bq,0,-4.884098856,-0.162277889,0.637664255
 4\Bq,0,-4.8840133898,-0.1172521927,0.6159230649\Bq,0,-4.8839279237,-0.
 0722264963,0.5941818744\Bq,0,-4.8838424575,-0.0272008,0.5724406839\Bq,
 0,-4.8837569914,0.0178248963,0.5506994934\Bq,0,-4.8836715253,0.0628505
 927,0.5289583028\Bq,0,-4.8835860591,0.107876289,0.5072171123\Bq,0,-4.8
 83500593,0.1529019853,0.4854759218\Bq,0,-4.8834151269,0.1979276817,0.4
 637347313\Bq,0,-4.8833296607,0.242953378,0.4419935408\Bq,0,-4.88324419
 46,0.2879790743,0.4202523503\Bq,0,-4.8831587284,0.3330047707,0.3985111
 598\Bq,0,-4.8830732623,0.378030467,0.3767699692\Bq,0,-4.8829877962,0.4
 230561634,0.3550287787\Bq,0,-4.88290233,0.4680818597,0.3332875882\Bq,0
 ,-4.8828168639,0.513107556,0.3115463977\Bq,0,-4.8827313978,0.558133252
 4,0.2898052072\Bq,0,-4.8826459316,0.6031589487,0.2680640167\Bq,0,-4.88
 25604655,0.648184645,0.2463228261\Bq,0,-4.8824749993,0.6932103414,0.22
 45816356\Bq,0,-4.8823895332,0.7382360377,0.2028404451\Bq,0,-4.88230406
 71,0.783261734,0.1810992546\Bq,0,-4.8822186009,0.8282874304,0.15935806
 41\Bq,0,-4.8821331348,0.8733131267,0.1376168736\Bq,0,-4.8820476687,0.9
 18338823,0.115875683\Bq,0,-4.8819622025,0.9633645194,0.0941344925\Bq,0
 ,-4.8818767364,1.0083902157,0.072393302\Bq,0,-4.8817912702,1.053415912
 ,0.0506521115\Bq,0,-4.8817058041,1.0984416084,0.028910921\Bq,0,-4.8816
 20338,1.1434673047,0.0071697305\Bq,0,-4.8815348718,1.1884930011,-0.014
 5714601\Bq,0,-4.8814494057,1.2335186974,-0.0363126506\Bq,0,-4.88136393
 96,1.2785443937,-0.0580538411\Bq,0,-4.8812784734,1.3235700901,-0.07979
 50316\Bq,0,-4.8811930073,1.3685957864,-0.1015362221\Bq,0,-4.8811075412
 ,1.4136214827,-0.1232774126\Bq,0,-4.881022075,1.4586471791,-0.14501860
 32\Bq,0,-4.8809366089,1.5036728754,-0.1667597937\Bq,0,-4.8808511427,1.
 5486985717,-0.1885009842\Bq,0,-4.8807656766,1.5937242681,-0.2102421747
 \Bq,0,-4.8806802105,1.6387499644,-0.2319833652\Bq,0,-4.8805947443,1.68
 37756607,-0.2537245557\Bq,0,-4.8805092782,1.7288013571,-0.2754657463\B
 q,0,-4.8804238121,1.7738270534,-0.2972069368\Bq,0,-4.8803383459,1.8188
 527497,-0.3189481273\Bq,0,-4.8802528798,1.8638784461,-0.3406893178\Bq,
 0,-4.8801674136,1.9089041424,-0.3624305083\Bq,0,-4.8800819475,1.953929
 8388,-0.3841716988\Bq,0,-4.8799964814,1.9989555351,-0.4059128894\Bq,0,
 -4.8799110152,2.0439812314,-0.4276540799\Bq,0,-4.8798255491,2.08900692
 78,-0.4493952704\Bq,0,-4.879740083,2.1340326241,-0.4711364609\Bq,0,-4.
 8796546168,2.1790583204,-0.4928776514\Bq,0,-4.8795691507,2.2240840168,
 -0.5146188419\Bq,0,-4.8381161507,-2.2784856168,1.6596967617\Bq,0,-4.83
 80306846,-2.2334599204,1.6379555711\Bq,0,-4.8379452185,-2.1884342241,1
 .6162143806\Bq,0,-4.8378597523,-2.1434085278,1.5944731901\Bq,0,-4.8377
 742862,-2.0983828314,1.5727319996\Bq,0,-4.8376888201,-2.0533571351,1.5
 509908091\Bq,0,-4.8376033539,-2.0083314388,1.5292496186\Bq,0,-4.837517
 8878,-1.9633057424,1.507508428\Bq,0,-4.8374324216,-1.9182800461,1.4857
 672375\Bq,0,-4.8373469555,-1.8732543497,1.464026047\Bq,0,-4.8372614894
 ,-1.8282286534,1.4422848565\Bq,0,-4.8371760232,-1.7832029571,1.4205436
 66\Bq,0,-4.8370905571,-1.7381772607,1.3988024755\Bq,0,-4.837005091,-1.
 6931515644,1.377061285\Bq,0,-4.8369196248,-1.6481258681,1.3553200944\B
 q,0,-4.8368341587,-1.6031001717,1.3335789039\Bq,0,-4.8367486925,-1.558
 0744754,1.3118377134\Bq,0,-4.8366632264,-1.5130487791,1.2900965229\Bq,
 0,-4.8365777603,-1.4680230827,1.2683553324\Bq,0,-4.8364922941,-1.42299
 73864,1.2466141419\Bq,0,-4.836406828,-1.3779716901,1.2248729513\Bq,0,-
 4.8363213619,-1.3329459937,1.2031317608\Bq,0,-4.8362358957,-1.28792029
 74,1.1813905703\Bq,0,-4.8361504296,-1.2428946011,1.1596493798\Bq,0,-4.
 8360649634,-1.1978689047,1.1379081893\Bq,0,-4.8359794973,-1.1528432084
 ,1.1161669988\Bq,0,-4.8358940312,-1.107817512,1.0944258082\Bq,0,-4.835
 808565,-1.0627918157,1.0726846177\Bq,0,-4.8357230989,-1.0177661194,1.0
 509434272\Bq,0,-4.8356376328,-0.972740423,1.0292022367\Bq,0,-4.8355521
 666,-0.9277147267,1.0074610462\Bq,0,-4.8354667005,-0.8826890304,0.9857
 198557\Bq,0,-4.8353812343,-0.837663334,0.9639786651\Bq,0,-4.8352957682
 ,-0.7926376377,0.9422374746\Bq,0,-4.8352103021,-0.7476119414,0.9204962
 841\Bq,0,-4.8351248359,-0.702586245,0.8987550936\Bq,0,-4.8350393698,-0
 .6575605487,0.8770139031\Bq,0,-4.8349539037,-0.6125348524,0.8552727126
 \Bq,0,-4.8348684375,-0.567509156,0.833531522\Bq,0,-4.8347829714,-0.522
 4834597,0.8117903315\Bq,0,-4.8346975052,-0.4774577634,0.790049141\Bq,0
 ,-4.8346120391,-0.432432067,0.7683079505\Bq,0,-4.834526573,-0.38740637
 07,0.74656676\Bq,0,-4.8344411068,-0.3423806743,0.7248255695\Bq,0,-4.83
 43556407,-0.297354978,0.7030843789\Bq,0,-4.8342701746,-0.2523292817,0.
 6813431884\Bq,0,-4.8341847084,-0.2073035853,0.6596019979\Bq,0,-4.83409
 92423,-0.162277889,0.6378608074\Bq,0,-4.8340137761,-0.1172521927,0.616
 1196169\Bq,0,-4.83392831,-0.0722264963,0.5943784264\Bq,0,-4.8338428439
 ,-0.0272008,0.5726372359\Bq,0,-4.8337573777,0.0178248963,0.5508960453\
 Bq,0,-4.8336719116,0.0628505927,0.5291548548\Bq,0,-4.8335864455,0.1078
 76289,0.5074136643\Bq,0,-4.8335009793,0.1529019853,0.4856724738\Bq,0,-
 4.8334155132,0.1979276817,0.4639312833\Bq,0,-4.8333300471,0.242953378,
 0.4421900928\Bq,0,-4.8332445809,0.2879790743,0.4204489022\Bq,0,-4.8331
 591148,0.3330047707,0.3987077117\Bq,0,-4.8330736486,0.378030467,0.3769
 665212\Bq,0,-4.8329881825,0.4230561634,0.3552253307\Bq,0,-4.8329027164
 ,0.4680818597,0.3334841402\Bq,0,-4.8328172502,0.513107556,0.3117429497
 \Bq,0,-4.8327317841,0.5581332524,0.2900017591\Bq,0,-4.832646318,0.6031
 589487,0.2682605686\Bq,0,-4.8325608518,0.648184645,0.2465193781\Bq,0,-
 4.8324753857,0.6932103414,0.2247781876\Bq,0,-4.8323899195,0.7382360377
 ,0.2030369971\Bq,0,-4.8323044534,0.783261734,0.1812958066\Bq,0,-4.8322
 189873,0.8282874304,0.159554616\Bq,0,-4.8321335211,0.8733131267,0.1378
 134255\Bq,0,-4.832048055,0.918338823,0.116072235\Bq,0,-4.8319625889,0.
 9633645194,0.0943310445\Bq,0,-4.8318771227,1.0083902157,0.072589854\Bq
 ,0,-4.8317916566,1.053415912,0.0508486635\Bq,0,-4.8317061904,1.0984416
 084,0.0291074729\Bq,0,-4.8316207243,1.1434673047,0.0073662824\Bq,0,-4.
 8315352582,1.1884930011,-0.0143749081\Bq,0,-4.831449792,1.2335186974,-
 0.0361160986\Bq,0,-4.8313643259,1.2785443937,-0.0578572891\Bq,0,-4.831
 2788598,1.3235700901,-0.0795984796\Bq,0,-4.8311933936,1.3685957864,-0.
 1013396702\Bq,0,-4.8311079275,1.4136214827,-0.1230808607\Bq,0,-4.83102
 24613,1.4586471791,-0.1448220512\Bq,0,-4.8309369952,1.5036728754,-0.16
 65632417\Bq,0,-4.8308515291,1.5486985717,-0.1883044322\Bq,0,-4.8307660
 629,1.5937242681,-0.2100456227\Bq,0,-4.8306805968,1.6387499644,-0.2317
 868132\Bq,0,-4.8305951307,1.6837756607,-0.2535280038\Bq,0,-4.830509664
 5,1.7288013571,-0.2752691943\\Version=ES64L-G09RevD.01\HF=-847.0032898
 \RMSD=7.529e-09\Dipole=0.0186808,0.0336671,0.0011595\Quadrupole=4.9072
 795,4.7288219,-9.6361014,-0.2850201,2.3867064,-0.880172\PG=C01 [X(C22H
 14)]\\@


 THERE IS MUCH PLEASURE TO BE GAINED FROM USELESS KNOWLEDGE

                                       -- BERTRAND RUSSELL
 Job cpu time:       0 days  2 hours 35 minutes 30.7 seconds.
 File lengths (MBytes):  RWF=    184 Int=      0 D2E=      0 Chk=     19 Scr=      1
 Normal termination of Gaussian 09 at Wed Aug 19 19:31:59 2020.

real	19m47.473s
user	155m27.599s
sys	0m3.218s
