 Entering Gaussian System, Link 0=g09
 Initial command:
 /share/programs/GAUSSIAN/64/g09/l1.exe "/scratch/yannick.29526/Gau-1367471.inp" -scrdir="/scratch/yannick.29526/"
 Entering Link 1 = /share/programs/GAUSSIAN/64/g09/l1.exe PID=   1367472.
  
 Copyright (c) 1988,1990,1992,1993,1995,1998,2003,2009,2013,
            Gaussian, Inc.  All Rights Reserved.
  
 This is part of the Gaussian(R) 09 program.  It is based on
 the Gaussian(R) 03 system (copyright 2003, Gaussian, Inc.),
 the Gaussian(R) 98 system (copyright 1998, Gaussian, Inc.),
 the Gaussian(R) 94 system (copyright 1995, Gaussian, Inc.),
 the Gaussian 92(TM) system (copyright 1992, Gaussian, Inc.),
 the Gaussian 90(TM) system (copyright 1990, Gaussian, Inc.),
 the Gaussian 88(TM) system (copyright 1988, Gaussian, Inc.),
 the Gaussian 86(TM) system (copyright 1986, Carnegie Mellon
 University), and the Gaussian 82(TM) system (copyright 1983,
 Carnegie Mellon University). Gaussian is a federally registered
 trademark of Gaussian, Inc.
  
 This software contains proprietary and confidential information,
 including trade secrets, belonging to Gaussian, Inc.
  
 This software is provided under written license and may be
 used, copied, transmitted, or stored only in accord with that
 written license.
  
 The following legend is applicable only to US Government
 contracts under FAR:
  
                    RESTRICTED RIGHTS LEGEND
  
 Use, reproduction and disclosure by the US Government is
 subject to restrictions as set forth in subparagraphs (a)
 and (c) of the Commercial Computer Software - Restricted
 Rights clause in FAR 52.227-19.
  
 Gaussian, Inc.
 340 Quinnipiac St., Bldg. 40, Wallingford CT 06492
  
  
 ---------------------------------------------------------------
 Warning -- This program may not be used in any manner that
 competes with the business of Gaussian, Inc. or will provide
 assistance to any competitor of Gaussian, Inc.  The licensee
 of this program is prohibited from giving any competitor of
 Gaussian, Inc. access to this program.  By using this program,
 the user acknowledges that Gaussian, Inc. is engaged in the
 business of creating and licensing software in the field of
 computational chemistry and represents and warrants to the
 licensee that it is not a competitor of Gaussian, Inc. and that
 it will not use this program in any manner prohibited above.
 ---------------------------------------------------------------
  

 Cite this work as:
 Gaussian 09, Revision D.01,
 M. J. Frisch, G. W. Trucks, H. B. Schlegel, G. E. Scuseria, 
 M. A. Robb, J. R. Cheeseman, G. Scalmani, V. Barone, B. Mennucci, 
 G. A. Petersson, H. Nakatsuji, M. Caricato, X. Li, H. P. Hratchian, 
 A. F. Izmaylov, J. Bloino, G. Zheng, J. L. Sonnenberg, M. Hada, 
 M. Ehara, K. Toyota, R. Fukuda, J. Hasegawa, M. Ishida, T. Nakajima, 
 Y. Honda, O. Kitao, H. Nakai, T. Vreven, J. A. Montgomery, Jr., 
 J. E. Peralta, F. Ogliaro, M. Bearpark, J. J. Heyd, E. Brothers, 
 K. N. Kudin, V. N. Staroverov, T. Keith, R. Kobayashi, J. Normand, 
 K. Raghavachari, A. Rendell, J. C. Burant, S. S. Iyengar, J. Tomasi, 
 M. Cossi, N. Rega, J. M. Millam, M. Klene, J. E. Knox, J. B. Cross, 
 V. Bakken, C. Adamo, J. Jaramillo, R. Gomperts, R. E. Stratmann, 
 O. Yazyev, A. J. Austin, R. Cammi, C. Pomelli, J. W. Ochterski, 
 R. L. Martin, K. Morokuma, V. G. Zakrzewski, G. A. Voth, 
 P. Salvador, J. J. Dannenberg, S. Dapprich, A. D. Daniels, 
 O. Farkas, J. B. Foresman, J. V. Ortiz, J. Cioslowski, 
 and D. J. Fox, Gaussian, Inc., Wallingford CT, 2013.
 
 ******************************************
 Gaussian 09:  ES64L-G09RevD.01 24-Apr-2013
                19-Aug-2020 
 ******************************************
 %nproc=8
 Will use up to    8 processors via shared memory.
 %mem=1000MB
 ----------------------------------------
 # rb3lyp/6-311+g** NMR geom=connectivity
 ----------------------------------------
 1/38=1,57=2/1;
 2/12=2,17=6,18=5,40=1/2;
 3/5=4,6=6,7=111,11=2,16=1,25=1,30=1,74=-5,116=1/1,2,8,3;
 4//1;
 5/5=2,38=5/2;
 8/6=1,10=90,11=11/1;
 10/13=100,45=16/2;
 6/7=2,8=2,9=2,10=2,28=1/1;
 99/9=1/99;
 -----
 Title
 -----
 Symbolic Z-matrix:
 Charge =  0 Multiplicity = 1
 C                    -4.05006  -0.57719   0.81367 
 H                    -5.02638  -1.00827   1.00248 
 C                    -3.93816   0.66178   0.24009 
 H                    -4.82524   1.23389  -0.01113 
 C                    -2.67684   1.24332   0.00576 
 C                    -1.49741   0.50515   0.28483 
 C                    -1.65083  -0.73387   0.9404 
 H                    -0.77136  -1.2731    1.26338 
 C                    -2.88985  -1.2624    1.19943 
 H                    -2.96837  -2.21246   1.71527 
 C                    -2.57732   2.59637  -0.41929 
 H                    -3.48707   3.14122  -0.64741 
 C                    -1.37419   3.21479  -0.4364 
 H                    -1.29973   4.2742   -0.65781 
 C                    -0.17195   2.49941  -0.17346 
 C                    -0.20439   1.10184   0.01927 
 C                     1.05135   3.20426  -0.06762 
 H                     1.04273   4.28195  -0.1897 
 C                     2.19421   2.54874   0.25796 
 H                     3.11685   3.09128   0.43347 
 C                     2.22165   1.13366   0.2935 
 C                     1.04869   0.39455   0.03024 
 C                     3.44834   0.46146   0.55739 
 H                     4.30958   1.06061   0.83348 
 C                     3.54273  -0.88559   0.47495 
 H                     4.47315  -1.39397   0.70388 
 C                     2.44901  -1.64744  -0.01963 
 C                     1.21507  -1.00573  -0.30136 
 C                     0.25311  -1.74344  -1.02166 
 H                    -0.65414  -1.25351  -1.34628 
 C                     0.44942  -3.06286  -1.34138 
 H                    -0.30832  -3.59443  -1.90541 
 C                     1.62517  -3.7208   -0.95525 
 H                     1.767    -4.76874  -1.1927 
 C                     2.61099  -3.01442  -0.31831 
 H                     3.55256  -3.49028  -0.06464 
 Bq                   -2.55541   2.92649  -0.43529 
 Bq                   -2.55492   2.97496  -0.44756 
 Bq                   -2.55444   3.02343  -0.45982 
 Bq                   -2.55395   3.0719   -0.47209 
 Bq                   -2.55346   3.12037  -0.48435 
 Bq                   -2.55298   3.16884  -0.49662 
 Bq                   -2.55249   3.21731  -0.50888 
 Bq                   -2.55201   3.26578  -0.52115 
 Bq                   -2.55152   3.31425  -0.53341 
 Bq                   -2.55103   3.36272  -0.54568 
 Bq                   -2.55055   3.41119  -0.55794 
 Bq                   -2.55006   3.45966  -0.57021 
 Bq                   -2.54957   3.50813  -0.58247 
 Bq                   -2.54909   3.5566   -0.59474 
 Bq                   -2.5486    3.60507  -0.607 
 Bq                   -2.54811   3.65354  -0.61927 
 Bq                   -2.54763   3.70201  -0.63153 
 Bq                   -2.54714   3.75047  -0.6438 
 Bq                   -2.54665   3.79894  -0.65606 
 Bq                   -2.54617   3.84741  -0.66833 
 Bq                   -2.54568   3.89588  -0.68059 
 Bq                   -2.54519   3.94435  -0.69286 
 Bq                   -2.54471   3.99282  -0.70512 
 Bq                   -2.54422   4.04129  -0.71739 
 Bq                   -2.54374   4.08976  -0.72965 
 Bq                   -2.54325   4.13823  -0.74192 
 Bq                   -2.54276   4.1867   -0.75418 
 Bq                   -2.54228   4.23517  -0.76645 
 Bq                   -2.54179   4.28364  -0.77871 
 Bq                   -2.54048  -0.56335   0.44977 
 Bq                   -2.53999  -0.51488   0.43751 
 Bq                   -2.5395   -0.46641   0.42524 
 Bq                   -2.53902  -0.41794   0.41298 
 Bq                   -2.53853  -0.36947   0.40071 
 Bq                   -2.53804  -0.321     0.38845 
 Bq                   -2.53756  -0.27253   0.37618 
 Bq                   -2.53707  -0.22406   0.36392 
 Bq                   -2.53658  -0.17559   0.35165 
 Bq                   -2.5361   -0.12712   0.33939 
 Bq                   -2.53561  -0.07865   0.32712 
 Bq                   -2.53513  -0.03018   0.31486 
 Bq                   -2.53464   0.01829   0.30259 
 Bq                   -2.53415   0.06676   0.29033 
 Bq                   -2.53367   0.11523   0.27806 
 Bq                   -2.53318   0.1637    0.2658 
 Bq                   -2.53269   0.21217   0.25353 
 Bq                   -2.53221   0.26064   0.24127 
 Bq                   -2.53172   0.30911   0.229 
 Bq                   -2.53123   0.35758   0.21674 
 Bq                   -2.53075   0.40605   0.20447 
 Bq                   -2.53026   0.45452   0.19221 
 Bq                   -2.52977   0.50299   0.17994 
 Bq                   -2.52929   0.55146   0.16768 
 Bq                   -2.5288    0.59993   0.15541 
 Bq                   -2.52831   0.6484    0.14315 
 Bq                   -2.52783   0.69687   0.13088 
 Bq                   -2.52734   0.74534   0.11862 
 Bq                   -2.52686   0.79381   0.10635 
 Bq                   -2.52637   0.84228   0.09409 
 Bq                   -2.52588   0.89075   0.08182 
 Bq                   -2.5254    0.93922   0.06956 
 Bq                   -2.52491   0.98769   0.05729 
 Bq                   -2.52442   1.03616   0.04503 
 Bq                   -2.52394   1.08463   0.03276 
 Bq                   -2.52345   1.1331    0.0205 
 Bq                   -2.52296   1.18157   0.00823 
 Bq                   -2.52248   1.23004  -0.00403 
 Bq                   -2.52199   1.27851  -0.0163 
 Bq                   -2.5215    1.32698  -0.02856 
 Bq                   -2.52102   1.37545  -0.04083 
 Bq                   -2.52053   1.42392  -0.05309 
 Bq                   -2.52004   1.47239  -0.06536 
 Bq                   -2.51956   1.52086  -0.07762 
 Bq                   -2.51907   1.56933  -0.08989 
 Bq                   -2.51859   1.6178   -0.10215 
 Bq                   -2.5181    1.66627  -0.11442 
 Bq                   -2.51761   1.71474  -0.12668 
 Bq                   -2.51713   1.76321  -0.13895 
 Bq                   -2.51664   1.81168  -0.15121 
 Bq                   -2.51615   1.86015  -0.16348 
 Bq                   -2.51567   1.90862  -0.17574 
 Bq                   -2.51518   1.95709  -0.18801 
 Bq                   -2.51469   2.00556  -0.20027 
 Bq                   -2.51421   2.05403  -0.21254 
 Bq                   -2.51372   2.1025   -0.2248 
 Bq                   -2.51323   2.15097  -0.23707 
 Bq                   -2.51275   2.19944  -0.24933 
 Bq                   -2.51226   2.24791  -0.2616 
 Bq                   -2.51177   2.29638  -0.27386 
 Bq                   -2.51129   2.34485  -0.28613 
 Bq                   -2.5108    2.39332  -0.29839 
 Bq                   -2.51031   2.44179  -0.31066 
 Bq                   -2.50983   2.49026  -0.32292 
 Bq                   -2.50934   2.53873  -0.33519 
 Bq                   -2.50886   2.5872   -0.34745 
 Bq                   -2.50837   2.63567  -0.35972 
 Bq                   -2.50788   2.68414  -0.37198 
 Bq                   -2.5074    2.73261  -0.38425 
 Bq                   -2.50691   2.78108  -0.39651 
 Bq                   -2.50642   2.82955  -0.40878 
 Bq                   -2.50594   2.87802  -0.42105 
 Bq                   -2.50545   2.92649  -0.43331 
 Bq                   -2.50496   2.97496  -0.44558 
 Bq                   -2.50448   3.02343  -0.45784 
 Bq                   -2.50399   3.0719   -0.47011 
 Bq                   -2.5035    3.12037  -0.48237 
 Bq                   -2.50302   3.16884  -0.49464 
 Bq                   -2.50253   3.21731  -0.5069 
 Bq                   -2.50204   3.26578  -0.51917 
 Bq                   -2.50156   3.31425  -0.53143 
 Bq                   -2.50107   3.36272  -0.5437 
 Bq                   -2.50059   3.41119  -0.55596 
 Bq                   -2.5001    3.45966  -0.56823 
 Bq                   -2.49961   3.50813  -0.58049 
 Bq                   -2.49913   3.5566   -0.59276 
 Bq                   -2.49864   3.60507  -0.60502 
 Bq                   -2.49815   3.65354  -0.61729 
 Bq                   -2.49767   3.70201  -0.62955 
 Bq                   -2.49718   3.75047  -0.64182 
 Bq                   -2.49669   3.79894  -0.65408 
 Bq                   -2.49621   3.84741  -0.66635 
 Bq                   -2.49572   3.89588  -0.67861 
 Bq                   -2.49523   3.94435  -0.69088 
 Bq                   -2.49475   3.99282  -0.70314 
 Bq                   -2.49426   4.04129  -0.71541 
 Bq                   -2.49377   4.08976  -0.72767 
 Bq                   -2.49329   4.13823  -0.73994 
 Bq                   -2.4928    4.1867   -0.7522 
 Bq                   -2.49232   4.23517  -0.76447 
 Bq                   -2.49183   4.28364  -0.77673 
 Bq                   -2.49052  -0.56335   0.45175 
 Bq                   -2.49003  -0.51488   0.43949 
 Bq                   -2.48954  -0.46641   0.42722 
 Bq                   -2.48906  -0.41794   0.41496 
 Bq                   -2.48857  -0.36947   0.40269 
 Bq                   -2.48808  -0.321     0.39043 
 Bq                   -2.4876   -0.27253   0.37816 
 Bq                   -2.48711  -0.22406   0.3659 
 Bq                   -2.48662  -0.17559   0.35363 
 Bq                   -2.48614  -0.12712   0.34137 
 Bq                   -2.48565  -0.07865   0.3291 
 Bq                   -2.48516  -0.03018   0.31684 
 Bq                   -2.48468   0.01829   0.30457 
 Bq                   -2.48419   0.06676   0.29231 
 Bq                   -2.48371   0.11523   0.28004 
 Bq                   -2.48322   0.1637    0.26778 
 Bq                   -2.48273   0.21217   0.25551 
 Bq                   -2.48225   0.26064   0.24325 
 Bq                   -2.48176   0.30911   0.23098 
 Bq                   -2.48127   0.35758   0.21872 
 Bq                   -2.48079   0.40605   0.20645 
 Bq                   -2.4803    0.45452   0.19419 
 Bq                   -2.47981   0.50299   0.18192 
 Bq                   -2.47933   0.55146   0.16966 
 Bq                   -2.47884   0.59993   0.15739 
 Bq                   -2.47835   0.6484    0.14513 
 Bq                   -2.47787   0.69687   0.13286 
 Bq                   -2.47738   0.74534   0.1206 
 Bq                   -2.47689   0.79381   0.10833 
 Bq                   -2.47641   0.84228   0.09607 
 Bq                   -2.47592   0.89075   0.0838 
 Bq                   -2.47544   0.93922   0.07154 
 Bq                   -2.47495   0.98769   0.05927 
 Bq                   -2.47446   1.03616   0.04701 
 Bq                   -2.47398   1.08463   0.03474 
 Bq                   -2.47349   1.1331    0.02248 
 Bq                   -2.473     1.18157   0.01021 
 Bq                   -2.47252   1.23004  -0.00205 
 Bq                   -2.47203   1.27851  -0.01432 
 Bq                   -2.47154   1.32698  -0.02658 
 Bq                   -2.47106   1.37545  -0.03885 
 Bq                   -2.47057   1.42392  -0.05111 
 Bq                   -2.47008   1.47239  -0.06338 
 Bq                   -2.4696    1.52086  -0.07564 
 Bq                   -2.46911   1.56933  -0.08791 
 Bq                   -2.46862   1.6178   -0.10017 
 Bq                   -2.46814   1.66627  -0.11244 
 Bq                   -2.46765   1.71474  -0.1247 
 Bq                   -2.46716   1.76321  -0.13697 
 Bq                   -2.46668   1.81168  -0.14923 
 Bq                   -2.46619   1.86015  -0.1615 
 Bq                   -2.46571   1.90862  -0.17376 
 Bq                   -2.46522   1.95709  -0.18603 
 Bq                   -2.46473   2.00556  -0.19829 
 Bq                   -2.46425   2.05403  -0.21056 
 Bq                   -2.46376   2.1025   -0.22282 
 Bq                   -2.46327   2.15097  -0.23509 
 Bq                   -2.46279   2.19944  -0.24735 
 Bq                   -2.4623    2.24791  -0.25962 
 Bq                   -2.46181   2.29638  -0.27188 
 Bq                   -2.46133   2.34485  -0.28415 
 Bq                   -2.46084   2.39332  -0.29641 
 Bq                   -2.46035   2.44179  -0.30868 
 Bq                   -2.45987   2.49026  -0.32094 
 Bq                   -2.45938   2.53873  -0.33321 
 Bq                   -2.45889   2.5872   -0.34547 
 Bq                   -2.45841   2.63567  -0.35774 
 Bq                   -2.45792   2.68414  -0.37 
 Bq                   -2.45744   2.73261  -0.38227 
 Bq                   -2.45695   2.78108  -0.39453 
 
 Symmetry turned off:
 Cannot cope with ghost atoms or with translation vectors.
 Stoichiometry    C22H14
 Framework group  C1[X(C22H14)]
 NUMDOF-- NAT=    36 NAtoms=   236
 Deg. of freedom     0
 Full point group                 C1      NOp   1
                          Input orientation:                          
 ---------------------------------------------------------------------
 Center     Atomic      Atomic             Coordinates (Angstroms)
 Number     Number       Type             X           Y           Z
 ---------------------------------------------------------------------
      1          6           0       -4.050056   -0.577186    0.813671
      2          1           0       -5.026380   -1.008273    1.002476
      3          6           0       -3.938155    0.661780    0.240088
      4          1           0       -4.825242    1.233889   -0.011130
      5          6           0       -2.676841    1.243325    0.005758
      6          6           0       -1.497412    0.505153    0.284825
      7          6           0       -1.650833   -0.733873    0.940403
      8          1           0       -0.771365   -1.273097    1.263375
      9          6           0       -2.889855   -1.262404    1.199431
     10          1           0       -2.968371   -2.212456    1.715268
     11          6           0       -2.577319    2.596370   -0.419293
     12          1           0       -3.487073    3.141224   -0.647406
     13          6           0       -1.374190    3.214790   -0.436403
     14          1           0       -1.299732    4.274202   -0.657814
     15          6           0       -0.171949    2.499409   -0.173459
     16          6           0       -0.204392    1.101844    0.019269
     17          6           0        1.051349    3.204256   -0.067622
     18          1           0        1.042734    4.281950   -0.189700
     19          6           0        2.194209    2.548745    0.257958
     20          1           0        3.116853    3.091285    0.433473
     21          6           0        2.221647    1.133656    0.293499
     22          6           0        1.048693    0.394553    0.030241
     23          6           0        3.448336    0.461463    0.557394
     24          1           0        4.309579    1.060605    0.833485
     25          6           0        3.542735   -0.885593    0.474946
     26          1           0        4.473147   -1.393970    0.703882
     27          6           0        2.449005   -1.647445   -0.019632
     28          6           0        1.215070   -1.005726   -0.301357
     29          6           0        0.253111   -1.743444   -1.021659
     30          1           0       -0.654136   -1.253505   -1.346285
     31          6           0        0.449419   -3.062860   -1.341378
     32          1           0       -0.308316   -3.594431   -1.905406
     33          6           0        1.625173   -3.720797   -0.955254
     34          1           0        1.767005   -4.768740   -1.192702
     35          6           0        2.610987   -3.014418   -0.318305
     36          1           0        3.552561   -3.490281   -0.064637
     37          0           0       -2.555411    2.926486   -0.435292
     38          0           0       -2.554924    2.974956   -0.447557
     39          0           0       -2.554438    3.023426   -0.459822
     40          0           0       -2.553951    3.071896   -0.472087
     41          0           0       -2.553465    3.120366   -0.484352
     42          0           0       -2.552979    3.168836   -0.496617
     43          0           0       -2.552492    3.217306   -0.508882
     44          0           0       -2.552006    3.265776   -0.521147
     45          0           0       -2.551519    3.314246   -0.533412
     46          0           0       -2.551033    3.362716   -0.545677
     47          0           0       -2.550546    3.411186   -0.557942
     48          0           0       -2.550060    3.459655   -0.570207
     49          0           0       -2.549573    3.508125   -0.582472
     50          0           0       -2.549087    3.556595   -0.594737
     51          0           0       -2.548600    3.605065   -0.607002
     52          0           0       -2.548114    3.653535   -0.619267
     53          0           0       -2.547627    3.702005   -0.631532
     54          0           0       -2.547141    3.750475   -0.643797
     55          0           0       -2.546654    3.798945   -0.656062
     56          0           0       -2.546168    3.847415   -0.668327
     57          0           0       -2.545681    3.895885   -0.680592
     58          0           0       -2.545195    3.944355   -0.692857
     59          0           0       -2.544708    3.992825   -0.705122
     60          0           0       -2.544222    4.041294   -0.717387
     61          0           0       -2.543735    4.089764   -0.729652
     62          0           0       -2.543249    4.138234   -0.741917
     63          0           0       -2.542762    4.186704   -0.754182
     64          0           0       -2.542276    4.235174   -0.766447
     65          0           0       -2.541790    4.283644   -0.778712
     66          0           0       -2.540477   -0.563348    0.449771
     67          0           0       -2.539990   -0.514878    0.437506
     68          0           0       -2.539504   -0.466408    0.425241
     69          0           0       -2.539017   -0.417938    0.412976
     70          0           0       -2.538531   -0.369468    0.400711
     71          0           0       -2.538044   -0.320998    0.388446
     72          0           0       -2.537558   -0.272528    0.376181
     73          0           0       -2.537071   -0.224058    0.363916
     74          0           0       -2.536585   -0.175588    0.351651
     75          0           0       -2.536098   -0.127118    0.339386
     76          0           0       -2.535612   -0.078648    0.327121
     77          0           0       -2.535125   -0.030179    0.314856
     78          0           0       -2.534639    0.018291    0.302591
     79          0           0       -2.534152    0.066761    0.290326
     80          0           0       -2.533666    0.115231    0.278061
     81          0           0       -2.533179    0.163701    0.265796
     82          0           0       -2.532693    0.212171    0.253531
     83          0           0       -2.532206    0.260641    0.241266
     84          0           0       -2.531720    0.309111    0.229001
     85          0           0       -2.531233    0.357581    0.216736
     86          0           0       -2.530747    0.406051    0.204471
     87          0           0       -2.530261    0.454521    0.192206
     88          0           0       -2.529774    0.502991    0.179941
     89          0           0       -2.529288    0.551460    0.167676
     90          0           0       -2.528801    0.599930    0.155411
     91          0           0       -2.528315    0.648400    0.143146
     92          0           0       -2.527828    0.696870    0.130881
     93          0           0       -2.527342    0.745340    0.118616
     94          0           0       -2.526855    0.793810    0.106351
     95          0           0       -2.526369    0.842280    0.094086
     96          0           0       -2.525882    0.890750    0.081821
     97          0           0       -2.525396    0.939220    0.069556
     98          0           0       -2.524909    0.987690    0.057291
     99          0           0       -2.524423    1.036160    0.045026
    100          0           0       -2.523936    1.084630    0.032761
    101          0           0       -2.523450    1.133099    0.020496
    102          0           0       -2.522963    1.181569    0.008231
    103          0           0       -2.522477    1.230039   -0.004035
    104          0           0       -2.521990    1.278509   -0.016300
    105          0           0       -2.521504    1.326979   -0.028565
    106          0           0       -2.521017    1.375449   -0.040830
    107          0           0       -2.520531    1.423919   -0.053095
    108          0           0       -2.520045    1.472389   -0.065360
    109          0           0       -2.519558    1.520859   -0.077625
    110          0           0       -2.519072    1.569329   -0.089890
    111          0           0       -2.518585    1.617799   -0.102155
    112          0           0       -2.518099    1.666269   -0.114420
    113          0           0       -2.517612    1.714738   -0.126685
    114          0           0       -2.517126    1.763208   -0.138950
    115          0           0       -2.516639    1.811678   -0.151215
    116          0           0       -2.516153    1.860148   -0.163480
    117          0           0       -2.515666    1.908618   -0.175745
    118          0           0       -2.515180    1.957088   -0.188010
    119          0           0       -2.514693    2.005558   -0.200275
    120          0           0       -2.514207    2.054028   -0.212540
    121          0           0       -2.513720    2.102498   -0.224805
    122          0           0       -2.513234    2.150968   -0.237070
    123          0           0       -2.512747    2.199438   -0.249335
    124          0           0       -2.512261    2.247908   -0.261600
    125          0           0       -2.511774    2.296377   -0.273865
    126          0           0       -2.511288    2.344847   -0.286130
    127          0           0       -2.510801    2.393317   -0.298395
    128          0           0       -2.510315    2.441787   -0.310660
    129          0           0       -2.509828    2.490257   -0.322925
    130          0           0       -2.509342    2.538727   -0.335190
    131          0           0       -2.508856    2.587197   -0.347455
    132          0           0       -2.508369    2.635667   -0.359720
    133          0           0       -2.507883    2.684137   -0.371985
    134          0           0       -2.507396    2.732607   -0.384250
    135          0           0       -2.506910    2.781077   -0.396515
    136          0           0       -2.506423    2.829547   -0.408780
    137          0           0       -2.505937    2.878016   -0.421045
    138          0           0       -2.505450    2.926486   -0.433310
    139          0           0       -2.504964    2.974956   -0.445575
    140          0           0       -2.504477    3.023426   -0.457840
    141          0           0       -2.503991    3.071896   -0.470105
    142          0           0       -2.503504    3.120366   -0.482370
    143          0           0       -2.503018    3.168836   -0.494635
    144          0           0       -2.502531    3.217306   -0.506900
    145          0           0       -2.502045    3.265776   -0.519165
    146          0           0       -2.501558    3.314246   -0.531430
    147          0           0       -2.501072    3.362716   -0.543695
    148          0           0       -2.500585    3.411186   -0.555960
    149          0           0       -2.500099    3.459655   -0.568225
    150          0           0       -2.499612    3.508125   -0.580490
    151          0           0       -2.499126    3.556595   -0.592755
    152          0           0       -2.498640    3.605065   -0.605020
    153          0           0       -2.498153    3.653535   -0.617285
    154          0           0       -2.497667    3.702005   -0.629550
    155          0           0       -2.497180    3.750475   -0.641815
    156          0           0       -2.496694    3.798945   -0.654080
    157          0           0       -2.496207    3.847415   -0.666345
    158          0           0       -2.495721    3.895885   -0.678610
    159          0           0       -2.495234    3.944355   -0.690875
    160          0           0       -2.494748    3.992825   -0.703140
    161          0           0       -2.494261    4.041294   -0.715405
    162          0           0       -2.493775    4.089764   -0.727670
    163          0           0       -2.493288    4.138234   -0.739935
    164          0           0       -2.492802    4.186704   -0.752200
    165          0           0       -2.492315    4.235174   -0.764465
    166          0           0       -2.491829    4.283644   -0.776730
    167          0           0       -2.490516   -0.563348    0.451753
    168          0           0       -2.490029   -0.514878    0.439488
    169          0           0       -2.489543   -0.466408    0.427223
    170          0           0       -2.489056   -0.417938    0.414958
    171          0           0       -2.488570   -0.369468    0.402693
    172          0           0       -2.488083   -0.320998    0.390428
    173          0           0       -2.487597   -0.272528    0.378163
    174          0           0       -2.487110   -0.224058    0.365898
    175          0           0       -2.486624   -0.175588    0.353633
    176          0           0       -2.486138   -0.127118    0.341368
    177          0           0       -2.485651   -0.078648    0.329103
    178          0           0       -2.485165   -0.030179    0.316838
    179          0           0       -2.484678    0.018291    0.304572
    180          0           0       -2.484192    0.066761    0.292307
    181          0           0       -2.483705    0.115231    0.280042
    182          0           0       -2.483219    0.163701    0.267777
    183          0           0       -2.482732    0.212171    0.255512
    184          0           0       -2.482246    0.260641    0.243247
    185          0           0       -2.481759    0.309111    0.230982
    186          0           0       -2.481273    0.357581    0.218717
    187          0           0       -2.480786    0.406051    0.206452
    188          0           0       -2.480300    0.454521    0.194187
    189          0           0       -2.479813    0.502991    0.181922
    190          0           0       -2.479327    0.551460    0.169657
    191          0           0       -2.478840    0.599930    0.157392
    192          0           0       -2.478354    0.648400    0.145127
    193          0           0       -2.477867    0.696870    0.132862
    194          0           0       -2.477381    0.745340    0.120597
    195          0           0       -2.476894    0.793810    0.108332
    196          0           0       -2.476408    0.842280    0.096067
    197          0           0       -2.475922    0.890750    0.083802
    198          0           0       -2.475435    0.939220    0.071537
    199          0           0       -2.474949    0.987690    0.059272
    200          0           0       -2.474462    1.036160    0.047007
    201          0           0       -2.473976    1.084630    0.034742
    202          0           0       -2.473489    1.133099    0.022477
    203          0           0       -2.473003    1.181569    0.010212
    204          0           0       -2.472516    1.230039   -0.002053
    205          0           0       -2.472030    1.278509   -0.014318
    206          0           0       -2.471543    1.326979   -0.026583
    207          0           0       -2.471057    1.375449   -0.038848
    208          0           0       -2.470570    1.423919   -0.051113
    209          0           0       -2.470084    1.472389   -0.063378
    210          0           0       -2.469597    1.520859   -0.075643
    211          0           0       -2.469111    1.569329   -0.087908
    212          0           0       -2.468624    1.617799   -0.100173
    213          0           0       -2.468138    1.666269   -0.112438
    214          0           0       -2.467651    1.714738   -0.124703
    215          0           0       -2.467165    1.763208   -0.136968
    216          0           0       -2.466678    1.811678   -0.149233
    217          0           0       -2.466192    1.860148   -0.161498
    218          0           0       -2.465705    1.908618   -0.173763
    219          0           0       -2.465219    1.957088   -0.186028
    220          0           0       -2.464733    2.005558   -0.198293
    221          0           0       -2.464246    2.054028   -0.210558
    222          0           0       -2.463760    2.102498   -0.222823
    223          0           0       -2.463273    2.150968   -0.235088
    224          0           0       -2.462787    2.199438   -0.247353
    225          0           0       -2.462300    2.247908   -0.259618
    226          0           0       -2.461814    2.296377   -0.271883
    227          0           0       -2.461327    2.344847   -0.284148
    228          0           0       -2.460841    2.393317   -0.296413
    229          0           0       -2.460354    2.441787   -0.308678
    230          0           0       -2.459868    2.490257   -0.320943
    231          0           0       -2.459381    2.538727   -0.333208
    232          0           0       -2.458895    2.587197   -0.345473
    233          0           0       -2.458408    2.635667   -0.357738
    234          0           0       -2.457922    2.684137   -0.370003
    235          0           0       -2.457435    2.732607   -0.382268
    236          0           0       -2.456949    2.781077   -0.394533
 ---------------------------------------------------------------------
 Rotational constants (GHZ):      0.4529074      0.2836956      0.1879557
 Standard basis: 6-311+G(d,p) (5D, 7F)
 Warning:  center  37 has no basis functions!
 Warning:  center  38 has no basis functions!
 Warning:  center  39 has no basis functions!
 Warning:  center  40 has no basis functions!
 Warning:  center  41 has no basis functions!
 Warning:  center  42 has no basis functions!
 Warning:  center  43 has no basis functions!
 Warning:  center  44 has no basis functions!
 Warning:  center  45 has no basis functions!
 Warning:  center  46 has no basis functions!
 Warning:  center  47 has no basis functions!
 Warning:  center  48 has no basis functions!
 Warning:  center  49 has no basis functions!
 Warning:  center  50 has no basis functions!
 Warning:  center  51 has no basis functions!
 Warning:  center  52 has no basis functions!
 Warning:  center  53 has no basis functions!
 Warning:  center  54 has no basis functions!
 Warning:  center  55 has no basis functions!
 Warning:  center  56 has no basis functions!
 Warning:  center  57 has no basis functions!
 Warning:  center  58 has no basis functions!
 Warning:  center  59 has no basis functions!
 Warning:  center  60 has no basis functions!
 Warning:  center  61 has no basis functions!
 Warning:  center  62 has no basis functions!
 Warning:  center  63 has no basis functions!
 Warning:  center  64 has no basis functions!
 Warning:  center  65 has no basis functions!
 Warning:  center  66 has no basis functions!
 Warning:  center  67 has no basis functions!
 Warning:  center  68 has no basis functions!
 Warning:  center  69 has no basis functions!
 Warning:  center  70 has no basis functions!
 Warning:  center  71 has no basis functions!
 Warning:  center  72 has no basis functions!
 Warning:  center  73 has no basis functions!
 Warning:  center  74 has no basis functions!
 Warning:  center  75 has no basis functions!
 Warning:  center  76 has no basis functions!
 Warning:  center  77 has no basis functions!
 Warning:  center  78 has no basis functions!
 Warning:  center  79 has no basis functions!
 Warning:  center  80 has no basis functions!
 Warning:  center  81 has no basis functions!
 Warning:  center  82 has no basis functions!
 Warning:  center  83 has no basis functions!
 Warning:  center  84 has no basis functions!
 Warning:  center  85 has no basis functions!
 Warning:  center  86 has no basis functions!
 Warning:  center  87 has no basis functions!
 Warning:  center  88 has no basis functions!
 Warning:  center  89 has no basis functions!
 Warning:  center  90 has no basis functions!
 Warning:  center  91 has no basis functions!
 Warning:  center  92 has no basis functions!
 Warning:  center  93 has no basis functions!
 Warning:  center  94 has no basis functions!
 Warning:  center  95 has no basis functions!
 Warning:  center  96 has no basis functions!
 Warning:  center  97 has no basis functions!
 Warning:  center  98 has no basis functions!
 Warning:  center  99 has no basis functions!
 Warning:  center 100 has no basis functions!
 Warning:  center 101 has no basis functions!
 Warning:  center 102 has no basis functions!
 Warning:  center 103 has no basis functions!
 Warning:  center 104 has no basis functions!
 Warning:  center 105 has no basis functions!
 Warning:  center 106 has no basis functions!
 Warning:  center 107 has no basis functions!
 Warning:  center 108 has no basis functions!
 Warning:  center 109 has no basis functions!
 Warning:  center 110 has no basis functions!
 Warning:  center 111 has no basis functions!
 Warning:  center 112 has no basis functions!
 Warning:  center 113 has no basis functions!
 Warning:  center 114 has no basis functions!
 Warning:  center 115 has no basis functions!
 Warning:  center 116 has no basis functions!
 Warning:  center 117 has no basis functions!
 Warning:  center 118 has no basis functions!
 Warning:  center 119 has no basis functions!
 Warning:  center 120 has no basis functions!
 Warning:  center 121 has no basis functions!
 Warning:  center 122 has no basis functions!
 Warning:  center 123 has no basis functions!
 Warning:  center 124 has no basis functions!
 Warning:  center 125 has no basis functions!
 Warning:  center 126 has no basis functions!
 Warning:  center 127 has no basis functions!
 Warning:  center 128 has no basis functions!
 Warning:  center 129 has no basis functions!
 Warning:  center 130 has no basis functions!
 Warning:  center 131 has no basis functions!
 Warning:  center 132 has no basis functions!
 Warning:  center 133 has no basis functions!
 Warning:  center 134 has no basis functions!
 Warning:  center 135 has no basis functions!
 Warning:  center 136 has no basis functions!
 Warning:  center 137 has no basis functions!
 Warning:  center 138 has no basis functions!
 Warning:  center 139 has no basis functions!
 Warning:  center 140 has no basis functions!
 Warning:  center 141 has no basis functions!
 Warning:  center 142 has no basis functions!
 Warning:  center 143 has no basis functions!
 Warning:  center 144 has no basis functions!
 Warning:  center 145 has no basis functions!
 Warning:  center 146 has no basis functions!
 Warning:  center 147 has no basis functions!
 Warning:  center 148 has no basis functions!
 Warning:  center 149 has no basis functions!
 Warning:  center 150 has no basis functions!
 Warning:  center 151 has no basis functions!
 Warning:  center 152 has no basis functions!
 Warning:  center 153 has no basis functions!
 Warning:  center 154 has no basis functions!
 Warning:  center 155 has no basis functions!
 Warning:  center 156 has no basis functions!
 Warning:  center 157 has no basis functions!
 Warning:  center 158 has no basis functions!
 Warning:  center 159 has no basis functions!
 Warning:  center 160 has no basis functions!
 Warning:  center 161 has no basis functions!
 Warning:  center 162 has no basis functions!
 Warning:  center 163 has no basis functions!
 Warning:  center 164 has no basis functions!
 Warning:  center 165 has no basis functions!
 Warning:  center 166 has no basis functions!
 Warning:  center 167 has no basis functions!
 Warning:  center 168 has no basis functions!
 Warning:  center 169 has no basis functions!
 Warning:  center 170 has no basis functions!
 Warning:  center 171 has no basis functions!
 Warning:  center 172 has no basis functions!
 Warning:  center 173 has no basis functions!
 Warning:  center 174 has no basis functions!
 Warning:  center 175 has no basis functions!
 Warning:  center 176 has no basis functions!
 Warning:  center 177 has no basis functions!
 Warning:  center 178 has no basis functions!
 Warning:  center 179 has no basis functions!
 Warning:  center 180 has no basis functions!
 Warning:  center 181 has no basis functions!
 Warning:  center 182 has no basis functions!
 Warning:  center 183 has no basis functions!
 Warning:  center 184 has no basis functions!
 Warning:  center 185 has no basis functions!
 Warning:  center 186 has no basis functions!
 Warning:  center 187 has no basis functions!
 Warning:  center 188 has no basis functions!
 Warning:  center 189 has no basis functions!
 Warning:  center 190 has no basis functions!
 Warning:  center 191 has no basis functions!
 Warning:  center 192 has no basis functions!
 Warning:  center 193 has no basis functions!
 Warning:  center 194 has no basis functions!
 Warning:  center 195 has no basis functions!
 Warning:  center 196 has no basis functions!
 Warning:  center 197 has no basis functions!
 Warning:  center 198 has no basis functions!
 Warning:  center 199 has no basis functions!
 Warning:  center 200 has no basis functions!
 Warning:  center 201 has no basis functions!
 Warning:  center 202 has no basis functions!
 Warning:  center 203 has no basis functions!
 Warning:  center 204 has no basis functions!
 Warning:  center 205 has no basis functions!
 Warning:  center 206 has no basis functions!
 Warning:  center 207 has no basis functions!
 Warning:  center 208 has no basis functions!
 Warning:  center 209 has no basis functions!
 Warning:  center 210 has no basis functions!
 Warning:  center 211 has no basis functions!
 Warning:  center 212 has no basis functions!
 Warning:  center 213 has no basis functions!
 Warning:  center 214 has no basis functions!
 Warning:  center 215 has no basis functions!
 Warning:  center 216 has no basis functions!
 Warning:  center 217 has no basis functions!
 Warning:  center 218 has no basis functions!
 Warning:  center 219 has no basis functions!
 Warning:  center 220 has no basis functions!
 Warning:  center 221 has no basis functions!
 Warning:  center 222 has no basis functions!
 Warning:  center 223 has no basis functions!
 Warning:  center 224 has no basis functions!
 Warning:  center 225 has no basis functions!
 Warning:  center 226 has no basis functions!
 Warning:  center 227 has no basis functions!
 Warning:  center 228 has no basis functions!
 Warning:  center 229 has no basis functions!
 Warning:  center 230 has no basis functions!
 Warning:  center 231 has no basis functions!
 Warning:  center 232 has no basis functions!
 Warning:  center 233 has no basis functions!
 Warning:  center 234 has no basis functions!
 Warning:  center 235 has no basis functions!
 Warning:  center 236 has no basis functions!
   568 basis functions,   904 primitive gaussians,   590 cartesian basis functions
    73 alpha electrons       73 beta electrons
       nuclear repulsion energy      1610.9176155625 Hartrees.
 NAtoms=  236 NActive=  236 NUniq=  236 SFac= 1.00D+00 NAtFMM=   60 NAOKFM=T Big=T
 Integral buffers will be    131072 words long.
 Raffenetti 2 integral format.
 Two-electron integral symmetry is turned off.
 One-electron integrals computed using PRISM.
 NBasis=   568 RedAO= T EigKep=  1.78D-06  NBF=   568
 NBsUse=   556 1.00D-06 EigRej=  9.09D-07 NBFU=   556
 ExpMin= 4.38D-02 ExpMax= 4.56D+03 ExpMxC= 6.82D+02 IAcc=2 IRadAn=         4 AccDes= 0.00D+00
 Harris functional with IExCor=  402 and IRadAn=       4 diagonalized for initial guess.
 HarFok:  IExCor=  402 AccDes= 0.00D+00 IRadAn=         4 IDoV= 1 UseB2=F ITyADJ=14
 ICtDFT=  3500011 ScaDFX=  1.000000  1.000000  1.000000  1.000000
 FoFCou: FMM=F IPFlag=           0 FMFlag=      100000 FMFlg1=        2001
         NFxFlg=           0 DoJE=T BraDBF=F KetDBF=T FulRan=T
         wScrn=  0.000000 ICntrl=     500 IOpCl=  0 I1Cent=   200000004 NGrid=           0
         NMat0=    1 NMatS0=      1 NMatT0=    0 NMatD0=    1 NMtDS0=    0 NMtDT0=    0
 Symmetry not used in FoFCou.
 Requested convergence on RMS density matrix=1.00D-08 within 128 cycles.
 Requested convergence on MAX density matrix=1.00D-06.
 Requested convergence on             energy=1.00D-06.
 No special actions if energy rises.
 SCF Done:  E(RB3LYP) =  -847.003289847     A.U. after   15 cycles
            NFock= 15  Conv=0.75D-08     -V/T= 2.0040
 DoSCS=F DFT=T ScalE2(SS,OS)=  1.000000  1.000000
 Range of M.O.s used for correlation:     1   556
 NBasis=   568 NAE=    73 NBE=    73 NFC=     0 NFV=     0
 NROrb=    556 NOA=    73 NOB=    73 NVA=   483 NVB=   483

 **** Warning!!: The largest alpha MO coefficient is  0.10971036D+03

          Differentiating once with respect to magnetic field using GIAOs.
          Electric field/nuclear overlap derivatives assumed to be zero.
 FoFCou: FMM=F IPFlag=           0 FMFlag=      100000 FMFlg1=        2001
         NFxFlg=           0 DoJE=F BraDBF=F KetDBF=T FulRan=T
         wScrn=  0.000000 ICntrl=    6100 IOpCl=  0 I1Cent=           7 NGrid=         236
         NMat0=    1 NMatS0=      1 NMatT0=    0 NMatD0=    1 NMtDS0=    0 NMtDT0=    0
 Symmetry not used in FoFCou.
 FoFJK:  IHMeth= 1 ICntrl=    6127 DoSepK=F KAlg= 0 I1Cent=   0 FoldK=F
 IRaf=         1 NMat=   1 IRICut=       1 DoRegI=T DoRafI=F ISym2E= 0.
          There are     3 degrees of freedom in the 1st order CPHF.  IDoFFX=0 NUNeed=     3.
      3 vectors produced by pass  0 Test12= 1.18D-12 3.33D-08 XBig12= 2.07D+03 9.18D+00.
 AX will form     3 AO Fock derivatives at one time.
      3 vectors produced by pass  1 Test12= 1.18D-12 3.33D-08 XBig12= 3.56D+00 8.03D-01.
      3 vectors produced by pass  2 Test12= 1.18D-12 3.33D-08 XBig12= 2.10D-02 6.92D-02.
      3 vectors produced by pass  3 Test12= 1.18D-12 3.33D-08 XBig12= 5.45D-05 1.89D-03.
      3 vectors produced by pass  4 Test12= 1.18D-12 3.33D-08 XBig12= 1.20D-07 7.79D-05.
      3 vectors produced by pass  5 Test12= 1.18D-12 3.33D-08 XBig12= 4.02D-10 4.73D-06.
      3 vectors produced by pass  6 Test12= 1.18D-12 3.33D-08 XBig12= 1.32D-12 2.61D-07.
 InvSVY:  IOpt=1 It=  1 EMax= 2.84D-14
 Solved reduced A of dimension    21 with     3 vectors.
 Calculating GIAO nuclear magnetic shielding tensors.
 SCF GIAO Magnetic shielding tensor (ppm):
      1  C    Isotropic =    53.8139   Anisotropy =   178.0260
   XX=   -41.4327   YX=   -32.3458   ZX=    10.0287
   XY=   -28.3572   YY=    59.0527   ZY=    55.1899
   XZ=    13.1759   YZ=    58.7550   ZZ=   143.8218
   Eigenvalues:   -53.8775    42.8214   172.4979
      2  H    Isotropic =    24.3095   Anisotropy =     4.8536
   XX=    25.5771   YX=    -1.0289   ZX=     0.5661
   XY=    -0.7431   YY=    26.1829   ZY=    -2.3306
   XZ=    -0.1707   YZ=    -2.4411   ZZ=    21.1687
   Eigenvalues:    20.2108    25.1725    27.5453
      3  C    Isotropic =    51.4055   Anisotropy =   157.8639
   XX=   -31.5399   YX=    38.5015   ZX=   -17.9316
   XY=    34.3519   YY=    49.9437   ZY=    49.6392
   XZ=    -9.8383   YZ=    44.6006   ZZ=   135.8127
   Eigenvalues:   -50.5747    48.1432   156.6481
      4  H    Isotropic =    23.8290   Anisotropy =     7.1838
   XX=    25.3635   YX=     1.8486   ZX=    -0.3559
   XY=     1.9656   YY=    26.4581   ZY=    -2.4103
   XZ=    -1.2941   YZ=    -2.6614   ZZ=    19.6654
   Eigenvalues:    18.8176    24.0511    28.6182
      5  C    Isotropic =    46.0697   Anisotropy =   207.6751
   XX=   -19.2123   YX=    -4.8852   ZX=    -1.6475
   XY=     2.8938   YY=    -2.9860   ZY=    66.5656
   XZ=     2.5356   YZ=    67.9144   ZZ=   160.4073
   Eigenvalues:   -27.2455   -19.0652   184.5197
      6  C    Isotropic =    47.5218   Anisotropy =   196.9389
   XX=   -28.1552   YX=    -2.7889   ZX=    12.0660
   XY=   -14.3886   YY=    21.2063   ZY=    74.2521
   XZ=   -18.6356   YZ=    61.1113   ZZ=   149.5144
   Eigenvalues:   -30.2925    -5.9564   178.8144
      7  C    Isotropic =    49.3915   Anisotropy =   179.8333
   XX=   -12.5211   YX=    28.7048   ZX=   -24.6745
   XY=    31.5123   YY=    29.7000   ZY=    77.7459
   XZ=   -40.0095   YZ=    65.3072   ZZ=   130.9956
   Eigenvalues:   -52.1299    31.0240   169.2804
      8  H    Isotropic =    23.1586   Anisotropy =    13.5525
   XX=    28.5711   YX=     1.5482   ZX=    -3.6986
   XY=     3.2466   YY=    22.7592   ZY=    -2.1157
   XZ=    -8.3753   YZ=    -1.0821   ZZ=    18.1456
   Eigenvalues:    15.3521    21.9301    32.1936
      9  C    Isotropic =    55.1460   Anisotropy =   174.7426
   XX=    46.7071   YX=    -2.6162   ZX=    -2.8420
   XY=     0.6223   YY=    -1.6258   ZY=    92.8272
   XZ=     0.5159   YZ=    95.6598   ZZ=   120.3568
   Eigenvalues:   -52.8932    46.6901   171.6411
     10  H    Isotropic =    24.6278   Anisotropy =     7.1815
   XX=    29.1040   YX=     0.1399   ZX=    -0.3694
   XY=     0.3642   YY=    23.4778   ZY=    -1.0805
   XZ=    -2.4493   YZ=    -2.9465   ZZ=    21.3016
   Eigenvalues:    19.9703    24.4977    29.4155
     11  C    Isotropic =    51.5607   Anisotropy =   151.2142
   XX=     2.1639   YX=    40.9287   ZX=   -26.0048
   XY=    49.9131   YY=    12.2331   ZY=    42.1342
   XZ=   -15.6145   YZ=    38.6614   ZZ=   140.2851
   Eigenvalues:   -48.1951    50.5071   152.3701
     12  H    Isotropic =    23.8537   Anisotropy =     7.3815
   XX=    25.9672   YX=     2.3738   ZX=    -0.2390
   XY=     2.4320   YY=    26.3975   ZY=    -1.8291
   XZ=     0.3529   YZ=    -1.7731   ZZ=    19.1964
   Eigenvalues:    18.7149    24.0714    28.7747
     13  C    Isotropic =    52.8653   Anisotropy =   147.4265
   XX=    51.2944   YX=    19.9221   ZX=   -13.4678
   XY=    11.5478   YY=   -34.0176   ZY=    42.5079
   XZ=    -9.2241   YZ=    40.0716   ZZ=   141.3192
   Eigenvalues:   -46.5152    53.9616   151.1497
     14  H    Isotropic =    24.0156   Anisotropy =     7.3485
   XX=    28.6644   YX=     0.6281   ZX=     1.0808
   XY=     0.5926   YY=    24.4325   ZY=    -1.0823
   XZ=     1.6846   YZ=    -0.3842   ZZ=    18.9500
   Eigenvalues:    18.6430    24.4892    28.9146
     15  C    Isotropic =    46.2221   Anisotropy =   203.9048
   XX=   -27.2215   YX=    -0.0442   ZX=   -28.9124
   XY=     4.6427   YY=   -10.5571   ZY=    28.3830
   XZ=   -10.2704   YZ=    26.7376   ZZ=   176.4448
   Eigenvalues:   -30.5512   -12.9411   182.1586
     16  C    Isotropic =    51.9375   Anisotropy =   188.2004
   XX=   -19.4441   YX=     5.5046   ZX=    15.7858
   XY=    -8.3874   YY=     2.4863   ZY=    22.9264
   XZ=   -50.6243   YZ=    23.3340   ZZ=   172.7704
   Eigenvalues:   -21.0294    -0.5625   177.4045
     17  C    Isotropic =    51.9482   Anisotropy =   149.1264
   XX=    50.7296   YX=   -23.9353   ZX=   -18.4207
   XY=   -16.7271   YY=   -41.8764   ZY=    17.8662
   XZ=   -14.3278   YZ=    11.4871   ZZ=   146.9915
   Eigenvalues:   -46.7796    51.2584   151.3658
     18  H    Isotropic =    24.0122   Anisotropy =     7.5163
   XX=    28.5811   YX=    -0.0866   ZX=     1.5071
   XY=    -0.2466   YY=    24.3342   ZY=    -0.7657
   XZ=     2.5088   YZ=    -1.5208   ZZ=    19.1214
   Eigenvalues:    18.5094    24.5041    29.0231
     19  C    Isotropic =    51.7356   Anisotropy =   148.5924
   XX=     2.4559   YX=   -45.6913   ZX=   -31.2531
   XY=   -53.4448   YY=     7.4698   ZY=    -1.8888
   XZ=   -23.5601   YZ=    -1.2765   ZZ=   145.2810
   Eigenvalues:   -46.9894    51.3989   150.7972
     20  H    Isotropic =    23.9071   Anisotropy =     7.6651
   XX=    25.5796   YX=    -2.0226   ZX=     1.4905
   XY=    -1.9998   YY=    27.3706   ZY=    -0.5164
   XZ=     2.7276   YZ=    -1.1179   ZZ=    18.7711
   Eigenvalues:    18.1643    24.5398    29.0172
     21  C    Isotropic =    45.9767   Anisotropy =   203.9316
   XX=   -16.2108   YX=    13.1802   ZX=   -44.5913
   XY=     6.5714   YY=   -20.6329   ZY=     0.0949
   XZ=   -28.8984   YZ=   -13.0883   ZZ=   174.7736
   Eigenvalues:   -30.5796   -13.4215   181.9311
     22  C    Isotropic =    52.0450   Anisotropy =   188.1157
   XX=    -0.0787   YX=     2.5023   ZX=   -16.3451
   XY=    18.9327   YY=   -14.4798   ZY=   -34.4335
   XZ=   -50.6032   YZ=    19.9104   ZZ=   170.6934
   Eigenvalues:   -20.7705    -0.5500   177.4554
     23  C    Isotropic =    53.2392   Anisotropy =   146.7412
   XX=   -22.0674   YX=   -32.0012   ZX=   -49.4857
   XY=   -23.2043   YY=    44.3661   ZY=   -15.6400
   XZ=   -43.8090   YZ=   -20.2525   ZZ=   137.4189
   Eigenvalues:   -45.6776    54.3286   151.0667
     24  H    Isotropic =    23.8249   Anisotropy =     7.5289
   XX=    25.1073   YX=    -1.7330   ZX=     1.5380
   XY=    -1.5944   YY=    28.0047   ZY=     0.0879
   XZ=     1.2557   YZ=    -0.8283   ZZ=    18.3628
   Eigenvalues:    18.0848    24.5458    28.8442
     25  C    Isotropic =    51.4969   Anisotropy =   150.1066
   XX=   -28.4915   YX=    33.9684   ZX=   -52.3137
   XY=    22.0311   YY=    46.6072   ZY=    -3.8075
   XZ=   -44.5594   YZ=   -10.6355   ZZ=   136.3748
   Eigenvalues:   -48.3857    51.3083   151.5679
     26  H    Isotropic =    23.7431   Anisotropy =     7.4052
   XX=    24.0663   YX=     1.1141   ZX=     1.9989
   XY=     0.9693   YY=    28.1000   ZY=     1.6568
   XZ=     2.0795   YZ=     0.8886   ZZ=    19.0630
   Eigenvalues:    18.2615    24.2880    28.6799
     27  C    Isotropic =    45.8108   Anisotropy =   207.2710
   XX=    -2.7702   YX=    13.7697   ZX=   -61.4651
   XY=     6.5593   YY=   -12.0335   ZY=   -41.6456
   XZ=   -62.6381   YZ=   -44.9232   ZZ=   152.2361
   Eigenvalues:   -28.0803   -18.4787   183.9915
     28  C    Isotropic =    47.8398   Anisotropy =   197.2870
   XX=    19.6900   YX=    14.4398   ZX=   -60.5682
   XY=    28.5650   YY=   -19.3566   ZY=   -56.7015
   XZ=   -63.1331   YZ=   -24.4782   ZZ=   143.1859
   Eigenvalues:   -30.5979    -5.2472   179.3644
     29  C    Isotropic =    49.3441   Anisotropy =   179.7793
   XX=    -3.4110   YX=    38.3775   ZX=   -80.8875
   XY=    36.1252   YY=    25.9805   ZY=   -23.7573
   XZ=   -78.1065   YZ=    -3.9802   ZZ=   125.4627
   Eigenvalues:   -51.6645    30.4997   169.1970
     30  H    Isotropic =    23.1387   Anisotropy =    13.3222
   XX=    22.4354   YX=    -0.7013   ZX=    -0.2375
   XY=    -2.1539   YY=    28.3546   ZY=     4.5555
   XZ=    -3.4181   YZ=     8.3231   ZZ=    18.6259
   Eigenvalues:    15.2751    22.1208    32.0201
     31  C    Isotropic =    55.4410   Anisotropy =   174.9390
   XX=    17.1871   YX=   -14.0890   ZX=   -84.0024
   XY=   -17.9030   YY=    37.4745   ZY=   -50.3662
   XZ=   -84.6557   YZ=   -54.8325   ZZ=   111.6615
   Eigenvalues:   -51.9248    46.1808   172.0670
     32  H    Isotropic =    24.5337   Anisotropy =     7.2554
   XX=    24.6185   YX=    -2.5264   ZX=     0.7632
   XY=    -2.7385   YY=    27.4630   ZY=     1.0335
   XZ=     1.1913   YZ=     3.7573   ZZ=    21.5194
   Eigenvalues:    19.8987    24.3316    29.3706
     33  C    Isotropic =    53.1814   Anisotropy =   179.0596
   XX=    60.9231   YX=    35.2256   ZX=   -42.9515
   XY=    32.0226   YY=   -38.1801   ZY=   -45.5652
   XZ=   -44.2248   YZ=   -50.7831   ZZ=   136.8014
   Eigenvalues:   -55.1197    42.1095   172.5545
     34  H    Isotropic =    24.2825   Anisotropy =     5.1861
   XX=    26.7643   YX=    -0.0934   ZX=     2.5955
   XY=    -0.2993   YY=    24.8157   ZY=     0.8589
   XZ=     2.3715   YZ=     1.4580   ZZ=    21.2676
   Eigenvalues:    20.0339    25.0737    27.7399
     35  C    Isotropic =    51.5295   Anisotropy =   155.1748
   XX=    -0.5131   YX=    52.5760   ZX=   -52.1551
   XY=    55.6135   YY=    25.1843   ZY=   -14.2643
   XZ=   -45.7255   YZ=   -17.1625   ZZ=   129.9171
   Eigenvalues:   -48.3147    47.9237   154.9793
     36  H    Isotropic =    23.8384   Anisotropy =     7.3073
   XX=    24.2302   YX=     1.4459   ZX=     2.1759
   XY=     1.2147   YY=    27.1572   ZY=     2.0665
   XZ=     1.6853   YZ=     2.7775   ZZ=    20.1277
   Eigenvalues:    18.9464    23.8588    28.7099
     37  Bq   Isotropic =   -10.7742   Anisotropy =    42.7219
   XX=    -0.1859   YX=    13.5808   ZX=    -4.7880
   XY=    21.9929   YY=   -46.5153   ZY=    11.2941
   XZ=    -5.0174   YZ=    17.6766   ZZ=    14.3787
   Eigenvalues:   -55.8848     5.8551    17.7071
     38  Bq   Isotropic =    -2.1216   Anisotropy =    31.4277
   XX=    13.1931   YX=    11.0079   ZX=    -2.9717
   XY=    14.9244   YY=   -35.7607   ZY=     8.8182
   XZ=    -2.0901   YZ=    14.9787   ZZ=    16.2028
   Eigenvalues:   -41.5427    16.3476    18.8302
     39  Bq   Isotropic =     4.0105   Anisotropy =    30.0576
   XX=    22.1539   YX=     8.9641   ZX=    -1.5378
   XY=     9.6209   YY=   -26.1266   ZY=     6.6406
   XZ=     0.0843   YZ=    12.4516   ZZ=    16.0043
   Eigenvalues:   -29.8308    17.8134    24.0489
     40  Bq   Isotropic =     8.0034   Anisotropy =    31.0901
   XX=    27.6061   YX=     7.3365   ZX=    -0.4137
   XY=     5.7522   YY=   -17.8960   ZY=     4.6534
   XZ=     1.6513   YZ=    10.0572   ZZ=    14.3000
   Eigenvalues:   -20.3172    15.5972    28.7301
     41  Bq   Isotropic =    10.3202   Anisotropy =    31.2641
   XX=    30.4277   YX=     6.0416   ZX=     0.4610
   XY=     3.0141   YY=   -11.0818   ZY=     2.8302
   XZ=     2.7430   YZ=     7.8096   ZZ=    11.6146
   Eigenvalues:   -12.6539    12.4515    31.1629
     42  Bq   Isotropic =    11.3871   Anisotropy =    30.7531
   XX=    31.3473   YX=     5.0156   ZX=     1.1330
   XY=     1.1495   YY=    -5.5725   ZY=     1.1766
   XZ=     3.4688   YZ=     5.7349   ZZ=     8.3866
   Eigenvalues:    -6.5455     8.8177    31.8892
     43  Bq   Isotropic =    11.5609   Anisotropy =    29.7449
   XX=    30.9411   YX=     4.2071   ZX=     1.6395
   XY=    -0.0526   YY=    -1.2108   ZY=    -0.2950
   XZ=     3.9169   YZ=     3.8560   ZZ=     4.9524
   Eigenvalues:    -1.7412     5.0331    31.3909
     44  Bq   Isotropic =    11.1263   Anisotropy =    28.4064
   XX=    29.6560   YX=     3.5733   ZX=     2.0118
   XY=    -0.7629   YY=     2.1693   ZY=    -1.5769
   XZ=     4.1580   YZ=     2.1873   ZZ=     1.5538
   Eigenvalues:     1.1936     2.1215    30.0639
     45  Bq   Isotropic =    10.3032   Anisotropy =    26.8771
   XX=    27.8323   YX=     3.0776   ZX=     2.2765
   XY=    -1.1179   YY=     4.7249   ZY=    -2.6691
   XZ=     4.2484   YZ=     0.7332   ZZ=    -1.6477
   Eigenvalues:    -2.1706     4.8589    28.2212
     46  Bq   Isotropic =     9.2554   Anisotropy =    25.2671
   XX=    25.7219   YX=     2.6883   ZX=     2.4567
   XY=    -1.2253   YY=     6.5981   ZY=    -3.5787
   XZ=     4.2326   YZ=    -0.5105   ZZ=    -4.5537
   Eigenvalues:    -5.2941     6.9602    26.1002
     47  Bq   Isotropic =     8.1016   Anisotropy =    23.6581
   XX=    23.5044   YX=     2.3782   ZX=     2.5718
   XY=    -1.1688   YY=     7.9138   ZY=    -4.3179
   XZ=     4.1451   YZ=    -1.5548   ZZ=    -7.1135
   Eigenvalues:    -8.0361     8.4672    23.8736
     48  Bq   Isotropic =     6.9247   Anisotropy =    22.1055
   XX=    21.3026   YX=     2.1244   ZX=     2.6374
   XY=    -1.0124   YY=     8.7798   ZY=    -4.9016
   XZ=     4.0120   YZ=    -2.4149   ZZ=    -9.3085
   Eigenvalues:   -10.3787     9.4910    21.6617
     49  Bq   Isotropic =     5.7813   Anisotropy =    20.6439
   XX=    19.1965   YX=     1.9081   ZX=     2.6663
   XY=    -0.8038   YY=     9.2880   ZY=    -5.3460
   XZ=     3.8527   YZ=    -3.1082   ZZ=   -11.1408
   Eigenvalues:   -12.3273    10.1272    19.5439
     50  Bq   Isotropic =     4.7083   Anisotropy =    19.2911
   XX=    17.2345   YX=     1.7137   ZX=     2.6683
   XY=    -0.5783   YY=     9.5160   ZY=    -5.6672
   XZ=     3.6810   YZ=    -3.6529   ZZ=   -12.6254
   Eigenvalues:   -13.9001    10.4561    17.5691
     51  Bq   Isotropic =     3.7288   Anisotropy =    18.0530
   XX=    15.4425   YX=     1.5296   ZX=     2.6513
   XY=    -0.3610   YY=     9.5287   ZY=    -5.8808
   XZ=     3.5065   YZ=    -4.0671   ZZ=   -13.7847
   Eigenvalues:   -15.1228    10.5451    15.7641
     52  Bq   Isotropic =     2.8550   Anisotropy =    16.9268
   XX=    13.8307   YX=     1.3468   ZX=     2.6211
   XY=    -0.1689   YY=     9.3802   ZY=    -6.0017
   XZ=     3.3356   YZ=    -4.3681   ZZ=   -14.6458
   Eigenvalues:   -16.0257    10.4512    14.1396
     53  Bq   Isotropic =     2.0916   Anisotropy =    15.9048
   XX=    12.3982   YX=     1.1595   ZX=     2.5821
   XY=    -0.0128   YY=     9.1151   ZY=    -6.0440
   XZ=     3.1725   YZ=    -4.5722   ZZ=   -15.2384
   Eigenvalues:   -16.6414    10.2215    12.6949
     54  Bq   Isotropic =     1.4375   Anisotropy =    14.9779
   XX=    11.1368   YX=     0.9639   ZX=     2.5377
   XY=     0.1016   YY=     8.7697   ZY=    -6.0209
   XZ=     3.0194   YZ=    -4.6946   ZZ=   -15.5940
   Eigenvalues:   -17.0045     9.8942    11.4228
     55  Bq   Isotropic =     0.8871   Anisotropy =    14.1465
   XX=    10.0331   YX=     0.7586   ZX=     2.4904
   XY=     0.1723   YY=     8.3731   ZY=    -5.9447
   XZ=     2.8777   YZ=    -4.7494   ZZ=   -15.7450
   Eigenvalues:   -17.1499     9.4930    10.3181
     56  Bq   Isotropic =     0.4322   Anisotropy =    13.4851
   XX=     9.0711   YX=     0.5437   ZX=     2.4420
   XY=     0.2004   YY=     7.9485   ZY=    -5.8268
   XZ=     2.7476   YZ=    -4.7493   ZZ=   -15.7230
   Eigenvalues:   -17.1119     8.9862     9.4223
     57  Bq   Isotropic =     0.0627   Anisotropy =    13.1686
   XX=     8.2332   YX=     0.3205   ZX=     2.3935
   XY=     0.1888   YY=     7.5137   ZY=    -5.6773
   XZ=     2.6289   YZ=    -4.7057   ZZ=   -15.5589
   Eigenvalues:   -16.9235     8.2697     8.8417
     58  Bq   Isotropic =    -0.2324   Anisotropy =    12.9673
   XX=     7.5018   YX=     0.0915   ZX=     2.3459
   XY=     0.1421   YY=     7.0823   ZY=    -5.5053
   XZ=     2.5209   YZ=    -4.6287   ZZ=   -15.2814
   Eigenvalues:   -16.6154     7.5056     8.4124
     59  Bq   Isotropic =    -0.4642   Anisotropy =    12.7509
   XX=     6.8598   YX=    -0.1404   ZX=     2.2993
   XY=     0.0657   YY=     6.6641   ZY=    -5.3183
   XZ=     2.4227   YZ=    -4.5270   ZZ=   -14.9164
   Eigenvalues:   -16.2155     6.7866     8.0364
     60  Bq   Isotropic =    -0.6431   Anisotropy =    12.5175
   XX=     6.2919   YX=    -0.3717   ZX=     2.2539
   XY=    -0.0344   YY=     6.2660   ZY=    -5.1228
   XZ=     2.3332   YZ=    -4.4079   ZZ=   -14.4871
   Eigenvalues:   -15.7482     6.1171     7.7019
     61  Bq   Isotropic =    -0.7788   Anisotropy =    12.2777
   XX=     5.7842   YX=    -0.5990   ZX=     2.2095
   XY=    -0.1524   YY=     5.8924   ZY=    -4.9241
   XZ=     2.2512   YZ=    -4.2774   ZZ=   -14.0130
   Eigenvalues:   -15.2346     5.4918     7.4063
     62  Bq   Isotropic =    -0.8800   Anisotropy =    12.0391
   XX=     5.3249   YX=    -0.8190   ZX=     2.1657
   XY=    -0.2826   YY=     5.5458   ZY=    -4.7262
   XZ=     2.1756   YZ=    -4.1403   ZZ=   -13.5108
   Eigenvalues:   -14.6921     4.9060     7.1460
     63  Bq   Isotropic =    -0.9541   Anisotropy =    11.8057
   XX=     4.9045   YX=    -1.0284   ZX=     2.1223
   XY=    -0.4196   YY=     5.2272   ZY=    -4.5322
   XZ=     2.1053   YZ=    -4.0005   ZZ=   -12.9940
   Eigenvalues:   -14.1349     4.3563     6.9163
     64  Bq   Isotropic =    -1.0072   Anisotropy =    11.5784
   XX=     4.5151   YX=    -1.2244   ZX=     2.0788
   XY=    -0.5588   YY=     4.9367   ZY=    -4.3444
   XZ=     2.0393   YZ=    -3.8606   ZZ=   -12.4732
   Eigenvalues:   -13.5744     3.8411     6.7118
     65  Bq   Isotropic =    -1.0443   Anisotropy =    11.3568
   XX=     4.1507   YX=    -1.4048   ZX=     2.0348
   XY=    -0.6960   YY=     4.6731   ZY=    -4.1641
   XZ=     1.9767   YZ=    -3.7229   ZZ=   -11.9567
   Eigenvalues:   -13.0191     3.3593     6.5269
     66  Bq   Isotropic =    14.8666   Anisotropy =    13.8509
   XX=    11.8404   YX=    -0.5556   ZX=    -2.0615
   XY=     0.9242   YY=    10.4943   ZY=     7.5692
   XZ=    -0.1330   YZ=     2.1863   ZZ=    22.2652
   Eigenvalues:     8.6409    11.8584    24.1006
     67  Bq   Isotropic =    13.6640   Anisotropy =    12.5663
   XX=    11.0056   YX=    -0.2391   ZX=    -2.0568
   XY=     1.2010   YY=     9.6570   ZY=     6.7453
   XZ=    -0.3698   YZ=     2.1964   ZZ=    20.3294
   Eigenvalues:     7.7929    11.1576    22.0415
     68  Bq   Isotropic =    12.6102   Anisotropy =    11.4045
   XX=    10.3116   YX=    -0.0261   ZX=    -1.9892
   XY=     1.3523   YY=     8.9546   ZY=     6.0644
   XZ=    -0.5741   YZ=     2.2627   ZZ=    18.5646
   Eigenvalues:     7.0439    10.5736    20.2132
     69  Bq   Isotropic =    11.7020   Anisotropy =    10.3665
   XX=     9.7441   YX=     0.0828   ZX=    -1.8739
   XY=     1.3888   YY=     8.3853   ZY=     5.5085
   XZ=    -0.7564   YZ=     2.3658   ZZ=    16.9766
   Eigenvalues:     6.4358    10.0572    18.6130
     70  Bq   Isotropic =    10.9324   Anisotropy =     9.4518
   XX=     9.2860   YX=     0.0933   ZX=    -1.7261
   XY=     1.3247   YY=     7.9475   ZY=     5.0573
   XZ=    -0.9273   YZ=     2.4891   ZZ=    15.5639
   Eigenvalues:     5.9773     9.5864    17.2337
     71  Bq   Isotropic =    10.2928   Anisotropy =     8.6601
   XX=     8.9196   YX=     0.0165   ZX=    -1.5606
   XY=     1.1773   YY=     7.6387   ZY=     4.6901
   XZ=    -1.0967   YZ=     2.6194   ZZ=    14.3202
   Eigenvalues:     5.6584     9.1539    16.0662
     72  Bq   Isotropic =     9.7741   Anisotropy =     7.9922
   XX=     8.6292   YX=    -0.1323   ZX=    -1.3907
   XY=     0.9657   YY=     7.4559   ZY=     4.3873
   XZ=    -1.2738   YZ=     2.7475   ZZ=    13.2371
   Eigenvalues:     5.4602     8.7597    15.1022
     73  Bq   Isotropic =     9.3683   Anisotropy =     7.4527
   XX=     8.4030   YX=    -0.3344   ZX=    -1.2287
   XY=     0.7098   YY=     7.3950   ZY=     4.1321
   XZ=    -1.4666   YZ=     2.8688   ZZ=    12.3068
   Eigenvalues:     5.3608     8.4073    14.3368
     74  Bq   Isotropic =     9.0698   Anisotropy =     7.0493
   XX=     8.2347   YX=    -0.5688   ZX=    -1.0846
   XY=     0.4303   YY=     7.4506   ZY=     3.9110
   XZ=    -1.6817   YZ=     2.9830   ZZ=    11.5240
   Eigenvalues:     5.3391     8.1009    13.7693
     75  Bq   Isotropic =     8.8760   Anisotropy =     6.7907
   XX=     8.1249   YX=    -0.8135   ZX=    -0.9670
   XY=     0.1475   YY=     7.6152   ZY=     3.7147
   XZ=    -1.9246   YZ=     3.0947   ZZ=    10.8879
   Eigenvalues:     5.3785     7.8464    13.4032
     76  Bq   Isotropic =     8.7880   Anisotropy =     6.6809
   XX=     8.0811   YX=    -1.0465   ZX=    -0.8819
   XY=    -0.1187   YY=     7.8795   ZY=     3.5386
   XZ=    -2.1993   YZ=     3.2126   ZZ=    10.4033
   Eigenvalues:     5.4671     7.6549    13.2419
     77  Bq   Isotropic =     8.8100   Anisotropy =     6.7130
   XX=     8.1181   YX=    -1.2465   ZX=    -0.8337
   XY=    -0.3491   YY=     8.2307   ZY=     3.3829
   XZ=    -2.5085   YZ=     3.3498   ZZ=    10.0812
   Eigenvalues:     5.5951     7.5496    13.2853
     78  Bq   Isotropic =     8.9494   Anisotropy =     6.8678
   XX=     8.2574   YX=    -1.3940   ZX=    -0.8245
   XY=    -0.5254   YY=     8.6522   ZY=     3.2524
   XZ=    -2.8536   YZ=     3.5227   ZZ=     9.9387
   Eigenvalues:     5.7494     7.5709    13.5279
     79  Bq   Isotropic =     9.2156   Anisotropy =     7.1205
   XX=     8.5256   YX=    -1.4722   ZX=    -0.8544
   XY=    -0.6309   YY=     9.1228   ZY=     3.1565
   XZ=    -3.2343   YZ=     3.7509   ZZ=     9.9983
   Eigenvalues:     5.9138     7.7703    13.9625
     80  Bq   Isotropic =     9.6183   Anisotropy =     7.4525
   XX=     8.9528   YX=    -1.4674   ZX=    -0.9219
   XY=    -0.6501   YY=     9.6154   ZY=     3.1085
   XZ=    -3.6490   YZ=     4.0565   ZZ=    10.2866
   Eigenvalues:     6.0806     8.1877    14.5866
     81  Bq   Isotropic =    10.1664   Anisotropy =     7.8642
   XX=     9.5698   YX=    -1.3697   ZX=    -1.0233
   XY=    -0.5696   YY=    10.0967   ZY=     3.1252
   XZ=    -4.0946   YZ=     4.4628   ZZ=    10.8325
   Eigenvalues:     6.2527     8.8372    15.4091
     82  Bq   Isotropic =    10.8655   Anisotropy =     8.3846
   XX=    10.4050   YX=    -1.1732   ZX=    -1.1541
   XY=    -0.3778   YY=    10.5261   ZY=     3.2262
   XZ=    -4.5665   YZ=     4.9939   ZZ=    11.6654
   Eigenvalues:     6.4200     9.7213    16.4552
     83  Bq   Isotropic =    11.7161   Anisotropy =     9.0740
   XX=    11.4800   YX=    -0.8757   ZX=    -1.3080
   XY=    -0.0651   YY=    10.8553   ZY=     3.4333
   XZ=    -5.0589   YZ=     5.6741   ZZ=    12.8131
   Eigenvalues:     6.5360    10.8469    17.7655
     84  Bq   Isotropic =    12.7111   Anisotropy =    10.0158
   XX=    12.8052   YX=    -0.4785   ZX=    -1.4785
   XY=     0.3762   YY=    11.0284   ZY=     3.7702
   XZ=    -5.5646   YZ=     6.5269   ZZ=    14.2998
   Eigenvalues:     6.5169    12.2282    19.3883
     85  Bq   Isotropic =    13.8333   Anisotropy =    11.3009
   XX=    14.3740   YX=     0.0155   ZX=    -1.6588
   XY=     0.9524   YY=    10.9814   ZY=     4.2617
   XZ=    -6.0755   YZ=     7.5747   ZZ=    16.1444
   Eigenvalues:     6.2547    13.8779    21.3672
     86  Bq   Isotropic =    15.0520   Anisotropy =    13.0165
   XX=    16.1558   YX=     0.6022   ZX=    -1.8426
   XY=     1.6692   YY=    10.6422   ZY=     4.9339
   XZ=    -6.5829   YZ=     8.8384   ZZ=    18.3581
   Eigenvalues:     5.6360    15.7904    23.7297
     87  Bq   Isotropic =    16.3197   Anisotropy =    15.2456
   XX=    18.0877   YX=     1.2789   ZX=    -2.0245
   XY=     2.5326   YY=     9.9309   ZY=     5.8130
   XZ=    -7.0771   YZ=    10.3367   ZZ=    20.9406
   Eigenvalues:     4.5508    17.9249    26.4834
     88  Bq   Isotropic =    17.5664   Anisotropy =    18.0777
   XX=    20.0642   YX=     2.0456   ZX=    -2.2009
   XY=     3.5498   YY=     8.7597   ZY=     6.9249
   XZ=    -7.5481   YZ=    12.0850   ZZ=    23.8753
   Eigenvalues:     2.8920    20.1889    29.6182
     89  Bq   Isotropic =    18.6935   Anisotropy =    21.6187
   XX=    21.9254   YX=     2.9059   ZX=    -2.3700
   XY=     4.7299   YY=     7.0337   ZY=     8.2932
   XZ=    -7.9851   YZ=    14.0942   ZZ=    27.1215
   Eigenvalues:     0.5509    22.4237    33.1060
     90  Bq   Isotropic =    19.5667   Anisotropy =    25.9907
   XX=    23.4445   YX=     3.8671   ZX=    -2.5320
   XY=     6.0848   YY=     4.6515   ZY=     9.9366
   XZ=    -8.3757   YZ=    16.3683   ZZ=    30.6041
   Eigenvalues:    -2.5869    24.3932    36.8938
     91  Bq   Isotropic =    20.0083   Anisotropy =    31.3182
   XX=    24.3147   YX=     4.9385   ZX=    -2.6881
   XY=     7.6279   YY=     1.5081   ZY=    11.8655
   XZ=    -8.7059   YZ=    18.9017   ZZ=    34.2022
   Eigenvalues:    -6.6416    25.7795    40.8871
     92  Bq   Isotropic =    19.7920   Anisotropy =    37.7062
   XX=    24.1389   YX=     6.1258   ZX=    -2.8391
   XY=     9.3708   YY=    -2.4998   ZY=    14.0780
   XZ=    -8.9582   YZ=    21.6763   ZZ=    37.7369
   Eigenvalues:   -11.7352    26.1817    44.9294
     93  Bq   Isotropic =    18.6397   Anisotropy =    45.2214
   XX=    22.4212   YX=     7.4211   ZX=    -2.9832
   XY=    11.3150   YY=    -7.4648   ZY=    16.5556
   XZ=    -9.1095   YZ=    24.6583   ZZ=    40.9627
   Eigenvalues:   -17.9826    25.1144    48.7873
     94  Bq   Isotropic =    16.2248   Anisotropy =    53.8812
   XX=    18.5629   YX=     8.7826   ZX=    -3.1114
   XY=    13.4320   YY=   -13.4515   ZY=    19.2601
   XZ=    -9.1273   YZ=    27.7955   ZZ=    43.5631
   Eigenvalues:   -25.4719    22.0007    52.1457
     95  Bq   Isotropic =    12.1864   Anisotropy =    63.6448
   XX=    11.8744   YX=    10.0973   ZX=    -3.2005
   XY=    15.6260   YY=   -20.4696   ZY=    22.1309
   XZ=    -8.9627   YZ=    31.0146   ZZ=    45.1546
   Eigenvalues:   -34.2278    16.1708    54.6163
     96  Bq   Isotropic =     6.1727   Anisotropy =    74.3941
   XX=     1.6375   YX=    11.1229   ZX=    -3.2026
   XY=    17.6717   YY=   -28.4328   ZY=    25.0848
   XZ=    -8.5418   YZ=    34.2211   ZZ=    45.3136
   Eigenvalues:   -44.1458     6.8952    55.7688
     97  Bq   Isotropic =    -2.0499   Anisotropy =    85.8948
   XX=   -12.6981   YX=    11.4159   ZX=    -3.0360
   XY=    19.1363   YY=   -37.1066   ZY=    28.0223
   XZ=    -7.7599   YZ=    37.3093   ZZ=    43.6551
   Eigenvalues:   -54.8868    -6.4761    55.2134
     98  Bq   Isotropic =   -12.3730   Anisotropy =    97.7432
   XX=   -31.0706   YX=    10.2986   ZX=    -2.5890
   XY=    19.3349   YY=   -46.0657   ZY=    30.8495
   XZ=    -6.4982   YZ=    40.1943   ZZ=    40.0174
   Eigenvalues:   -65.7432   -24.1648    52.7891
     99  Bq   Isotropic =   -24.0021   Anisotropy =   109.3432
   XX=   -52.0849   YX=     6.9998   ZX=    -1.7717
   XY=    17.4427   YY=   -54.7123   ZY=    33.5286
   XZ=    -4.6954   YZ=    42.8755   ZZ=    34.7911
   Eigenvalues:   -75.5528   -45.3468    48.8934
    100  Bq   Isotropic =   -35.2055   Anisotropy =   119.9535
   XX=   -72.4012   YX=     1.1608   ZX=    -0.6515
   XY=    12.9388   YY=   -62.4391   ZY=    36.1244
   XZ=    -2.4979   YZ=    45.4790   ZZ=    29.2237
   Eigenvalues:   -82.8600   -67.5201    44.7635
    101  Bq   Isotropic =   -43.7309   Anisotropy =   128.6381
   XX=   -87.3167   YX=    -6.2512   ZX=     0.3628
   XY=     6.4314   YY=   -68.9383   ZY=    38.6847
   XZ=    -0.4336   YZ=    48.0928   ZZ=    25.0625
   Eigenvalues:   -87.3233   -85.8971    42.0279
    102  Bq   Isotropic =   -48.2807   Anisotropy =   133.9451
   XX=   -93.7746   YX=   -12.2396   ZX=     0.5397
   XY=     0.3438   YY=   -74.1012   ZY=    40.7403
   XZ=     0.6385   YZ=    50.1975   ZZ=    23.0337
   Eigenvalues:   -98.7417   -87.1164    41.0160
    103  Bq   Isotropic =   -49.8880   Anisotropy =   134.0966
   XX=   -94.4651   YX=   -13.8094   ZX=    -0.3474
   XY=    -2.8085   YY=   -76.7511   ZY=    40.9291
   XZ=     0.4012   YZ=    50.2552   ZZ=    21.5524
   Eigenvalues:  -102.3297   -86.8440    39.5098
    104  Bq   Isotropic =   -50.1896   Anisotropy =   128.6854
   XX=   -94.4249   YX=   -13.0380   ZX=    -1.0123
   XY=    -4.8097   YY=   -75.0136   ZY=    38.4437
   XZ=     0.1536   YZ=    47.2944   ZZ=    18.8697
   Eigenvalues:  -101.3724   -84.7971    35.6007
    105  Bq   Isotropic =   -48.1365   Anisotropy =   119.6521
   XX=   -91.5964   YX=   -14.4501   ZX=    -0.2512
   XY=    -9.1191   YY=   -69.4679   ZY=    34.6842
   XZ=     1.1912   YZ=    42.7902   ZZ=    16.6547
   Eigenvalues:   -99.7809   -76.2602    31.6316
    106  Bq   Isotropic =   -41.8393   Anisotropy =   109.3179
   XX=   -81.3426   YX=   -17.9496   ZX=     1.3841
   XY=   -14.8238   YY=   -61.9041   ZY=    31.3306
   XZ=     3.0357   YZ=    38.6359   ZZ=    17.7288
   Eigenvalues:   -94.6950   -61.8622    31.0393
    107  Bq   Isotropic =   -31.6327   Anisotropy =    98.8355
   XX=   -64.1929   YX=   -20.9797   ZX=     2.8567
   XY=   -19.2357   YY=   -53.1007   ZY=    28.7109
   XZ=     4.6878   YZ=    35.2963   ZZ=    22.3954
   Eigenvalues:   -84.7439   -44.4118    34.2576
    108  Bq   Isotropic =   -19.5367   Anisotropy =    88.5917
   XX=   -44.0414   YX=   -22.0905   ZX=     3.6688
   XY=   -21.1224   YY=   -43.5194   ZY=    26.4791
   XZ=     5.6703   YZ=    32.4616   ZZ=    28.9508
   Eigenvalues:   -71.5244   -26.6101    39.5245
    109  Bq   Isotropic =    -7.5759   Anisotropy =    78.8588
   XX=   -24.5511   YX=   -21.2180   ZX=     3.7989
   XY=   -20.6864   YY=   -33.7703   ZY=    24.3526
   XZ=     5.9751   YZ=    29.8331   ZZ=    35.5936
   Eigenvalues:   -57.1634   -10.5609    44.9966
    110  Bq   Isotropic =     3.0354   Anisotropy =    69.9200
   XX=    -7.7442   YX=   -18.9484   ZX=     3.4289
   XY=   -18.7206   YY=   -24.4495   ZY=    22.2641
   XZ=     5.7934   YZ=    27.3187   ZZ=    41.2998
   Eigenvalues:   -43.2692     2.7266    49.6487
    111  Bq   Isotropic =    11.8497   Anisotropy =    61.9861
   XX=     5.7963   YX=   -15.9322   ZX=     2.7586
   XY=   -16.0067   YY=   -15.9962   ZY=    20.2699
   XZ=     5.3318   YZ=    24.9579   ZZ=    45.7488
   Eigenvalues:   -30.7808    13.1561    53.1737
    112  Bq   Isotropic =    18.8666   Anisotropy =    55.1720
   XX=    16.2639   YX=   -12.6386   ZX=     1.9323
   XY=   -13.0868   YY=    -8.6695   ZY=    18.4585
   XZ=     4.7426   YZ=    22.8275   ZZ=    49.0055
   Eigenvalues:   -20.1336    21.0855    55.6480
    113  Bq   Isotropic =    24.2714   Anisotropy =    49.5228
   XX=    24.1208   YX=    -9.3336   ZX=     1.0334
   XY=   -10.2644   YY=    -2.5861   ZY=    16.9080
   XZ=     4.1192   YZ=    20.9937   ZZ=    51.2796
   Eigenvalues:   -11.4634    26.9910    57.2866
    114  Bq   Isotropic =    28.2895   Anisotropy =    45.0402
   XX=    29.8455   YX=    -6.1366   ZX=     0.1010
   XY=    -7.6778   YY=     2.2259   ZY=    15.6749
   XZ=     3.5127   YZ=    19.4995   ZZ=    52.7972
   Eigenvalues:    -4.7587    31.3110    58.3163
    115  Bq   Isotropic =    31.1232   Anisotropy =    41.7001
   XX=    33.8408   YX=    -3.0799   ZX=    -0.8540
   XY=    -5.3702   YY=     5.7824   ZY=    14.7958
   XZ=     2.9469   YZ=    18.3670   ZZ=    53.7464
   Eigenvalues:     0.0496    34.3968    58.9232
    116  Bq   Isotropic =    32.9276   Anisotropy =    39.4667
   XX=    36.4117   YX=    -0.1486   ZX=    -1.8374
   XY=    -3.3351   YY=     8.1099   ZY=    14.2933
   XZ=     2.4302   YZ=    17.6041   ZZ=    54.2611
   Eigenvalues:     3.0429    36.5011    59.2387
    117  Bq   Isotropic =    33.8008   Anisotropy =    38.3047
   XX=    37.7603   YX=     2.6964   ZX=    -2.8657
   XY=    -1.5434   YY=     9.2244   ZY=    14.1816
   XZ=     1.9613   YZ=    17.2103   ZZ=    54.4177
   Eigenvalues:     4.2939    37.7712    59.3373
    118  Bq   Isotropic =    33.7783   Anisotropy =    38.1878
   XX=    37.9833   YX=     5.5059   ZX=    -3.9635
   XY=     0.0423   YY=     9.1166   ZY=    14.4709
   XZ=     1.5344   YZ=    17.1790   ZZ=    54.2348
   Eigenvalues:     3.8539    38.2441    59.2368
    119  Bq   Isotropic =    32.8286   Anisotropy =    39.1033
   XX=    37.0689   YX=     8.3359   ZX=    -5.1611
   XY=     1.4569   YY=     7.7443   ZY=    15.1684
   XZ=     1.1421   YZ=    17.4991   ZZ=    53.6726
   Eigenvalues:     1.7400    37.8483    58.8974
    120  Bq   Isotropic =    30.8513   Anisotropy =    41.0532
   XX=    34.8938   YX=    11.2420   ZX=    -6.4940
   XY=     2.7240   YY=     5.0277   ZY=    16.2778
   XZ=     0.7770   YZ=    18.1532   ZZ=    52.6325
   Eigenvalues:    -2.0769    36.4108    58.2201
    121  Bq   Isotropic =    27.6756   Anisotropy =    44.0505
   XX=    31.2203   YX=    14.2737   ZX=    -8.0010
   XY=     3.8485   YY=     0.8503   ZY=    17.7936
   XZ=     0.4339   YZ=    19.1122   ZZ=    50.9561
   Eigenvalues:    -7.6764    33.6605    57.0426
    122  Bq   Isotropic =    23.0592   Anisotropy =    48.1117
   XX=    25.6877   YX=    17.4653   ZX=    -9.7220
   XY=     4.8100   YY=    -4.9351   ZY=    19.6915
   XZ=     0.1096   YZ=    20.3257   ZZ=    48.4250
   Eigenvalues:   -15.1798    29.2238    55.1336
    123  Bq   Isotropic =    16.6940   Anisotropy =    53.2467
   XX=    17.8018   YX=    20.8181   ZX=   -11.6909
   XY=     5.5582   YY=   -12.4900   ZY=    21.9078
   XZ=    -0.1965   YZ=    21.7029   ZZ=    44.7700
   Eigenvalues:   -24.7246    22.6148    52.1918
    124  Bq   Isotropic =     8.2374   Anisotropy =    59.4519
   XX=     6.9491   YX=    24.2680   ZX=   -13.9205
   XY=     6.0065   YY=   -21.9530   ZY=    24.3088
   XZ=    -0.4811   YZ=    23.0872   ZZ=    39.7160
   Eigenvalues:   -36.4077    13.2478    47.8720
    125  Bq   Isotropic =    -2.5787   Anisotropy =    66.7165
   XX=    -7.4846   YX=    27.6340   ZX=   -16.3679
[...]
   144  Bq   0.000000
   145  Bq   0.000000
   146  Bq   0.000000
   147  Bq   0.000000
   148  Bq   0.000000
   149  Bq   0.000000
   150  Bq   0.000000
   151  Bq   0.000000
   152  Bq   0.000000
   153  Bq   0.000000
   154  Bq   0.000000
   155  Bq   0.000000
   156  Bq   0.000000
   157  Bq   0.000000
   158  Bq   0.000000
   159  Bq   0.000000
   160  Bq   0.000000
   161  Bq   0.000000
   162  Bq   0.000000
   163  Bq   0.000000
   164  Bq   0.000000
   165  Bq   0.000000
   166  Bq   0.000000
   167  Bq   0.000000
   168  Bq   0.000000
   169  Bq   0.000000
   170  Bq   0.000000
   171  Bq   0.000000
   172  Bq   0.000000
   173  Bq   0.000000
   174  Bq   0.000000
   175  Bq   0.000000
   176  Bq   0.000000
   177  Bq   0.000000
   178  Bq   0.000000
   179  Bq   0.000000
   180  Bq   0.000000
   181  Bq   0.000000
   182  Bq   0.000000
   183  Bq   0.000000
   184  Bq   0.000000
   185  Bq   0.000000
   186  Bq   0.000000
   187  Bq   0.000000
   188  Bq   0.000000
   189  Bq   0.000000
   190  Bq   0.000000
   191  Bq   0.000000
   192  Bq   0.000000
   193  Bq   0.000000
   194  Bq   0.000000
   195  Bq   0.000000
   196  Bq   0.000000
   197  Bq   0.000000
   198  Bq   0.000000
   199  Bq   0.000000
   200  Bq   0.000000
   201  Bq   0.000000
   202  Bq   0.000000
   203  Bq   0.000000
   204  Bq   0.000000
   205  Bq   0.000000
   206  Bq   0.000000
   207  Bq   0.000000
   208  Bq   0.000000
   209  Bq   0.000000
   210  Bq   0.000000
   211  Bq   0.000000
   212  Bq   0.000000
   213  Bq   0.000000
   214  Bq   0.000000
   215  Bq   0.000000
   216  Bq   0.000000
   217  Bq   0.000000
   218  Bq   0.000000
   219  Bq   0.000000
   220  Bq   0.000000
   221  Bq   0.000000
   222  Bq   0.000000
   223  Bq   0.000000
   224  Bq   0.000000
   225  Bq   0.000000
   226  Bq   0.000000
   227  Bq   0.000000
   228  Bq   0.000000
   229  Bq   0.000000
   230  Bq   0.000000
   231  Bq   0.000000
   232  Bq   0.000000
   233  Bq   0.000000
   234  Bq   0.000000
   235  Bq   0.000000
   236  Bq   0.000000
 Sum of Mulliken charges =   0.00000
 Mulliken charges with hydrogens summed into heavy atoms:
               1
     1  C   -0.255498
     3  C    0.169409
     5  C    0.448258
     6  C    0.064351
     7  C   -0.333926
     9  C   -0.139521
    11  C   -0.322216
    13  C   -0.119315
    15  C    0.653397
    16  C    0.034822
    17  C   -0.317410
    19  C   -0.316854
    21  C    0.651066
    22  C    0.037784
    23  C   -0.117289
    25  C   -0.205316
    27  C    0.448331
    28  C    0.061983
    29  C   -0.333381
    31  C   -0.139505
    33  C   -0.255977
    35  C    0.170579
    37  Bq   0.000000
    38  Bq   0.000000
    39  Bq   0.000000
    40  Bq   0.000000
    41  Bq   0.000000
    42  Bq   0.116228
    43  Bq   0.000000
    44  Bq   0.000000
    45  Bq   0.000000
    46  Bq   0.000000
    47  Bq   0.000000
    48  Bq   0.000000
    49  Bq   0.000000
    50  Bq   0.000000
    51  Bq   0.000000
    52  Bq   0.000000
    53  Bq   0.000000
    54  Bq   0.000000
    55  Bq   0.000000
    56  Bq   0.000000
    57  Bq   0.000000
    58  Bq   0.000000
    59  Bq   0.000000
    60  Bq   0.000000
    61  Bq   0.000000
    62  Bq   0.000000
    63  Bq   0.000000
    64  Bq   0.000000
    65  Bq   0.000000
    66  Bq   0.000000
    67  Bq   0.000000
    68  Bq   0.000000
    69  Bq   0.000000
    70  Bq   0.000000
    71  Bq   0.000000
    72  Bq   0.000000
    73  Bq   0.000000
    74  Bq   0.000000
    75  Bq   0.000000
    76  Bq   0.000000
    77  Bq   0.000000
    78  Bq   0.000000
    79  Bq   0.000000
    80  Bq   0.000000
    81  Bq   0.000000
    82  Bq   0.000000
    83  Bq   0.000000
    84  Bq   0.000000
    85  Bq   0.000000
    86  Bq   0.000000
    87  Bq   0.000000
    88  Bq   0.000000
    89  Bq   0.000000
    90  Bq   0.000000
    91  Bq   0.000000
    92  Bq   0.000000
    93  Bq   0.000000
    94  Bq   0.000000
    95  Bq   0.000000
    96  Bq   0.000000
    97  Bq   0.000000
    98  Bq   0.000000
    99  Bq   0.000000
   100  Bq   0.000000
   101  Bq   0.000000
   102  Bq   0.000000
   103  Bq   0.000000
   104  Bq   0.000000
   105  Bq   0.000000
   106  Bq   0.000000
   107  Bq   0.000000
   108  Bq   0.000000
   109  Bq   0.000000
   110  Bq   0.000000
   111  Bq   0.000000
   112  Bq   0.000000
   113  Bq   0.000000
   114  Bq   0.000000
   115  Bq   0.000000
   116  Bq   0.000000
   117  Bq   0.000000
   118  Bq   0.000000
   119  Bq   0.000000
   120  Bq   0.000000
   121  Bq   0.000000
   122  Bq   0.000000
   123  Bq   0.000000
   124  Bq   0.000000
   125  Bq   0.000000
   126  Bq   0.000000
   127  Bq   0.000000
   128  Bq   0.000000
   129  Bq   0.000000
   130  Bq   0.000000
   131  Bq   0.000000
   132  Bq   0.000000
   133  Bq   0.000000
   134  Bq   0.000000
   135  Bq   0.000000
   136  Bq   0.000000
   137  Bq   0.000000
   138  Bq   0.000000
   139  Bq   0.000000
   140  Bq   0.000000
   141  Bq   0.000000
   142  Bq   0.000000
   143  Bq   0.000000
   144  Bq   0.000000
   145  Bq   0.000000
   146  Bq   0.000000
   147  Bq   0.000000
   148  Bq   0.000000
   149  Bq   0.000000
   150  Bq   0.000000
   151  Bq   0.000000
   152  Bq   0.000000
   153  Bq   0.000000
   154  Bq   0.000000
   155  Bq   0.000000
   156  Bq   0.000000
   157  Bq   0.000000
   158  Bq   0.000000
   159  Bq   0.000000
   160  Bq   0.000000
   161  Bq   0.000000
   162  Bq   0.000000
   163  Bq   0.000000
   164  Bq   0.000000
   165  Bq   0.000000
   166  Bq   0.000000
   167  Bq   0.000000
   168  Bq   0.000000
   169  Bq   0.000000
   170  Bq   0.000000
   171  Bq   0.000000
   172  Bq   0.000000
   173  Bq   0.000000
   174  Bq   0.000000
   175  Bq   0.000000
   176  Bq   0.000000
   177  Bq   0.000000
   178  Bq   0.000000
   179  Bq   0.000000
   180  Bq   0.000000
   181  Bq   0.000000
   182  Bq   0.000000
   183  Bq   0.000000
   184  Bq   0.000000
   185  Bq   0.000000
   186  Bq   0.000000
   187  Bq   0.000000
   188  Bq   0.000000
   189  Bq   0.000000
   190  Bq   0.000000
   191  Bq   0.000000
   192  Bq   0.000000
   193  Bq   0.000000
   194  Bq   0.000000
   195  Bq   0.000000
   196  Bq   0.000000
   197  Bq   0.000000
   198  Bq   0.000000
   199  Bq   0.000000
   200  Bq   0.000000
   201  Bq   0.000000
   202  Bq   0.000000
   203  Bq   0.000000
   204  Bq   0.000000
   205  Bq   0.000000
   206  Bq   0.000000
   207  Bq   0.000000
   208  Bq   0.000000
   209  Bq   0.000000
   210  Bq   0.000000
   211  Bq   0.000000
   212  Bq   0.000000
   213  Bq   0.000000
   214  Bq   0.000000
   215  Bq   0.000000
   216  Bq   0.000000
   217  Bq   0.000000
   218  Bq   0.000000
   219  Bq   0.000000
   220  Bq   0.000000
   221  Bq   0.000000
   222  Bq   0.000000
   223  Bq   0.000000
   224  Bq   0.000000
   225  Bq   0.000000
   226  Bq   0.000000
   227  Bq   0.000000
   228  Bq   0.000000
   229  Bq   0.000000
   230  Bq   0.000000
   231  Bq   0.000000
   232  Bq   0.000000
   233  Bq   0.000000
   234  Bq   0.000000
   235  Bq   0.000000
   236  Bq   0.000000
 Electronic spatial extent (au):  <R**2>=           5736.9264
 Charge=              0.0000 electrons
 Dipole moment (field-independent basis, Debye):
    X=              0.0475    Y=              0.0856    Z=              0.0029  Tot=              0.0979
 Quadrupole moment (field-independent basis, Debye-Ang):
   XX=           -113.7056   YY=           -113.9456   ZZ=           -133.2669
   XY=             -0.3834   XZ=              3.2102   YZ=             -1.1839
 Traceless Quadrupole moment (field-independent basis, Debye-Ang):
   XX=              6.6005   YY=              6.3604   ZZ=            -12.9609
   XY=             -0.3834   XZ=              3.2102   YZ=             -1.1839
 Octapole moment (field-independent basis, Debye-Ang**2):
  XXX=            -16.4668  YYY=            -16.1860  ZZZ=             -1.7007  XYY=              2.5576
  XXY=             -6.5650  XXZ=             13.6547  XZZ=             -8.9478  YZZ=            -17.7168
  YYZ=            -13.2941  XYZ=              8.8036
 Hexadecapole moment (field-independent basis, Debye-Ang**3):
 XXXX=          -3951.1638 YYYY=          -3112.2161 ZZZZ=           -504.8311 XXXY=            340.6935
 XXXZ=            156.4968 YYYX=            335.5625 YYYZ=            -87.0893 ZZZX=            120.2262
 ZZZY=           -108.7373 XXYY=          -1176.4844 XXZZ=           -856.7291 YYZZ=           -665.7275
 XXYZ=            -68.9016 YYXZ=             48.1602 ZZXY=            153.0375
 N-N= 1.610917615562D+03 E-N=-5.186891130729D+03  KE= 8.436329774448D+02
 1\1\GINC-MUHKA\SP\RB3LYP\6-311+G(d,p)\C22H14\YANNICK\19-Aug-2020\0\\# 
 rb3lyp/6-311+g** NMR geom=connectivity\\Title\\0,1\C,0,-4.0500558,-0.5
 771862,0.8136712\H,0,-5.0263804,-1.0082727,1.002476\C,0,-3.9381552,0.6
 617804,0.2400876\H,0,-4.8252424,1.233889,-0.0111295\C,0,-2.676841,1.24
 33246,0.0057578\C,0,-1.4974121,0.5051527,0.2848253\C,0,-1.6508332,-0.7
 338728,0.9404026\H,0,-0.7713646,-1.2730967,1.2633753\C,0,-2.8898548,-1
 .2624035,1.1994307\H,0,-2.9683706,-2.2124563,1.7152676\C,0,-2.5773185,
 2.5963696,-0.419293\H,0,-3.4870728,3.1412239,-0.6474055\C,0,-1.3741895
 ,3.2147896,-0.436403\H,0,-1.2997315,4.2742019,-0.6578144\C,0,-0.171948
 8,2.499409,-0.1734588\C,0,-0.2043917,1.1018437,0.0192689\C,0,1.0513491
 ,3.204256,-0.0676222\H,0,1.0427344,4.2819499,-0.1896997\C,0,2.1942091,
 2.5487446,0.2579577\H,0,3.1168527,3.0912848,0.4334727\C,0,2.2216473,1.
 1336562,0.293499\C,0,1.0486931,0.3945528,0.0302412\C,0,3.4483363,0.461
 4633,0.5573939\H,0,4.3095794,1.0606054,0.8334846\C,0,3.5427346,-0.8855
 926,0.4749463\H,0,4.4731467,-1.3939704,0.7038822\C,0,2.4490052,-1.6474
 447,-0.0196319\C,0,1.2150704,-1.0057258,-0.3013573\C,0,0.2531113,-1.74
 3444,-1.0216591\H,0,-0.6541356,-1.2535051,-1.3462847\C,0,0.4494193,-3.
 0628597,-1.3413779\H,0,-0.3083162,-3.5944309,-1.905406\C,0,1.6251726,-
 3.7207967,-0.9552541\H,0,1.7670048,-4.7687404,-1.1927019\C,0,2.6109872
 ,-3.0144177,-0.318305\H,0,3.5525612,-3.4902813,-0.0646367\Bq,0,-2.5554
 109029,2.9264863513,-0.4352916581\Bq,0,-2.5549244258,2.9749562673,-0.4
 475566728\Bq,0,-2.5544379487,3.0234261833,-0.4598216876\Bq,0,-2.553951
 4716,3.0718960992,-0.4720867023\Bq,0,-2.5534649945,3.1203660152,-0.484
 351717\Bq,0,-2.5529785174,3.1688359312,-0.4966167317\Bq,0,-2.552492040
 3,3.2173058471,-0.5088817464\Bq,0,-2.5520055632,3.2657757631,-0.521146
 7611\Bq,0,-2.551519086,3.3142456791,-0.5334117758\Bq,0,-2.5510326089,3
 .3627155951,-0.5456767906\Bq,0,-2.5505461318,3.411185511,-0.5579418053
 \Bq,0,-2.5500596547,3.459655427,-0.57020682\Bq,0,-2.5495731776,3.50812
 5343,-0.5824718347\Bq,0,-2.5490867005,3.5565952589,-0.5947368494\Bq,0,
 -2.5486002234,3.6050651749,-0.6070018641\Bq,0,-2.5481137463,3.65353509
 09,-0.6192668788\Bq,0,-2.5476272691,3.7020050068,-0.6315318936\Bq,0,-2
 .547140792,3.7504749228,-0.6437969083\Bq,0,-2.5466543149,3.7989448388,
 -0.656061923\Bq,0,-2.5461678378,3.8474147548,-0.6683269377\Bq,0,-2.545
 6813607,3.8958846707,-0.6805919524\Bq,0,-2.5451948836,3.9443545867,-0.
 6928569671\Bq,0,-2.5447084065,3.9928245027,-0.7051219818\Bq,0,-2.54422
 19294,4.0412944186,-0.7173869965\Bq,0,-2.5437354523,4.0897643346,-0.72
 96520113\Bq,0,-2.5432489751,4.1382342506,-0.741917026\Bq,0,-2.54276249
 8,4.1867041665,-0.7541820407\Bq,0,-2.5422760209,4.2351740825,-0.766447
 0554\Bq,0,-2.5417895438,4.2836439985,-0.7787120701\Bq,0,-2.5404765391,
 -0.5633475985,0.4497710332\Bq,0,-2.539990062,-0.5148776825,0.437506018
 5\Bq,0,-2.5395035849,-0.4664077665,0.4252410037\Bq,0,-2.5390171078,-0.
 4179378506,0.412975989\Bq,0,-2.5385306307,-0.3694679346,0.4007109743\B
 q,0,-2.5380441535,-0.3209980186,0.3884459596\Bq,0,-2.5375576764,-0.272
 5281027,0.3761809449\Bq,0,-2.5370711993,-0.2240581867,0.3639159302\Bq,
 0,-2.5365847222,-0.1755882707,0.3516509155\Bq,0,-2.5360982451,-0.12711
 83548,0.3393859008\Bq,0,-2.535611768,-0.0786484388,0.327120886\Bq,0,-2
 .5351252909,-0.0301785228,0.3148558713\Bq,0,-2.5346388138,0.0182913932
 ,0.3025908566\Bq,0,-2.5341523366,0.0667613091,0.2903258419\Bq,0,-2.533
 6658595,0.1152312251,0.2780608272\Bq,0,-2.5331793824,0.1637011411,0.26
 57958125\Bq,0,-2.5326929053,0.212171057,0.2535307978\Bq,0,-2.532206428
 2,0.260640973,0.241265783\Bq,0,-2.5317199511,0.309110889,0.2290007683\
 Bq,0,-2.531233474,0.3575808049,0.2167357536\Bq,0,-2.5307469969,0.40605
 07209,0.2044707389\Bq,0,-2.5302605197,0.4545206369,0.1922057242\Bq,0,-
 2.5297740426,0.5029905529,0.1799407095\Bq,0,-2.5292875655,0.5514604688
 ,0.1676756948\Bq,0,-2.5288010884,0.5999303848,0.15541068\Bq,0,-2.52831
 46113,0.6484003008,0.1431456653\Bq,0,-2.5278281342,0.6968702167,0.1308
 806506\Bq,0,-2.5273416571,0.7453401327,0.1186156359\Bq,0,-2.52685518,0
 .7938100487,0.1063506212\Bq,0,-2.5263687029,0.8422799646,0.0940856065\
 Bq,0,-2.5258822257,0.8907498806,0.0818205918\Bq,0,-2.5253957486,0.9392
 197966,0.0695555771\Bq,0,-2.5249092715,0.9876897125,0.0572905623\Bq,0,
 -2.5244227944,1.0361596285,0.0450255476\Bq,0,-2.5239363173,1.084629544
 5,0.0327605329\Bq,0,-2.5234498402,1.1330994605,0.0204955182\Bq,0,-2.52
 29633631,1.1815693764,0.0082305035\Bq,0,-2.522476886,1.2300392924,-0.0
 040345112\Bq,0,-2.5219904088,1.2785092084,-0.0162995259\Bq,0,-2.521503
 9317,1.3269791243,-0.0285645407\Bq,0,-2.5210174546,1.3754490403,-0.040
 8295554\Bq,0,-2.5205309775,1.4239189563,-0.0530945701\Bq,0,-2.52004450
 04,1.4723888722,-0.0653595848\Bq,0,-2.5195580233,1.5208587882,-0.07762
 45995\Bq,0,-2.5190715462,1.5693287042,-0.0898896142\Bq,0,-2.5185850691
 ,1.6177986202,-0.1021546289\Bq,0,-2.5180985919,1.6662685361,-0.1144196
 437\Bq,0,-2.5176121148,1.7147384521,-0.1266846584\Bq,0,-2.5171256377,1
 .7632083681,-0.1389496731\Bq,0,-2.5166391606,1.811678284,-0.1512146878
 \Bq,0,-2.5161526835,1.8601482,-0.1634797025\Bq,0,-2.5156662064,1.90861
 8116,-0.1757447172\Bq,0,-2.5151797293,1.9570880319,-0.1880097319\Bq,0,
 -2.5146932522,2.0055579479,-0.2002747466\Bq,0,-2.514206775,2.054027863
 9,-0.2125397614\Bq,0,-2.5137202979,2.1024977798,-0.2248047761\Bq,0,-2.
 5132338208,2.1509676958,-0.2370697908\Bq,0,-2.5127473437,2.1994376118,
 -0.2493348055\Bq,0,-2.5122608666,2.2479075278,-0.2615998202\Bq,0,-2.51
 17743895,2.2963774437,-0.2738648349\Bq,0,-2.5112879124,2.3448473597,-0
 .2861298496\Bq,0,-2.5108014353,2.3933172757,-0.2983948644\Bq,0,-2.5103
 149581,2.4417871916,-0.3106598791\Bq,0,-2.509828481,2.4902571076,-0.32
 29248938\Bq,0,-2.5093420039,2.5387270236,-0.3351899085\Bq,0,-2.5088555
 268,2.5871969395,-0.3474549232\Bq,0,-2.5083690497,2.6356668555,-0.3597
 199379\Bq,0,-2.5078825726,2.6841367715,-0.3719849526\Bq,0,-2.507396095
 5,2.7326066875,-0.3842499673\Bq,0,-2.5069096184,2.7810766034,-0.396514
 9821\Bq,0,-2.5064231413,2.8295465194,-0.4087799968\Bq,0,-2.5059366641,
 2.8780164354,-0.4210450115\Bq,0,-2.505450187,2.9264863513,-0.433310026
 2\Bq,0,-2.5049637099,2.9749562673,-0.4455750409\Bq,0,-2.5044772328,3.0
 234261833,-0.4578400556\Bq,0,-2.5039907557,3.0718960992,-0.4701050703\
 Bq,0,-2.5035042786,3.1203660152,-0.4823700851\Bq,0,-2.5030178015,3.168
 8359312,-0.4946350998\Bq,0,-2.5025313244,3.2173058471,-0.5069001145\Bq
 ,0,-2.5020448472,3.2657757631,-0.5191651292\Bq,0,-2.5015583701,3.31424
 56791,-0.5314301439\Bq,0,-2.501071893,3.3627155951,-0.5436951586\Bq,0,
 -2.5005854159,3.411185511,-0.5559601733\Bq,0,-2.5000989388,3.459655427
 ,-0.5682251881\Bq,0,-2.4996124617,3.508125343,-0.5804902028\Bq,0,-2.49
 91259846,3.5565952589,-0.5927552175\Bq,0,-2.4986395075,3.6050651749,-0
 .6050202322\Bq,0,-2.4981530303,3.6535350909,-0.6172852469\Bq,0,-2.4976
 665532,3.7020050068,-0.6295502616\Bq,0,-2.4971800761,3.7504749228,-0.6
 418152763\Bq,0,-2.496693599,3.7989448388,-0.654080291\Bq,0,-2.49620712
 19,3.8474147548,-0.6663453058\Bq,0,-2.4957206448,3.8958846707,-0.67861
 03205\Bq,0,-2.4952341677,3.9443545867,-0.6908753352\Bq,0,-2.4947476906
 ,3.9928245027,-0.7031403499\Bq,0,-2.4942612134,4.0412944186,-0.7154053
 646\Bq,0,-2.4937747363,4.0897643346,-0.7276703793\Bq,0,-2.4932882592,4
 .1382342506,-0.739935394\Bq,0,-2.4928017821,4.1867041665,-0.7522004088
 \Bq,0,-2.492315305,4.2351740825,-0.7644654235\Bq,0,-2.4918288279,4.283
 6439985,-0.7767304382\Bq,0,-2.4905158232,-0.5633475985,0.4517526651\Bq
 ,0,-2.4900293461,-0.5148776825,0.4394876504\Bq,0,-2.489542869,-0.46640
 77665,0.4272226357\Bq,0,-2.4890563919,-0.4179378506,0.414957621\Bq,0,-
 2.4885699147,-0.3694679346,0.4026926063\Bq,0,-2.4880834376,-0.32099801
 86,0.3904275915\Bq,0,-2.4875969605,-0.2725281027,0.3781625768\Bq,0,-2.
 4871104834,-0.2240581867,0.3658975621\Bq,0,-2.4866240063,-0.1755882707
 ,0.3536325474\Bq,0,-2.4861375292,-0.1271183548,0.3413675327\Bq,0,-2.48
 56510521,-0.0786484388,0.329102518\Bq,0,-2.485164575,-0.0301785228,0.3
 168375033\Bq,0,-2.4846780978,0.0182913932,0.3045724885\Bq,0,-2.4841916
 207,0.0667613091,0.2923074738\Bq,0,-2.4837051436,0.1152312251,0.280042
 4591\Bq,0,-2.4832186665,0.1637011411,0.2677774444\Bq,0,-2.4827321894,0
 .212171057,0.2555124297\Bq,0,-2.4822457123,0.260640973,0.243247415\Bq,
 0,-2.4817592352,0.309110889,0.2309824003\Bq,0,-2.4812727581,0.35758080
 49,0.2187173855\Bq,0,-2.4807862809,0.4060507209,0.2064523708\Bq,0,-2.4
 802998038,0.4545206369,0.1941873561\Bq,0,-2.4798133267,0.5029905529,0.
 1819223414\Bq,0,-2.4793268496,0.5514604688,0.1696573267\Bq,0,-2.478840
 3725,0.5999303848,0.157392312\Bq,0,-2.4783538954,0.6484003008,0.145127
 2973\Bq,0,-2.4778674183,0.6968702167,0.1328622826\Bq,0,-2.4773809412,0
 .7453401327,0.1205972678\Bq,0,-2.476894464,0.7938100487,0.1083322531\B
 q,0,-2.4764079869,0.8422799646,0.0960672384\Bq,0,-2.4759215098,0.89074
 98806,0.0838022237\Bq,0,-2.4754350327,0.9392197966,0.071537209\Bq,0,-2
 .4749485556,0.9876897125,0.0592721943\Bq,0,-2.4744620785,1.0361596285,
 0.0470071796\Bq,0,-2.4739756014,1.0846295445,0.0347421648\Bq,0,-2.4734
 891243,1.1330994605,0.0224771501\Bq,0,-2.4730026472,1.1815693764,0.010
 2121354\Bq,0,-2.47251617,1.2300392924,-0.0020528793\Bq,0,-2.4720296929
 ,1.2785092084,-0.014317894\Bq,0,-2.4715432158,1.3269791243,-0.02658290
 87\Bq,0,-2.4710567387,1.3754490403,-0.0388479234\Bq,0,-2.4705702616,1.
 4239189563,-0.0511129382\Bq,0,-2.4700837845,1.4723888722,-0.0633779529
 \Bq,0,-2.4695973074,1.5208587882,-0.0756429676\Bq,0,-2.4691108303,1.56
 93287042,-0.0879079823\Bq,0,-2.4686243531,1.6177986202,-0.100172997\Bq
 ,0,-2.468137876,1.6662685361,-0.1124380117\Bq,0,-2.4676513989,1.714738
 4521,-0.1247030264\Bq,0,-2.4671649218,1.7632083681,-0.1369680411\Bq,0,
 -2.4666784447,1.811678284,-0.1492330559\Bq,0,-2.4661919676,1.8601482,-
 0.1614980706\Bq,0,-2.4657054905,1.908618116,-0.1737630853\Bq,0,-2.4652
 190134,1.9570880319,-0.1860281\Bq,0,-2.4647325362,2.0055579479,-0.1982
 931147\Bq,0,-2.4642460591,2.0540278639,-0.2105581294\Bq,0,-2.463759582
 ,2.1024977798,-0.2228231441\Bq,0,-2.4632731049,2.1509676958,-0.2350881
 589\Bq,0,-2.4627866278,2.1994376118,-0.2473531736\Bq,0,-2.4623001507,2
 .2479075278,-0.2596181883\Bq,0,-2.4618136736,2.2963774437,-0.271883203
 \Bq,0,-2.4613271965,2.3448473597,-0.2841482177\Bq,0,-2.4608407193,2.39
 33172757,-0.2964132324\Bq,0,-2.4603542422,2.4417871916,-0.3086782471\B
 q,0,-2.4598677651,2.4902571076,-0.3209432618\Bq,0,-2.459381288,2.53872
 70236,-0.3332082766\Bq,0,-2.4588948109,2.5871969395,-0.3454732913\Bq,0
 ,-2.4584083338,2.6356668555,-0.357738306\Bq,0,-2.4579218567,2.68413677
 15,-0.3700033207\Bq,0,-2.4574353796,2.7326066875,-0.3822683354\Bq,0,-2
 .4569489024,2.7810766034,-0.3945333501\\Version=ES64L-G09RevD.01\HF=-8
 47.0032898\RMSD=7.462e-09\Dipole=0.0186808,0.0336671,0.0011595\Quadrup
 ole=4.9072795,4.7288219,-9.6361014,-0.2850201,2.3867064,-0.880172\PG=C
 01 [X(C22H14)]\\@


 WHERE THERE IS MUCH DESIRE TO LEARN, THERE OF NECESSITY WILL BE
 MUCH ARGUING, MUCH WRITING, MANY OPINIONS; FOR OPINION IN GOOD MEN
 IS BUT KNOWLEDGE IN THE MAKING. -- JOHN MILTON.
 Job cpu time:       0 days  5 hours 48 minutes  2.1 seconds.
 File lengths (MBytes):  RWF=    184 Int=      0 D2E=      0 Chk=     19 Scr=      1
 Normal termination of Gaussian 09 at Wed Aug 19 22:24:08 2020.

real	44m26.698s
user	347m56.994s
sys	0m5.215s
