 Entering Gaussian System, Link 0=g16
 Initial command:
 /share/programs/G16_SLATER/g16/l1.exe "/scratch/aartigas.27126/Gau-16728.inp" -scrdir="/scratch/aartigas.27126/"
 Entering Link 1 = /share/programs/G16_SLATER/g16/l1.exe PID=     16729.
  
 Copyright (c) 1988,1990,1992,1993,1995,1998,2003,2009,2016,
            Gaussian, Inc.  All Rights Reserved.
  
 This is part of the Gaussian(R) 16 program.  It is based on
 the Gaussian(R) 09 system (copyright 2009, Gaussian, Inc.),
 the Gaussian(R) 03 system (copyright 2003, Gaussian, Inc.),
 the Gaussian(R) 98 system (copyright 1998, Gaussian, Inc.),
 the Gaussian(R) 94 system (copyright 1995, Gaussian, Inc.),
 the Gaussian 92(TM) system (copyright 1992, Gaussian, Inc.),
 the Gaussian 90(TM) system (copyright 1990, Gaussian, Inc.),
 the Gaussian 88(TM) system (copyright 1988, Gaussian, Inc.),
 the Gaussian 86(TM) system (copyright 1986, Carnegie Mellon
 University), and the Gaussian 82(TM) system (copyright 1983,
 Carnegie Mellon University). Gaussian is a federally registered
 trademark of Gaussian, Inc.
  
 This software contains proprietary and confidential information,
 including trade secrets, belonging to Gaussian, Inc.
  
 This software is provided under written license and may be
 used, copied, transmitted, or stored only in accord with that
 written license.
  
 The following legend is applicable only to US Government
 contracts under FAR:
  
                    RESTRICTED RIGHTS LEGEND
  
 Use, reproduction and disclosure by the US Government is
 subject to restrictions as set forth in subparagraphs (a)
 and (c) of the Commercial Computer Software - Restricted
 Rights clause in FAR 52.227-19.
  
 Gaussian, Inc.
 340 Quinnipiac St., Bldg. 40, Wallingford CT 06492
  
  
 ---------------------------------------------------------------
 Warning -- This program may not be used in any manner that
 competes with the business of Gaussian, Inc. or will provide
 assistance to any competitor of Gaussian, Inc.  The licensee
 of this program is prohibited from giving any competitor of
 Gaussian, Inc. access to this program.  By using this program,
 the user acknowledges that Gaussian, Inc. is engaged in the
 business of creating and licensing software in the field of
 computational chemistry and represents and warrants to the
 licensee that it is not a competitor of Gaussian, Inc. and that
 it will not use this program in any manner prohibited above.
 ---------------------------------------------------------------
  

 Cite this work as:
 Gaussian 16, Revision A.03,
 M. J. Frisch, G. W. Trucks, H. B. Schlegel, G. E. Scuseria, 
 M. A. Robb, J. R. Cheeseman, G. Scalmani, V. Barone, 
 G. A. Petersson, H. Nakatsuji, X. Li, M. Caricato, A. V. Marenich, 
 J. Bloino, B. G. Janesko, R. Gomperts, B. Mennucci, H. P. Hratchian, 
 J. V. Ortiz, A. F. Izmaylov, J. L. Sonnenberg, D. Williams-Young, 
 F. Ding, F. Lipparini, F. Egidi, J. Goings, B. Peng, A. Petrone, 
 T. Henderson, D. Ranasinghe, V. G. Zakrzewski, J. Gao, N. Rega, 
 G. Zheng, W. Liang, M. Hada, M. Ehara, K. Toyota, R. Fukuda, 
 J. Hasegawa, M. Ishida, T. Nakajima, Y. Honda, O. Kitao, H. Nakai, 
 T. Vreven, K. Throssell, J. A. Montgomery, Jr., J. E. Peralta, 
 F. Ogliaro, M. J. Bearpark, J. J. Heyd, E. N. Brothers, K. N. Kudin, 
 V. N. Staroverov, T. A. Keith, R. Kobayashi, J. Normand, 
 K. Raghavachari, A. P. Rendell, J. C. Burant, S. S. Iyengar, 
 J. Tomasi, M. Cossi, J. M. Millam, M. Klene, C. Adamo, R. Cammi, 
 J. W. Ochterski, R. L. Martin, K. Morokuma, O. Farkas, 
 J. B. Foresman, and D. J. Fox, Gaussian, Inc., Wallingford CT, 2016.
 
 ******************************************
 Gaussian 16:  ES64L-G16RevA.03 25-Dec-2016
                 5-Aug-2020 
 ******************************************
 %nproc=8
 Will use up to    8 processors via shared memory.
 ----------------------
 # rb3lyp/6-311+g** NMR
 ----------------------
 1/38=1,172=1/1;
 2/12=2,17=6,18=5,40=1/2;
 3/5=4,6=6,7=111,11=2,25=1,30=1,74=-5,116=1/1,2,3,8;
 4//1;
 5/5=2,38=5/2;
 8/6=1,10=90,11=11/1;
 10/13=100,45=16/2;
 6/7=2,8=2,9=2,10=2,28=1/1;
 99/9=1/99;
 -----
 Title
 -----
 Symbolic Z-matrix:
 Charge =  0 Multiplicity = 1
 C                    -4.05006  -0.57719   0.81367 
 H                    -5.02638  -1.00827   1.00248 
 C                    -3.93816   0.66178   0.24009 
 H                    -4.82524   1.23389  -0.01113 
 C                    -2.67684   1.24332   0.00576 
 C                    -1.49741   0.50515   0.28483 
 C                    -1.65083  -0.73387   0.9404 
 H                    -0.77136  -1.2731    1.26338 
 C                    -2.88985  -1.2624    1.19943 
 H                    -2.96837  -2.21246   1.71527 
 C                    -2.57732   2.59637  -0.41929 
 H                    -3.48707   3.14122  -0.64741 
 C                    -1.37419   3.21479  -0.4364 
 H                    -1.29973   4.2742   -0.65781 
 C                    -0.17195   2.49941  -0.17346 
 C                    -0.20439   1.10184   0.01927 
 C                     1.05135   3.20426  -0.06762 
 H                     1.04273   4.28195  -0.1897 
 C                     2.19421   2.54874   0.25796 
 H                     3.11685   3.09128   0.43347 
 C                     2.22165   1.13366   0.2935 
 C                     1.04869   0.39455   0.03024 
 C                     3.44834   0.46146   0.55739 
 H                     4.30958   1.06061   0.83348 
 C                     3.54273  -0.88559   0.47495 
 H                     4.47315  -1.39397   0.70388 
 C                     2.44901  -1.64744  -0.01963 
 C                     1.21507  -1.00573  -0.30136 
 C                     0.25311  -1.74344  -1.02166 
 H                    -0.65414  -1.25351  -1.34628 
 C                     0.44942  -3.06286  -1.34138 
 H                    -0.30832  -3.59443  -1.90541 
 C                     1.62517  -3.7208   -0.95525 
 H                     1.767    -4.76874  -1.1927 
 C                     2.61099  -3.01442  -0.31831 
 H                     3.55256  -3.49028  -0.06464 
 Bq                    1.43379  -2.36578  -0.6596 
 Bq                   -0.96588  -5.04176  -1.42162 
 Bq                   -1.02092  -4.5598   -1.30045 
 Bq                   -1.07595  -4.07783  -1.17928 
 Bq                   -1.13098  -3.59587  -1.05812 
 Bq                   -1.18601  -3.1139   -0.93695 
 Bq                   -1.24105  -2.63194  -0.81578 
 Bq                   -1.29608  -2.14997  -0.69462 
 Bq                   -1.35111  -1.66801  -0.57345 
 Bq                   -1.40614  -1.18604  -0.45229 
 Bq                   -1.46117  -0.70408  -0.33112 
 Bq                   -0.51064  -5.04176  -1.21485 
 Bq                   -0.56567  -4.5598   -1.09368 
 Bq                   -0.6207   -4.07783  -0.97252 
 Bq                   -0.67574  -3.59587  -0.85135 
 Bq                   -0.73077  -3.1139   -0.73018 
 Bq                   -0.7858   -2.63194  -0.60902 
 Bq                   -0.84083  -2.14997  -0.48785 
 Bq                   -0.89587  -1.66801  -0.36669 
 Bq                   -0.9509   -1.18604  -0.24552 
 Bq                   -1.00593  -0.70408  -0.12435 
 Bq                   -0.05539  -5.04176  -1.00808 
 Bq                   -0.11043  -4.5598   -0.88692 
 Bq                   -0.16546  -4.07783  -0.76575 
 Bq                   -0.22049  -3.59587  -0.64458 
 Bq                   -0.27552  -3.1139   -0.52342 
 Bq                   -0.33056  -2.63194  -0.40225 
 Bq                   -0.38559  -2.14997  -0.28108 
 Bq                   -0.44062  -1.66801  -0.15992 
 Bq                   -0.49565  -1.18604  -0.03875 
 Bq                   -0.55069  -0.70408   0.08241 
 Bq                    0.39985  -5.04176  -0.80132 
 Bq                    0.34482  -4.5598   -0.68015 
 Bq                    0.28979  -4.07783  -0.55898 
 Bq                    0.23475  -3.59587  -0.43782 
 Bq                    0.17972  -3.1139   -0.31665 
 Bq                    0.12469  -2.63194  -0.19548 
 Bq                    0.06966  -2.14997  -0.07432 
 Bq                    0.01462  -1.66801   0.04685 
 Bq                   -0.04041  -1.18604   0.16801 
 Bq                   -0.09544  -0.70408   0.28918 
 Bq                    0.85509  -5.04176  -0.59455 
 Bq                    0.80006  -4.5598   -0.47338 
 Bq                    0.74503  -4.07783  -0.35222 
 Bq                    0.69     -3.59587  -0.23105 
 Bq                    0.63496  -3.1139   -0.10988 
 Bq                    0.57993  -2.63194   0.01128 
 Bq                    0.5249   -2.14997   0.13245 
 Bq                    0.46987  -1.66801   0.25362 
 Bq                    0.41484  -1.18604   0.37478 
 Bq                    0.3598   -0.70408   0.49595 
 Bq                    1.31034  -5.04176  -0.38778 
 Bq                    1.25531  -4.5598   -0.26662 
 Bq                    1.20027  -4.07783  -0.14545 
 Bq                    1.14524  -3.59587  -0.02428 
 Bq                    1.09021  -3.1139    0.09688 
 Bq                    1.03518  -2.63194   0.21805 
 Bq                    0.98014  -2.14997   0.33922 
 Bq                    0.92511  -1.66801   0.46038 
 Bq                    0.87008  -1.18604   0.58155 
 Bq                    0.81505  -0.70408   0.70271 
 Bq                    1.76558  -5.04176  -0.18101 
 Bq                    1.71055  -4.5598   -0.05985 
 Bq                    1.65552  -4.07783   0.06132 
 Bq                    1.60049  -3.59587   0.18248 
 Bq                    1.54545  -3.1139    0.30365 
 Bq                    1.49042  -2.63194   0.42482 
 Bq                    1.43539  -2.14997   0.54598 
 Bq                    1.38036  -1.66801   0.66715 
 Bq                    1.32532  -1.18604   0.78832 
 Bq                    1.27029  -0.70408   0.90948 
 Bq                    2.22083  -5.04176   0.02575 
 Bq                    2.16579  -4.5598    0.14692 
 Bq                    2.11076  -4.07783   0.26808 
 Bq                    2.05573  -3.59587   0.38925 
 Bq                    2.0007   -3.1139    0.51042 
 Bq                    1.94567  -2.63194   0.63158 
 Bq                    1.89063  -2.14997   0.75275 
 Bq                    1.8356   -1.66801   0.87392 
 Bq                    1.78057  -1.18604   0.99508 
 Bq                    1.72554  -0.70408   1.11625 
 Bq                    2.67607  -5.04176   0.23252 
 Bq                    2.62104  -4.5598    0.35369 
 Bq                    2.56601  -4.07783   0.47485 
 Bq                    2.51097  -3.59587   0.59602 
 Bq                    2.45594  -3.1139    0.71718 
 Bq                    2.40091  -2.63194   0.83835 
 Bq                    2.34588  -2.14997   0.95952 
 Bq                    2.29085  -1.66801   1.08068 
 Bq                    2.23581  -1.18604   1.20185 
 Bq                    2.18078  -0.70408   1.32302 
 Bq                    3.13132  -5.04176   0.43929 
 Bq                    3.07628  -4.5598    0.56045 
 Bq                    3.02125  -4.07783   0.68162 
 Bq                    2.96622  -3.59587   0.80278 
 Bq                    2.91119  -3.1139    0.92395 
 Bq                    2.85615  -2.63194   1.04512 
 Bq                    2.80112  -2.14997   1.16628 
 Bq                    2.74609  -1.66801   1.28745 
 Bq                    2.69106  -1.18604   1.40862 
 Bq                    2.63602  -0.70408   1.52978 
 
 Symmetry turned off:
 Cannot cope with ghost atoms or with translation vectors.
 Stoichiometry    C22H14
 Framework group  C1[X(C22H14)]
 NumDoF:  NAt=    36 NAtoms=   137
 Deg. of freedom     0
 Full point group                 C1      NOp   1
                          Input orientation:                          
 ---------------------------------------------------------------------
 Center     Atomic      Atomic             Coordinates (Angstroms)
 Number     Number       Type             X           Y           Z
 ---------------------------------------------------------------------
      1          6           0       -4.050056   -0.577186    0.813671
      2          1           0       -5.026380   -1.008273    1.002476
      3          6           0       -3.938155    0.661780    0.240088
      4          1           0       -4.825242    1.233889   -0.011130
      5          6           0       -2.676841    1.243325    0.005758
      6          6           0       -1.497412    0.505153    0.284825
      7          6           0       -1.650833   -0.733873    0.940403
      8          1           0       -0.771365   -1.273097    1.263375
      9          6           0       -2.889855   -1.262404    1.199431
     10          1           0       -2.968371   -2.212456    1.715268
     11          6           0       -2.577319    2.596370   -0.419293
     12          1           0       -3.487073    3.141224   -0.647406
     13          6           0       -1.374190    3.214790   -0.436403
     14          1           0       -1.299732    4.274202   -0.657814
     15          6           0       -0.171949    2.499409   -0.173459
     16          6           0       -0.204392    1.101844    0.019269
     17          6           0        1.051349    3.204256   -0.067622
     18          1           0        1.042734    4.281950   -0.189700
     19          6           0        2.194209    2.548745    0.257958
     20          1           0        3.116853    3.091285    0.433473
     21          6           0        2.221647    1.133656    0.293499
     22          6           0        1.048693    0.394553    0.030241
     23          6           0        3.448336    0.461463    0.557394
     24          1           0        4.309579    1.060605    0.833485
     25          6           0        3.542735   -0.885593    0.474946
     26          1           0        4.473147   -1.393970    0.703882
     27          6           0        2.449005   -1.647445   -0.019632
     28          6           0        1.215070   -1.005726   -0.301357
     29          6           0        0.253111   -1.743444   -1.021659
     30          1           0       -0.654136   -1.253505   -1.346285
     31          6           0        0.449419   -3.062860   -1.341378
     32          1           0       -0.308316   -3.594431   -1.905406
     33          6           0        1.625173   -3.720797   -0.955254
     34          1           0        1.767005   -4.768740   -1.192702
     35          6           0        2.610987   -3.014418   -0.318305
     36          1           0        3.552561   -3.490281   -0.064637
     37          0           0        1.433794   -2.365781   -0.659598
     38          0           0       -0.965883   -5.041763   -1.421616
     39          0           0       -1.020916   -4.559798   -1.300450
     40          0           0       -1.075948   -4.077833   -1.179284
     41          0           0       -1.130980   -3.595868   -1.058117
     42          0           0       -1.186013   -3.113903   -0.936951
     43          0           0       -1.241045   -2.631938   -0.815785
     44          0           0       -1.296078   -2.149973   -0.694619
     45          0           0       -1.351110   -1.668008   -0.573452
     46          0           0       -1.406142   -1.186043   -0.452286
     47          0           0       -1.461175   -0.704078   -0.331120
     48          0           0       -0.510639   -5.041763   -1.214849
     49          0           0       -0.565671   -4.559798   -1.093683
     50          0           0       -0.620704   -4.077833   -0.972517
     51          0           0       -0.675736   -3.595868   -0.851351
     52          0           0       -0.730768   -3.113903   -0.730184
     53          0           0       -0.785801   -2.631938   -0.609018
     54          0           0       -0.840833   -2.149973   -0.487852
     55          0           0       -0.895866   -1.668008   -0.366686
     56          0           0       -0.950898   -1.186043   -0.245519
     57          0           0       -1.005930   -0.704078   -0.124353
     58          0           0       -0.055395   -5.041763   -1.008082
     59          0           0       -0.110427   -4.559798   -0.886916
     60          0           0       -0.165459   -4.077833   -0.765750
     61          0           0       -0.220492   -3.595868   -0.644584
     62          0           0       -0.275524   -3.113903   -0.523417
     63          0           0       -0.330556   -2.631938   -0.402251
     64          0           0       -0.385589   -2.149973   -0.281085
     65          0           0       -0.440621   -1.668008   -0.159919
     66          0           0       -0.495654   -1.186043   -0.038752
     67          0           0       -0.550686   -0.704078    0.082414
     68          0           0        0.399850   -5.041763   -0.801315
     69          0           0        0.344817   -4.559798   -0.680149
     70          0           0        0.289785   -4.077833   -0.558983
     71          0           0        0.234753   -3.595868   -0.437817
     72          0           0        0.179720   -3.113903   -0.316650
     73          0           0        0.124688   -2.631938   -0.195484
     74          0           0        0.069656   -2.149973   -0.074318
     75          0           0        0.014623   -1.668008    0.046848
     76          0           0       -0.040409   -1.186043    0.168015
     77          0           0       -0.095442   -0.704078    0.289181
     78          0           0        0.855094   -5.041763   -0.594549
     79          0           0        0.800062   -4.559798   -0.473382
     80          0           0        0.745029   -4.077833   -0.352216
     81          0           0        0.689997   -3.595868   -0.231050
     82          0           0        0.634965   -3.113903   -0.109883
     83          0           0        0.579932   -2.631938    0.011283
     84          0           0        0.524900   -2.149973    0.132449
     85          0           0        0.469868   -1.668008    0.253615
     86          0           0        0.414835   -1.186043    0.374782
     87          0           0        0.359803   -0.704078    0.495948
     88          0           0        1.310339   -5.041763   -0.387782
     89          0           0        1.255306   -4.559798   -0.266615
     90          0           0        1.200274   -4.077833   -0.145449
     91          0           0        1.145241   -3.595868   -0.024283
     92          0           0        1.090209   -3.113903    0.096883
     93          0           0        1.035177   -2.631938    0.218050
     94          0           0        0.980144   -2.149973    0.339216
     95          0           0        0.925112   -1.668008    0.460382
     96          0           0        0.870080   -1.186043    0.581548
     97          0           0        0.815047   -0.704078    0.702715
     98          0           0        1.765583   -5.041763   -0.181015
     99          0           0        1.710551   -4.559798   -0.059848
    100          0           0        1.655518   -4.077833    0.061318
    101          0           0        1.600486   -3.595868    0.182484
    102          0           0        1.545453   -3.113903    0.303650
    103          0           0        1.490421   -2.631938    0.424817
    104          0           0        1.435389   -2.149973    0.545983
    105          0           0        1.380356   -1.668008    0.667149
    106          0           0        1.325324   -1.186043    0.788315
    107          0           0        1.270292   -0.704078    0.909482
    108          0           0        2.220827   -5.041763    0.025752
    109          0           0        2.165795   -4.559798    0.146919
    110          0           0        2.110763   -4.077833    0.268085
    111          0           0        2.055730   -3.595868    0.389251
    112          0           0        2.000698   -3.113903    0.510417
    113          0           0        1.945665   -2.631938    0.631584
    114          0           0        1.890633   -2.149973    0.752750
    115          0           0        1.835601   -1.668008    0.873916
    116          0           0        1.780568   -1.186043    0.995082
    117          0           0        1.725536   -0.704078    1.116249
    118          0           0        2.676072   -5.041763    0.232519
    119          0           0        2.621039   -4.559798    0.353686
    120          0           0        2.566007   -4.077833    0.474852
    121          0           0        2.510975   -3.595868    0.596018
    122          0           0        2.455942   -3.113903    0.717184
    123          0           0        2.400910   -2.631938    0.838351
    124          0           0        2.345877   -2.149973    0.959517
    125          0           0        2.290845   -1.668008    1.080683
    126          0           0        2.235813   -1.186043    1.201849
    127          0           0        2.180780   -0.704078    1.323016
    128          0           0        3.131316   -5.041763    0.439286
    129          0           0        3.076284   -4.559798    0.560452
    130          0           0        3.021251   -4.077833    0.681619
    131          0           0        2.966219   -3.595868    0.802785
    132          0           0        2.911187   -3.113903    0.923951
    133          0           0        2.856154   -2.631938    1.045117
    134          0           0        2.801122   -2.149973    1.166284
    135          0           0        2.746089   -1.668008    1.287450
    136          0           0        2.691057   -1.186043    1.408616
    137          0           0        2.636025   -0.704078    1.529782
 ---------------------------------------------------------------------
 Rotational constants (GHZ):           0.4529074           0.2836956           0.1879557
 Standard basis: 6-311+G(d,p) (5D, 7F)
 Warning:  center  37 has no basis functions!
 Warning:  center  38 has no basis functions!
 Warning:  center  39 has no basis functions!
 Warning:  center  40 has no basis functions!
 Warning:  center  41 has no basis functions!
 Warning:  center  42 has no basis functions!
 Warning:  center  43 has no basis functions!
 Warning:  center  44 has no basis functions!
 Warning:  center  45 has no basis functions!
 Warning:  center  46 has no basis functions!
 Warning:  center  47 has no basis functions!
 Warning:  center  48 has no basis functions!
 Warning:  center  49 has no basis functions!
 Warning:  center  50 has no basis functions!
 Warning:  center  51 has no basis functions!
 Warning:  center  52 has no basis functions!
 Warning:  center  53 has no basis functions!
 Warning:  center  54 has no basis functions!
 Warning:  center  55 has no basis functions!
 Warning:  center  56 has no basis functions!
 Warning:  center  57 has no basis functions!
 Warning:  center  58 has no basis functions!
 Warning:  center  59 has no basis functions!
 Warning:  center  60 has no basis functions!
 Warning:  center  61 has no basis functions!
 Warning:  center  62 has no basis functions!
 Warning:  center  63 has no basis functions!
 Warning:  center  64 has no basis functions!
 Warning:  center  65 has no basis functions!
 Warning:  center  66 has no basis functions!
 Warning:  center  67 has no basis functions!
 Warning:  center  68 has no basis functions!
 Warning:  center  69 has no basis functions!
 Warning:  center  70 has no basis functions!
 Warning:  center  71 has no basis functions!
 Warning:  center  72 has no basis functions!
 Warning:  center  73 has no basis functions!
 Warning:  center  74 has no basis functions!
 Warning:  center  75 has no basis functions!
 Warning:  center  76 has no basis functions!
 Warning:  center  77 has no basis functions!
 Warning:  center  78 has no basis functions!
 Warning:  center  79 has no basis functions!
 Warning:  center  80 has no basis functions!
 Warning:  center  81 has no basis functions!
 Warning:  center  82 has no basis functions!
 Warning:  center  83 has no basis functions!
 Warning:  center  84 has no basis functions!
 Warning:  center  85 has no basis functions!
 Warning:  center  86 has no basis functions!
 Warning:  center  87 has no basis functions!
 Warning:  center  88 has no basis functions!
 Warning:  center  89 has no basis functions!
 Warning:  center  90 has no basis functions!
 Warning:  center  91 has no basis functions!
 Warning:  center  92 has no basis functions!
 Warning:  center  93 has no basis functions!
 Warning:  center  94 has no basis functions!
 Warning:  center  95 has no basis functions!
 Warning:  center  96 has no basis functions!
 Warning:  center  97 has no basis functions!
 Warning:  center  98 has no basis functions!
 Warning:  center  99 has no basis functions!
 Warning:  center 100 has no basis functions!
 Warning:  center 101 has no basis functions!
 Warning:  center 102 has no basis functions!
 Warning:  center 103 has no basis functions!
 Warning:  center 104 has no basis functions!
 Warning:  center 105 has no basis functions!
 Warning:  center 106 has no basis functions!
 Warning:  center 107 has no basis functions!
 Warning:  center 108 has no basis functions!
 Warning:  center 109 has no basis functions!
 Warning:  center 110 has no basis functions!
 Warning:  center 111 has no basis functions!
 Warning:  center 112 has no basis functions!
 Warning:  center 113 has no basis functions!
 Warning:  center 114 has no basis functions!
 Warning:  center 115 has no basis functions!
 Warning:  center 116 has no basis functions!
 Warning:  center 117 has no basis functions!
 Warning:  center 118 has no basis functions!
 Warning:  center 119 has no basis functions!
 Warning:  center 120 has no basis functions!
 Warning:  center 121 has no basis functions!
 Warning:  center 122 has no basis functions!
 Warning:  center 123 has no basis functions!
 Warning:  center 124 has no basis functions!
 Warning:  center 125 has no basis functions!
 Warning:  center 126 has no basis functions!
 Warning:  center 127 has no basis functions!
 Warning:  center 128 has no basis functions!
 Warning:  center 129 has no basis functions!
 Warning:  center 130 has no basis functions!
 Warning:  center 131 has no basis functions!
 Warning:  center 132 has no basis functions!
 Warning:  center 133 has no basis functions!
 Warning:  center 134 has no basis functions!
 Warning:  center 135 has no basis functions!
 Warning:  center 136 has no basis functions!
 Warning:  center 137 has no basis functions!
   568 basis functions,   904 primitive gaussians,   590 cartesian basis functions
    73 alpha electrons       73 beta electrons
       nuclear repulsion energy      1610.9176226554 Hartrees.
 NAtoms=  137 NActive=  137 NUniq=  137 SFac= 1.00D+00 NAtFMM=   60 NAOKFM=T Big=T
 Integral buffers will be    131072 words long.
 Raffenetti 2 integral format.
 Two-electron integral symmetry is turned off.
 One-electron integrals computed using PRISM.
 NBasis=   568 RedAO= T EigKep=  1.78D-06  NBF=   568
 NBsUse=   556 1.00D-06 EigRej=  9.09D-07 NBFU=   556
 ExpMin= 4.38D-02 ExpMax= 4.56D+03 ExpMxC= 6.82D+02 IAcc=3 IRadAn=         5 AccDes= 0.00D+00
 Harris functional with IExCor=  402 and IRadAn=       5 diagonalized for initial guess.
 HarFok:  IExCor=  402 AccDes= 0.00D+00 IRadAn=         5 IDoV= 1 UseB2=F ITyADJ=14
 ICtDFT=  3500011 ScaDFX=  1.000000  1.000000  1.000000  1.000000
 FoFCou: FMM=F IPFlag=           0 FMFlag=      100000 FMFlg1=        2001
         NFxFlg=           0 DoJE=T BraDBF=F KetDBF=T FulRan=T
         wScrn=  0.000000 ICntrl=       500 IOpCl=  0 I1Cent=   200000004 NGrid=           0
         NMat0=    1 NMatS0=      1 NMatT0=    0 NMatD0=    1 NMtDS0=    0 NMtDT0=    0
 Symmetry not used in FoFCou.
 Requested convergence on RMS density matrix=1.00D-08 within 128 cycles.
 Requested convergence on MAX density matrix=1.00D-06.
 Requested convergence on             energy=1.00D-06.
 No special actions if energy rises.
 SCF Done:  E(RB3LYP) =  -847.003283891     A.U. after   15 cycles
            NFock= 15  Conv=0.77D-08     -V/T= 2.0040
 DoSCS=F DFT=T ScalE2(SS,OS)=  1.000000  1.000000
 Range of M.O.s used for correlation:     1   556
 NBasis=   568 NAE=    73 NBE=    73 NFC=     0 NFV=     0
 NROrb=    556 NOA=    73 NOB=    73 NVA=   483 NVB=   483

 **** Warning!!: The largest alpha MO coefficient is  0.10864958D+03

          Differentiating once with respect to magnetic field using GIAOs.
          Electric field/nuclear overlap derivatives assumed to be zero.
 FoFCou: FMM=F IPFlag=           0 FMFlag=      100000 FMFlg1=        2001
         NFxFlg=           0 DoJE=F BraDBF=F KetDBF=T FulRan=T
         wScrn=  0.000000 ICntrl=      6100 IOpCl=  0 I1Cent=           7 NGrid=         137
         NMat0=    1 NMatS0=      1 NMatT0=    0 NMatD0=    1 NMtDS0=    0 NMtDT0=    0
 Symmetry not used in FoFCou.
 FoFJK:  IHMeth= 1 ICntrl=    6127 DoSepK=F KAlg= 0 I1Cent=           0 FoldK=F
 IRaf=         1 NMat=       1 IRICut=       1 DoRegI=T DoRafI=F ISym2E= 0 IDoP0=0 IntGTp=1.
          There are     3 degrees of freedom in the 1st order CPHF.  IDoFFX=0 NUNeed=     3.
      3 vectors produced by pass  0 Test12= 1.18D-12 3.33D-08 XBig12= 2.07D+03 9.18D+00.
 AX will form     3 AO Fock derivatives at one time.
      3 vectors produced by pass  1 Test12= 1.18D-12 3.33D-08 XBig12= 3.57D+00 8.02D-01.
      3 vectors produced by pass  2 Test12= 1.18D-12 3.33D-08 XBig12= 2.10D-02 6.93D-02.
      3 vectors produced by pass  3 Test12= 1.18D-12 3.33D-08 XBig12= 5.46D-05 1.89D-03.
      3 vectors produced by pass  4 Test12= 1.18D-12 3.33D-08 XBig12= 1.20D-07 7.78D-05.
      3 vectors produced by pass  5 Test12= 1.18D-12 3.33D-08 XBig12= 4.03D-10 4.76D-06.
      3 vectors produced by pass  6 Test12= 1.18D-12 3.33D-08 XBig12= 2.00D-12 3.05D-07.
      3 vectors produced by pass  7 Test12= 1.18D-12 3.33D-08 XBig12= 3.30D-13 9.23D-08.
      3 vectors produced by pass  8 Test12= 1.18D-12 3.33D-08 XBig12= 6.61D-13 9.64D-08.
      3 vectors produced by pass  9 Test12= 1.18D-12 3.33D-08 XBig12= 2.23D-13 7.15D-08.
      3 vectors produced by pass 10 Test12= 1.18D-12 3.33D-08 XBig12= 4.13D-13 9.58D-08.
      3 vectors produced by pass 11 Test12= 1.18D-12 3.33D-08 XBig12= 3.31D-13 5.19D-08.
      2 vectors produced by pass 12 Test12= 1.18D-12 3.33D-08 XBig12= 2.90D-13 5.71D-08.
 InvSVY:  IOpt=1 It=  1 EMax= 1.42D-14
 Solved reduced A of dimension    38 with     3 vectors.
 Calculating GIAO nuclear magnetic shielding tensors.
 SCF GIAO Magnetic shielding tensor (ppm):
      1  C    Isotropic =    53.1700   Anisotropy =   178.4458
   XX=   -42.1952   YX=   -32.3046   ZX=    10.0983
   XY=   -29.1770   YY=    58.3204   ZY=    55.3788
   XZ=    13.2067   YZ=    58.8864   ZZ=   143.3849
   Eigenvalues:   -54.8969    42.2731   172.1339
      2  H    Isotropic =    24.3249   Anisotropy =     5.0184
   XX=    25.4938   YX=    -0.9967   ZX=     0.6985
   XY=    -0.8097   YY=    26.3053   ZY=    -2.3448
   XZ=    -0.1423   YZ=    -2.4831   ZZ=    21.1757
   Eigenvalues:    20.2173    25.0870    27.6705
      3  C    Isotropic =    51.5990   Anisotropy =   155.8040
   XX=   -29.2759   YX=    37.6891   ZX=   -17.5069
   XY=    34.9361   YY=    49.2645   ZY=    49.4008
   XZ=    -9.1821   YZ=    44.1902   ZZ=   134.8085
   Eigenvalues:   -48.6044    47.9331   155.4684
      4  H    Isotropic =    23.7953   Anisotropy =     7.2788
   XX=    25.2686   YX=     1.9043   ZX=    -0.3918
   XY=     2.0867   YY=    26.4310   ZY=    -2.5190
   XZ=    -1.3415   YZ=    -2.4824   ZZ=    19.6862
   Eigenvalues:    18.8536    23.8844    28.6478
      5  C    Isotropic =    46.3293   Anisotropy =   208.7938
   XX=   -18.7634   YX=    -5.0283   ZX=    -1.1374
   XY=     2.6118   YY=    -3.3595   ZY=    66.9810
   XZ=     2.7770   YZ=    68.8332   ZZ=   161.1107
   Eigenvalues:   -27.9901   -18.5472   185.5251
      6  C    Isotropic =    48.1539   Anisotropy =   197.7355
   XX=   -27.9572   YX=    -2.2961   ZX=    12.1324
   XY=   -15.6813   YY=    21.4233   ZY=    74.5314
   XZ=   -17.4434   YZ=    60.5697   ZZ=   150.9954
   Eigenvalues:   -30.3962    -5.1197   179.9775
      7  C    Isotropic =    49.2652   Anisotropy =   180.1198
   XX=   -13.2296   YX=    28.7139   ZX=   -24.2977
   XY=    31.1175   YY=    29.8805   ZY=    77.7489
   XZ=   -39.4323   YZ=    65.2377   ZZ=   131.1447
   Eigenvalues:   -52.0064    30.4568   169.3451
      8  H    Isotropic =    23.1106   Anisotropy =    13.2879
   XX=    28.3374   YX=     1.5238   ZX=    -3.6492
   XY=     3.1974   YY=    22.7522   ZY=    -1.9308
   XZ=    -8.3358   YZ=    -1.1415   ZZ=    18.2422
   Eigenvalues:    15.4316    21.9309    31.9692
      9  C    Isotropic =    55.3790   Anisotropy =   174.7214
   XX=    46.1473   YX=    -2.9852   ZX=    -2.5221
   XY=     0.3554   YY=    -1.1010   ZY=    92.4715
   XZ=     0.3542   YZ=    94.8963   ZZ=   121.0906
   Eigenvalues:   -51.8546    46.1316   171.8599
     10  H    Isotropic =    24.5657   Anisotropy =     7.2078
   XX=    29.1014   YX=     0.0432   ZX=    -0.2604
   XY=     0.2834   YY=    23.2436   ZY=    -1.1035
   XZ=    -2.4306   YZ=    -2.8656   ZZ=    21.3521
   Eigenvalues:    19.9763    24.3499    29.3709
     11  C    Isotropic =    51.6147   Anisotropy =   151.0090
   XX=     2.5872   YX=    40.5226   ZX=   -25.7440
   XY=    50.8325   YY=    11.9585   ZY=    42.2021
   XZ=   -15.1508   YZ=    38.4615   ZZ=   140.2983
   Eigenvalues:   -48.2241    50.7808   152.2873
     12  H    Isotropic =    23.8484   Anisotropy =     7.2776
   XX=    26.1040   YX=     2.3348   ZX=    -0.0664
   XY=     2.3706   YY=    26.3233   ZY=    -1.9097
   XZ=     0.6248   YZ=    -1.6545   ZZ=    19.1180
   Eigenvalues:    18.6066    24.2385    28.7001
     13  C    Isotropic =    52.9284   Anisotropy =   147.0362
   XX=    51.3555   YX=    20.0327   ZX=   -13.5856
   XY=    11.2348   YY=   -33.6683   ZY=    42.7405
   XZ=    -8.2730   YZ=    40.1055   ZZ=   141.0981
   Eigenvalues:   -46.1921    54.0249   150.9526
     14  H    Isotropic =    23.9442   Anisotropy =     7.5024
   XX=    28.7155   YX=     0.5541   ZX=     1.0121
   XY=     0.4833   YY=    24.4716   ZY=    -0.8950
   XZ=     1.7659   YZ=    -0.3202   ZZ=    18.6455
   Eigenvalues:    18.3831    24.5037    28.9458
     15  C    Isotropic =    47.0832   Anisotropy =   203.5172
   XX=   -27.0916   YX=    -0.1109   ZX=   -28.6568
   XY=     4.6383   YY=    -9.2199   ZY=    28.7787
   XZ=    -9.4096   YZ=    23.2793   ZZ=   177.5610
   Eigenvalues:   -30.0660   -11.4458   182.7613
     16  C    Isotropic =    51.6831   Anisotropy =   188.9362
   XX=   -19.7367   YX=     5.0216   ZX=    16.1496
   XY=    -8.8050   YY=     1.7586   ZY=    23.2176
   XZ=   -48.8619   YZ=    24.3404   ZZ=   173.0274
   Eigenvalues:   -21.1153    -1.4759   177.6406
     17  C    Isotropic =    51.8568   Anisotropy =   148.5198
   XX=    50.7721   YX=   -23.6818   ZX=   -18.4641
   XY=   -16.9404   YY=   -41.6714   ZY=    17.8097
   XZ=   -14.4800   YZ=    11.1905   ZZ=   146.4697
   Eigenvalues:   -46.5535    51.2540   150.8700
     18  H    Isotropic =    23.8871   Anisotropy =     7.6762
   XX=    28.5371   YX=    -0.1282   ZX=     1.5525
   XY=    -0.2787   YY=    24.3320   ZY=    -0.7408
   XZ=     2.6127   YZ=    -1.5856   ZZ=    18.7922
   Eigenvalues:    18.1693    24.4874    29.0046
     19  C    Isotropic =    51.7663   Anisotropy =   148.6842
   XX=     2.3508   YX=   -45.6544   ZX=   -31.1097
   XY=   -52.9214   YY=     7.5176   ZY=    -1.8002
   XZ=   -23.6855   YZ=    -2.0343   ZZ=   145.4305
   Eigenvalues:   -46.7953    51.2050   150.8891
     20  H    Isotropic =    23.9375   Anisotropy =     7.6244
   XX=    25.5089   YX=    -2.0855   ZX=     1.5452
   XY=    -2.0408   YY=    27.3504   ZY=    -0.4943
   XZ=     2.6875   YZ=    -1.0321   ZZ=    18.9534
   Eigenvalues:    18.3269    24.4652    29.0205
     21  C    Isotropic =    47.2053   Anisotropy =   202.2944
   XX=   -13.1919   YX=    13.7851   ZX=   -43.9805
   XY=     8.3109   YY=   -19.8972   ZY=     0.1252
   XZ=   -29.8754   YZ=   -13.4280   ZZ=   174.7049
   Eigenvalues:   -29.8341   -10.6182   182.0682
     22  C    Isotropic =    51.6373   Anisotropy =   188.7174
   XX=    -0.5099   YX=     1.6301   ZX=   -16.1424
   XY=    18.6257   YY=   -15.4605   ZY=   -34.4730
   XZ=   -50.0915   YZ=    20.6205   ZZ=   170.8824
   Eigenvalues:   -21.0812    -1.4558   177.4489
     23  C    Isotropic =    52.7485   Anisotropy =   147.3596
   XX=   -22.7360   YX=   -31.9862   ZX=   -49.8421
   XY=   -23.9619   YY=    43.7963   ZY=   -16.0773
   XZ=   -44.4990   YZ=   -19.3302   ZZ=   137.1853
   Eigenvalues:   -46.7355    53.9929   150.9883
     24  H    Isotropic =    23.9643   Anisotropy =     7.5607
   XX=    24.9836   YX=    -1.6532   ZX=     1.4445
   XY=    -1.7400   YY=    28.1922   ZY=     0.0625
   XZ=     1.3535   YZ=    -0.8300   ZZ=    18.7172
   Eigenvalues:    18.4190    24.4691    29.0048
     25  C    Isotropic =    51.5471   Anisotropy =   151.4815
   XX=   -28.2326   YX=    32.8196   ZX=   -52.7701
   XY=    23.0322   YY=    45.4757   ZY=    -3.7505
   XZ=   -44.4729   YZ=   -10.3149   ZZ=   137.3982
   Eigenvalues:   -48.2470    50.3535   152.5348
     26  H    Isotropic =    23.9495   Anisotropy =     7.2423
   XX=    24.0835   YX=     1.2223   ZX=     1.5352
   XY=     1.1108   YY=    28.2010   ZY=     1.4497
   XZ=     1.9486   YZ=     0.8198   ZZ=    19.5641
   Eigenvalues:    18.9160    24.1549    28.7777
     27  C    Isotropic =    46.4205   Anisotropy =   208.7250
   XX=    -2.8829   YX=    14.2762   ZX=   -61.9139
   XY=     6.7072   YY=   -11.7520   ZY=   -41.9356
   XZ=   -61.4882   YZ=   -46.2127   ZZ=   153.8964
   Eigenvalues:   -27.6878   -18.6213   185.5705
     28  C    Isotropic =    47.8721   Anisotropy =   197.7655
   XX=    19.2428   YX=    14.7036   ZX=   -60.5074
   XY=    29.1038   YY=   -19.1880   ZY=   -56.3547
   XZ=   -63.5174   YZ=   -24.4566   ZZ=   143.5616
   Eigenvalues:   -30.5975    -5.5019   179.7158
     29  C    Isotropic =    49.4074   Anisotropy =   179.8282
   XX=    -3.7471   YX=    38.0782   ZX=   -81.0763
   XY=    36.1065   YY=    26.3315   ZY=   -23.2674
   XZ=   -78.1272   YZ=    -4.2514   ZZ=   125.6377
   Eigenvalues:   -51.8475    30.7768   169.2928
     30  H    Isotropic =    23.1375   Anisotropy =    13.4089
   XX=    22.2061   YX=    -0.8409   ZX=    -0.0618
   XY=    -2.1842   YY=    28.4163   ZY=     4.6320
   XZ=    -3.3021   YZ=     8.2051   ZZ=    18.7900
   Eigenvalues:    15.4743    21.8614    32.0767
     31  C    Isotropic =    55.2619   Anisotropy =   175.0623
   XX=    16.8311   YX=   -14.4710   ZX=   -84.4423
   XY=   -17.8936   YY=    37.6446   ZY=   -50.2556
   XZ=   -85.2660   YZ=   -54.3924   ZZ=   111.3099
   Eigenvalues:   -52.5760    46.3915   171.9700
     32  H    Isotropic =    24.5925   Anisotropy =     7.2047
   XX=    24.6585   YX=    -2.4694   ZX=     0.7458
   XY=    -2.6212   YY=    27.5120   ZY=     1.0621
   XZ=     1.0688   YZ=     3.8775   ZZ=    21.6071
   Eigenvalues:    19.9956    24.3863    29.3956
     33  C    Isotropic =    53.5116   Anisotropy =   178.2180
   XX=    61.2493   YX=    35.4513   ZX=   -42.6071
   XY=    31.8739   YY=   -37.6243   ZY=   -45.3091
   XZ=   -44.2526   YZ=   -49.7233   ZZ=   136.9100
   Eigenvalues:   -54.3749    42.5862   172.3236
     34  H    Isotropic =    24.3116   Anisotropy =     4.9117
   XX=    26.7177   YX=    -0.1479   ZX=     2.4615
   XY=    -0.3359   YY=    24.8421   ZY=     0.8639
   XZ=     2.1378   YZ=     1.5559   ZZ=    21.3750
   Eigenvalues:    20.2013    25.1475    27.5861
     35  C    Isotropic =    51.3371   Anisotropy =   156.3894
   XX=    -1.7263   YX=    53.6659   ZX=   -52.5937
   XY=    56.2664   YY=    24.8404   ZY=   -14.3702
   XZ=   -43.3243   YZ=   -19.1809   ZZ=   130.8973
   Eigenvalues:   -49.5168    47.9314   155.5967
     36  H    Isotropic =    23.8592   Anisotropy =     7.1834
   XX=    24.3290   YX=     1.2996   ZX=     2.1079
   XY=     1.2451   YY=    27.1457   ZY=     1.9534
   XZ=     1.5912   YZ=     2.8705   ZZ=    20.1029
   Eigenvalues:    18.9702    23.9593    28.6481
     37  Bq   Isotropic =     8.0886   Anisotropy =     6.3800
   XX=     8.2688   YX=    -0.8536   ZX=    -2.3591
   XY=    -0.7631   YY=     6.1008   ZY=    -0.8918
   XZ=    -3.5984   YZ=     2.2600   ZZ=     9.8961
   Eigenvalues:     5.7353     6.1885    12.3419
     38  Bq   Isotropic =    -0.5776   Anisotropy =     6.5821
   XX=     0.3012   YX=     2.0969   ZX=     1.2296
   XY=     1.8909   YY=     2.5533   ZY=     0.9114
   XZ=    -0.3914   YZ=     0.6497   ZZ=    -4.5874
   Eigenvalues:    -4.6810    -0.8624     3.8104
     39  Bq   Isotropic =    -0.3570   Anisotropy =     8.3493
   XX=     1.5129   YX=     3.0607   ZX=     1.1839
   XY=     2.8320   YY=     2.8490   ZY=     0.8024
   XZ=    -1.5917   YZ=     0.2262   ZZ=    -5.4329
   Eigenvalues:    -5.4895    -0.7906     5.2092
     40  Bq   Isotropic =     0.2167   Anisotropy =     9.6443
   XX=     3.9528   YX=     3.4745   ZX=     0.6301
   XY=     3.2237   YY=     2.3312   ZY=     1.0203
   XZ=    -3.9439   YZ=     0.4936   ZZ=    -5.6338
   Eigenvalues:    -6.1380     0.1419     6.6463
     41  Bq   Isotropic =     0.5343   Anisotropy =    10.0089
   XX=     6.0714   YX=     2.2032   ZX=     0.2339
   XY=     2.0999   YY=     1.6166   ZY=     2.2147
   XZ=    -6.0278   YZ=     2.7866   ZZ=    -6.0852
   Eigenvalues:    -7.6709     2.0668     7.2069
     42  Bq   Isotropic =     0.3053   Anisotropy =    10.2108
   XX=     6.5480   YX=     0.5540   ZX=     0.6458
   XY=     0.7554   YY=     1.9816   ZY=     3.3048
   XZ=    -6.3676   YZ=     5.3325   ZZ=    -7.6136
   Eigenvalues:    -9.7882     3.5916     7.1125
     43  Bq   Isotropic =     0.3050   Anisotropy =    11.0237
   XX=     6.5386   YX=    -0.5404   ZX=     0.6369
   XY=     0.0208   YY=     2.8116   ZY=     3.4075
   XZ=    -7.1608   YZ=     6.2674   ZZ=    -8.4351
   Eigenvalues:   -10.7429     4.0039     7.6542
     44  Bq   Isotropic =     0.8194   Anisotropy =    13.5518
   XX=     6.3869   YX=    -1.5397   ZX=    -0.5957
   XY=    -0.7600   YY=     3.0841   ZY=     3.1763
   XZ=   -10.6027   YZ=     7.2498   ZZ=    -7.0129
   Eigenvalues:   -10.5803     3.1845     9.8539
     45  Bq   Isotropic =     1.4342   Anisotropy =    19.9361
   XX=     5.6896   YX=    -3.0673   ZX=    -2.3807
   XY=    -3.0041   YY=     2.4182   ZY=     4.0876
   XZ=   -15.7001   YZ=    10.5309   ZZ=    -3.8051
   Eigenvalues:   -11.1398     0.7175    14.7250
     46  Bq   Isotropic =     2.4751   Anisotropy =    26.8828
   XX=     4.2157   YX=    -4.1220   ZX=    -2.9923
   XY=    -6.1243   YY=     3.5487   ZY=     6.4719
   XZ=   -19.6495   YZ=    14.2976   ZZ=    -0.3391
   Eigenvalues:   -11.7211    -1.2506    20.3970
     47  Bq   Isotropic =     6.2005   Anisotropy =    28.9121
   XX=     5.9899   YX=    -3.0408   ZX=    -2.5508
   XY=    -7.1005   YY=     7.7094   ZY=     8.3770
   XZ=   -20.5077   YZ=    15.6996   ZZ=     4.9022
   Eigenvalues:    -8.6256     1.7518    25.4752
     48  Bq   Isotropic =    -0.6434   Anisotropy =     7.7523
   XX=     0.2237   YX=     2.2850   ZX=     1.5805
   XY=     1.8468   YY=     3.5159   ZY=     0.6784
   XZ=    -0.3639   YZ=    -0.4402   ZZ=    -5.6696
   Eigenvalues:    -5.7327    -0.7222     4.5248
     49  Bq   Isotropic =    -0.0963   Anisotropy =    10.0581
   XX=     1.4507   YX=     3.4357   ZX=     1.6974
   XY=     2.9089   YY=     4.5768   ZY=     0.1417
   XZ=    -1.8271   YZ=    -2.1136   ZZ=    -6.3164
   Eigenvalues:    -6.4118    -0.4862     6.6091
     50  Bq   Isotropic =     1.5414   Anisotropy =    11.8916
   XX=     4.5623   YX=     4.4453   ZX=     0.9047
   XY=     3.8836   YY=     4.8387   ZY=    -0.1137
   XZ=    -5.6401   YZ=    -3.4471   ZZ=    -4.7767
   Eigenvalues:    -5.4124     0.5675     9.4692
     51  Bq   Isotropic =     3.2142   Anisotropy =    12.8727
   XX=     8.3493   YX=     3.5114   ZX=    -0.0806
   XY=     3.5778   YY=     4.4808   ZY=     1.4323
   XZ=   -10.4423   YZ=    -0.7121   ZZ=    -3.1876
   Eigenvalues:    -5.5062     3.3527    11.7959
     52  Bq   Isotropic =     3.4193   Anisotropy =    14.3248
   XX=    10.7631   YX=     1.7497   ZX=     0.0765
   XY=     2.7803   YY=     4.6898   ZY=     2.8113
   XZ=   -12.1660   YZ=     3.4258   ZZ=    -5.1950
   Eigenvalues:    -8.2744     5.5632    12.9692
     53  Bq   Isotropic =     3.3949   Anisotropy =    16.3893
   XX=    12.0549   YX=    -0.4547   ZX=    -0.3695
   XY=     1.3131   YY=     4.8833   ZY=     2.7550
   XZ=   -13.2718   YZ=     4.3505   ZZ=    -6.7534
   Eigenvalues:    -9.8071     5.6707    14.3211
     54  Bq   Isotropic =     3.4825   Anisotropy =    18.7728
   XX=    10.9228   YX=    -2.8749   ZX=    -1.6577
   XY=    -0.3252   YY=     4.7679   ZY=     2.0198
   XZ=   -16.9744   YZ=     5.4324   ZZ=    -5.2431
   Eigenvalues:   -10.0092     4.4590    15.9977
     55  Bq   Isotropic =     2.0769   Anisotropy =    24.6738
   XX=     8.3788   YX=    -4.9585   ZX=    -3.2275
   XY=    -2.8908   YY=     2.0198   ZY=     2.3811
   XZ=   -21.1031   YZ=    10.2582   ZZ=    -4.1680
   Eigenvalues:   -12.4534     0.1579    18.5261
     56  Bq   Isotropic =    -0.2334   Anisotropy =    29.8597
   XX=     5.8123   YX=    -6.2020   ZX=    -3.2551
   XY=    -6.8912   YY=     0.8787   ZY=     4.0411
   XZ=   -23.2682   YZ=    13.4802   ZZ=    -7.3914
   Eigenvalues:   -16.7282    -3.6451    19.6730
     57  Bq   Isotropic =     0.3294   Anisotropy =    28.8324
   XX=     7.8657   YX=    -4.9019   ZX=    -2.3328
   XY=    -8.2503   YY=     4.2189   ZY=     2.8399
   XZ=   -23.5447   YZ=    10.1531   ZZ=   -11.0963
   Eigenvalues:   -18.0560    -0.5068    19.5510
     58  Bq   Isotropic =    -0.6720   Anisotropy =     8.7644
   XX=     0.6670   YX=     2.5549   ZX=     1.9803
   XY=     1.6051   YY=     4.2095   ZY=     0.5680
   XZ=    -0.2170   YZ=    -1.5752   ZZ=    -6.8926
   Eigenvalues:    -7.0448    -0.1422     5.1709
     59  Bq   Isotropic =     0.1764   Anisotropy =    11.3523
   XX=     2.2083   YX=     3.6298   ZX=     2.5424
   XY=     2.3351   YY=     5.8971   ZY=    -0.0874
   XZ=    -1.3885   YZ=    -4.3687   ZZ=    -7.5762
   Eigenvalues:    -8.0476     0.8322     7.7446
     60  Bq   Isotropic =     3.1629   Anisotropy =    13.8101
   XX=     6.1540   YX=     5.1156   ZX=     1.9338
   XY=     3.4466   YY=     7.4598   ZY=    -0.7752
   XZ=    -5.3912   YZ=    -8.0516   ZZ=    -4.1252
   Eigenvalues:    -5.6219     2.7409    12.3696
     61  Bq   Isotropic =     7.8755   Anisotropy =    16.7659
   XX=    11.9874   YX=     5.0029   ZX=    -0.3287
   XY=     4.2581   YY=     9.1312   ZY=    -0.5214
   XZ=   -13.0031   YZ=    -7.5496   ZZ=     2.5079
   Eigenvalues:    -1.1932     5.7668    19.0528
     62  Bq   Isotropic =    10.6003   Anisotropy =    20.6245
   XX=    16.3420   YX=     3.5413   ZX=    -2.6351
   XY=     5.0441   YY=     9.9394   ZY=    -1.2300
   XZ=   -18.3444   YZ=    -3.2256   ZZ=     5.5196
   Eigenvalues:    -0.8836     8.3346    24.3500
     63  Bq   Isotropic =    11.1515   Anisotropy =    23.4480
   XX=    18.3984   YX=     0.8715   ZX=    -4.6834
   XY=     3.2893   YY=     8.1967   ZY=    -0.4420
   XZ=   -20.7705   YZ=     0.1333   ZZ=     6.8594
   Eigenvalues:    -1.4492     8.1201    26.7835
     64  Bq   Isotropic =     9.9510   Anisotropy =    25.2594
   XX=    16.8552   YX=    -2.8040   ZX=    -4.9789
   XY=     1.0312   YY=     7.0898   ZY=     0.6646
   XZ=   -23.1648   YZ=     5.4694   ZZ=     5.9080
   Eigenvalues:    -4.0928     7.1552    26.7906
     65  Bq   Isotropic =     4.5723   Anisotropy =    27.6181
   XX=    12.5024   YX=    -5.7593   ZX=    -4.0508
   XY=    -1.1592   YY=     2.2933   ZY=     0.6019
   XZ=   -23.1792   YZ=    12.7454   ZZ=    -1.0787
   Eigenvalues:   -10.7678     1.5004    22.9844
     66  Bq   Isotropic =    -2.0083   Anisotropy =    29.2516
   XX=     7.8866   YX=    -6.7703   ZX=    -2.6457
   XY=    -4.7006   YY=    -1.5906   ZY=     1.7447
   XZ=   -21.5241   YZ=    14.0758   ZZ=   -12.3210
   Eigenvalues:   -19.4081    -4.1097    17.4928
     67  Bq   Isotropic =    -4.9678   Anisotropy =    26.2700
   XX=     7.1037   YX=    -4.9509   ZX=    -0.9784
   XY=    -4.9175   YY=    -0.2055   ZY=    -1.1628
   XZ=   -18.8136   YZ=     6.4840   ZZ=   -21.8017
   Eigenvalues:   -24.9142    -2.5348    12.5455
     68  Bq   Isotropic =    -0.3503   Anisotropy =    10.1107
   XX=     1.7135   YX=     3.4177   ZX=     1.7702
   XY=     1.5715   YY=     4.9829   ZY=     0.4327
   XZ=    -0.7680   YZ=    -3.0464   ZZ=    -7.7472
   Eigenvalues:    -7.9412     0.5002     6.3902
     69  Bq   Isotropic =     1.1014   Anisotropy =    13.0698
   XX=     4.0668   YX=     4.4566   ZX=     2.2795
   XY=     1.8479   YY=     7.4631   ZY=    -0.1409
   XZ=    -2.3241   YZ=    -6.5382   ZZ=    -8.2258
   Eigenvalues:    -8.9368     2.4263     9.8146
     70  Bq   Isotropic =     5.7066   Anisotropy =    17.3757
   XX=     8.8575   YX=     6.5487   ZX=     0.6885
   XY=     3.3489   YY=    10.6680   ZY=    -1.6367
   XZ=    -6.4823   YZ=   -11.6409   ZZ=    -2.4055
   Eigenvalues:    -5.2323     5.0619    17.2904
     71  Bq   Isotropic =    12.5592   Anisotropy =    23.3286
   XX=    15.1855   YX=     6.3556   ZX=    -4.9535
   XY=     3.9672   YY=    12.5532   ZY=    -3.6931
   XZ=   -14.2719   YZ=   -13.0267   ZZ=     9.9389
   Eigenvalues:     0.9876     8.5784    28.1116
     72  Bq   Isotropic =    15.4375   Anisotropy =    27.8285
   XX=    16.4040   YX=     2.9699   ZX=    -8.7736
   XY=     3.1933   YY=    11.7882   ZY=    -6.3402
   XZ=   -18.8438   YZ=    -9.6900   ZZ=    18.1203
   Eigenvalues:     2.0381    10.2847    33.9898
     73  Bq   Isotropic =    15.2947   Anisotropy =    28.9521
   XX=    15.1980   YX=     2.1696   ZX=    -9.3800
   XY=     3.0366   YY=     8.9541   ZY=    -4.6884
   XZ=   -20.0780   YZ=    -4.3970   ZZ=    21.7319
   Eigenvalues:     3.2411     8.0468    34.5960
     74  Bq   Isotropic =    14.1130   Anisotropy =    29.5602
   XX=    15.9366   YX=     0.9303   ZX=   -10.6761
   XY=     3.1786   YY=     8.3949   ZY=    -2.1388
   XZ=   -22.8810   YZ=     3.3328   ZZ=    18.0074
   Eigenvalues:    -0.2594     8.7786    33.8198
     75  Bq   Isotropic =     8.3441   Anisotropy =    29.6072
   XX=    15.4226   YX=    -4.1040   ZX=    -8.4934
   XY=     1.1829   YY=     4.3306   ZY=    -1.4716
   XZ=   -23.9829   YZ=    11.3744   ZZ=     5.2792
   Eigenvalues:    -7.5194     4.4695    28.0823
     76  Bq   Isotropic =    -0.4826   Anisotropy =    28.4612
   XX=    10.8625   YX=    -6.2595   ZX=    -3.6768
   XY=    -1.3225   YY=    -0.3737   ZY=     0.8315
   XZ=   -20.8681   YZ=    13.9133   ZZ=   -11.9368
   Eigenvalues:   -18.8739    -1.0655    18.4915
     77  Bq   Isotropic =    -5.3755   Anisotropy =    24.8815
   XX=     8.3960   YX=    -4.0923   ZX=    -0.5874
   XY=    -0.9200   YY=    -0.7299   ZY=    -0.9200
   XZ=   -15.9353   YZ=     6.6701   ZZ=   -23.7926
   Eigenvalues:   -25.9838    -1.3549    11.2121
     78  Bq   Isotropic =     0.8916   Anisotropy =    11.8203
   XX=     2.4259   YX=     4.6394   ZX=     0.3582
   XY=     1.6178   YY=     6.3978   ZY=    -0.3243
   XZ=    -2.0639   YZ=    -5.8528   ZZ=    -6.1488
   Eigenvalues:    -6.8696     0.7726     8.7718
     79  Bq   Isotropic =     3.7291   Anisotropy =    14.1038
   XX=     5.9396   YX=     5.2859   ZX=     0.1474
   XY=     0.8688   YY=     9.3860   ZY=    -0.6383
   XZ=    -4.7356   YZ=   -10.0742   ZZ=    -4.1384
   Eigenvalues:    -6.1209     4.1765    13.1316
     80  Bq   Isotropic =     9.8548   Anisotropy =    20.1646
   XX=    10.3005   YX=     6.7759   ZX=    -1.7719
   XY=     2.2662   YY=    13.8062   ZY=    -3.5742
   XZ=    -8.6310   YZ=   -15.1494   ZZ=     5.4578
   Eigenvalues:    -1.0109     7.2775    23.2979
     81  Bq   Isotropic =    14.9078   Anisotropy =    27.4706
   XX=    13.4504   YX=     5.6842   ZX=    -7.6325
   XY=     3.2276   YY=    11.8090   ZY=    -6.7569
   XZ=   -13.4199   YZ=   -14.2973   ZZ=    19.4641
   Eigenvalues:     3.2661     8.2358    33.2215
     82  Bq   Isotropic =    13.2704   Anisotropy =    28.3319
   XX=    10.3430   YX=     1.6820   ZX=    -9.8286
   XY=     0.8260   YY=     7.1217   ZY=    -6.4473
   XZ=   -14.6898   YZ=    -9.2270   ZZ=    22.3465
   Eigenvalues:     0.6494     7.0034    32.1583
     83  Bq   Isotropic =    11.3194   Anisotropy =    26.5342
   XX=     7.4861   YX=     1.5993   ZX=    -8.7607
   XY=     1.4199   YY=     5.6091   ZY=    -5.8427
   XZ=   -14.2954   YZ=    -6.0922   ZZ=    20.8631
   Eigenvalues:     0.1746     4.7748    29.0089
     84  Bq   Isotropic =    11.8240   Anisotropy =    27.0396
   XX=     9.4081   YX=     1.8844   ZX=    -9.7646
   XY=     3.0504   YY=     6.6860   ZY=    -5.8311
   XZ=   -17.1120   YZ=    -3.1667   ZZ=    19.3779
   Eigenvalues:     0.0087     5.6129    29.8504
     85  Bq   Isotropic =    11.3155   Anisotropy =    27.3107
   XX=    13.6709   YX=    -2.1166   ZX=    -8.8977
   XY=     2.4007   YY=     5.9237   ZY=    -4.2095
   XZ=   -22.0953   YZ=     3.0587   ZZ=    14.3517
   Eigenvalues:    -1.5011     5.9249    29.5226
     86  Bq   Isotropic =     5.1903   Anisotropy =    23.9585
   XX=    12.7667   YX=    -4.5830   ZX=    -3.9884
   XY=     2.4763   YY=     4.1035   ZY=    -1.4620
   XZ=   -22.3183   YZ=     9.3695   ZZ=    -1.2994
   Eigenvalues:    -9.7791     4.1874    21.1626
     87  Bq   Isotropic =    -0.2815   Anisotropy =    22.4233
   XX=    11.3746   YX=    -3.1765   ZX=    -1.4234
   XY=     2.3454   YY=     2.0604   ZY=    -1.8117
   XZ=   -17.9191   YZ=     4.5871   ZZ=   -14.2795
   Eigenvalues:   -17.5883     2.0764    14.6674
     88  Bq   Isotropic =     2.2547   Anisotropy =    12.8755
   XX=     0.4969   YX=     4.4329   ZX=    -0.4889
   XY=     0.7730   YY=     7.7888   ZY=    -1.6704
   XZ=    -0.8227   YZ=    -8.8613   ZZ=    -1.5215
   Eigenvalues:    -3.9512    -0.1231    10.8384
     89  Bq   Isotropic =     6.3718   Anisotropy =    14.4823
   XX=     4.6237   YX=     5.9379   ZX=    -1.8910
   XY=     0.0969   YY=    10.4816   ZY=    -0.9099
   XZ=    -2.3216   YZ=   -12.8336   ZZ=     4.0100
   Eigenvalues:    -0.3561     3.4448    16.0266
     90  Bq   Isotropic =    13.0946   Anisotropy =    21.3309
   XX=    10.4694   YX=     7.2753   ZX=    -4.1515
   XY=     1.2041   YY=    15.1078   ZY=    -4.2018
   XZ=    -4.7561   YZ=   -17.0924   ZZ=    13.7065
   Eigenvalues:     3.7120     8.2565    27.3152
     91  Bq   Isotropic =    15.8877   Anisotropy =    28.3917
   XX=    13.2750   YX=     5.4993   ZX=    -8.1641
   XY=     2.5760   YY=    10.5951   ZY=    -8.5832
   XZ=    -9.3183   YZ=   -14.6275   ZZ=    23.7929
   Eigenvalues:     3.7102     9.1373    34.8155
     92  Bq   Isotropic =    11.6078   Anisotropy =    26.7771
   XX=     8.7903   YX=     2.3147   ZX=    -9.5829
   XY=     0.8769   YY=     4.4488   ZY=    -5.7510
   XZ=   -11.5122   YZ=    -8.3717   ZZ=    21.5844
   Eigenvalues:     0.6779     4.6864    29.4592
     93  Bq   Isotropic =     8.8347   Anisotropy =    24.1275
   XX=     5.9931   YX=     1.8115   ZX=    -8.9707
   XY=     1.1581   YY=     3.7387   ZY=    -5.7314
   XZ=   -11.8610   YZ=    -6.9000   ZZ=    16.7722
   Eigenvalues:    -1.4575     3.0419    24.9197
     94  Bq   Isotropic =    10.0232   Anisotropy =    25.5433
   XX=     8.2651   YX=     1.9426   ZX=    -8.8217
   XY=     2.3753   YY=     4.9286   ZY=    -7.1694
   XZ=   -13.7479   YZ=    -7.4793   ZZ=    16.8760
   Eigenvalues:    -0.9753     3.9929    27.0521
     95  Bq   Isotropic =    13.3870   Anisotropy =    28.4625
   XX=    13.9102   YX=     0.1801   ZX=    -9.1776
   XY=     2.5165   YY=     5.8345   ZY=    -5.8538
   XZ=   -18.6460   YZ=    -4.5233   ZZ=    20.4163
   Eigenvalues:     1.5327     6.2662    32.3620
     96  Bq   Isotropic =    12.1141   Anisotropy =    25.0286
   XX=    14.5313   YX=    -2.9787   ZX=    -7.3423
   XY=     2.1499   YY=     6.9618   ZY=    -5.7215
   XZ=   -20.7073   YZ=     1.1057   ZZ=    14.8491
   Eigenvalues:     0.1220     7.4203    28.7998
     97  Bq   Isotropic =     7.8310   Anisotropy =    19.9031
   XX=    11.9877   YX=    -3.1052   ZX=    -4.5990
   XY=     1.8615   YY=     4.2925   ZY=    -5.5454
   XZ=   -17.5207   YZ=    -1.5352   ZZ=     7.2128
   Eigenvalues:    -3.0797     5.4730    21.0997
     98  Bq   Isotropic =     1.3811   Anisotropy =    12.2290
   XX=    -2.2318   YX=     1.8816   ZX=     1.6223
   XY=    -1.0396   YY=     7.0049   ZY=    -1.9461
   XZ=     3.6327   YZ=    -8.0549   ZZ=    -0.6299
   Eigenvalues:    -5.2642    -0.1264     9.5337
     99  Bq   Isotropic =     4.5698   Anisotropy =    14.1884
   XX=    -0.3133   YX=     4.3752   ZX=     0.3316
   XY=    -0.6972   YY=    10.1700   ZY=    -1.3873
   XZ=     4.9814   YZ=   -11.1403   ZZ=     3.8527
   Eigenvalues:    -3.3895     3.0701    14.0287
    100  Bq   Isotropic =    11.0449   Anisotropy =    20.1791
   XX=     5.2663   YX=     6.4673   ZX=    -3.7137
   XY=    -0.0792   YY=    15.3419   ZY=    -4.4401
   XZ=     2.8584   YZ=   -15.7326   ZZ=    12.5266
   Eigenvalues:     2.4712     6.1659    24.4977
    101  Bq   Isotropic =    16.0681   Anisotropy =    26.6561
   XX=    10.2592   YX=     5.3405   ZX=    -8.5635
   XY=     0.4587   YY=    13.3767   ZY=    -7.7767
   XZ=    -4.5074   YZ=   -15.1084   ZZ=    24.5683
   Eigenvalues:     5.8329     8.5326    33.8389
    102  Bq   Isotropic =    13.3376   Anisotropy =    26.9058
   XX=     7.9428   YX=     3.7843   ZX=   -10.4618
   XY=     1.3846   YY=     8.1338   ZY=    -5.5167
   XZ=    -9.2440   YZ=    -9.3445   ZZ=    23.9364
   Eigenvalues:     2.9815     5.7566    31.2749
    103  Bq   Isotropic =    10.4508   Anisotropy =    25.6457
   XX=     6.8284   YX=     2.9050   ZX=   -10.7855
   XY=     1.4507   YY=     5.9546   ZY=    -5.8135
   XZ=   -10.9603   YZ=    -8.6247   ZZ=    18.5693
   Eigenvalues:    -0.4363     4.2407    27.5479
    104  Bq   Isotropic =    11.7255   Anisotropy =    27.7033
   XX=     8.0443   YX=     1.7667   ZX=   -10.3552
   XY=     1.1821   YY=     7.0021   ZY=    -7.3409
   XZ=   -12.5996   YZ=   -10.6330   ZZ=    20.1300
   Eigenvalues:    -0.9867     5.9688    30.1943
    105  Bq   Isotropic =    14.9992   Anisotropy =    31.7222
   XX=    10.4964   YX=     0.8914   ZX=   -10.7711
   XY=     1.5597   YY=     7.1848   ZY=    -7.0169
   XZ=   -14.6715   YZ=    -8.8432   ZZ=    27.3164
   Eigenvalues:     1.7209     7.1293    36.1473
    106  Bq   Isotropic =    13.2496   Anisotropy =    28.1737
   XX=     9.0850   YX=    -2.5783   ZX=    -9.6208
   XY=    -0.7473   YY=     5.0564   ZY=    -5.6806
   XZ=   -13.6154   YZ=    -3.6366   ZZ=    25.6074
   Eigenvalues:     0.1902     7.5265    32.0320
    107  Bq   Isotropic =     9.3872   Anisotropy =    21.3925
   XX=     6.2870   YX=    -3.3738   ZX=    -5.4326
   XY=    -0.9896   YY=     2.3653   ZY=    -5.2000
   XZ=   -10.0842   YZ=    -4.2677   ZZ=    19.5094
   Eigenvalues:    -1.6812     6.1940    23.6489
    108  Bq   Isotropic =    -0.1414   Anisotropy =    10.7896
   XX=    -2.3940   YX=     0.1039   ZX=     3.1014
   XY=    -1.9803   YY=     5.2285   ZY=    -1.4516
   XZ=     5.2560   YZ=    -5.3704   ZZ=    -3.2586
   Eigenvalues:    -7.3414    -0.1344     7.0517
    109  Bq   Isotropic =     1.4091   Anisotropy =    13.7914
   XX=    -1.8678   YX=     1.8822   ZX=     3.3759
   XY=    -2.0076   YY=     7.9453   ZY=    -1.9732
   XZ=     7.5783   YZ=    -8.3071   ZZ=    -1.8504
   Eigenvalues:    -8.1946     1.8184    10.6033
    110  Bq   Isotropic =     6.1799   Anisotropy =    17.9534
   XX=     1.5885   YX=     4.0770   ZX=     1.3923
   XY=    -2.4594   YY=    11.6155   ZY=    -4.2207
   XZ=     7.6931   YZ=   -13.5566   ZZ=     5.3357
   Eigenvalues:    -4.1089     4.4998    18.1488
    111  Bq   Isotropic =    13.0919   Anisotropy =    21.9144
   XX=     5.8723   YX=     4.9231   ZX=    -3.2673
   XY=    -2.1993   YY=    13.1871   ZY=    -5.5750
   XZ=     3.9259   YZ=   -15.2444   ZZ=    20.2164
   Eigenvalues:     4.4871     7.0872    27.7015
    112  Bq   Isotropic =    14.7330   Anisotropy =    24.9731
   XX=     5.5785   YX=     4.9139   ZX=    -7.2147
   XY=     0.6126   YY=    12.3203   ZY=    -6.1663
   XZ=    -0.5696   YZ=   -11.3676   ZZ=    26.3001
   Eigenvalues:     4.5457     8.2715    31.3817
    113  Bq   Isotropic =    13.2144   Anisotropy =    25.5615
   XX=     6.0810   YX=     3.7551   ZX=    -9.6735
   XY=     0.6612   YY=     8.9621   ZY=    -6.1689
   XZ=    -3.7357   YZ=   -10.5015   ZZ=    24.6001
   Eigenvalues:     3.7953     5.5925    30.2554
    114  Bq   Isotropic =    13.9530   Anisotropy =    26.8627
   XX=     6.5805   YX=     1.3746   ZX=    -9.3520
   XY=    -0.9235   YY=     8.6940   ZY=    -5.6313
   XZ=    -4.5098   YZ=   -11.9339   ZZ=    26.5846
   Eigenvalues:     2.6596     7.3380    31.8615
    115  Bq   Isotropic =    14.7290   Anisotropy =    30.1191
   XX=     6.9194   YX=     0.2907   ZX=    -8.0867
   XY=     0.1433   YY=     6.4515   ZY=    -6.3483
   XZ=    -5.3427   YZ=    -9.9618   ZZ=    30.8162
   Eigenvalues:     2.8441     6.5346    34.8085
    116  Bq   Isotropic =    11.0215   Anisotropy =    26.9721
   XX=     5.0002   YX=    -1.7084   ZX=    -6.6822
   XY=    -0.7421   YY=     1.2027   ZY=    -3.7560
   XZ=    -5.6631   YZ=    -4.7136   ZZ=    26.8617
   Eigenvalues:    -0.5817     4.6434    29.0030
    117  Bq   Isotropic =     7.6243   Anisotropy =    21.5992
   XX=     3.0596   YX=    -2.1401   ZX=    -4.5818
   XY=    -1.1144   YY=    -0.6201   ZY=    -3.2413
   XZ=    -4.4516   YZ=    -4.3398   ZZ=    20.4334
   Eigenvalues:    -2.4649     3.3140    22.0237
    118  Bq   Isotropic =    -0.7389   Anisotropy =     9.2469
   XX=    -1.7812   YX=    -0.2915   ZX=     2.8434
   XY=    -2.1147   YY=     3.9999   ZY=    -1.2867
   XZ=     4.4739   YZ=    -3.7540   ZZ=    -4.4355
   Eigenvalues:    -7.1809    -0.4615     5.4256
    119  Bq   Isotropic =    -0.0284   Anisotropy =    12.0075
   XX=    -1.4626   YX=     1.1694   ZX=     3.4371
   XY=    -2.3017   YY=     5.6776   ZY=    -2.2881
   XZ=     6.3966   YZ=    -6.5041   ZZ=    -4.3004
   Eigenvalues:    -8.7420     0.6802     7.9765
    120  Bq   Isotropic =     2.8192   Anisotropy =    14.3055
   XX=     0.7524   YX=     3.5539   ZX=     2.2591
   XY=    -2.6070   YY=     7.1441   ZY=    -3.6672
   XZ=     7.7505   YZ=   -10.8891   ZZ=     0.5611
   Eigenvalues:    -6.8549     2.9563    12.3562
    121  Bq   Isotropic =     7.6607   Anisotropy =    15.5388
   XX=     3.3353   YX=     4.4551   ZX=    -1.7240
   XY=    -3.0957   YY=     8.2862   ZY=    -3.5239
   XZ=     8.3196   YZ=   -11.9372   ZZ=    11.3606
   Eigenvalues:    -0.1663     5.1285    18.0199
    122  Bq   Isotropic =     9.6388   Anisotropy =    17.4113
   XX=     2.2639   YX=     2.5549   ZX=    -4.0129
   XY=    -2.8041   YY=     9.4522   ZY=    -4.3184
   XZ=     9.3074   YZ=    -8.8169   ZZ=    17.2002
   Eigenvalues:     1.6200     6.0500    21.2463
    123  Bq   Isotropic =     8.9255   Anisotropy =    18.2386
   XX=     0.9266   YX=     2.3616   ZX=    -3.7713
   XY=    -1.9865   YY=     7.9900   ZY=    -3.9456
   XZ=     9.6790   YZ=    -8.2013   ZZ=    17.8598
   Eigenvalues:     0.1805     5.5114    21.0845
    124  Bq   Isotropic =     9.7760   Anisotropy =    19.3376
   XX=     1.5849   YX=     3.0555   ZX=    -4.9467
   XY=    -1.2969   YY=     8.1562   ZY=    -2.9671
   XZ=     9.0204   YZ=   -10.1251   ZZ=    19.5870
   Eigenvalues:     0.8580     5.8023    22.6678
    125  Bq   Isotropic =    11.3916   Anisotropy =    24.0015
   XX=     3.7539   YX=     2.0449   ZX=    -6.4046
   XY=     0.0044   YY=     5.8004   ZY=    -4.6501
   XZ=     4.1117   YZ=   -10.5523   ZZ=    24.6205
   Eigenvalues:     2.7455     4.0367    27.3926
    126  Bq   Isotropic =     9.8025   Anisotropy =    25.0059
   XX=     3.6018   YX=     0.3877   ZX=    -6.4251
   XY=     0.2094   YY=     0.8066   ZY=    -3.0397
   XZ=    -0.8158   YZ=    -6.4824   ZZ=    24.9990
   Eigenvalues:    -0.1416     3.0759    26.4730
    127  Bq   Isotropic =     7.6128   Anisotropy =    22.2200
   XX=     2.7338   YX=    -0.3023   ZX=    -5.8798
   XY=    -0.1562   YY=    -0.9640   ZY=    -2.8331
   XZ=    -1.8004   YZ=    -4.8030   ZZ=    21.0684
   Eigenvalues:    -1.7966     2.2088    22.4261
    128  Bq   Isotropic =    -0.8326   Anisotropy =     7.9722
   XX=    -1.4895   YX=    -0.5053   ZX=     2.1695
   XY=    -2.1341   YY=     3.1171   ZY=    -1.3441
   XZ=     3.5349   YZ=    -2.9729   ZZ=    -4.1254
   Eigenvalues:    -6.0953    -0.8847     4.4822
    129  Bq   Isotropic =    -0.4522   Anisotropy =    10.4943
   XX=    -1.6369   YX=     0.4386   ZX=     2.5020
   XY=    -2.4189   YY=     4.1704   ZY=    -2.5803
   XZ=     5.0731   YZ=    -5.3491   ZZ=    -3.8901
   Eigenvalues:    -7.3606    -0.5400     6.5440
    130  Bq   Isotropic =     1.1650   Anisotropy =    12.5435
   XX=    -1.0447   YX=     1.8856   ZX=     1.5592
   XY=    -2.5862   YY=     4.5244   ZY=    -3.8772
   XZ=     6.7170   YZ=    -8.4014   ZZ=     0.0152
   Eigenvalues:    -6.3682     0.3358     9.5273
    131  Bq   Isotropic =     3.2163   Anisotropy =    12.5953
   XX=    -0.6551   YX=     1.8376   ZX=    -0.5403
   XY=    -3.0808   YY=     3.8996   ZY=    -2.8291
   XZ=     8.5570   YZ=    -7.7108   ZZ=     6.4044
   Eigenvalues:    -3.0202     1.0559    11.6132
    132  Bq   Isotropic =     2.9772   Anisotropy =    11.9801
   XX=    -1.9464   YX=     0.1538   ZX=    -0.2580
   XY=    -3.5729   YY=     4.1095   ZY=    -1.1408
   XZ=    11.3372   YZ=    -4.3356   ZZ=     6.7685
   Eigenvalues:    -4.6514     2.6192    10.9639
    133  Bq   Isotropic =     2.0211   Anisotropy =    12.9695
   XX=    -3.0429   YX=     0.8054   ZX=     1.6021
   XY=    -2.7660   YY=     4.6672   ZY=    -0.9182
   XZ=    13.7402   YZ=    -4.7620   ZZ=     4.4390
   Eigenvalues:    -7.8743     3.2702    10.6675
    134  Bq   Isotropic =     3.2952   Anisotropy =    14.7120
   XX=    -2.4454   YX=     2.8588   ZX=     0.5818
   XY=    -1.3444   YY=     5.8676   ZY=    -1.9222
   XZ=    13.5824   YZ=    -8.6824   ZZ=     6.4635
   Eigenvalues:    -7.2214     4.0039    13.1032
    135  Bq   Isotropic =     6.9892   Anisotropy =    19.4446
   XX=    -0.0400   YX=     3.1427   ZX=    -2.6028
   XY=    -0.0934   YY=     5.2801   ZY=    -3.5465
   XZ=     9.3043   YZ=   -11.5688   ZZ=    15.7275
   Eigenvalues:    -2.4896     3.5049    19.9522
    136  Bq   Isotropic =     9.2013   Anisotropy =    23.5300
   XX=     1.4007   YX=     2.2477   ZX=    -5.1871
   XY=     0.7710   YY=     3.0120   ZY=    -3.2495
   XZ=     4.1406   YZ=    -8.7994   ZZ=    23.1912
   Eigenvalues:     0.0430     2.6729    24.8880
    137  Bq   Isotropic =     8.7579   Anisotropy =    23.4865
   XX=     1.9547   YX=     1.0265   ZX=    -6.6249
   XY=     0.3891   YY=     1.0376   ZY=    -3.4609
   XZ=     1.8422   YZ=    -5.4537   ZZ=    23.2812
   Eigenvalues:     0.1401     1.7180    24.4155
 End of Minotr F.D. properties file   721 does not exist.
 End of Minotr F.D. properties file   722 does not exist.
 End of Minotr F.D. properties file   788 does not exist.
 Hyperfine terms turned off by default for NAtoms > 100.

 **********************************************************************

            Population analysis using the SCF density.

 **********************************************************************

 Alpha  occ. eigenvalues --  -10.19519 -10.19478 -10.19029 -10.19029 -10.18896
 Alpha  occ. eigenvalues --  -10.18895 -10.18706 -10.18705 -10.17975 -10.17938
 Alpha  occ. eigenvalues --  -10.17937 -10.17904 -10.17858 -10.17858 -10.17744
 Alpha  occ. eigenvalues --  -10.17743 -10.17670 -10.17670 -10.17548 -10.17548
 Alpha  occ. eigenvalues --  -10.17417 -10.17416  -0.90320  -0.88119  -0.85937
 Alpha  occ. eigenvalues --   -0.83160  -0.80702  -0.79527  -0.76956  -0.75590
 Alpha  occ. eigenvalues --   -0.74411  -0.72712  -0.71872  -0.64912  -0.64545
 Alpha  occ. eigenvalues --   -0.62214  -0.61768  -0.61707  -0.58417  -0.55988
 Alpha  occ. eigenvalues --   -0.53829  -0.53378  -0.50936  -0.50526  -0.49905
 Alpha  occ. eigenvalues --   -0.47316  -0.47011  -0.45836  -0.44023  -0.43956
 Alpha  occ. eigenvalues --   -0.43861  -0.43232  -0.42654  -0.42235  -0.41022
 Alpha  occ. eigenvalues --   -0.40605  -0.39905  -0.39348  -0.37595  -0.37171
 Alpha  occ. eigenvalues --   -0.36929  -0.35577  -0.35098  -0.33983  -0.33391
 Alpha  occ. eigenvalues --   -0.32930  -0.30649  -0.29657  -0.28532  -0.26104
 Alpha  occ. eigenvalues --   -0.23798  -0.21944  -0.21480
 Alpha virt. eigenvalues --   -0.06190  -0.06048  -0.03588  -0.01474   0.00045
 Alpha virt. eigenvalues --    0.00403   0.00776   0.00822   0.01789   0.01908
 Alpha virt. eigenvalues --    0.02260   0.03054   0.03115   0.03427   0.03970
 Alpha virt. eigenvalues --    0.04148   0.05033   0.05261   0.05403   0.05895
 Alpha virt. eigenvalues --    0.06030   0.06849   0.07148   0.07594   0.07804
 Alpha virt. eigenvalues --    0.08569   0.08924   0.09463   0.09496   0.10354
 Alpha virt. eigenvalues --    0.10570   0.10732   0.11408   0.11748   0.12306
 Alpha virt. eigenvalues --    0.12874   0.12935   0.13130   0.13385   0.13945
 Alpha virt. eigenvalues --    0.14237   0.14391   0.14830   0.15470   0.15971
 Alpha virt. eigenvalues --    0.16370   0.16695   0.16750   0.17157   0.17459
 Alpha virt. eigenvalues --    0.17466   0.17772   0.18102   0.18395   0.18613
 Alpha virt. eigenvalues --    0.19142   0.19181   0.19441   0.19725   0.20002
 Alpha virt. eigenvalues --    0.20054   0.20484   0.20789   0.20847   0.20953
 Alpha virt. eigenvalues --    0.21459   0.21966   0.22313   0.22670   0.22674
 Alpha virt. eigenvalues --    0.23072   0.23288   0.23358   0.23739   0.24176
 Alpha virt. eigenvalues --    0.24292   0.24631   0.24928   0.24965   0.25616
 Alpha virt. eigenvalues --    0.25621   0.26241   0.26401   0.26560   0.27084
 Alpha virt. eigenvalues --    0.27711   0.27773   0.28033   0.28455   0.29035
 Alpha virt. eigenvalues --    0.29404   0.29706   0.29857   0.30078   0.30253
 Alpha virt. eigenvalues --    0.30266   0.30649   0.31525   0.31636   0.31758
 Alpha virt. eigenvalues --    0.32239   0.32483   0.32704   0.33195   0.33327
 Alpha virt. eigenvalues --    0.33840   0.34625   0.35488   0.35598   0.36043
 Alpha virt. eigenvalues --    0.38050   0.38109   0.39835   0.40156   0.40471
 Alpha virt. eigenvalues --    0.40903   0.42104   0.44630   0.45266   0.47699
 Alpha virt. eigenvalues --    0.47890   0.48537   0.49021   0.49110   0.50711
 Alpha virt. eigenvalues --    0.52328   0.52559   0.53309   0.53697   0.53977
 Alpha virt. eigenvalues --    0.54277   0.54989   0.55247   0.55788   0.56073
 Alpha virt. eigenvalues --    0.56322   0.56436   0.57288   0.57797   0.57994
 Alpha virt. eigenvalues --    0.58489   0.58829   0.59687   0.59777   0.59998
 Alpha virt. eigenvalues --    0.60789   0.60868   0.61789   0.62257   0.62766
 Alpha virt. eigenvalues --    0.63479   0.64175   0.65147   0.66108   0.66617
 Alpha virt. eigenvalues --    0.67511   0.67973   0.68078   0.69426   0.69894
 Alpha virt. eigenvalues --    0.70261   0.70432   0.71100   0.71532   0.72506
 Alpha virt. eigenvalues --    0.72623   0.72679   0.72826   0.73078   0.74019
 Alpha virt. eigenvalues --    0.74766   0.75246   0.75517   0.75527   0.75825
 Alpha virt. eigenvalues --    0.76469   0.76811   0.77162   0.78212   0.78273
 Alpha virt. eigenvalues --    0.78966   0.80200   0.80250   0.81116   0.82017
 Alpha virt. eigenvalues --    0.82463   0.82753   0.84094   0.84505   0.85228
 Alpha virt. eigenvalues --    0.85345   0.86390   0.87451   0.88386   0.88669
 Alpha virt. eigenvalues --    0.89585   0.89655   0.90216   0.91202   0.91381
 Alpha virt. eigenvalues --    0.91542   0.93345   0.93632   0.94099   0.94269
 Alpha virt. eigenvalues --    0.95618   0.96104   0.96964   0.97583   0.97759
 Alpha virt. eigenvalues --    0.98660   0.98888   0.99995   1.00137   1.01437
 Alpha virt. eigenvalues --    1.02087   1.02133   1.03492   1.03557   1.05029
 Alpha virt. eigenvalues --    1.05108   1.07288   1.07607   1.09453   1.09581
 Alpha virt. eigenvalues --    1.10586   1.11198   1.11331   1.13382   1.13854
 Alpha virt. eigenvalues --    1.14269   1.16458   1.16861   1.17654   1.19397
 Alpha virt. eigenvalues --    1.19547   1.21711   1.22636   1.22894   1.26125
 Alpha virt. eigenvalues --    1.29617   1.31281   1.32829   1.33582   1.36341
 Alpha virt. eigenvalues --    1.37663   1.39484   1.39517   1.42713   1.46210
 Alpha virt. eigenvalues --    1.46584   1.48223   1.48804   1.49143   1.50150
 Alpha virt. eigenvalues --    1.50235   1.51739   1.51768   1.53142   1.53852
 Alpha virt. eigenvalues --    1.54784   1.55164   1.55788   1.56018   1.56909
 Alpha virt. eigenvalues --    1.57369   1.58363   1.59276   1.59830   1.60691
 Alpha virt. eigenvalues --    1.61318   1.61437   1.61530   1.63672   1.64358
 Alpha virt. eigenvalues --    1.65748   1.67463   1.67570   1.69816   1.70530
 Alpha virt. eigenvalues --    1.71032   1.72103   1.72835   1.73613   1.74610
 Alpha virt. eigenvalues --    1.74968   1.75931   1.76093   1.76160   1.78199
 Alpha virt. eigenvalues --    1.78443   1.82205   1.82757   1.83005   1.83265
 Alpha virt. eigenvalues --    1.85144   1.85660   1.85803   1.87132   1.88323
 Alpha virt. eigenvalues --    1.89447   1.89538   1.90393   1.91565   1.92371
 Alpha virt. eigenvalues --    1.92424   1.92653   1.93924   1.94576   1.95166
 Alpha virt. eigenvalues --    1.95369   1.95608   1.97280   1.97532   1.97787
 Alpha virt. eigenvalues --    1.99538   2.01839   2.02734   2.03513   2.04274
 Alpha virt. eigenvalues --    2.05377   2.06329   2.06633   2.08238   2.08245
 Alpha virt. eigenvalues --    2.09663   2.10651   2.10693   2.11950   2.12645
 Alpha virt. eigenvalues --    2.14353   2.15040   2.18293   2.19151   2.20115
 Alpha virt. eigenvalues --    2.21316   2.22335   2.24453   2.26496   2.27023
 Alpha virt. eigenvalues --    2.30750   2.30776   2.32190   2.34589   2.34679
 Alpha virt. eigenvalues --    2.36221   2.40261   2.41010   2.42361   2.42548
 Alpha virt. eigenvalues --    2.43343   2.45214   2.46685   2.46769   2.47872
 Alpha virt. eigenvalues --    2.49371   2.52075   2.54599   2.56304   2.58248
 Alpha virt. eigenvalues --    2.59056   2.65475   2.65678   2.67058   2.69083
 Alpha virt. eigenvalues --    2.69620   2.69758   2.70629   2.71087   2.71942
 Alpha virt. eigenvalues --    2.72192   2.73171   2.73425   2.74326   2.74463
 Alpha virt. eigenvalues --    2.75225   2.75305   2.75525   2.75932   2.76148
 Alpha virt. eigenvalues --    2.76930   2.77514   2.77723   2.78748   2.79193
 Alpha virt. eigenvalues --    2.79815   2.80229   2.82623   2.83434   2.83662
 Alpha virt. eigenvalues --    2.85615   2.86706   2.87188   2.88082   2.88315
 Alpha virt. eigenvalues --    2.88695   2.89199   2.91197   2.94038   2.94128
 Alpha virt. eigenvalues --    2.94895   2.95121   2.97440   2.97682   3.01307
 Alpha virt. eigenvalues --    3.01633   3.04949   3.06617   3.10084   3.11988
 Alpha virt. eigenvalues --    3.14970   3.16481   3.22162   3.23050   3.23283
 Alpha virt. eigenvalues --    3.24797   3.25501   3.29918   3.30518   3.34806
 Alpha virt. eigenvalues --    3.35007   3.36722   3.38733   3.39353   3.40525
 Alpha virt. eigenvalues --    3.44514   3.45139   3.48005   3.50671   3.50767
 Alpha virt. eigenvalues --    3.55406   3.55423   3.57270   3.58232   3.58357
 Alpha virt. eigenvalues --    3.65254   3.65347   3.66170   3.66992   3.73362
 Alpha virt. eigenvalues --    3.75788   3.84163   3.97968   4.04607   4.04614
 Alpha virt. eigenvalues --    4.06100   4.06776   4.08780   4.09572   4.09773
 Alpha virt. eigenvalues --    4.19389   4.20687   4.25014   4.32130   4.41470
 Alpha virt. eigenvalues --    4.60493   4.79189   4.79328   4.79758   4.84284
 Alpha virt. eigenvalues --    4.85797  23.48703  23.65474  23.75492  23.85014
 Alpha virt. eigenvalues --   23.89650  23.94497  23.96407  23.97011  23.97390
 Alpha virt. eigenvalues --   23.98137  23.98920  24.03520  24.03812  24.04041
 Alpha virt. eigenvalues --   24.04301  24.14283  24.14640  24.21696  24.21996
 Alpha virt. eigenvalues --   24.22195  24.22672  24.23049
          Condensed to atoms (all electrons):
 Mulliken charges:
               1
     1  C   -0.379011
     2  H    0.123756
     3  C    0.054362
     4  H    0.115562
     5  C    0.447723
     6  C    0.063661
     7  C   -0.484065
     8  H    0.149708
     9  C   -0.262110
    10  H    0.122290
    11  C   -0.321452
    12  H    0.116208
    13  C   -0.234569
    14  H    0.116516
    15  C    0.651925
    16  C    0.037060
    17  C   -0.434569
    18  H    0.117448
    19  C   -0.434668
    20  H    0.117446
    21  C    0.651883
    22  C    0.036499
    23  C   -0.234337
    24  H    0.116514
    25  C   -0.321384
    26  H    0.116205
    27  C    0.447922
    28  C    0.063287
    29  C   -0.484078
    30  H    0.149729
    31  C   -0.261748
    32  H    0.122280
    33  C   -0.379719
    34  H    0.123755
    35  C    0.054416
    36  H    0.115557
    37  Bq   0.000000
    38  Bq   0.000000
    39  Bq   0.000000
    40  Bq   0.000000
    41  Bq   0.000000
    42  Bq   0.000000
    43  Bq   0.000000
    44  Bq   0.000000
    45  Bq   0.000000
    46  Bq   0.000000
    47  Bq   0.000000
    48  Bq   0.000000
    49  Bq   0.000000
    50  Bq   0.000000
    51  Bq   0.000000
    52  Bq   0.000000
    53  Bq   0.000000
    54  Bq   0.000000
    55  Bq   0.000000
    56  Bq   0.000000
    57  Bq   0.000000
    58  Bq   0.000000
    59  Bq   0.000000
    60  Bq   0.000000
    61  Bq   0.000000
    62  Bq   0.000000
    63  Bq   0.000000
    64  Bq   0.000000
    65  Bq   0.000000
    66  Bq   0.000000
    67  Bq   0.000000
    68  Bq   0.000000
    69  Bq   0.000000
    70  Bq   0.000000
    71  Bq   0.000000
    72  Bq   0.000000
    73  Bq   0.000000
    74  Bq   0.000000
    75  Bq   0.000000
    76  Bq   0.000000
    77  Bq   0.000000
    78  Bq   0.000000
    79  Bq   0.000000
    80  Bq   0.000000
    81  Bq   0.000000
    82  Bq   0.000000
    83  Bq   0.000000
    84  Bq   0.000000
    85  Bq   0.000000
    86  Bq   0.000000
    87  Bq   0.000000
    88  Bq   0.000000
    89  Bq   0.000000
    90  Bq   0.000000
    91  Bq   0.000000
    92  Bq   0.000000
    93  Bq   0.000000
    94  Bq   0.000000
    95  Bq   0.000000
    96  Bq   0.000000
    97  Bq   0.000000
    98  Bq   0.000000
    99  Bq   0.000000
   100  Bq   0.000000
   101  Bq   0.000000
   102  Bq   0.000000
   103  Bq   0.000000
   104  Bq   0.000000
   105  Bq   0.000000
   106  Bq   0.000000
   107  Bq   0.000000
   108  Bq   0.000000
   109  Bq   0.000000
   110  Bq   0.000000
   111  Bq   0.000000
   112  Bq   0.000000
   113  Bq   0.000000
   114  Bq   0.000000
   115  Bq   0.000000
   116  Bq   0.000000
   117  Bq   0.000000
   118  Bq   0.000000
   119  Bq   0.000000
   120  Bq   0.000000
   121  Bq   0.000000
   122  Bq   0.000000
   123  Bq   0.000000
   124  Bq   0.000000
   125  Bq   0.000000
   126  Bq   0.000000
   127  Bq   0.000000
   128  Bq   0.000000
   129  Bq   0.000000
   130  Bq   0.000000
   131  Bq   0.000000
   132  Bq   0.000000
   133  Bq   0.000000
   134  Bq   0.000000
   135  Bq   0.000000
   136  Bq   0.000000
   137  Bq   0.000000
 Sum of Mulliken charges =  -0.00000
 Mulliken charges with hydrogens summed into heavy atoms:
               1
     1  C   -0.255255
     3  C    0.169924
     5  C    0.447723
     6  C    0.063661
     7  C   -0.334357
     9  C   -0.139820
    11  C   -0.205245
    13  C   -0.118054
    15  C    0.651925
    16  C    0.037060
    17  C   -0.317120
    19  C   -0.317222
    21  C    0.651883
    22  C    0.036499
    23  C   -0.117824
    25  C   -0.205179
    27  C    0.447922
    28  C    0.063287
    29  C   -0.334349
    31  C   -0.139468
    33  C   -0.379719
    35  C    0.054416
    37  Bq   0.000000
    38  Bq   0.000000
    39  Bq   0.000000
    40  Bq   0.000000
    41  Bq   0.000000
    42  Bq   0.000000
    43  Bq   0.000000
    44  Bq   0.000000
    45  Bq   0.000000
    46  Bq   0.000000
    47  Bq   0.000000
    48  Bq   0.000000
    49  Bq   0.000000
    50  Bq   0.000000
    51  Bq   0.000000
    52  Bq   0.000000
    53  Bq   0.000000
    54  Bq   0.000000
    55  Bq   0.000000
    56  Bq   0.000000
    57  Bq   0.000000
    58  Bq   0.000000
    59  Bq   0.000000
    60  Bq   0.000000
    61  Bq   0.000000
    62  Bq   0.000000
    63  Bq   0.000000
    64  Bq   0.000000
    65  Bq   0.000000
    66  Bq   0.000000
    67  Bq   0.000000
    68  Bq   0.000000
    69  Bq   0.000000
    70  Bq   0.000000
    71  Bq   0.000000
    72  Bq   0.000000
    73  Bq   0.000000
    74  Bq   0.000000
    75  Bq   0.000000
    76  Bq   0.000000
    77  Bq   0.000000
    78  Bq   0.000000
    79  Bq   0.000000
    80  Bq   0.000000
    81  Bq   0.000000
    82  Bq   0.000000
    83  Bq   0.000000
    84  Bq   0.000000
    85  Bq   0.000000
    86  Bq   0.000000
    87  Bq   0.000000
    88  Bq   0.123755
    89  Bq   0.000000
    90  Bq   0.000000
    91  Bq   0.000000
    92  Bq   0.000000
    93  Bq   0.000000
    94  Bq   0.000000
    95  Bq   0.000000
    96  Bq   0.000000
    97  Bq   0.000000
    98  Bq   0.000000
    99  Bq   0.000000
   100  Bq   0.000000
   101  Bq   0.000000
   102  Bq   0.000000
   103  Bq   0.000000
   104  Bq   0.000000
   105  Bq   0.000000
   106  Bq   0.000000
   107  Bq   0.000000
   108  Bq   0.000000
   109  Bq   0.000000
   110  Bq   0.000000
   111  Bq   0.000000
   112  Bq   0.000000
   113  Bq   0.000000
   114  Bq   0.000000
   115  Bq   0.000000
   116  Bq   0.000000
   117  Bq   0.000000
   118  Bq   0.000000
   119  Bq   0.000000
   120  Bq   0.000000
   121  Bq   0.000000
   122  Bq   0.000000
   123  Bq   0.000000
   124  Bq   0.000000
   125  Bq   0.000000
   126  Bq   0.000000
   127  Bq   0.000000
   128  Bq   0.000000
   129  Bq   0.000000
   130  Bq   0.000000
   131  Bq   0.115557
   132  Bq   0.000000
   133  Bq   0.000000
   134  Bq   0.000000
   135  Bq   0.000000
   136  Bq   0.000000
   137  Bq   0.000000
 Electronic spatial extent (au):  <R**2>=           5736.9270
 Charge=              0.0000 electrons
 Dipole moment (field-independent basis, Debye):
    X=              0.0480    Y=              0.0854    Z=              0.0027  Tot=              0.0981
 Quadrupole moment (field-independent basis, Debye-Ang):
   XX=           -113.7065   YY=           -113.9465   ZZ=           -133.2659
   XY=             -0.3840   XZ=              3.2088   YZ=             -1.1827
 Traceless Quadrupole moment (field-independent basis, Debye-Ang):
   XX=              6.5998   YY=              6.3598   ZZ=            -12.9596
   XY=             -0.3840   XZ=              3.2088   YZ=             -1.1827
 Octapole moment (field-independent basis, Debye-Ang**2):
  XXX=            -16.4604  YYY=            -16.1937  ZZZ=             -1.7048  XYY=              2.5621
  XXY=             -6.5684  XXZ=             13.6585  XZZ=             -8.9438  YZZ=            -17.7184
  YYZ=            -13.2980  XYZ=              8.8042
 Hexadecapole moment (field-independent basis, Debye-Ang**3):
 XXXX=          -3951.1838 YYYY=          -3112.2266 ZZZZ=           -504.8224 XXXY=            340.6919
 XXXZ=            156.4869 YYYX=            335.5529 YYYZ=            -87.0842 ZZZX=            120.2213
 ZZZY=           -108.7256 XXYY=          -1176.4813 XXZZ=           -856.7341 YYZZ=           -665.7192
 XXYZ=            -68.8903 YYXZ=             48.1509 ZZXY=            153.0341
 N-N= 1.610917622655D+03 E-N=-5.186891081272D+03  KE= 8.436329715391D+02
 1\1\GINC-PLANA\SP\RB3LYP\6-311+G(d,p)\C22H14\AARTIGAS\05-Aug-2020\0\\#
  rb3lyp/6-311+g** NMR\\Title\\0,1\C,0,-4.0500558,-0.5771862,0.8136712\
 H,0,-5.0263804,-1.0082727,1.002476\C,0,-3.9381552,0.6617804,0.2400876\
 H,0,-4.8252424,1.233889,-0.0111295\C,0,-2.676841,1.2433246,0.0057578\C
 ,0,-1.4974121,0.5051527,0.2848253\C,0,-1.6508332,-0.7338728,0.9404026\
 H,0,-0.7713646,-1.2730967,1.2633753\C,0,-2.8898548,-1.2624035,1.199430
 7\H,0,-2.9683706,-2.2124563,1.7152676\C,0,-2.5773185,2.5963696,-0.4192
 93\H,0,-3.4870728,3.1412239,-0.6474055\C,0,-1.3741895,3.2147896,-0.436
 403\H,0,-1.2997315,4.2742019,-0.6578144\C,0,-0.1719488,2.499409,-0.173
 4588\C,0,-0.2043917,1.1018437,0.0192689\C,0,1.0513491,3.204256,-0.0676
 222\H,0,1.0427344,4.2819499,-0.1896997\C,0,2.1942091,2.5487446,0.25795
 77\H,0,3.1168527,3.0912848,0.4334727\C,0,2.2216473,1.1336562,0.293499\
 C,0,1.0486931,0.3945528,0.0302412\C,0,3.4483363,0.4614633,0.5573939\H,
 0,4.3095794,1.0606054,0.8334846\C,0,3.5427346,-0.8855926,0.4749463\H,0
 ,4.4731467,-1.3939704,0.7038822\C,0,2.4490052,-1.6474447,-0.0196319\C,
 0,1.2150704,-1.0057258,-0.3013573\C,0,0.2531113,-1.743444,-1.0216591\H
 ,0,-0.6541356,-1.2535051,-1.3462847\C,0,0.4494193,-3.0628597,-1.341377
 9\H,0,-0.3083162,-3.5944309,-1.905406\C,0,1.6251726,-3.7207967,-0.9552
 541\H,0,1.7670048,-4.7687404,-1.1927019\C,0,2.6109872,-3.0144177,-0.31
 8305\H,0,3.5525612,-3.4902813,-0.0646367\Bq,0,1.4337943333,-2.36578143
 33,-0.65959755\Bq,0,-0.9658833031,-5.0417625122,-1.421616255\Bq,0,-1.0
 209156699,-4.5597975986,-1.3004500027\Bq,0,-1.0759480368,-4.0778326851
 ,-1.1792837505\Bq,0,-1.1309804037,-3.5958677715,-1.0581174982\Bq,0,-1.
 1860127705,-3.113902858,-0.9369512459\Bq,0,-1.2410451374,-2.6319379444
 ,-0.8157849936\Bq,0,-1.2960775042,-2.1499730308,-0.6946187413\Bq,0,-1.
 3511098711,-1.6680081173,-0.573452489\Bq,0,-1.406142238,-1.1860432037,
 -0.4522862367\Bq,0,-1.4611746048,-0.7040782902,-0.3311199844\Bq,0,-0.5
 106389365,-5.0417625122,-1.2148493169\Bq,0,-0.5656713034,-4.5597975986
 ,-1.0936830646\Bq,0,-0.6207036702,-4.0778326851,-0.9725168123\Bq,0,-0.
 6757360371,-3.5958677715,-0.85135056\Bq,0,-0.730768404,-3.113902858,-0
 .7301843077\Bq,0,-0.7858007708,-2.6319379444,-0.6090180554\Bq,0,-0.840
 8331377,-2.1499730308,-0.4878518031\Bq,0,-0.8958655045,-1.6680081173,-
 0.3666855509\Bq,0,-0.9508978714,-1.1860432037,-0.2455192986\Bq,0,-1.00
 59302383,-0.7040782902,-0.1243530463\Bq,0,-0.0553945699,-5.0417625122,
 -1.0080823787\Bq,0,-0.1104269368,-4.5597975986,-0.8869161265\Bq,0,-0.1
 654593037,-4.0778326851,-0.7657498742\Bq,0,-0.2204916705,-3.5958677715
 ,-0.6445836219\Bq,0,-0.2755240374,-3.113902858,-0.5234173696\Bq,0,-0.3
 305564042,-2.6319379444,-0.4022511173\Bq,0,-0.3855887711,-2.1499730308
 ,-0.281084865\Bq,0,-0.440621138,-1.6680081173,-0.1599186127\Bq,0,-0.49
 56535048,-1.1860432037,-0.0387523604\Bq,0,-0.5506858717,-0.7040782902,
 0.0824138919\Bq,0,0.3998497966,-5.0417625122,-0.8013154406\Bq,0,0.3448
 174298,-4.5597975986,-0.6801491883\Bq,0,0.2897850629,-4.0778326851,-0.
 558982936\Bq,0,0.234752696,-3.5958677715,-0.4378166837\Bq,0,0.17972032
 92,-3.113902858,-0.3166504314\Bq,0,0.1246879623,-2.6319379444,-0.19548
 41792\Bq,0,0.0696555955,-2.1499730308,-0.0743179269\Bq,0,0.0146232286,
 -1.6680081173,0.0468483254\Bq,0,-0.0404091383,-1.1860432037,0.16801457
 77\Bq,0,-0.0954415051,-0.7040782902,0.28918083\Bq,0,0.8550941632,-5.04
 17625122,-0.5945485025\Bq,0,0.8000617963,-4.5597975986,-0.4733822502\B
 q,0,0.7450294295,-4.0778326851,-0.3522159979\Bq,0,0.6899970626,-3.5958
 677715,-0.2310497456\Bq,0,0.6349646958,-3.113902858,-0.1098834933\Bq,0
 ,0.5799323289,-2.6319379444,0.011282759\Bq,0,0.524899962,-2.1499730308
 ,0.1324490113\Bq,0,0.4698675952,-1.6680081173,0.2536152636\Bq,0,0.4148
 352283,-1.1860432037,0.3747815159\Bq,0,0.3598028614,-0.7040782902,0.49
 59477681\Bq,0,1.3103385298,-5.0417625122,-0.3877815643\Bq,0,1.25530616
 29,-4.5597975986,-0.266615312\Bq,0,1.200273796,-4.0778326851,-0.145449
 0597\Bq,0,1.1452414292,-3.5958677715,-0.0242828075\Bq,0,1.0902090623,-
 3.113902858,0.0968834448\Bq,0,1.0351766955,-2.6319379444,0.2180496971\
 Bq,0,0.9801443286,-2.1499730308,0.3392159494\Bq,0,0.9251119617,-1.6680
 081173,0.4603822017\Bq,0,0.8700795949,-1.1860432037,0.581548454\Bq,0,0
 .815047228,-0.7040782902,0.7027147063\Bq,0,1.7655828963,-5.0417625122,
 -0.1810146262\Bq,0,1.7105505295,-4.5597975986,-0.0598483739\Bq,0,1.655
 5181626,-4.0778326851,0.0613178784\Bq,0,1.6004857957,-3.5958677715,0.1
 824841307\Bq,0,1.5454534289,-3.113902858,0.303650383\Bq,0,1.490421062,
 -2.6319379444,0.4248166353\Bq,0,1.4353886952,-2.1499730308,0.545982887
 6\Bq,0,1.3803563283,-1.6680081173,0.6671491398\Bq,0,1.3253239614,-1.18
 60432037,0.7883153921\Bq,0,1.2702915946,-0.7040782902,0.9094816444\Bq,
 0,2.2208272629,-5.0417625122,0.025752312\Bq,0,2.165794896,-4.559797598
 6,0.1469185643\Bq,0,2.1107625292,-4.0778326851,0.2680848165\Bq,0,2.055
 7301623,-3.5958677715,0.3892510688\Bq,0,2.0006977955,-3.113902858,0.51
 04173211\Bq,0,1.9456654286,-2.6319379444,0.6315835734\Bq,0,1.890633061
 7,-2.1499730308,0.7527498257\Bq,0,1.8356006949,-1.6680081173,0.8739160
 78\Bq,0,1.780568328,-1.1860432037,0.9950823303\Bq,0,1.7255359612,-0.70
 40782902,1.1162485826\Bq,0,2.6760716295,-5.0417625122,0.2325192501\Bq,
 0,2.6210392626,-4.5597975986,0.3536855024\Bq,0,2.5660068957,-4.0778326
 851,0.4748517547\Bq,0,2.5109745289,-3.5958677715,0.596018007\Bq,0,2.45
 5942162,-3.113902858,0.7171842593\Bq,0,2.4009097952,-2.6319379444,0.83
 83505116\Bq,0,2.3458774283,-2.1499730308,0.9595167638\Bq,0,2.290845061
 4,-1.6680081173,1.0806830161\Bq,0,2.2358126946,-1.1860432037,1.2018492
 684\Bq,0,2.1807803277,-0.7040782902,1.3230155207\Bq,0,3.131315996,-5.0
 417625122,0.4392861882\Bq,0,3.0762836292,-4.5597975986,0.5604524405\Bq
 ,0,3.0212512623,-4.0778326851,0.6816186928\Bq,0,2.9662188954,-3.595867
 7715,0.8027849451\Bq,0,2.9111865286,-3.113902858,0.9239511974\Bq,0,2.8
 561541617,-2.6319379444,1.0451174497\Bq,0,2.8011217949,-2.1499730308,1
 .166283702\Bq,0,2.746089428,-1.6680081173,1.2874499543\Bq,0,2.69105706
 11,-1.1860432037,1.4086162066\Bq,0,2.6360246943,-0.7040782902,1.529782
 4589\\Version=ES64L-G16RevA.03\HF=-847.0032839\RMSD=7.656e-09\Dipole=0
 .0188975,0.0336152,0.0010509\Quadrupole=4.9068038,4.7283337,-9.6351376
 ,-0.2854741,2.3856816,-0.8792762\PG=C01 [X(C22H14)]\\@


 10 WHATSOEVER THY HAND FINDETH TO DO, DO IT WITH THY  
 MIGHT. FOR THERE IS NO WORK, NOR DEVICE, NOR KNOWLEDGE, NOR  
 WISDOM, IN THE GRAVE, WHITHER THOU GOEST.                    
 11 I RETURNED AND SAW UNDER THE SUN, THAT THE RACE IS NOT TO 
 THE SWIFT, NOR THE BATTLE TO THE STRONG, NEITHER YET BREAD TO
 THE WISE, NOR YET RICHES TO MEN OF UNDERSTANDING, NOR YET    
 FAVOR TO MEN OF SKILL. BUT TIME AND CHANCE HAPPEN TO THEM ALL.
 12 FOR MAN ALSO KNOWETH NOT HIS TIME. AS THE FISHES   
 THAT ARE TAKEN IN AN EVIL NET, AND AS THE BIRDS THAT ARE     
 CAUGHT IN THE SNARE. SO ARE THE SONS OF MEN SNARED IN AN EVIL
 TIME, WHEN IT FALLETH SUDDENLY UPON THEM.
                                         ECCLESIASTES 9
 Job cpu time:       0 days  2 hours 56 minutes 25.3 seconds.
 Elapsed time:       0 days  0 hours 22 minutes 25.7 seconds.
 File lengths (MBytes):  RWF=    187 Int=      0 D2E=      0 Chk=     26 Scr=      1
 Normal termination of Gaussian 16 at Wed Aug  5 22:35:08 2020.

real	22m25.851s
user	176m22.442s
sys	0m2.879s
