 Entering Gaussian System, Link 0=g09
 Initial command:
 /share/programs/GAUSSIAN/64/g09/l1.exe "/scratch/yannick.28369/Gau-110475.inp" -scrdir="/scratch/yannick.28369/"
 Entering Link 1 = /share/programs/GAUSSIAN/64/g09/l1.exe PID=    110478.
  
 Copyright (c) 1988,1990,1992,1993,1995,1998,2003,2009,2013,
            Gaussian, Inc.  All Rights Reserved.
  
 This is part of the Gaussian(R) 09 program.  It is based on
 the Gaussian(R) 03 system (copyright 2003, Gaussian, Inc.),
 the Gaussian(R) 98 system (copyright 1998, Gaussian, Inc.),
 the Gaussian(R) 94 system (copyright 1995, Gaussian, Inc.),
 the Gaussian 92(TM) system (copyright 1992, Gaussian, Inc.),
 the Gaussian 90(TM) system (copyright 1990, Gaussian, Inc.),
 the Gaussian 88(TM) system (copyright 1988, Gaussian, Inc.),
 the Gaussian 86(TM) system (copyright 1986, Carnegie Mellon
 University), and the Gaussian 82(TM) system (copyright 1983,
 Carnegie Mellon University). Gaussian is a federally registered
 trademark of Gaussian, Inc.
  
 This software contains proprietary and confidential information,
 including trade secrets, belonging to Gaussian, Inc.
  
 This software is provided under written license and may be
 used, copied, transmitted, or stored only in accord with that
 written license.
  
 The following legend is applicable only to US Government
 contracts under FAR:
  
                    RESTRICTED RIGHTS LEGEND
  
 Use, reproduction and disclosure by the US Government is
 subject to restrictions as set forth in subparagraphs (a)
 and (c) of the Commercial Computer Software - Restricted
 Rights clause in FAR 52.227-19.
  
 Gaussian, Inc.
 340 Quinnipiac St., Bldg. 40, Wallingford CT 06492
  
  
 ---------------------------------------------------------------
 Warning -- This program may not be used in any manner that
 competes with the business of Gaussian, Inc. or will provide
 assistance to any competitor of Gaussian, Inc.  The licensee
 of this program is prohibited from giving any competitor of
 Gaussian, Inc. access to this program.  By using this program,
 the user acknowledges that Gaussian, Inc. is engaged in the
 business of creating and licensing software in the field of
 computational chemistry and represents and warrants to the
 licensee that it is not a competitor of Gaussian, Inc. and that
 it will not use this program in any manner prohibited above.
 ---------------------------------------------------------------
  

 Cite this work as:
 Gaussian 09, Revision D.01,
 M. J. Frisch, G. W. Trucks, H. B. Schlegel, G. E. Scuseria, 
 M. A. Robb, J. R. Cheeseman, G. Scalmani, V. Barone, B. Mennucci, 
 G. A. Petersson, H. Nakatsuji, M. Caricato, X. Li, H. P. Hratchian, 
 A. F. Izmaylov, J. Bloino, G. Zheng, J. L. Sonnenberg, M. Hada, 
 M. Ehara, K. Toyota, R. Fukuda, J. Hasegawa, M. Ishida, T. Nakajima, 
 Y. Honda, O. Kitao, H. Nakai, T. Vreven, J. A. Montgomery, Jr., 
 J. E. Peralta, F. Ogliaro, M. Bearpark, J. J. Heyd, E. Brothers, 
 K. N. Kudin, V. N. Staroverov, T. Keith, R. Kobayashi, J. Normand, 
 K. Raghavachari, A. Rendell, J. C. Burant, S. S. Iyengar, J. Tomasi, 
 M. Cossi, N. Rega, J. M. Millam, M. Klene, J. E. Knox, J. B. Cross, 
 V. Bakken, C. Adamo, J. Jaramillo, R. Gomperts, R. E. Stratmann, 
 O. Yazyev, A. J. Austin, R. Cammi, C. Pomelli, J. W. Ochterski, 
 R. L. Martin, K. Morokuma, V. G. Zakrzewski, G. A. Voth, 
 P. Salvador, J. J. Dannenberg, S. Dapprich, A. D. Daniels, 
 O. Farkas, J. B. Foresman, J. V. Ortiz, J. Cioslowski, 
 and D. J. Fox, Gaussian, Inc., Wallingford CT, 2013.
 
 ******************************************
 Gaussian 09:  ES64L-G09RevD.01 24-Apr-2013
                14-Aug-2020 
 ******************************************
 %nproc=8
 Will use up to    8 processors via shared memory.
 %mem=1000MB
 ----------------------------------------
 # rb3lyp/6-311+g** NMR geom=connectivity
 ----------------------------------------
 1/38=1,57=2/1;
 2/12=2,17=6,18=5,40=1/2;
 3/5=4,6=6,7=111,11=2,16=1,25=1,30=1,74=-5,116=1/1,2,8,3;
 4//1;
 5/5=2,38=5/2;
 8/6=1,10=90,11=11/1;
 10/13=100,45=16/2;
 6/7=2,8=2,9=2,10=2,28=1/1;
 99/9=1/99;
 -----
 Title
 -----
 Symbolic Z-matrix:
 Charge =  0 Multiplicity = 1
 C                    -4.05006  -0.57719   0.81367 
 H                    -5.02638  -1.00827   1.00248 
 C                    -3.93816   0.66178   0.24009 
 H                    -4.82524   1.23389  -0.01113 
 C                    -2.67684   1.24332   0.00576 
 C                    -1.49741   0.50515   0.28483 
 C                    -1.65083  -0.73387   0.9404 
 H                    -0.77136  -1.2731    1.26338 
 C                    -2.88985  -1.2624    1.19943 
 H                    -2.96837  -2.21246   1.71527 
 C                    -2.57732   2.59637  -0.41929 
 H                    -3.48707   3.14122  -0.64741 
 C                    -1.37419   3.21479  -0.4364 
 H                    -1.29973   4.2742   -0.65781 
 C                    -0.17195   2.49941  -0.17346 
 C                    -0.20439   1.10184   0.01927 
 C                     1.05135   3.20426  -0.06762 
 H                     1.04273   4.28195  -0.1897 
 C                     2.19421   2.54874   0.25796 
 H                     3.11685   3.09128   0.43347 
 C                     2.22165   1.13366   0.2935 
 C                     1.04869   0.39455   0.03024 
 C                     3.44834   0.46146   0.55739 
 H                     4.30958   1.06061   0.83348 
 C                     3.54273  -0.88559   0.47495 
 H                     4.47315  -1.39397   0.70388 
 C                     2.44901  -1.64744  -0.01963 
 C                     1.21507  -1.00573  -0.30136 
 C                     0.25311  -1.74344  -1.02166 
 H                    -0.65414  -1.25351  -1.34628 
 C                     0.44942  -3.06286  -1.34138 
 H                    -0.30832  -3.59443  -1.90541 
 C                     1.62517  -3.7208   -0.95525 
 H                     1.767    -4.76874  -1.1927 
 C                     2.61099  -3.01442  -0.31831 
 H                     3.55256  -3.49028  -0.06464 
 Bq                    2.86071   4.36477   1.31538 
 Bq                    2.88966   4.35495   1.11773 
 Bq                    2.84623   4.36969   1.41421 
 Bq                    2.90414   4.35003   1.01891 
 Bq                    2.83176   4.3746    1.51303 
 Bq                    2.91861   4.34512   0.92008 
 Bq                    2.81728   4.37951   1.61185 
 Bq                    2.93309   4.34021   0.82126 
 Bq                    2.80281   4.38443   1.71068 
 Bq                    2.94757   4.33529   0.72243 
 Bq                    2.87519   4.35986   1.21656 
 Bq                    3.31982  -0.62919   1.63093 
 Bq                    3.34878  -0.63902   1.43328 
 Bq                    3.30535  -0.62427   1.72975 
 Bq                    3.36325  -0.64393   1.33445 
 Bq                    3.29087  -0.61936   1.82858 
 Bq                    3.37773  -0.64884   1.23563 
 Bq                    3.2764   -0.61445   1.9274 
 Bq                    3.3922   -0.65376   1.13681 
 Bq                    3.26192  -0.60953   2.02623 
 Bq                    3.40668  -0.65867   1.03798 
 Bq                    3.3343   -0.6341    1.5321 
 Bq                    3.32338  -0.12979   1.60662 
 Bq                    3.35234  -0.13962   1.40897 
 Bq                    3.30891  -0.12488   1.70544 
 Bq                    3.36681  -0.14453   1.31015 
 Bq                    3.29443  -0.11997   1.80427 
 Bq                    3.38129  -0.14945   1.21132 
 Bq                    3.27996  -0.11505   1.90309 
 Bq                    3.39576  -0.15436   1.1125 
 Bq                    3.26548  -0.11014   2.00192 
 Bq                    3.41024  -0.15927   1.01367 
 Bq                    3.33786  -0.13471   1.5078 
 Bq                    3.32695   0.3696    1.58231 
 Bq                    3.3559    0.35978   1.38466 
 Bq                    3.31247   0.37452   1.68114 
 Bq                    3.37037   0.35486   1.28584 
 Bq                    3.29799   0.37943   1.77996 
 Bq                    3.38485   0.34995   1.18701 
 Bq                    3.28352   0.38434   1.87879 
 Bq                    3.39933   0.34504   1.08819 
 Bq                    3.26904   0.38926   1.97761 
 Bq                    3.4138    0.34012   0.98936 
 Bq                    3.34142   0.36469   1.48349 
 Bq                    3.33051   0.869     1.558 
 Bq                    3.35946   0.85917   1.36036 
 Bq                    3.31603   0.87391   1.65683 
 Bq                    3.37393   0.85426   1.26153 
 Bq                    3.30155   0.87883   1.75565 
 Bq                    3.38841   0.84935   1.16271 
 Bq                    3.28708   0.88374   1.85448 
 Bq                    3.40289   0.84443   1.06388 
 Bq                    3.2726    0.88865   1.9533 
 Bq                    3.41736   0.83952   0.96506 
 Bq                    3.34498   0.86409   1.45918 
 Bq                    3.33407   1.3684    1.5337 
 Bq                    3.36302   1.35857   1.33605 
 Bq                    3.31959   1.37331   1.63252 
 Bq                    3.37749   1.35366   1.23722 
 Bq                    3.30511   1.37822   1.73135 
 Bq                    3.39197   1.34874   1.1384 
 Bq                    3.29064   1.38314   1.83017 
 Bq                    3.40645   1.34383   1.03957 
 Bq                    3.27616   1.38805   1.92899 
 Bq                    3.42092   1.33892   0.94075 
 Bq                    3.34854   1.36348   1.43487 
 Bq                    3.33763   1.86779   1.50939 
 Bq                    3.36658   1.85797   1.31174 
 Bq                    3.32315   1.87271   1.60821 
 Bq                    3.38106   1.85305   1.21291 
 Bq                    3.30868   1.87762   1.70704 
 Bq                    3.39553   1.84814   1.11409 
 Bq                    3.2942    1.88253   1.80586 
 Bq                    3.41001   1.84322   1.01527 
 Bq                    3.27972   1.88745   1.90469 
 Bq                    3.42448   1.83831   0.91644 
 Bq                    3.3521    1.86288   1.41056 
 Bq                    3.34119   2.36719   1.48508 
 Bq                    3.37014   2.35736   1.28743 
 Bq                    3.32671   2.3721    1.5839 
 Bq                    3.38462   2.35245   1.18861 
 Bq                    3.31224   2.37702   1.68273 
 Bq                    3.39909   2.34753   1.08978 
 Bq                    3.29776   2.38193   1.78155 
 Bq                    3.41357   2.34262   0.99096 
 Bq                    3.28328   2.38684   1.88038 
 Bq                    3.42804   2.33771   0.89213 
 Bq                    3.35566   2.36227   1.38626 
 Bq                    3.34475   2.86658   1.46077 
 Bq                    3.3737    2.85676   1.26312 
 Bq                    3.33027   2.8715    1.5596 
 Bq                    3.38818   2.85184   1.1643 
 Bq                    3.3158    2.87641   1.65842 
 Bq                    3.40265   2.84693   1.06547 
 Bq                    3.30132   2.88132   1.75725 
 Bq                    3.41713   2.84202   0.96665 
 Bq                    3.28684   2.88624   1.85607 
 Bq                    3.4316    2.8371    0.86782 
 Bq                    3.35922   2.86167   1.36195 
 Bq                    3.34831   3.36598   1.43646 
 Bq                    3.37726   3.35615   1.23881 
 Bq                    3.33383   3.37089   1.53529 
 Bq                    3.39174   3.35124   1.13999 
 Bq                    3.31936   3.37581   1.63411 
 Bq                    3.40621   3.34633   1.04117 
 Bq                    3.30488   3.38072   1.73294 
 Bq                    3.42069   3.34141   0.94234 
 Bq                    3.29041   3.38563   1.83176 
 Bq                    3.43517   3.3365    0.84352 
 Bq                    3.36279   3.36107   1.33764 
 Bq                    3.35187   3.86538   1.41216 
 Bq                    3.38082   3.85555   1.21451 
 Bq                    3.33739   3.87029   1.51098 
 Bq                    3.3953    3.85064   1.11568 
 Bq                    3.32292   3.8752    1.60981 
 Bq                    3.40977   3.84572   1.01686 
 Bq                    3.30844   3.88012   1.70863 
 Bq                    3.42425   3.84081   0.91803 
 Bq                    3.29397   3.88503   1.80745 
 Bq                    3.43873   3.8359    0.81921 
 Bq                    3.36635   3.86046   1.31333 
 Bq                    3.35543   4.36477   1.38785 
 Bq                    3.38438   4.35495   1.1902 
 Bq                    3.34095   4.36969   1.48667 
 Bq                    3.39886   4.35003   1.09137 
 Bq                    3.32648   4.3746    1.5855 
 Bq                    3.41333   4.34512   0.99255 
 Bq                    3.312     4.37951   1.68432 
 Bq                    3.42781   4.34021   0.89373 
 Bq                    3.29753   4.38443   1.78315 
 Bq                    3.44229   4.33529   0.7949 
 Bq                    3.36991   4.35986   1.28902 
 
 Symmetry turned off:
 Cannot cope with ghost atoms or with translation vectors.
 Stoichiometry    C22H14
 Framework group  C1[X(C22H14)]
 NUMDOF-- NAT=    36 NAtoms=   168
 Deg. of freedom     0
 Full point group                 C1      NOp   1
                          Input orientation:                          
 ---------------------------------------------------------------------
 Center     Atomic      Atomic             Coordinates (Angstroms)
 Number     Number       Type             X           Y           Z
 ---------------------------------------------------------------------
      1          6           0       -4.050056   -0.577186    0.813671
      2          1           0       -5.026380   -1.008273    1.002476
      3          6           0       -3.938155    0.661780    0.240088
      4          1           0       -4.825242    1.233889   -0.011130
      5          6           0       -2.676841    1.243325    0.005758
      6          6           0       -1.497412    0.505153    0.284825
      7          6           0       -1.650833   -0.733873    0.940403
      8          1           0       -0.771365   -1.273097    1.263375
      9          6           0       -2.889855   -1.262404    1.199431
     10          1           0       -2.968371   -2.212456    1.715268
     11          6           0       -2.577319    2.596370   -0.419293
     12          1           0       -3.487073    3.141224   -0.647406
     13          6           0       -1.374190    3.214790   -0.436403
     14          1           0       -1.299732    4.274202   -0.657814
     15          6           0       -0.171949    2.499409   -0.173459
     16          6           0       -0.204392    1.101844    0.019269
     17          6           0        1.051349    3.204256   -0.067622
     18          1           0        1.042734    4.281950   -0.189700
     19          6           0        2.194209    2.548745    0.257958
     20          1           0        3.116853    3.091285    0.433473
     21          6           0        2.221647    1.133656    0.293499
     22          6           0        1.048693    0.394553    0.030241
     23          6           0        3.448336    0.461463    0.557394
     24          1           0        4.309579    1.060605    0.833485
     25          6           0        3.542735   -0.885593    0.474946
     26          1           0        4.473147   -1.393970    0.703882
     27          6           0        2.449005   -1.647445   -0.019632
     28          6           0        1.215070   -1.005726   -0.301357
     29          6           0        0.253111   -1.743444   -1.021659
     30          1           0       -0.654136   -1.253505   -1.346285
     31          6           0        0.449419   -3.062860   -1.341378
     32          1           0       -0.308316   -3.594431   -1.905406
     33          6           0        1.625173   -3.720797   -0.955254
     34          1           0        1.767005   -4.768740   -1.192702
     35          6           0        2.610987   -3.014418   -0.318305
     36          1           0        3.552561   -3.490281   -0.064637
     37          0           0        2.860710    4.364772    1.315381
     38          0           0        2.889662    4.354945    1.117732
     39          0           0        2.846234    4.369686    1.414205
     40          0           0        2.904138    4.350032    1.018907
     41          0           0        2.831758    4.374599    1.513030
     42          0           0        2.918614    4.345118    0.920082
     43          0           0        2.817282    4.379513    1.611855
     44          0           0        2.933090    4.340205    0.821258
     45          0           0        2.802806    4.384426    1.710679
     46          0           0        2.947566    4.335292    0.722433
     47          0           0        2.875186    4.359859    1.216556
     48          0           0        3.319824   -0.629188    1.630928
     49          0           0        3.348776   -0.639015    1.433279
     50          0           0        3.305348   -0.624275    1.729753
     51          0           0        3.363252   -0.643929    1.334454
     52          0           0        3.290872   -0.619361    1.828578
     53          0           0        3.377728   -0.648842    1.235630
     54          0           0        3.276396   -0.614448    1.927402
     55          0           0        3.392204   -0.653756    1.136805
     56          0           0        3.261920   -0.609534    2.026227
     57          0           0        3.406680   -0.658669    1.037981
     58          0           0        3.334300   -0.634102    1.532104
     59          0           0        3.323385   -0.129792    1.606620
     60          0           0        3.352337   -0.139619    1.408971
     61          0           0        3.308909   -0.124879    1.705445
     62          0           0        3.366812   -0.144533    1.310146
     63          0           0        3.294433   -0.119965    1.804270
     64          0           0        3.381288   -0.149446    1.211322
     65          0           0        3.279957   -0.115052    1.903094
     66          0           0        3.395764   -0.154360    1.112497
     67          0           0        3.265481   -0.110138    2.001919
     68          0           0        3.410240   -0.159273    1.013673
     69          0           0        3.337861   -0.134706    1.507796
     70          0           0        3.326945    0.369604    1.582312
     71          0           0        3.355897    0.359777    1.384663
     72          0           0        3.312469    0.374517    1.681137
     73          0           0        3.370373    0.354863    1.285838
     74          0           0        3.297993    0.379431    1.779962
     75          0           0        3.384849    0.349950    1.187014
     76          0           0        3.283517    0.384344    1.878786
     77          0           0        3.399325    0.345036    1.088189
     78          0           0        3.269041    0.389258    1.977611
     79          0           0        3.413801    0.340123    0.989365
     80          0           0        3.341421    0.364690    1.483488
     81          0           0        3.330506    0.869000    1.558004
     82          0           0        3.359458    0.859173    1.360355
     83          0           0        3.316030    0.873913    1.656829
     84          0           0        3.373934    0.854259    1.261530
     85          0           0        3.301554    0.878827    1.755653
     86          0           0        3.388410    0.849346    1.162706
     87          0           0        3.287078    0.883740    1.854478
     88          0           0        3.402886    0.844432    1.063881
     89          0           0        3.272602    0.888654    1.953303
     90          0           0        3.417362    0.839519    0.965057
     91          0           0        3.344982    0.864086    1.459180
     92          0           0        3.334067    1.368396    1.533696
     93          0           0        3.363019    1.358569    1.336047
     94          0           0        3.319591    1.373309    1.632521
     95          0           0        3.377494    1.353656    1.237222
     96          0           0        3.305115    1.378223    1.731345
     97          0           0        3.391970    1.348742    1.138398
     98          0           0        3.290639    1.383136    1.830170
     99          0           0        3.406446    1.343829    1.039573
    100          0           0        3.276163    1.388050    1.928995
    101          0           0        3.420922    1.338915    0.940749
    102          0           0        3.348543    1.363482    1.434872
    103          0           0        3.337627    1.867792    1.509388
    104          0           0        3.366579    1.857965    1.311739
    105          0           0        3.323151    1.872706    1.608213
    106          0           0        3.381055    1.853052    1.212914
    107          0           0        3.308675    1.877619    1.707037
    108          0           0        3.395531    1.848138    1.114090
    109          0           0        3.294199    1.882533    1.805862
    110          0           0        3.410007    1.843225    1.015265
    111          0           0        3.279723    1.887446    1.904687
    112          0           0        3.424483    1.838311    0.916441
    113          0           0        3.352103    1.862879    1.410564
    114          0           0        3.341188    2.367188    1.485080
    115          0           0        3.370140    2.357361    1.287431
    116          0           0        3.326712    2.372102    1.583905
    117          0           0        3.384616    2.352448    1.188606
    118          0           0        3.312236    2.377015    1.682729
    119          0           0        3.399092    2.347534    1.089782
    120          0           0        3.297760    2.381929    1.781554
    121          0           0        3.413568    2.342621    0.990957
    122          0           0        3.283284    2.386842    1.880379
    123          0           0        3.428044    2.337707    0.892132
    124          0           0        3.355664    2.362275    1.386256
    125          0           0        3.344749    2.866584    1.460772
    126          0           0        3.373701    2.856757    1.263123
    127          0           0        3.330273    2.871498    1.559597
    128          0           0        3.388176    2.851844    1.164298
    129          0           0        3.315797    2.876411    1.658421
    130          0           0        3.402652    2.846930    1.065474
    131          0           0        3.301321    2.881325    1.757246
    132          0           0        3.417128    2.842017    0.966649
    133          0           0        3.286845    2.886238    1.856071
    134          0           0        3.431604    2.837103    0.867824
    135          0           0        3.359225    2.861671    1.361948
    136          0           0        3.348309    3.365980    1.436464
    137          0           0        3.377261    3.356153    1.238815
    138          0           0        3.333833    3.370894    1.535289
    139          0           0        3.391737    3.351240    1.139990
    140          0           0        3.319357    3.375807    1.634113
    141          0           0        3.406213    3.346326    1.041166
    142          0           0        3.304881    3.380721    1.732938
    143          0           0        3.420689    3.341413    0.942341
    144          0           0        3.290405    3.385634    1.831763
    145          0           0        3.435165    3.336499    0.843516
    146          0           0        3.362785    3.361067    1.337640
    147          0           0        3.351870    3.865376    1.412156
    148          0           0        3.380822    3.855549    1.214507
    149          0           0        3.337394    3.870290    1.510981
    150          0           0        3.395298    3.850636    1.115682
    151          0           0        3.322918    3.875203    1.609805
    152          0           0        3.409774    3.845722    1.016858
    153          0           0        3.308442    3.880117    1.708630
    154          0           0        3.424250    3.840809    0.918033
    155          0           0        3.293966    3.885030    1.807455
    156          0           0        3.438726    3.835895    0.819208
    157          0           0        3.366346    3.860463    1.313331
    158          0           0        3.355431    4.364772    1.387848
    159          0           0        3.384383    4.354945    1.190199
    160          0           0        3.340955    4.369686    1.486673
    161          0           0        3.398859    4.350032    1.091374
    162          0           0        3.326479    4.374599    1.585497
    163          0           0        3.413334    4.345118    0.992550
    164          0           0        3.312003    4.379513    1.684322
    165          0           0        3.427810    4.340205    0.893725
    166          0           0        3.297527    4.384426    1.783147
    167          0           0        3.442286    4.335292    0.794900
    168          0           0        3.369907    4.359859    1.289023
 ---------------------------------------------------------------------
 Rotational constants (GHZ):      0.4529074      0.2836956      0.1879557
 Standard basis: 6-311+G(d,p) (5D, 7F)
 Warning:  center  37 has no basis functions!
 Warning:  center  38 has no basis functions!
 Warning:  center  39 has no basis functions!
 Warning:  center  40 has no basis functions!
 Warning:  center  41 has no basis functions!
 Warning:  center  42 has no basis functions!
 Warning:  center  43 has no basis functions!
 Warning:  center  44 has no basis functions!
 Warning:  center  45 has no basis functions!
 Warning:  center  46 has no basis functions!
 Warning:  center  47 has no basis functions!
 Warning:  center  48 has no basis functions!
 Warning:  center  49 has no basis functions!
 Warning:  center  50 has no basis functions!
 Warning:  center  51 has no basis functions!
 Warning:  center  52 has no basis functions!
 Warning:  center  53 has no basis functions!
 Warning:  center  54 has no basis functions!
 Warning:  center  55 has no basis functions!
 Warning:  center  56 has no basis functions!
 Warning:  center  57 has no basis functions!
 Warning:  center  58 has no basis functions!
 Warning:  center  59 has no basis functions!
 Warning:  center  60 has no basis functions!
 Warning:  center  61 has no basis functions!
 Warning:  center  62 has no basis functions!
 Warning:  center  63 has no basis functions!
 Warning:  center  64 has no basis functions!
 Warning:  center  65 has no basis functions!
 Warning:  center  66 has no basis functions!
 Warning:  center  67 has no basis functions!
 Warning:  center  68 has no basis functions!
 Warning:  center  69 has no basis functions!
 Warning:  center  70 has no basis functions!
 Warning:  center  71 has no basis functions!
 Warning:  center  72 has no basis functions!
 Warning:  center  73 has no basis functions!
 Warning:  center  74 has no basis functions!
 Warning:  center  75 has no basis functions!
 Warning:  center  76 has no basis functions!
 Warning:  center  77 has no basis functions!
 Warning:  center  78 has no basis functions!
 Warning:  center  79 has no basis functions!
 Warning:  center  80 has no basis functions!
 Warning:  center  81 has no basis functions!
 Warning:  center  82 has no basis functions!
 Warning:  center  83 has no basis functions!
 Warning:  center  84 has no basis functions!
 Warning:  center  85 has no basis functions!
 Warning:  center  86 has no basis functions!
 Warning:  center  87 has no basis functions!
 Warning:  center  88 has no basis functions!
 Warning:  center  89 has no basis functions!
 Warning:  center  90 has no basis functions!
 Warning:  center  91 has no basis functions!
 Warning:  center  92 has no basis functions!
 Warning:  center  93 has no basis functions!
 Warning:  center  94 has no basis functions!
 Warning:  center  95 has no basis functions!
 Warning:  center  96 has no basis functions!
 Warning:  center  97 has no basis functions!
 Warning:  center  98 has no basis functions!
 Warning:  center  99 has no basis functions!
 Warning:  center 100 has no basis functions!
 Warning:  center 101 has no basis functions!
 Warning:  center 102 has no basis functions!
 Warning:  center 103 has no basis functions!
 Warning:  center 104 has no basis functions!
 Warning:  center 105 has no basis functions!
 Warning:  center 106 has no basis functions!
 Warning:  center 107 has no basis functions!
 Warning:  center 108 has no basis functions!
 Warning:  center 109 has no basis functions!
 Warning:  center 110 has no basis functions!
 Warning:  center 111 has no basis functions!
 Warning:  center 112 has no basis functions!
 Warning:  center 113 has no basis functions!
 Warning:  center 114 has no basis functions!
 Warning:  center 115 has no basis functions!
 Warning:  center 116 has no basis functions!
 Warning:  center 117 has no basis functions!
 Warning:  center 118 has no basis functions!
 Warning:  center 119 has no basis functions!
 Warning:  center 120 has no basis functions!
 Warning:  center 121 has no basis functions!
 Warning:  center 122 has no basis functions!
 Warning:  center 123 has no basis functions!
 Warning:  center 124 has no basis functions!
 Warning:  center 125 has no basis functions!
 Warning:  center 126 has no basis functions!
 Warning:  center 127 has no basis functions!
 Warning:  center 128 has no basis functions!
 Warning:  center 129 has no basis functions!
 Warning:  center 130 has no basis functions!
 Warning:  center 131 has no basis functions!
 Warning:  center 132 has no basis functions!
 Warning:  center 133 has no basis functions!
 Warning:  center 134 has no basis functions!
 Warning:  center 135 has no basis functions!
 Warning:  center 136 has no basis functions!
 Warning:  center 137 has no basis functions!
 Warning:  center 138 has no basis functions!
 Warning:  center 139 has no basis functions!
 Warning:  center 140 has no basis functions!
 Warning:  center 141 has no basis functions!
 Warning:  center 142 has no basis functions!
 Warning:  center 143 has no basis functions!
 Warning:  center 144 has no basis functions!
 Warning:  center 145 has no basis functions!
 Warning:  center 146 has no basis functions!
 Warning:  center 147 has no basis functions!
 Warning:  center 148 has no basis functions!
 Warning:  center 149 has no basis functions!
 Warning:  center 150 has no basis functions!
 Warning:  center 151 has no basis functions!
 Warning:  center 152 has no basis functions!
 Warning:  center 153 has no basis functions!
 Warning:  center 154 has no basis functions!
 Warning:  center 155 has no basis functions!
 Warning:  center 156 has no basis functions!
 Warning:  center 157 has no basis functions!
 Warning:  center 158 has no basis functions!
 Warning:  center 159 has no basis functions!
 Warning:  center 160 has no basis functions!
 Warning:  center 161 has no basis functions!
 Warning:  center 162 has no basis functions!
 Warning:  center 163 has no basis functions!
 Warning:  center 164 has no basis functions!
 Warning:  center 165 has no basis functions!
 Warning:  center 166 has no basis functions!
 Warning:  center 167 has no basis functions!
 Warning:  center 168 has no basis functions!
   568 basis functions,   904 primitive gaussians,   590 cartesian basis functions
    73 alpha electrons       73 beta electrons
       nuclear repulsion energy      1610.9176155625 Hartrees.
 NAtoms=  168 NActive=  168 NUniq=  168 SFac= 1.00D+00 NAtFMM=   60 NAOKFM=T Big=T
 Integral buffers will be    131072 words long.
 Raffenetti 2 integral format.
 Two-electron integral symmetry is turned off.
 One-electron integrals computed using PRISM.
 NBasis=   568 RedAO= T EigKep=  1.78D-06  NBF=   568
 NBsUse=   556 1.00D-06 EigRej=  9.09D-07 NBFU=   556
 ExpMin= 4.38D-02 ExpMax= 4.56D+03 ExpMxC= 6.82D+02 IAcc=2 IRadAn=         4 AccDes= 0.00D+00
 Harris functional with IExCor=  402 and IRadAn=       4 diagonalized for initial guess.
 HarFok:  IExCor=  402 AccDes= 0.00D+00 IRadAn=         4 IDoV= 1 UseB2=F ITyADJ=14
 ICtDFT=  3500011 ScaDFX=  1.000000  1.000000  1.000000  1.000000
 FoFCou: FMM=F IPFlag=           0 FMFlag=      100000 FMFlg1=        2001
         NFxFlg=           0 DoJE=T BraDBF=F KetDBF=T FulRan=T
         wScrn=  0.000000 ICntrl=     500 IOpCl=  0 I1Cent=   200000004 NGrid=           0
         NMat0=    1 NMatS0=      1 NMatT0=    0 NMatD0=    1 NMtDS0=    0 NMtDT0=    0
 Symmetry not used in FoFCou.
 Requested convergence on RMS density matrix=1.00D-08 within 128 cycles.
 Requested convergence on MAX density matrix=1.00D-06.
 Requested convergence on             energy=1.00D-06.
 No special actions if energy rises.
 SCF Done:  E(RB3LYP) =  -847.003289847     A.U. after   15 cycles
            NFock= 15  Conv=0.75D-08     -V/T= 2.0040
 DoSCS=F DFT=T ScalE2(SS,OS)=  1.000000  1.000000
 Range of M.O.s used for correlation:     1   556
 NBasis=   568 NAE=    73 NBE=    73 NFC=     0 NFV=     0
 NROrb=    556 NOA=    73 NOB=    73 NVA=   483 NVB=   483

 **** Warning!!: The largest alpha MO coefficient is  0.10971036D+03

          Differentiating once with respect to magnetic field using GIAOs.
          Electric field/nuclear overlap derivatives assumed to be zero.
 FoFCou: FMM=F IPFlag=           0 FMFlag=      100000 FMFlg1=        2001
         NFxFlg=           0 DoJE=F BraDBF=F KetDBF=T FulRan=T
         wScrn=  0.000000 ICntrl=    6100 IOpCl=  0 I1Cent=           7 NGrid=         168
         NMat0=    1 NMatS0=      1 NMatT0=    0 NMatD0=    1 NMtDS0=    0 NMtDT0=    0
 Symmetry not used in FoFCou.
 FoFJK:  IHMeth= 1 ICntrl=    6127 DoSepK=F KAlg= 0 I1Cent=   0 FoldK=F
 IRaf=         1 NMat=   1 IRICut=       1 DoRegI=T DoRafI=F ISym2E= 0.
          There are     3 degrees of freedom in the 1st order CPHF.  IDoFFX=0 NUNeed=     3.
      3 vectors produced by pass  0 Test12= 1.18D-12 3.33D-08 XBig12= 2.07D+03 9.18D+00.
 AX will form     3 AO Fock derivatives at one time.
      3 vectors produced by pass  1 Test12= 1.18D-12 3.33D-08 XBig12= 3.56D+00 8.03D-01.
      3 vectors produced by pass  2 Test12= 1.18D-12 3.33D-08 XBig12= 2.10D-02 6.92D-02.
      3 vectors produced by pass  3 Test12= 1.18D-12 3.33D-08 XBig12= 5.45D-05 1.89D-03.
      3 vectors produced by pass  4 Test12= 1.18D-12 3.33D-08 XBig12= 1.20D-07 7.79D-05.
      3 vectors produced by pass  5 Test12= 1.18D-12 3.33D-08 XBig12= 4.02D-10 4.73D-06.
      3 vectors produced by pass  6 Test12= 1.18D-12 3.33D-08 XBig12= 1.32D-12 2.61D-07.
 InvSVY:  IOpt=1 It=  1 EMax= 2.13D-14
 Solved reduced A of dimension    21 with     3 vectors.
 Calculating GIAO nuclear magnetic shielding tensors.
 SCF GIAO Magnetic shielding tensor (ppm):
      1  C    Isotropic =    53.8139   Anisotropy =   178.0260
   XX=   -41.4327   YX=   -32.3458   ZX=    10.0287
   XY=   -28.3572   YY=    59.0527   ZY=    55.1899
   XZ=    13.1759   YZ=    58.7550   ZZ=   143.8218
   Eigenvalues:   -53.8775    42.8214   172.4979
      2  H    Isotropic =    24.3095   Anisotropy =     4.8536
   XX=    25.5771   YX=    -1.0289   ZX=     0.5661
   XY=    -0.7431   YY=    26.1829   ZY=    -2.3306
   XZ=    -0.1707   YZ=    -2.4411   ZZ=    21.1687
   Eigenvalues:    20.2108    25.1725    27.5453
      3  C    Isotropic =    51.4055   Anisotropy =   157.8639
   XX=   -31.5399   YX=    38.5015   ZX=   -17.9316
   XY=    34.3519   YY=    49.9437   ZY=    49.6392
   XZ=    -9.8383   YZ=    44.6006   ZZ=   135.8127
   Eigenvalues:   -50.5747    48.1432   156.6481
      4  H    Isotropic =    23.8290   Anisotropy =     7.1838
   XX=    25.3635   YX=     1.8486   ZX=    -0.3559
   XY=     1.9656   YY=    26.4581   ZY=    -2.4103
   XZ=    -1.2941   YZ=    -2.6614   ZZ=    19.6654
   Eigenvalues:    18.8176    24.0511    28.6182
      5  C    Isotropic =    46.0697   Anisotropy =   207.6751
   XX=   -19.2123   YX=    -4.8852   ZX=    -1.6475
   XY=     2.8938   YY=    -2.9860   ZY=    66.5656
   XZ=     2.5356   YZ=    67.9144   ZZ=   160.4073
   Eigenvalues:   -27.2455   -19.0652   184.5197
      6  C    Isotropic =    47.5218   Anisotropy =   196.9389
   XX=   -28.1552   YX=    -2.7889   ZX=    12.0660
   XY=   -14.3886   YY=    21.2063   ZY=    74.2521
   XZ=   -18.6356   YZ=    61.1113   ZZ=   149.5144
   Eigenvalues:   -30.2925    -5.9564   178.8144
      7  C    Isotropic =    49.3915   Anisotropy =   179.8333
   XX=   -12.5211   YX=    28.7048   ZX=   -24.6745
   XY=    31.5123   YY=    29.7000   ZY=    77.7459
   XZ=   -40.0095   YZ=    65.3072   ZZ=   130.9956
   Eigenvalues:   -52.1299    31.0240   169.2804
      8  H    Isotropic =    23.1586   Anisotropy =    13.5525
   XX=    28.5711   YX=     1.5482   ZX=    -3.6986
   XY=     3.2466   YY=    22.7592   ZY=    -2.1157
   XZ=    -8.3753   YZ=    -1.0821   ZZ=    18.1456
   Eigenvalues:    15.3521    21.9301    32.1936
      9  C    Isotropic =    55.1460   Anisotropy =   174.7426
   XX=    46.7071   YX=    -2.6162   ZX=    -2.8420
   XY=     0.6223   YY=    -1.6258   ZY=    92.8272
   XZ=     0.5159   YZ=    95.6598   ZZ=   120.3568
   Eigenvalues:   -52.8932    46.6901   171.6411
     10  H    Isotropic =    24.6278   Anisotropy =     7.1815
   XX=    29.1040   YX=     0.1399   ZX=    -0.3694
   XY=     0.3642   YY=    23.4778   ZY=    -1.0805
   XZ=    -2.4493   YZ=    -2.9465   ZZ=    21.3016
   Eigenvalues:    19.9703    24.4977    29.4155
     11  C    Isotropic =    51.5607   Anisotropy =   151.2142
   XX=     2.1639   YX=    40.9287   ZX=   -26.0048
   XY=    49.9131   YY=    12.2331   ZY=    42.1342
   XZ=   -15.6145   YZ=    38.6614   ZZ=   140.2851
   Eigenvalues:   -48.1951    50.5071   152.3701
     12  H    Isotropic =    23.8537   Anisotropy =     7.3815
   XX=    25.9672   YX=     2.3738   ZX=    -0.2390
   XY=     2.4320   YY=    26.3975   ZY=    -1.8291
   XZ=     0.3529   YZ=    -1.7731   ZZ=    19.1964
   Eigenvalues:    18.7149    24.0714    28.7747
     13  C    Isotropic =    52.8653   Anisotropy =   147.4265
   XX=    51.2944   YX=    19.9221   ZX=   -13.4678
   XY=    11.5478   YY=   -34.0176   ZY=    42.5079
   XZ=    -9.2241   YZ=    40.0716   ZZ=   141.3192
   Eigenvalues:   -46.5152    53.9616   151.1497
     14  H    Isotropic =    24.0156   Anisotropy =     7.3485
   XX=    28.6644   YX=     0.6281   ZX=     1.0808
   XY=     0.5926   YY=    24.4325   ZY=    -1.0823
   XZ=     1.6846   YZ=    -0.3842   ZZ=    18.9500
   Eigenvalues:    18.6430    24.4892    28.9146
     15  C    Isotropic =    46.2221   Anisotropy =   203.9048
   XX=   -27.2215   YX=    -0.0442   ZX=   -28.9124
   XY=     4.6427   YY=   -10.5571   ZY=    28.3830
   XZ=   -10.2704   YZ=    26.7376   ZZ=   176.4448
   Eigenvalues:   -30.5512   -12.9411   182.1586
     16  C    Isotropic =    51.9375   Anisotropy =   188.2004
   XX=   -19.4441   YX=     5.5046   ZX=    15.7858
   XY=    -8.3874   YY=     2.4863   ZY=    22.9264
   XZ=   -50.6243   YZ=    23.3340   ZZ=   172.7704
   Eigenvalues:   -21.0294    -0.5625   177.4045
     17  C    Isotropic =    51.9482   Anisotropy =   149.1264
   XX=    50.7296   YX=   -23.9353   ZX=   -18.4207
   XY=   -16.7271   YY=   -41.8764   ZY=    17.8662
   XZ=   -14.3278   YZ=    11.4871   ZZ=   146.9915
   Eigenvalues:   -46.7796    51.2584   151.3658
     18  H    Isotropic =    24.0122   Anisotropy =     7.5163
   XX=    28.5811   YX=    -0.0866   ZX=     1.5071
   XY=    -0.2466   YY=    24.3342   ZY=    -0.7657
   XZ=     2.5088   YZ=    -1.5208   ZZ=    19.1214
   Eigenvalues:    18.5094    24.5041    29.0231
     19  C    Isotropic =    51.7356   Anisotropy =   148.5924
   XX=     2.4559   YX=   -45.6913   ZX=   -31.2531
   XY=   -53.4448   YY=     7.4698   ZY=    -1.8888
   XZ=   -23.5601   YZ=    -1.2765   ZZ=   145.2810
   Eigenvalues:   -46.9894    51.3989   150.7972
     20  H    Isotropic =    23.9071   Anisotropy =     7.6651
   XX=    25.5796   YX=    -2.0226   ZX=     1.4905
   XY=    -1.9998   YY=    27.3706   ZY=    -0.5164
   XZ=     2.7276   YZ=    -1.1179   ZZ=    18.7711
   Eigenvalues:    18.1643    24.5398    29.0172
     21  C    Isotropic =    45.9767   Anisotropy =   203.9316
   XX=   -16.2108   YX=    13.1802   ZX=   -44.5913
   XY=     6.5714   YY=   -20.6329   ZY=     0.0949
   XZ=   -28.8984   YZ=   -13.0883   ZZ=   174.7736
   Eigenvalues:   -30.5796   -13.4215   181.9311
     22  C    Isotropic =    52.0450   Anisotropy =   188.1157
   XX=    -0.0787   YX=     2.5023   ZX=   -16.3451
   XY=    18.9327   YY=   -14.4798   ZY=   -34.4335
   XZ=   -50.6032   YZ=    19.9104   ZZ=   170.6934
   Eigenvalues:   -20.7705    -0.5500   177.4554
     23  C    Isotropic =    53.2392   Anisotropy =   146.7412
   XX=   -22.0674   YX=   -32.0012   ZX=   -49.4857
   XY=   -23.2043   YY=    44.3661   ZY=   -15.6400
   XZ=   -43.8090   YZ=   -20.2525   ZZ=   137.4189
   Eigenvalues:   -45.6776    54.3286   151.0667
     24  H    Isotropic =    23.8249   Anisotropy =     7.5289
   XX=    25.1073   YX=    -1.7330   ZX=     1.5380
   XY=    -1.5944   YY=    28.0047   ZY=     0.0879
   XZ=     1.2557   YZ=    -0.8283   ZZ=    18.3628
   Eigenvalues:    18.0848    24.5458    28.8442
     25  C    Isotropic =    51.4969   Anisotropy =   150.1066
   XX=   -28.4915   YX=    33.9684   ZX=   -52.3137
   XY=    22.0311   YY=    46.6072   ZY=    -3.8075
   XZ=   -44.5594   YZ=   -10.6355   ZZ=   136.3748
   Eigenvalues:   -48.3857    51.3083   151.5679
     26  H    Isotropic =    23.7431   Anisotropy =     7.4052
   XX=    24.0663   YX=     1.1141   ZX=     1.9989
   XY=     0.9693   YY=    28.1000   ZY=     1.6568
   XZ=     2.0795   YZ=     0.8886   ZZ=    19.0630
   Eigenvalues:    18.2615    24.2880    28.6799
     27  C    Isotropic =    45.8108   Anisotropy =   207.2710
   XX=    -2.7702   YX=    13.7697   ZX=   -61.4651
   XY=     6.5593   YY=   -12.0335   ZY=   -41.6456
   XZ=   -62.6381   YZ=   -44.9232   ZZ=   152.2361
   Eigenvalues:   -28.0803   -18.4787   183.9915
     28  C    Isotropic =    47.8398   Anisotropy =   197.2870
   XX=    19.6900   YX=    14.4398   ZX=   -60.5682
   XY=    28.5650   YY=   -19.3566   ZY=   -56.7015
   XZ=   -63.1331   YZ=   -24.4782   ZZ=   143.1859
   Eigenvalues:   -30.5979    -5.2472   179.3644
     29  C    Isotropic =    49.3441   Anisotropy =   179.7793
   XX=    -3.4110   YX=    38.3775   ZX=   -80.8875
   XY=    36.1252   YY=    25.9805   ZY=   -23.7573
   XZ=   -78.1065   YZ=    -3.9802   ZZ=   125.4627
   Eigenvalues:   -51.6645    30.4997   169.1970
     30  H    Isotropic =    23.1387   Anisotropy =    13.3222
   XX=    22.4354   YX=    -0.7013   ZX=    -0.2375
   XY=    -2.1539   YY=    28.3546   ZY=     4.5555
   XZ=    -3.4181   YZ=     8.3231   ZZ=    18.6259
   Eigenvalues:    15.2751    22.1208    32.0201
     31  C    Isotropic =    55.4410   Anisotropy =   174.9390
   XX=    17.1871   YX=   -14.0890   ZX=   -84.0024
   XY=   -17.9030   YY=    37.4745   ZY=   -50.3662
   XZ=   -84.6557   YZ=   -54.8325   ZZ=   111.6615
   Eigenvalues:   -51.9248    46.1808   172.0670
     32  H    Isotropic =    24.5337   Anisotropy =     7.2554
   XX=    24.6185   YX=    -2.5264   ZX=     0.7632
   XY=    -2.7385   YY=    27.4630   ZY=     1.0335
   XZ=     1.1913   YZ=     3.7573   ZZ=    21.5194
   Eigenvalues:    19.8987    24.3316    29.3706
     33  C    Isotropic =    53.1814   Anisotropy =   179.0596
   XX=    60.9231   YX=    35.2256   ZX=   -42.9515
   XY=    32.0226   YY=   -38.1801   ZY=   -45.5652
   XZ=   -44.2248   YZ=   -50.7831   ZZ=   136.8014
   Eigenvalues:   -55.1197    42.1095   172.5545
     34  H    Isotropic =    24.2825   Anisotropy =     5.1861
   XX=    26.7643   YX=    -0.0934   ZX=     2.5955
   XY=    -0.2993   YY=    24.8157   ZY=     0.8589
   XZ=     2.3715   YZ=     1.4580   ZZ=    21.2676
   Eigenvalues:    20.0339    25.0737    27.7399
     35  C    Isotropic =    51.5295   Anisotropy =   155.1748
   XX=    -0.5131   YX=    52.5760   ZX=   -52.1551
   XY=    55.6135   YY=    25.1843   ZY=   -14.2643
   XZ=   -45.7255   YZ=   -17.1625   ZZ=   129.9171
   Eigenvalues:   -48.3147    47.9237   154.9793
     36  H    Isotropic =    23.8384   Anisotropy =     7.3073
   XX=    24.2302   YX=     1.4459   ZX=     2.1759
   XY=     1.2147   YY=    27.1572   ZY=     2.0665
   XZ=     1.6853   YZ=     2.7775   ZZ=    20.1277
   Eigenvalues:    18.9464    23.8588    28.7099
     37  Bq   Isotropic =    -0.8421   Anisotropy =     8.5385
   XX=    -0.5977   YX=     0.6383   ZX=     1.7869
   XY=     1.7536   YY=     2.2300   ZY=     2.3103
   XZ=     4.0495   YZ=     4.7882   ZZ=    -4.1585
   Eigenvalues:    -6.6019    -0.7746     4.8502
     38  Bq   Isotropic =    -0.9365   Anisotropy =     8.9245
   XX=    -0.3759   YX=     0.8014   ZX=     1.8889
   XY=     1.9500   YY=     2.8412   ZY=     2.1830
   XZ=     3.9147   YZ=     4.3071   ZZ=    -5.2749
   Eigenvalues:    -7.2278    -0.5950     5.0131
     39  Bq   Isotropic =    -0.7870   Anisotropy =     8.3345
   XX=    -0.6894   YX=     0.5623   ZX=     1.7252
   XY=     1.6562   YY=     1.9567   ZY=     2.3205
   XZ=     4.0758   YZ=     4.9244   ZZ=    -3.6284
   Eigenvalues:    -6.2884    -0.8420     4.7693
     40  Bq   Isotropic =    -0.9741   Anisotropy =     9.1040
   XX=    -0.2485   YX=     0.8898   ZX=     1.9272
   XY=     2.0469   YY=     3.1665   ZY=     2.0522
   XZ=     3.8035   YZ=     3.9457   ZZ=    -5.8403
   Eigenvalues:    -7.5313    -0.4863     5.0952
     41  Bq   Isotropic =    -0.7284   Anisotropy =     8.1248
   XX=    -0.7675   YX=     0.4899   ZX=     1.6579
   XY=     1.5606   YY=     1.7088   ZY=     2.3040
   XZ=     4.0772   YZ=     5.0032   ZZ=    -3.1265
   Eigenvalues:    -5.9792    -0.8941     4.6882
     42  Bq   Isotropic =    -1.0046   Anisotropy =     9.2723
   XX=    -0.1133   YX=     0.9842   ZX=     1.9552
   XY=     2.1417   YY=     3.4911   ZY=     1.8690
   XZ=     3.6618   YZ=     3.4961   ZZ=    -6.3916
   Eigenvalues:    -7.8210    -0.3697     5.1770
     43  Bq   Isotropic =    -0.6673   Anisotropy =     7.9105
   XX=    -0.8321   YX=     0.4212   ZX=     1.5859
   XY=     1.4678   YY=     1.4870   ZY=     2.2669
   XZ=     4.0562   YZ=     5.0335   ZZ=    -2.6568
   Eigenvalues:    -5.6766    -0.9317     4.6064
     44  Bq   Isotropic =    -1.0281   Anisotropy =     9.4271
   XX=     0.0267   YX=     1.0860   ZX=     1.9710
   XY=     2.2333   YY=     3.8005   ZY=     1.6303
   XZ=     3.4893   YZ=     2.9571   ZZ=    -6.9114
   Eigenvalues:    -8.0904    -0.2505     5.2567
     45  Bq   Isotropic =    -0.6051   Anisotropy =     7.6929
   XX=    -0.8838   YX=     0.3564   ZX=     1.5102
   XY=     1.3787   YY=     1.2903   ZY=     2.2144
   XZ=     4.0153   YZ=     5.0237   ZZ=    -2.2217
   Eigenvalues:    -5.3825    -0.9562     4.5235
     46  Bq   Isotropic =    -1.0451   Anisotropy =     9.5653
   XX=     0.1676   YX=     1.1965   ZX=     1.9723
   XY=     2.3205   YY=     4.0778   ZY=     1.3365
   XZ=     3.2856   YZ=     2.3327   ZZ=    -7.3808
   Eigenvalues:    -8.3322    -0.1349     5.3317
     47  Bq   Isotropic =    -0.8923   Anisotropy =     8.7355
   XX=    -0.4929   YX=     0.7178   ZX=     1.8417
   XY=     1.8519   YY=     2.5264   ZY=     2.2668
   XZ=     3.9963   YZ=     4.5854   ZZ=    -4.7104
   Eigenvalues:    -6.9163    -0.6919     4.9314
     48  Bq   Isotropic =     9.7751   Anisotropy =    21.2071
   XX=     2.5940   YX=     0.2477   ZX=    -2.0818
   XY=    -1.2181   YY=     4.8236   ZY=    -3.7417
   XZ=    11.5310   YZ=    -4.5956   ZZ=    21.9077
   Eigenvalues:     1.4162     3.9960    23.9131
     49  Bq   Isotropic =    14.7820   Anisotropy =    21.3600
   XX=     8.3935   YX=     0.0784   ZX=    -1.8554
   XY=    -0.9558   YY=     9.6098   ZY=    -5.0888
   XZ=    12.0126   YZ=    -5.2267   ZZ=    26.3426
   Eigenvalues:     6.6087     8.7152    29.0220
     50  Bq   Isotropic =     7.9674   Anisotropy =    20.6508
   XX=     0.7557   YX=     0.3358   ZX=    -2.0657
   XY=    -1.2256   YY=     3.1971   ZY=    -3.3070
   XZ=    11.0523   YZ=    -4.3115   ZZ=    19.9493
   Eigenvalues:    -0.2991     2.4667    21.7345
     51  Bq   Isotropic =    18.0003   Anisotropy =    20.8754
   XX=    12.4446   YX=     0.0580   ZX=    -1.5723
   XY=    -0.6279   YY=    12.8515   ZY=    -6.1616
   XZ=    11.8153   YZ=    -5.6148   ZZ=    28.7048
   Eigenvalues:     9.7376    12.3460    31.9172
     52  Bq   Isotropic =     6.5390   Anisotropy =    19.8879
   XX=    -0.5373   YX=     0.4094   ZX=    -1.9954
   XY=    -1.1849   YY=     1.9680   ZY=    -2.9668
   XZ=    10.5052   YZ=    -4.0405   ZZ=    18.1862
   Eigenvalues:    -1.5046     1.3240    19.7976
     53  Bq   Isotropic =    21.5163   Anisotropy =    20.1419
   XX=    17.0301   YX=     0.1701   ZX=    -1.1768
   XY=    -0.0971   YY=    16.5254   ZY=    -7.6677
   XZ=    11.1214   YZ=    -6.1150   ZZ=    30.9933
   Eigenvalues:    12.7029    16.9017    34.9442
     54  Bq   Isotropic =     5.4160   Anisotropy =    19.0011
   XX=    -1.4151   YX=     0.4649   ZX=    -1.8916
   XY=    -1.1141   YY=     1.0498   ZY=    -2.6921
   XZ=     9.9328   YZ=    -3.7826   ZZ=    16.6132
   Eigenvalues:    -2.3159     0.4804    18.0834
     55  Bq   Isotropic =    24.8680   Anisotropy =    19.5645
   XX=    21.4544   YX=     0.5559   ZX=    -0.7366
   XY=     0.7132   YY=    20.1806   ZY=    -9.7714
   XZ=     9.6901   YZ=    -6.8146   ZZ=    32.9689
   Eigenvalues:    14.9919    21.7010    37.9110
     56  Bq   Isotropic =     4.5319   Anisotropy =    18.0556
   XX=    -1.9893   YX=     0.5019   ZX=    -1.7703
   XY=    -1.0263   YY=     0.3685   ZY=    -2.4630
   XZ=     9.3629   YZ=    -3.5388   ZZ=    15.2163
   Eigenvalues:    -2.8378    -0.1356    16.5689
     57  Bq   Isotropic =    27.0902   Anisotropy =    20.1633
   XX=    24.1931   YX=     1.4589   ZX=    -0.4564
   XY=     1.8818   YY=    22.7900   ZY=   -12.6095
   XZ=     7.1982   YZ=    -7.8296   ZZ=    34.2875
   Eigenvalues:    15.6347    25.1035    40.5324
     58  Bq   Isotropic =    12.0321   Anisotropy =    21.4674
   XX=     5.1082   YX=     0.1551   ZX=    -2.0197
   XY=    -1.1385   YY=     6.9374   ZY=    -4.3142
   XZ=    11.8792   YZ=    -4.8965   ZZ=    24.0509
   Eigenvalues:     3.7312     6.0215    26.3437
     59  Bq   Isotropic =    11.0910   Anisotropy =    21.4933
   XX=     4.0930   YX=     0.0734   ZX=    -1.5742
   XY=    -1.9580   YY=     5.1262   ZY=    -1.3673
   XZ=    12.0509   YZ=    -0.7060   ZZ=    24.0539
   Eigenvalues:     2.6195     5.2336    25.4199
     60  Bq   Isotropic =    17.0785   Anisotropy =    21.2170
   XX=    11.7953   YX=    -0.0189   ZX=    -0.9677
   XY=    -1.9802   YY=     9.8181   ZY=    -0.7378
   XZ=    11.9235   YZ=    -0.8970   ZZ=    29.6220
   Eigenvalues:     9.2295    10.7828    31.2231
     61  Bq   Isotropic =     8.9461   Anisotropy =    21.0493
   XX=     1.6851   YX=     0.1426   ZX=    -1.6948
   XY=    -1.8375   YY=     3.4265   ZY=    -1.5154
   XZ=    11.6742   YZ=    -0.6347   ZZ=    21.7266
   Eigenvalues:     0.3983     3.4609    22.9790
     62  Bq   Isotropic =    20.9862   Anisotropy =    20.3733
   XX=    17.3174   YX=    -0.0275   ZX=    -0.4639
   XY=    -1.8258   YY=    12.7435   ZY=    -0.2336
   XZ=    11.0774   YZ=    -1.0170   ZZ=    32.8979
   Eigenvalues:    12.5518    15.8385    34.5684
     63  Bq   Isotropic =     7.2581   Anisotropy =    20.3522
   XX=    -0.0048   YX=     0.2140   ZX=    -1.7274
   XY=    -1.6773   YY=     2.1054   ZY=    -1.5821
   XZ=    11.1665   YZ=    -0.5810   ZZ=    19.6737
   Eigenvalues:    -1.1486     2.0966    20.8262
     64  Bq   Isotropic =    25.4022   Anisotropy =    19.1075
   XX=    23.8528   YX=    -0.0135   ZX=     0.1299
   XY=    -1.5257   YY=    15.8372   ZY=     0.3677
   XZ=     9.4457   YZ=    -1.1682   ZZ=    36.5167
   Eigenvalues:    15.7638    22.3024    38.1405
     65  Bq   Isotropic =     5.9368   Anisotropy =    19.4988
   XX=    -1.1562   YX=     0.2794   ZX=    -1.6986
   XY=    -1.4971   YY=     1.0979   ZY=    -1.5896
   XZ=    10.6019   YZ=    -0.5442   ZZ=    17.8686
   Eigenvalues:    -2.1872     1.0615    18.9360
     66  Bq   Isotropic =    30.0756   Anisotropy =    17.6042
   XX=    30.9825   YX=     0.0100   ZX=     0.7065
   XY=    -1.0642   YY=    18.7679   ZY=     0.9713
   XZ=     6.8794   YZ=    -1.3896   ZZ=    40.4765
   Eigenvalues:    18.7451    29.6701    41.8118
     67  Bq   Isotropic =     4.9020   Anisotropy =    18.5656
   XX=    -1.9177   YX=     0.3337   ZX=    -1.6305
   XY=    -1.3116   YY=     0.3401   ZY=    -1.5569
   XZ=    10.0257   YZ=    -0.5219   ZZ=    16.2836
   Eigenvalues:    -2.8598     0.2867    17.2791
     68  Bq   Isotropic =    34.5931   Anisotropy =    16.2416
   XX=    37.9241   YX=     0.0281   ZX=     1.0806
   XY=    -0.4504   YY=    21.1078   ZY=     1.3928
   XZ=     3.4054   YZ=    -1.7502   ZZ=    44.7473
   Eigenvalues:    21.1041    37.2542    45.4208
     69  Bq   Isotropic =    13.7810   Anisotropy =    21.5788
   XX=     7.4093   YX=     0.0164   ZX=    -1.3384
   XY=    -2.0147   YY=     7.2545   ZY=    -1.1144
   XZ=    12.1849   YZ=    -0.7940   ZZ=    26.6791
   Eigenvalues:     5.6480     7.5281    28.1668
     70  Bq   Isotropic =    10.6377   Anisotropy =    18.2260
   XX=     4.3391   YX=    -0.3680   ZX=    -2.2220
   XY=    -2.0328   YY=     6.4338   ZY=     0.1379
   XZ=    12.6872   YZ=     3.8110   ZZ=    21.1403
   Eigenvalues:     2.1510     6.9738    22.7884
     71  Bq   Isotropic =    16.1674   Anisotropy =    15.7722
   XX=    11.0375   YX=    -0.3378   ZX=    -2.7524
   XY=    -2.2525   YY=    12.7261   ZY=     1.0924
   XZ=    12.9199   YZ=     3.7684   ZZ=    24.7386
   Eigenvalues:     8.3960    13.4241    26.6822
     72  Bq   Isotropic =     8.4964   Anisotropy =    18.5338
   XX=     1.9601   YX=    -0.3343   ZX=    -2.0363
   XY=    -1.8845   YY=     4.1905   ZY=    -0.1142
   XZ=    12.2480   YZ=     3.6930   ZZ=    19.3386
   Eigenvalues:    -0.0078     4.6447    20.8522
     73  Bq   Isotropic =    19.1977   Anisotropy =    13.4482
   XX=    14.9375   YX=    -0.3277   ZX=    -3.2548
   XY=    -2.3481   YY=    16.5118   ZY=     1.9480
   XZ=    12.3262   YZ=     3.5917   ZZ=    26.1439
   Eigenvalues:    12.1544    17.2756    28.1632
     74  Bq   Isotropic =     6.7772   Anisotropy =    18.4203
   XX=     0.1880   YX=    -0.2767   ZX=    -1.8661
   XY=    -1.7137   YY=     2.4848   ZY=    -0.2785
   XZ=    11.7251   YZ=     3.5039   ZZ=    17.6589
   Eigenvalues:    -1.5799     2.8541    19.0575
     75  Bq   Isotropic =    21.6096   Anisotropy =    10.7304
   XX=    18.0915   YX=    -0.4786   ZX=    -4.1692
   XY=    -2.4921   YY=    19.9084   ZY=     3.1949
   XZ=    10.7978   YZ=     3.3228   ZZ=    26.8288
   Eigenvalues:    15.4469    20.6186    28.7631
     76  Bq   Isotropic =     5.4253   Anisotropy =    18.0156
   XX=    -1.0788   YX=    -0.2082   ZX=    -1.7043
   XY=    -1.5286   YY=     1.2203   ZY=    -0.3822
   XZ=    11.1680   YZ=     3.2649   ZZ=    16.1344
   Eigenvalues:    -2.6704     1.5107    17.4357
     77  Bq   Isotropic =    22.0132   Anisotropy =     9.7377
   XX=    18.3831   YX=    -1.0900   ZX=    -5.8959
   XY=    -2.7697   YY=    21.3283   ZY=     4.9071
   XZ=     7.8181   YZ=     2.9957   ZZ=    26.3283
   Eigenvalues:    16.5792    20.9555    28.5050
     78  Bq   Isotropic =     4.3753   Anisotropy =    17.4247
   XX=    -1.9487   YX=    -0.1394   ZX=    -1.5500
   XY=    -1.3382   YY=     0.3015   ZY=    -0.4439
   XZ=    10.6054   YZ=     2.9970   ZZ=    14.7732
   Eigenvalues:    -3.3879     0.5221    15.9918
     79  Bq   Isotropic =    18.0748   Anisotropy =    14.7788
   XX=    11.9906   YX=    -2.6820   ZX=    -9.0988
   XY=    -3.2552   YY=    17.9451   ZY=     6.9317
   XZ=     2.7268   YZ=     2.5219   ZZ=    24.2886
   Eigenvalues:    10.6338    15.6631    27.9273
     80  Bq   Isotropic =    13.2195   Anisotropy =    17.3508
   XX=     7.3852   YX=    -0.3674   ZX=    -2.4441
   XY=    -2.1542   YY=     9.2849   ZY=     0.5192
   XZ=    12.9590   YZ=     3.8401   ZZ=    22.9883
   Eigenvalues:     4.9648     9.9069    24.7867
     81  Bq   Isotropic =     6.4944   Anisotropy =    12.6388
   XX=     3.9122   YX=    -2.5465   ZX=    -1.4553
   XY=    -1.3281   YY=     4.1860   ZY=     0.3738
   XZ=    11.7889   YZ=     8.2384   ZZ=    11.3850
   Eigenvalues:    -1.4202     5.9831    14.9203
     82  Bq   Isotropic =     9.9643   Anisotropy =     8.9007
   XX=    10.0950   YX=    -3.4685   ZX=    -2.0194
   XY=    -1.0423   YY=     7.8246   ZY=    -1.4110
   XZ=    11.2192   YZ=     7.8188   ZZ=    11.9732
   Eigenvalues:     3.2002    10.7946    15.8980
     83  Bq   Isotropic =     5.1380   Anisotropy =    13.7153
   XX=     1.7548   YX=    -2.1740   ZX=    -1.2451
   XY=    -1.3480   YY=     2.6905   ZY=     0.7093
   XZ=    11.7016   YZ=     7.9233   ZZ=    10.9687
   Eigenvalues:    -2.9095     4.0419    14.2815
     84  Bq   Isotropic =    11.8616   Anisotropy =     8.0827
   XX=    14.0484   YX=    -4.0948   ZX=    -2.4169
   XY=    -0.7967   YY=     9.5036   ZY=    -3.2064
   XZ=    10.3694   YZ=     6.7200   ZZ=    12.0328
   Eigenvalues:     6.2885    12.0462    17.2500
     85  Bq   Isotropic =     4.0500   Anisotropy =    14.2974
   XX=     0.1346   YX=    -1.8453   ZX=    -1.0672
   XY=    -1.3028   YY=     1.4891   ZY=     0.8439
   XZ=    11.4638   YZ=     7.4307   ZZ=    10.5264
   Eigenvalues:    -3.9399     2.5084    13.5817
     86  Bq   Isotropic =    13.4738   Anisotropy =    10.1020
   XX=    18.2082   YX=    -4.9581   ZX=    -2.9353
   XY=    -0.5755   YY=    10.3462   ZY=    -5.8294
   XZ=     9.0082   YZ=     4.7378   ZZ=    11.8671
   Eigenvalues:     9.3679    10.8451    20.2085
     87  Bq   Isotropic =     3.2005   Anisotropy =    14.5106
   XX=    -1.0422   YX=    -1.5580   ZX=    -0.9156
   XY=    -1.2109   YY=     0.5618   ZY=     0.8596
   XZ=    11.1261   YZ=     6.8478   ZZ=    10.0818
   Eigenvalues:    -4.6035     1.3308    12.8742
     88  Bq   Isotropic =    14.2179   Anisotropy =    13.7023
   XX=    21.8726   YX=    -6.2414   ZX=    -3.5970
   XY=    -0.5674   YY=     9.3206   ZY=    -9.2801
   XZ=     7.1006   YZ=     1.7317   ZZ=    11.4605
   Eigenvalues:     6.2726    13.0284    23.3528
     89  Bq   Isotropic =     2.5488   Anisotropy =    14.4624
   XX=    -1.8684   YX=    -1.3108   ZX=    -0.7869
   XY=    -1.0894   YY=    -0.1336   ZY=     0.8113
   XZ=    10.7246   YZ=     6.2354   ZZ=     9.6484
   Eigenvalues:    -4.9883     0.4442    12.1904
     90  Bq   Isotropic =    13.3060   Anisotropy =    18.0903
   XX=    23.9692   YX=    -8.1798   ZX=    -4.3455
   XY=    -1.0999   YY=     5.1081   ZY=   -13.1458
   XZ=     4.7815   YZ=    -2.1684   ZZ=    10.8407
   Eigenvalues:    -0.7624    15.3143    25.3662
     91  Bq   Isotropic =     8.1215   Anisotropy =    10.9699
   XX=     6.6839   YX=    -2.9704   ZX=    -1.7077
   XY=    -1.2276   YY=     5.9432   ZY=    -0.2803
   XZ=    11.6575   YZ=     8.2568   ZZ=    11.7374
   Eigenvalues:     0.6059     8.3239    15.4347
     92  Bq   Isotropic =     1.1473   Anisotropy =     9.9348
   XX=     1.4210   YX=    -3.5670   ZX=     1.4064
   XY=    -1.5438   YY=     2.7611   ZY=     2.3226
   XZ=    11.4626   YZ=     8.4860   ZZ=    -0.7402
   Eigenvalues:    -9.0462     4.7176     7.7705
     93  Bq   Isotropic =     1.9123   Anisotropy =     9.6290
   XX=     4.6720   YX=    -4.5908   ZX=     1.9445
   XY=    -1.8222   YY=     4.8676   ZY=     2.1237
   XZ=    11.1428   YZ=     8.2772   ZZ=    -3.8027
   Eigenvalues:    -9.8848     7.2901     8.3317
     94  Bq   Isotropic =     0.8758   Anisotropy =    10.5071
   XX=     0.2313   YX=    -3.1107   ZX=     1.2181
   XY=    -1.3858   YY=     1.8646   ZY=     2.2620
   XZ=    11.4089   YZ=     8.2167   ZZ=     0.5317
   Eigenvalues:    -8.6533     3.4002     7.8806
     95  Bq   Isotropic =     2.3942   Anisotropy =    11.8331
   XX=     6.7118   YX=    -5.1270   ZX=     2.3319
   XY=    -1.9405   YY=     5.9680   ZY=     1.8088
   XZ=    10.7541   YZ=     7.6182   ZZ=    -5.4973
   Eigenvalues:   -10.3642     7.2638    10.2829
     96  Bq   Isotropic =     0.6711   Anisotropy =    10.9499
   XX=    -0.6966   YX=    -2.7016   ZX=     1.0645
   XY=    -1.2209   YY=     1.1011   ZY=     2.1394
   XZ=    11.2389   YZ=     7.8073   ZZ=     1.6090
   Eigenvalues:    -8.2633     2.3057     7.9711
     97  Bq   Isotropic =     2.9132   Anisotropy =    14.3560
   XX=     8.9433   YX=    -5.6436   ZX=     2.8266
   XY=    -2.0495   YY=     6.9809   ZY=     1.3454
   XZ=    10.2323   YZ=     6.4866   ZZ=    -7.1845
   Eigenvalues:   -10.9000     7.1558    12.4839
     98  Bq   Isotropic =     0.5227   Anisotropy =    11.2565
   XX=    -1.3986   YX=    -2.3412   ZX=     0.9357
   XY=    -1.0543   YY=     0.4693   ZY=     1.9830
   XZ=    10.9760   YZ=     7.3205   ZZ=     2.4973
   Eigenvalues:    -7.8721     1.4131     8.0270
     99  Bq   Isotropic =     3.4324   Anisotropy =    16.9688
   XX=    11.2350   YX=    -6.0980   ZX=     3.4460
   XY=    -2.1553   YY=     7.8009   ZY=     0.7755
   XZ=     9.6198   YZ=     4.8508   ZZ=    -8.7386
   Eigenvalues:   -11.4808     7.0331    14.7449
    100  Bq   Isotropic =     0.4193   Anisotropy =    11.4334
   XX=    -1.9125   YX=    -2.0280   ZX=     0.8244
   XY=    -0.8912   YY=    -0.0415   ZY=     1.8136
   XZ=    10.6421   YZ=     6.8017   ZZ=     3.2120
   Eigenvalues:    -7.4792     0.6955     8.0416
    101  Bq   Isotropic =     3.9101   Anisotropy =    19.4740
   XX=    13.4040   YX=    -6.4319   ZX=     4.1923
   XY=    -2.2617   YY=     8.3460   ZY=     0.1870
   XZ=     8.9736   YZ=     2.7454   ZZ=   -10.0196
   Eigenvalues:   -12.0624     6.8999    16.8928
    102  Bq   Isotropic =     1.4928   Anisotropy =     9.2916
   XX=     2.8992   YX=    -4.0643   ZX=     1.6429
   XY=    -1.6901   YY=     3.7754   ZY=     2.2875
   XZ=    11.3787   YZ=     8.5363   ZZ=    -2.1961
   Eigenvalues:    -9.4515     6.2428     7.6873
    103  Bq   Isotropic =    -1.0600   Anisotropy =     9.1230
   XX=    -0.4785   YX=    -2.5391   ZX=     3.2506
   XY=    -1.2657   YY=     2.5861   ZY=     1.4987
   XZ=    11.6786   YZ=     4.7950   ZZ=    -5.2877
   Eigenvalues:   -11.6676     3.4655     5.0220
    104  Bq   Isotropic =    -1.3353   Anisotropy =    10.7174
   XX=     0.6771   YX=    -3.0380   ZX=     3.9616
   XY=    -1.7802   YY=     4.2362   ZY=     1.2719
   XZ=    11.7309   YZ=     3.8936   ZZ=    -8.9191
   Eigenvalues:   -13.9660     4.1506     5.8097
    105  Bq   Isotropic =    -0.9276   Anisotropy =     9.2977
   XX=    -0.9463   YX=    -2.3007   ZX=     2.9254
   XY=    -1.0367   YY=     1.8780   ZY=     1.5512
   XZ=    11.4949   YZ=     5.0297   ZZ=    -3.7146
   Eigenvalues:   -10.7053     2.6516     5.2708
    106  Bq   Isotropic =    -1.4725   Anisotropy =    12.5196
   XX=     1.3359   YX=    -3.2783   ZX=     4.3399
   XY=    -2.0550   YY=     5.1417   ZY=     1.0904
   XZ=    11.5716   YZ=     3.2001   ZZ=   -10.8951
   Eigenvalues:   -15.2878     3.9964     6.8739
    107  Bq   Isotropic =    -0.8010   Anisotropy =     9.5209
   XX=    -1.3335   YX=    -2.0776   ZX=     2.6228
   XY=    -0.8296   YY=     1.2584   ZY=     1.5709
   XZ=    11.2281   YZ=     5.1469   ZZ=    -2.3278
   Eigenvalues:    -9.8542     1.9049     5.5463
    108  Bq   Isotropic =    -1.6044   Anisotropy =    14.3985
   XX=     2.0165   YX=    -3.4928   ZX=     4.7246
   XY=    -2.3292   YY=     6.0613   ZY=     0.8653
   XZ=    11.2758   YZ=     2.3432   ZZ=   -12.8910
   Eigenvalues:   -16.6789     3.8711     7.9946
    109  Bq   Isotropic =    -0.6808   Anisotropy =     9.7197
   XX=    -1.6419   YX=    -1.8725   ZX=     2.3430
   XY=    -0.6447   YY=     0.7277   ZY=     1.5644
   XZ=    10.8954   YZ=     5.1682   ZZ=    -1.1282
   Eigenvalues:    -9.0970     1.2555     5.7990
    110  Bq   Isotropic =    -1.7263   Anisotropy =    16.2256
   XX=     2.6874   YX=    -3.6626   ZX=     5.1049
   XY=    -2.5892   YY=     6.9554   ZY=     0.6043
   XZ=    10.8381   YZ=     1.3389   ZZ=   -14.8216
   Eigenvalues:   -18.0744     3.8048     9.0908
    111  Bq   Isotropic =    -0.5673   Anisotropy =     9.8652
   XX=    -1.8767   YX=    -1.6864   ZX=     2.0859
   XY=    -0.4815   YY=     0.2822   ZY=     1.5378
   XZ=    10.5131   YZ=     5.1141   ZZ=    -0.1074
   Eigenvalues:    -8.4168     0.7053     6.0095
    112  Bq   Isotropic =    -1.8327   Anisotropy =    17.8918
   XX=     3.3161   YX=    -3.7661   ZX=     5.4656
   XY=    -2.8181   YY=     7.7805   ZY=     0.3205
   XZ=    10.2543   YZ=     0.2182   ZZ=   -16.5946
   Eigenvalues:   -19.3898     3.7965    10.0952
    113  Bq   Isotropic =    -1.1967   Anisotropy =     9.3585
   XX=     0.0661   YX=    -2.7877   ZX=     3.5969
   XY=    -1.5148   YY=     3.3768   ZY=     1.4073
   XZ=    11.7624   YZ=     4.4220   ZZ=    -7.0330
   Eigenvalues:   -12.7538     4.1214     5.0423
    114  Bq   Isotropic =    -0.7377   Anisotropy =     9.7911
   XX=    -0.6101   YX=    -1.2236   ZX=     3.6931
   XY=    -0.4659   YY=     1.6995   ZY=    -0.0014
   XZ=    11.5483   YZ=     2.5428   ZZ=    -3.3024
   Eigenvalues:    -9.8933     1.8906     5.7897
    115  Bq   Isotropic =    -0.7065   Anisotropy =    10.3679
   XX=     0.2575   YX=    -1.4587   ZX=     4.2875
   XY=    -1.0465   YY=     3.0794   ZY=    -0.7101
   XZ=    11.8547   YZ=     1.2590   ZZ=    -5.4566
   Eigenvalues:   -11.2243     2.8992     6.2054
    116  Bq   Isotropic =    -0.7152   Anisotropy =     9.7546
   XX=    -0.9390   YX=    -1.1345   ZX=     3.3920
   XY=    -0.2563   YY=     1.1598   ZY=     0.3011
   XZ=    11.2525   YZ=     3.0437   ZZ=    -2.3665
   Eigenvalues:    -9.2888     1.3553     5.7878
    117  Bq   Isotropic =    -0.6468   Anisotropy =    11.1407
   XX=     0.7969   YX=    -1.6118   ZX=     4.5591
   XY=    -1.4293   YY=     3.9229   ZY=    -1.0784
   XZ=    11.8052   YZ=     0.5195   ZZ=    -6.6602
   Eigenvalues:   -11.9452     3.2245     6.7803
    118  Bq   Isotropic =    -0.6735   Anisotropy =     9.7583
   XX=    -1.2031   YX=    -1.0590   ZX=     3.0980
   XY=    -0.0898   YY=     0.7094   ZY=     0.5569
   XZ=    10.8942   YZ=     3.4409   ZZ=    -1.5268
   Eigenvalues:    -8.7211     0.8685     5.8320
    119  Bq   Isotropic =    -0.5576   Anisotropy =    12.2478
   XX=     1.4005   YX=    -1.7899   ZX=     4.7941
   XY=    -1.8735   YY=     4.8541   ZY=    -1.4159
   XZ=    11.5737   YZ=    -0.2346   ZZ=    -7.9275
   Eigenvalues:   -12.6855     3.4052     7.6076
    120  Bq   Isotropic =    -0.6173   Anisotropy =     9.7559
   XX=    -1.4083   YX=    -0.9936   ZX=     2.8160
   XY=     0.0417   YY=     0.3379   ZY=     0.7644
   XZ=    10.4923   YZ=     3.7380   ZZ=    -0.7814
   Eigenvalues:    -8.1854     0.4469     5.8867
    121  Bq   Isotropic =    -0.4438   Anisotropy =    13.5527
   XX=     2.0566   YX=    -1.9883   ZX=     4.9741
   XY=    -2.3678   YY=     5.8427   ZY=    -1.6827
   XZ=    11.1223   YZ=    -0.9520   ZZ=    -9.2306
   Eigenvalues:   -13.4181     3.4955     8.5913
    122  Bq   Isotropic =    -0.5508   Anisotropy =     9.7244
   XX=    -1.5614   YX=    -0.9354   ZX=     2.5491
   XY=     0.1452   YY=     0.0349   ZY=     0.9255
   XZ=    10.0622   YZ=     3.9435   ZZ=    -0.1258
   Eigenvalues:    -7.6775     0.0930     5.9322
    123  Bq   Isotropic =    -0.3151   Anisotropy =    14.8933
   XX=     2.7464   YX=    -2.1950   ZX=     5.0782
   XY=    -2.8881   YY=     6.8373   ZY=    -1.8377
   XZ=    10.4161   YZ=    -1.5786   ZZ=   -10.5291
   Eigenvalues:   -14.1049     3.5458     9.6137
    124  Bq   Isotropic =    -0.7361   Anisotropy =     9.9531
   XX=    -0.2119   YX=    -1.3303   ZX=     3.9948
   XY=    -0.7268   YY=     2.3376   ZY=    -0.3433
   XZ=    11.7583   YZ=     1.9428   ZZ=    -4.3340
   Eigenvalues:   -10.5383     2.4307     5.8993
    125  Bq   Isotropic =     0.0524   Anisotropy =    11.0175
   XX=     0.0144   YX=    -0.2020   ZX=     3.6901
   XY=     0.6676   YY=     0.4643   ZY=     0.4313
   XZ=    10.6778   YZ=     3.6084   ZZ=    -0.3216
   Eigenvalues:    -7.5491     0.3089     7.3974
    126  Bq   Isotropic =     0.7224   Anisotropy =    11.5619
   XX=     1.3649   YX=    -0.2688   ZX=     4.3874
   XY=     0.3012   YY=     1.4632   ZY=    -0.2222
   XZ=    11.4317   YZ=     2.7536   ZZ=    -0.6608
   Eigenvalues:    -7.7187     1.4557     8.4303
    127  Bq   Isotropic =    -0.1415   Anisotropy =    10.7684
   XX=    -0.4302   YX=    -0.2038   ZX=     3.3767
   XY=     0.7578   YY=     0.1370   ZY=     0.6883
   XZ=    10.2570   YZ=     3.9117   ZZ=    -0.1313
   Eigenvalues:    -7.3730    -0.0889     7.0374
    128  Bq   Isotropic =     1.2347   Anisotropy =    11.8893
   XX=     2.3489   YX=    -0.3571   ZX=     4.7576
   XY=    -0.0136   YY=     2.1887   ZY=    -0.6021
   XZ=    11.7050   YZ=     2.2076   ZZ=    -0.8334
   Eigenvalues:    -7.6810     2.2243     9.1609
    129  Bq   Isotropic =    -0.2649   Anisotropy =    10.5193
   XX=    -0.7623   YX=    -0.2183   ZX=     3.0875
   XY=     0.8076   YY=    -0.1068   ZY=     0.8976
   XZ=     9.8271   YZ=     4.1368   ZZ=     0.0746
   Eigenvalues:    -7.1518    -0.3908     6.7480
    130  Bq   Isotropic =     1.8827   Anisotropy =    12.2749
   XX=     3.5952   YX=    -0.4945   ZX=     5.1139
   XY=    -0.4409   YY=     3.0970   ZY=    -0.9891
   XZ=    11.8334   YZ=     1.5994   ZZ=    -1.0441
   Eigenvalues:    -7.5359     3.1181    10.0660
    131  Bq   Isotropic =    -0.3334   Anisotropy =    10.2644
   XX=    -1.0058   YX=    -0.2394   ZX=     2.8207
   XY=     0.8290   YY=    -0.2863   ZY=     1.0621
   XZ=     9.3955   YZ=     4.2908   ZZ=     0.2917
   Eigenvalues:    -6.8953    -0.6145     6.5095
    132  Bq   Isotropic =     2.6616   Anisotropy =    12.7244
   XX=     5.1296   YX=    -0.6853   ZX=     5.4106
   XY=    -0.9904   YY=     4.1914   ZY=    -1.3429
   XZ=    11.7215   YZ=     0.9549   ZZ=    -1.3360
   Eigenvalues:    -7.2678     4.1082    11.1446
    133  Bq   Isotropic =    -0.3608   Anisotropy =    10.0010
   XX=    -1.1797   YX=    -0.2628   ZX=     2.5744
   XY=     0.8314   YY=    -0.4170   ZY=     1.1863
   XZ=     8.9674   YZ=     4.3822   ZZ=     0.5142
   Eigenvalues:    -6.6126    -0.7765     6.3065
    134  Bq   Isotropic =     3.5353   Anisotropy =    13.2242
   XX=     6.9320   YX=    -0.9239   ZX=     5.5779
   XY=    -1.6532   YY=     5.4320   ZY=    -1.6062
   XZ=    11.2417   YZ=     0.3119   ZZ=    -1.7580
   Eigenvalues:    -6.8801     5.1346    12.3515
    135  Bq   Isotropic =     0.3342   Anisotropy =    11.2771
   XX=     0.6008   YX=    -0.2205   ZX=     4.0280
   XY=     0.5216   YY=     0.8977   ZY=     0.1264
   XZ=    11.0767   YZ=     3.2225   ZZ=    -0.4959
   Eigenvalues:    -7.6689     0.8193     7.8522
    136  Bq   Isotropic =    -0.1275   Anisotropy =    11.2002
   XX=     0.0309   YX=     0.7371   ZX=     3.2171
   XY=     1.9343   YY=     0.4955   ZY=     2.3008
   XZ=     8.2258   YZ=     5.5830   ZZ=    -0.9088
   Eigenvalues:    -6.8196    -0.9022     7.3394
    137  Bq   Isotropic =     0.4080   Anisotropy =    12.1314
   XX=     1.1578   YX=     1.1139   ZX=     3.7660
   XY=     2.3136   YY=     1.3304   ZY=     2.4327
   XZ=     8.7225   YZ=     5.6192   ZZ=    -1.2643
   Eigenvalues:    -6.9801    -0.2916     8.4956
    138  Bq   Isotropic =    -0.2843   Anisotropy =    10.7628
   XX=    -0.3423   YX=     0.5914   ZX=     2.9710
   XY=     1.7768   YY=     0.2237   ZY=     2.2285
   XZ=     7.9493   YZ=     5.5083   ZZ=    -0.7344
   Eigenvalues:    -6.6647    -1.0791     6.8909
    139  Bq   Isotropic =     0.8106   Anisotropy =    12.6145
   XX=     1.9730   YX=     1.3614   ZX=     4.0576
   XY=     2.5456   YY=     1.9332   ZY=     2.4780
   XZ=     8.9014   YZ=     5.5419   ZZ=    -1.4743
   Eigenvalues:    -6.9655     0.1771     9.2203
    140  Bq   Isotropic =    -0.3836   Anisotropy =    10.3444
   XX=    -0.6213   YX=     0.4665   ZX=     2.7440
   XY=     1.6356   YY=     0.0245   ZY=     2.1556
   XZ=     7.6667   YZ=     5.4101   ZZ=    -0.5540
   Eigenvalues:    -6.4714    -1.1921     6.5126
    141  Bq   Isotropic =     1.3145   Anisotropy =    13.0891
   XX=     3.0009   YX=     1.6611   ZX=     4.3369
   XY=     2.8130   YY=     2.6811   ZY=     2.4890
   XZ=     8.9778   YZ=     5.3556   ZZ=    -1.7384
   Eigenvalues:    -6.8717     0.7747    10.0406
    142  Bq   Isotropic =    -0.4370   Anisotropy =     9.9438
   XX=    -0.8256   YX=     0.3588   ZX=     2.5343
   XY=     1.5085   YY=    -0.1181   ZY=     2.0831
   XZ=     7.3818   YZ=     5.2944   ZZ=    -0.3674
   Eigenvalues:    -6.2477    -1.2556     6.1921
    143  Bq   Isotropic =     1.9152   Anisotropy =    13.5289
   XX=     4.2623   YX=     2.0214   ZX=     4.5653
   XY=     3.1183   YY=     3.5716   ZY=     2.4390
   XZ=     8.8775   YZ=     5.0078   ZZ=    -2.0884
   Eigenvalues:    -6.6902     1.5012    10.9344
    144  Bq   Isotropic =    -0.4553   Anisotropy =     9.5599
   XX=    -0.9714   YX=     0.2657   ZX=     2.3399
   XY=     1.3939   YY=    -0.2180   ZY=     2.0111
   XZ=     7.0974   YZ=     5.1656   ZZ=    -0.1765
   Eigenvalues:    -6.0014    -1.2825     5.9179
    145  Bq   Isotropic =     2.5844   Anisotropy =    13.9050
   XX=     5.7418   YX=     2.4444   ZX=     4.6826
   XY=     3.4564   YY=     4.5655   ZY=     2.2932
   XZ=     8.4983   YZ=     4.4337   ZZ=    -2.5540
   Eigenvalues:    -6.4267     2.3256    11.8544
    146  Bq   Isotropic =     0.0992   Anisotropy =    11.6572
   XX=     0.5215   YX=     0.9089   ZX=     3.4828
   XY=     2.1117   YY=     0.8579   ZY=     2.3704
   XZ=     8.4883   YZ=     5.6248   ZZ=    -1.0819
   Eigenvalues:    -6.9277    -0.6454     7.8706
    147  Bq   Isotropic =    -0.7079   Anisotropy =     9.5228
   XX=    -0.3920   YX=     1.1054   ZX=     2.3751
   XY=     2.2351   YY=     1.2832   ZY=     2.5948
   XZ=     5.3917   YZ=     5.0480   ZZ=    -3.0150
   Eigenvalues:    -6.5163    -1.2480     5.6406
    148  Bq   Isotropic =    -0.6309   Anisotropy =    10.2619
   XX=     0.0616   YX=     1.4995   ZX=     2.5801
   XY=     2.6991   YY=     2.0141   ZY=     2.7015
   XZ=     5.3542   YZ=     4.8874   ZZ=    -3.9683
   Eigenvalues:    -7.0092    -1.0938     6.2104
    149  Bq   Isotropic =    -0.7145   Anisotropy =     9.1663
   XX=    -0.5570   YX=     0.9430   ZX=     2.2606
   XY=     2.0386   YY=     1.0044   ZY=     2.5050
   XZ=     5.3520   YZ=     5.0371   ZZ=    -2.5909
   Eigenvalues:    -6.2548    -1.2851     5.3964
    150  Bq   Isotropic =    -0.5596   Anisotropy =    10.6364
   XX=     0.3543   YX=     1.7356   ZX=     2.6586
   XY=     2.9679   YY=     2.4650   ZY=     2.6916
   XZ=     5.2546   YZ=     4.6761   ZZ=    -4.4980
   Eigenvalues:    -7.2342    -0.9758     6.5314
    151  Bq   Isotropic =    -0.7028   Anisotropy =     8.8216
   XX=    -0.6863   YX=     0.8004   ZX=     2.1434
   XY=     1.8634   YY=     0.7772   ZY=     2.4040
   XZ=     5.2845   YZ=     4.9862   ZZ=    -2.1992
   Eigenvalues:    -5.9875    -1.2991     5.1783
    152  Bq   Isotropic =    -0.4695   Anisotropy =    11.0052
   XX=     0.6885   YX=     1.9984   ZX=     2.7093
   XY=     3.2587   YY=     2.9603   ZY=     2.6166
   XZ=     5.0819   YZ=     4.3461   ZZ=    -5.0573
   Eigenvalues:    -7.4409    -0.8348     6.8673
    153  Bq   Isotropic =    -0.6762   Anisotropy =     8.4899
   XX=    -0.7851   YX=     0.6751   ZX=     2.0257
   XY=     1.7072   YY=     0.5944   ZY=     2.2981
   XZ=     5.1951   YZ=     4.9065   ZZ=    -1.8379
   Eigenvalues:    -5.7179    -1.2944     4.9838
    154  Bq   Isotropic =    -0.3660   Anisotropy =    11.3573
   XX=     1.0574   YX=     2.2850   ZX=     2.7204
   XY=     3.5644   YY=     3.4782   ZY=     2.4577
   XZ=     4.8195   YZ=     3.8737   ZZ=    -5.6335
   Eigenvalues:    -7.6256    -0.6779     7.2056
    155  Bq   Isotropic =    -0.6383   Anisotropy =     8.1718
   XX=    -0.8585   YX=     0.5651   ZX=     1.9090
   XY=     1.5680   YY=     0.4485   ZY=     2.1917
   XZ=     5.0887   YZ=     4.8067   ZZ=    -1.5048
   Eigenvalues:    -5.4489    -1.2755     4.8096
    156  Bq   Isotropic =    -0.2571   Anisotropy =    11.6788
   XX=     1.4478   YX=     2.5881   ZX=     2.6791
   XY=     3.8723   YY=     3.9847   ZY=     2.1986
   XZ=     4.4514   YZ=     3.2405   ZZ=    -6.2039
   Eigenvalues:    -7.7844    -0.5157     7.5287
    157  Bq   Isotropic =    -0.6805   Anisotropy =     9.8890
   XX=    -0.1869   YX=     1.2901   ZX=     2.4832
   XY=     2.4548   YY=     1.6191   ZY=     2.6642
   XZ=     5.3957   YZ=     5.0041   ZZ=    -3.4737
   Eigenvalues:    -6.7689    -1.1848     5.9122
    158  Bq   Isotropic =    -0.8612   Anisotropy =     7.2963
   XX=    -0.4928   YX=     1.0704   ZX=     1.6698
   XY=     1.8833   YY=     1.4967   ZY=     1.8205
   XZ=     3.5202   YZ=     3.4929   ZZ=    -3.5874
   Eigenvalues:    -5.4823    -1.1043     4.0030
    159  Bq   Isotropic =    -0.9328   Anisotropy =     7.6933
   XX=    -0.3297   YX=     1.3232   ZX=     1.7278
   XY=     2.1478   YY=     1.9017   ZY=     1.7406
   XZ=     3.3589   YZ=     3.1280   ZZ=    -4.3705
   Eigenvalues:    -5.9025    -1.0920     4.1960
    160  Bq   Isotropic =    -0.8174   Anisotropy =     7.0946
   XX=    -0.5580   YX=     0.9558   ZX=     1.6260
   XY=     1.7599   YY=     1.3161   ZY=     1.8237
   XZ=     3.5622   YZ=     3.6051   ZZ=    -3.2103
   Eigenvalues:    -5.2646    -1.0999     3.9123
    161  Bq   Isotropic =    -0.9594   Anisotropy =     7.8828
   XX=    -0.2322   YX=     1.4598   ZX=     1.7376
   XY=     2.2853   YY=     2.1174   ZY=     1.6538
   XZ=     3.2341   YZ=     2.8637   ZZ=    -4.7634
   Eigenvalues:    -6.0986    -1.0754     4.2958
    162  Bq   Isotropic =    -0.7696   Anisotropy =     6.8936
   XX=    -0.6129   YX=     0.8496   ZX=     1.5750
   XY=     1.6435   YY=     1.1528   ZY=     1.8091
   XZ=     3.5822   YZ=     3.6788   ZZ=    -2.8487
   Eigenvalues:    -5.0457    -1.0893     3.8261
    163  Bq   Isotropic =    -0.9795   Anisotropy =     8.0615
   XX=    -0.1256   YX=     1.6012   ZX=     1.7314
   XY=     2.4227   YY=     2.3326   ZY=     1.5301
   XZ=     3.0766   YZ=     2.5394   ZZ=    -5.1456
   Eigenvalues:    -6.2806    -1.0528     4.3948
    164  Bq   Isotropic =    -0.7189   Anisotropy =     6.6948
   XX=    -0.6582   YX=     0.7516   ZX=     1.5184
   XY=     1.5347   YY=     1.0070   ZY=     1.7809
   XZ=     3.5829   YZ=     3.7199   ZZ=    -2.5054
   Eigenvalues:    -4.8277    -1.0733     3.7443
    165  Bq   Isotropic =    -0.9935   Anisotropy =     8.2251
   XX=    -0.0117   YX=     1.7452   ZX=     1.7072
   XY=     2.5564   YY=     2.5372   ZY=     1.3668
   XZ=     2.8849   YZ=     2.1537   ZZ=    -5.5060
   Eigenvalues:    -6.4447    -1.0257     4.4899
    166  Bq   Isotropic =    -0.6663   Anisotropy =     6.4994
   XX=    -0.6948   YX=     0.6617   ZX=     1.4576
   XY=     1.4336   YY=     0.8779   ZY=     1.7428
   XZ=     3.5668   YZ=     3.7338   ZZ=    -2.1821
   Eigenvalues:    -4.6126    -1.0530     3.6667
    167  Bq   Isotropic =    -1.0020   Anisotropy =     8.3691
   XX=     0.1066   YX=     1.8887   ZX=     1.6630
   XY=     2.6817   YY=     2.7200   ZY=     1.1639
   XZ=     2.6582   YZ=     1.7090   ZZ=    -5.8327
   Eigenvalues:    -6.5874    -0.9961     4.5774
    168  Bq   Isotropic =    -0.8999   Anisotropy =     7.4967
[...]
 Alpha virt. eigenvalues --    1.71032   1.72103   1.72835   1.73613   1.74611
 Alpha virt. eigenvalues --    1.74968   1.75931   1.76092   1.76159   1.78200
 Alpha virt. eigenvalues --    1.78443   1.82205   1.82756   1.83005   1.83265
 Alpha virt. eigenvalues --    1.85143   1.85660   1.85802   1.87132   1.88323
 Alpha virt. eigenvalues --    1.89447   1.89537   1.90392   1.91565   1.92371
 Alpha virt. eigenvalues --    1.92424   1.92653   1.93923   1.94576   1.95166
 Alpha virt. eigenvalues --    1.95369   1.95609   1.97280   1.97532   1.97787
 Alpha virt. eigenvalues --    1.99538   2.01839   2.02735   2.03512   2.04275
 Alpha virt. eigenvalues --    2.05377   2.06329   2.06633   2.08238   2.08245
 Alpha virt. eigenvalues --    2.09663   2.10651   2.10693   2.11950   2.12645
 Alpha virt. eigenvalues --    2.14353   2.15040   2.18293   2.19151   2.20116
 Alpha virt. eigenvalues --    2.21316   2.22335   2.24454   2.26497   2.27023
 Alpha virt. eigenvalues --    2.30750   2.30776   2.32190   2.34590   2.34679
 Alpha virt. eigenvalues --    2.36221   2.40261   2.41010   2.42362   2.42548
 Alpha virt. eigenvalues --    2.43343   2.45214   2.46685   2.46769   2.47872
 Alpha virt. eigenvalues --    2.49371   2.52075   2.54599   2.56304   2.58248
 Alpha virt. eigenvalues --    2.59056   2.65475   2.65678   2.67057   2.69083
 Alpha virt. eigenvalues --    2.69621   2.69758   2.70628   2.71086   2.71942
 Alpha virt. eigenvalues --    2.72192   2.73171   2.73425   2.74327   2.74463
 Alpha virt. eigenvalues --    2.75225   2.75305   2.75525   2.75933   2.76148
 Alpha virt. eigenvalues --    2.76929   2.77514   2.77723   2.78748   2.79193
 Alpha virt. eigenvalues --    2.79815   2.80230   2.82624   2.83433   2.83662
 Alpha virt. eigenvalues --    2.85615   2.86706   2.87189   2.88082   2.88315
 Alpha virt. eigenvalues --    2.88695   2.89198   2.91197   2.94038   2.94128
 Alpha virt. eigenvalues --    2.94895   2.95121   2.97439   2.97682   3.01307
 Alpha virt. eigenvalues --    3.01632   3.04950   3.06616   3.10084   3.11989
 Alpha virt. eigenvalues --    3.14970   3.16481   3.22163   3.23050   3.23283
 Alpha virt. eigenvalues --    3.24797   3.25502   3.29918   3.30518   3.34806
 Alpha virt. eigenvalues --    3.35008   3.36722   3.38733   3.39353   3.40525
 Alpha virt. eigenvalues --    3.44514   3.45139   3.48005   3.50671   3.50767
 Alpha virt. eigenvalues --    3.55405   3.55424   3.57270   3.58232   3.58358
 Alpha virt. eigenvalues --    3.65254   3.65346   3.66170   3.66992   3.73362
 Alpha virt. eigenvalues --    3.75789   3.84164   3.97969   4.04607   4.04614
 Alpha virt. eigenvalues --    4.06101   4.06776   4.08780   4.09572   4.09773
 Alpha virt. eigenvalues --    4.19389   4.20687   4.25014   4.32130   4.41470
 Alpha virt. eigenvalues --    4.60493   4.79189   4.79329   4.79758   4.84284
 Alpha virt. eigenvalues --    4.85797  23.48703  23.65474  23.75492  23.85014
 Alpha virt. eigenvalues --   23.89650  23.94497  23.96407  23.97011  23.97390
 Alpha virt. eigenvalues --   23.98137  23.98920  24.03520  24.03812  24.04041
 Alpha virt. eigenvalues --   24.04301  24.14283  24.14640  24.21696  24.21996
 Alpha virt. eigenvalues --   24.22195  24.22671  24.23049
          Condensed to atoms (all electrons):
 Mulliken charges:
               1
     1  C   -0.379265
     2  H    0.123768
     3  C    0.053849
     4  H    0.115559
     5  C    0.448258
     6  C    0.064351
     7  C   -0.483520
     8  H    0.149595
     9  C   -0.261805
    10  H    0.122284
    11  C   -0.322216
    12  H    0.116228
    13  C   -0.235853
    14  H    0.116538
    15  C    0.653397
    16  C    0.034822
    17  C   -0.434868
    18  H    0.117458
    19  C   -0.434284
    20  H    0.117431
    21  C    0.651066
    22  C    0.037784
    23  C   -0.233803
    24  H    0.116514
    25  C   -0.321531
    26  H    0.116215
    27  C    0.448331
    28  C    0.061983
    29  C   -0.483043
    30  H    0.149662
    31  C   -0.261786
    32  H    0.122281
    33  C   -0.379734
    34  H    0.123756
    35  C    0.055019
    36  H    0.115561
    37  Bq   0.000000
    38  Bq   0.000000
    39  Bq   0.000000
    40  Bq   0.000000
    41  Bq   0.000000
    42  Bq   0.000000
    43  Bq   0.000000
    44  Bq   0.000000
    45  Bq   0.000000
    46  Bq   0.000000
    47  Bq   0.000000
    48  Bq   0.000000
    49  Bq   0.000000
    50  Bq   0.000000
    51  Bq   0.000000
    52  Bq   0.000000
    53  Bq   0.000000
    54  Bq   0.000000
    55  Bq   0.000000
    56  Bq   0.000000
    57  Bq   0.000000
    58  Bq   0.000000
    59  Bq   0.000000
    60  Bq   0.000000
    61  Bq   0.000000
    62  Bq   0.000000
    63  Bq   0.000000
    64  Bq   0.000000
    65  Bq   0.000000
    66  Bq   0.000000
    67  Bq   0.000000
    68  Bq   0.000000
    69  Bq   0.000000
    70  Bq   0.000000
    71  Bq   0.000000
    72  Bq   0.000000
    73  Bq   0.000000
    74  Bq   0.000000
    75  Bq   0.000000
    76  Bq   0.000000
    77  Bq   0.000000
    78  Bq   0.000000
    79  Bq   0.000000
    80  Bq   0.000000
    81  Bq   0.000000
    82  Bq   0.000000
    83  Bq   0.000000
    84  Bq   0.000000
    85  Bq   0.000000
    86  Bq   0.000000
    87  Bq   0.000000
    88  Bq   0.000000
    89  Bq   0.000000
    90  Bq   0.000000
    91  Bq   0.000000
    92  Bq   0.000000
    93  Bq   0.000000
    94  Bq   0.000000
    95  Bq   0.000000
    96  Bq   0.000000
    97  Bq   0.000000
    98  Bq   0.000000
    99  Bq   0.000000
   100  Bq   0.000000
   101  Bq   0.000000
   102  Bq   0.000000
   103  Bq   0.000000
   104  Bq   0.000000
   105  Bq   0.000000
   106  Bq   0.000000
   107  Bq   0.000000
   108  Bq   0.000000
   109  Bq   0.000000
   110  Bq   0.000000
   111  Bq   0.000000
   112  Bq   0.000000
   113  Bq   0.000000
   114  Bq   0.000000
   115  Bq   0.000000
   116  Bq   0.000000
   117  Bq   0.000000
   118  Bq   0.000000
   119  Bq   0.000000
   120  Bq   0.000000
   121  Bq   0.000000
   122  Bq   0.000000
   123  Bq   0.000000
   124  Bq   0.000000
   125  Bq   0.000000
   126  Bq   0.000000
   127  Bq   0.000000
   128  Bq   0.000000
   129  Bq   0.000000
   130  Bq   0.000000
   131  Bq   0.000000
   132  Bq   0.000000
   133  Bq   0.000000
   134  Bq   0.000000
   135  Bq   0.000000
   136  Bq   0.000000
   137  Bq   0.000000
   138  Bq   0.000000
   139  Bq   0.000000
   140  Bq   0.000000
   141  Bq   0.000000
   142  Bq   0.000000
   143  Bq   0.000000
   144  Bq   0.000000
   145  Bq   0.000000
   146  Bq   0.000000
   147  Bq   0.000000
   148  Bq   0.000000
   149  Bq   0.000000
   150  Bq   0.000000
   151  Bq   0.000000
   152  Bq   0.000000
   153  Bq   0.000000
   154  Bq   0.000000
   155  Bq   0.000000
   156  Bq   0.000000
   157  Bq   0.000000
   158  Bq   0.000000
   159  Bq   0.000000
   160  Bq   0.000000
   161  Bq   0.000000
   162  Bq   0.000000
   163  Bq   0.000000
   164  Bq   0.000000
   165  Bq   0.000000
   166  Bq   0.000000
   167  Bq   0.000000
   168  Bq   0.000000
 Sum of Mulliken charges =   0.00000
 Mulliken charges with hydrogens summed into heavy atoms:
               1
     1  C   -0.255498
     3  C    0.169409
     5  C    0.448258
     6  C    0.064351
     7  C   -0.333926
     9  C   -0.139521
    11  C   -0.205988
    13  C   -0.119315
    15  C    0.653397
    16  C    0.034822
    17  C   -0.317410
    19  C   -0.434284
    21  C    0.651066
    22  C    0.037784
    23  C   -0.233803
    25  C   -0.205316
    27  C    0.448331
    28  C    0.061983
    29  C   -0.333381
    31  C   -0.139505
    33  C   -0.255977
    35  C    0.170579
    37  Bq   0.000000
    38  Bq   0.000000
    39  Bq   0.000000
    40  Bq   0.000000
    41  Bq   0.000000
    42  Bq   0.000000
    43  Bq   0.000000
    44  Bq   0.000000
    45  Bq   0.000000
    46  Bq   0.000000
    47  Bq   0.000000
    48  Bq   0.000000
    49  Bq   0.000000
    50  Bq   0.000000
    51  Bq   0.000000
    52  Bq   0.000000
    53  Bq   0.000000
    54  Bq   0.000000
    55  Bq   0.000000
    56  Bq   0.000000
    57  Bq   0.000000
    58  Bq   0.000000
    59  Bq   0.000000
    60  Bq   0.000000
    61  Bq   0.000000
    62  Bq   0.000000
    63  Bq   0.000000
    64  Bq   0.000000
    65  Bq   0.000000
    66  Bq   0.000000
    67  Bq   0.000000
    68  Bq   0.000000
    69  Bq   0.000000
    70  Bq   0.000000
    71  Bq   0.000000
    72  Bq   0.000000
    73  Bq   0.000000
    74  Bq   0.000000
    75  Bq   0.000000
    76  Bq   0.000000
    77  Bq   0.000000
    78  Bq   0.000000
    79  Bq   0.000000
    80  Bq   0.000000
    81  Bq   0.000000
    82  Bq   0.000000
    83  Bq   0.000000
    84  Bq   0.000000
    85  Bq   0.000000
    86  Bq   0.000000
    87  Bq   0.000000
    88  Bq   0.000000
    89  Bq   0.000000
    90  Bq   0.116514
    91  Bq   0.000000
    92  Bq   0.000000
    93  Bq   0.000000
    94  Bq   0.000000
    95  Bq   0.000000
    96  Bq   0.000000
    97  Bq   0.000000
    98  Bq   0.000000
    99  Bq   0.000000
   100  Bq   0.000000
   101  Bq   0.000000
   102  Bq   0.000000
   103  Bq   0.000000
   104  Bq   0.000000
   105  Bq   0.000000
   106  Bq   0.000000
   107  Bq   0.000000
   108  Bq   0.000000
   109  Bq   0.000000
   110  Bq   0.000000
   111  Bq   0.000000
   112  Bq   0.000000
   113  Bq   0.000000
   114  Bq   0.000000
   115  Bq   0.000000
   116  Bq   0.000000
   117  Bq   0.000000
   118  Bq   0.000000
   119  Bq   0.000000
   120  Bq   0.000000
   121  Bq   0.000000
   122  Bq   0.000000
   123  Bq   0.000000
   124  Bq   0.000000
   125  Bq   0.000000
   126  Bq   0.000000
   127  Bq   0.000000
   128  Bq   0.000000
   129  Bq   0.000000
   130  Bq   0.000000
   131  Bq   0.000000
   132  Bq   0.000000
   133  Bq   0.000000
   134  Bq   0.000000
   135  Bq   0.000000
   136  Bq   0.000000
   137  Bq   0.000000
   138  Bq   0.000000
   139  Bq   0.000000
   140  Bq   0.000000
   141  Bq   0.000000
   142  Bq   0.000000
   143  Bq   0.000000
   144  Bq   0.000000
   145  Bq   0.117431
   146  Bq   0.000000
   147  Bq   0.000000
   148  Bq   0.000000
   149  Bq   0.000000
   150  Bq   0.000000
   151  Bq   0.000000
   152  Bq   0.000000
   153  Bq   0.000000
   154  Bq   0.000000
   155  Bq   0.000000
   156  Bq   0.000000
   157  Bq   0.000000
   158  Bq   0.000000
   159  Bq   0.000000
   160  Bq   0.000000
   161  Bq   0.000000
   162  Bq   0.000000
   163  Bq   0.000000
   164  Bq   0.000000
   165  Bq   0.000000
   166  Bq   0.000000
   167  Bq   0.000000
   168  Bq   0.000000
 Electronic spatial extent (au):  <R**2>=           5736.9264
 Charge=              0.0000 electrons
 Dipole moment (field-independent basis, Debye):
    X=              0.0475    Y=              0.0856    Z=              0.0029  Tot=              0.0979
 Quadrupole moment (field-independent basis, Debye-Ang):
   XX=           -113.7056   YY=           -113.9456   ZZ=           -133.2669
   XY=             -0.3834   XZ=              3.2102   YZ=             -1.1839
 Traceless Quadrupole moment (field-independent basis, Debye-Ang):
   XX=              6.6005   YY=              6.3604   ZZ=            -12.9609
   XY=             -0.3834   XZ=              3.2102   YZ=             -1.1839
 Octapole moment (field-independent basis, Debye-Ang**2):
  XXX=            -16.4668  YYY=            -16.1860  ZZZ=             -1.7007  XYY=              2.5576
  XXY=             -6.5650  XXZ=             13.6547  XZZ=             -8.9478  YZZ=            -17.7168
  YYZ=            -13.2941  XYZ=              8.8036
 Hexadecapole moment (field-independent basis, Debye-Ang**3):
 XXXX=          -3951.1638 YYYY=          -3112.2161 ZZZZ=           -504.8311 XXXY=            340.6935
 XXXZ=            156.4968 YYYX=            335.5625 YYYZ=            -87.0893 ZZZX=            120.2262
 ZZZY=           -108.7373 XXYY=          -1176.4844 XXZZ=           -856.7291 YYZZ=           -665.7275
 XXYZ=            -68.9016 YYXZ=             48.1602 ZZXY=            153.0375
 N-N= 1.610917615562D+03 E-N=-5.186891130729D+03  KE= 8.436329774449D+02
 1\1\GINC-BRUSEL\SP\RB3LYP\6-311+G(d,p)\C22H14\YANNICK\14-Aug-2020\0\\#
  rb3lyp/6-311+g** NMR geom=connectivity\\Title\\0,1\C,0,-4.0500558,-0.
 5771862,0.8136712\H,0,-5.0263804,-1.0082727,1.002476\C,0,-3.9381552,0.
 6617804,0.2400876\H,0,-4.8252424,1.233889,-0.0111295\C,0,-2.676841,1.2
 433246,0.0057578\C,0,-1.4974121,0.5051527,0.2848253\C,0,-1.6508332,-0.
 7338728,0.9404026\H,0,-0.7713646,-1.2730967,1.2633753\C,0,-2.8898548,-
 1.2624035,1.1994307\H,0,-2.9683706,-2.2124563,1.7152676\C,0,-2.5773185
 ,2.5963696,-0.419293\H,0,-3.4870728,3.1412239,-0.6474055\C,0,-1.374189
 5,3.2147896,-0.436403\H,0,-1.2997315,4.2742019,-0.6578144\C,0,-0.17194
 88,2.499409,-0.1734588\C,0,-0.2043917,1.1018437,0.0192689\C,0,1.051349
 1,3.204256,-0.0676222\H,0,1.0427344,4.2819499,-0.1896997\C,0,2.1942091
 ,2.5487446,0.2579577\H,0,3.1168527,3.0912848,0.4334727\C,0,2.2216473,1
 .1336562,0.293499\C,0,1.0486931,0.3945528,0.0302412\C,0,3.4483363,0.46
 14633,0.5573939\H,0,4.3095794,1.0606054,0.8334846\C,0,3.5427346,-0.885
 5926,0.4749463\H,0,4.4731467,-1.3939704,0.7038822\C,0,2.4490052,-1.647
 4447,-0.0196319\C,0,1.2150704,-1.0057258,-0.3013573\C,0,0.2531113,-1.7
 43444,-1.0216591\H,0,-0.6541356,-1.2535051,-1.3462847\C,0,0.4494193,-3
 .0628597,-1.3413779\H,0,-0.3083162,-3.5944309,-1.905406\C,0,1.6251726,
 -3.7207967,-0.9552541\H,0,1.7670048,-4.7687404,-1.1927019\C,0,2.610987
 2,-3.0144177,-0.318305\H,0,3.5525612,-3.4902813,-0.0646367\Bq,0,2.8607
 100258,4.364772437,1.3153807862\Bq,0,2.8896619319,4.3549454668,1.11773
 1557\Bq,0,2.8462340728,4.3696859221,1.4142054008\Bq,0,2.904137885,4.35
 00319818,1.0189069425\Bq,0,2.8317581197,4.3745994072,1.5130300154\Bq,0
 ,2.918613838,4.3451184967,0.9200823279\Bq,0,2.8172821667,4.3795128922,
 1.61185463\Bq,0,2.933089791,4.3402050116,0.8212577133\Bq,0,2.802806213
 6,4.3844263773,1.7106792446\Bq,0,2.9475657441,4.3352915265,0.722433098
 7\Bq,0,2.8751859789,4.3598589519,1.2165561716\Bq,0,3.3198239481,-0.629
 1883319,1.6309283191\Bq,0,3.3487758542,-0.639015302,1.4332790899\Bq,0,
 3.305347995,-0.6242748468,1.7297529337\Bq,0,3.3632518072,-0.6439287871
 ,1.3344544754\Bq,0,3.290872042,-0.6193613617,1.8285775483\Bq,0,3.37772
 77603,-0.6488422722,1.2356298608\Bq,0,3.276396089,-0.6144478766,1.9274
 021629\Bq,0,3.3922037133,-0.6537557573,1.1368052462\Bq,0,3.2619201359,
 -0.6095343915,2.0262267774\Bq,0,3.4066796664,-0.6586692423,1.037980631
 6\Bq,0,3.3342999011,-0.6341018169,1.5321037045\Bq,0,3.3233846178,-0.12
 9792255,1.6066202953\Bq,0,3.3523365239,-0.1396192251,1.4089710661\Bq,0
 ,3.3089086648,-0.1248787699,1.7054449099\Bq,0,3.3668124769,-0.14453271
 02,1.3101464515\Bq,0,3.2944327117,-0.1199652848,1.8042695244\Bq,0,3.38
 128843,-0.1494461953,1.2113218369\Bq,0,3.2799567587,-0.1150517997,1.90
 3094139\Bq,0,3.395764383,-0.1543596804,1.1124972224\Bq,0,3.2654808056,
 -0.1101383146,2.0019187536\Bq,0,3.4102403361,-0.1592731655,1.013672607
 8\Bq,0,3.3378605708,-0.13470574,1.5077956807\Bq,0,3.3269452875,0.36960
 38219,1.5823122714\Bq,0,3.3558971936,0.3597768518,1.3846630423\Bq,0,3.
 3124693345,0.374517307,1.681136886\Bq,0,3.3703731466,0.3548633667,1.28
 58384277\Bq,0,3.2979933814,0.3794307921,1.7799615006\Bq,0,3.3848490997
 ,0.3499498816,1.1870138131\Bq,0,3.2835174284,0.3843442772,1.8787861152
 \Bq,0,3.3993250527,0.3450363965,1.0881891985\Bq,0,3.2690414753,0.38925
 77622,1.9776107298\Bq,0,3.4138010058,0.3401229114,0.9893645839\Bq,0,3.
 3414212406,0.3646903368,1.4834876569\Bq,0,3.3305059572,0.8689998988,1.
 5580042476\Bq,0,3.3594578633,0.8591729286,1.3603550184\Bq,0,3.31603000
 42,0.8739133839,1.6568288622\Bq,0,3.3739338164,0.8542594436,1.26153040
 39\Bq,0,3.3015540511,0.878826869,1.7556534768\Bq,0,3.3884097694,0.8493
 459585,1.1627057893\Bq,0,3.2870780981,0.8837403541,1.8544780914\Bq,0,3
 .4028857224,0.8444324734,1.0638811747\Bq,0,3.272602145,0.8886538391,1.
 953302706\Bq,0,3.4173616755,0.8395189883,0.9650565601\Bq,0,3.344981910
 3,0.8640864137,1.459179633\Bq,0,3.3340666269,1.3683959757,1.5336962238
 \Bq,0,3.363018533,1.3585690055,1.3360469946\Bq,0,3.3195906739,1.373309
 4608,1.6325208384\Bq,0,3.3774944861,1.3536555204,1.23722238\Bq,0,3.305
 1147208,1.3782229459,1.7313454529\Bq,0,3.3919704391,1.3487420354,1.138
 3977654\Bq,0,3.2906387678,1.3831364309,1.8301700675\Bq,0,3.4064463921,
 1.3438285503,1.0395731509\Bq,0,3.2761628147,1.388049916,1.9289946821\B
 q,0,3.4209223452,1.3389150652,0.9407485363\Bq,0,3.34854258,1.363482490
 6,1.4348716092\Bq,0,3.3376272966,1.8677920526,1.5093881999\Bq,0,3.3665
 792027,1.8579650824,1.3117389708\Bq,0,3.3231513436,1.8727055377,1.6082
 128145\Bq,0,3.3810551558,1.8530515973,1.2129143562\Bq,0,3.3086753905,1
 .8776190227,1.7070374291\Bq,0,3.3955311088,1.8481381122,1.1140897416\B
 q,0,3.2941994375,1.8825325078,1.8058620437\Bq,0,3.4100070619,1.8432246
 272,1.015265127\Bq,0,3.2797234845,1.8874459929,1.9046866583\Bq,0,3.424
 4830149,1.8383111421,0.9164405124\Bq,0,3.3521032497,1.8628785675,1.410
 5635854\Bq,0,3.3411879663,2.3671881295,1.4850801761\Bq,0,3.3701398724,
 2.3573611593,1.2874309469\Bq,0,3.3267120133,2.3721016145,1.5839047907\
 Bq,0,3.3846158255,2.3524476742,1.1886063324\Bq,0,3.3122360603,2.377015
 0996,1.6827294053\Bq,0,3.3990917785,2.3475341891,1.0897817178\Bq,0,3.2
 977601072,2.3819285847,1.7815540199\Bq,0,3.4135677316,2.342620704,0.99
 09571032\Bq,0,3.2832841542,2.3868420698,1.8803786345\Bq,0,3.4280436846
 ,2.337707219,0.8921324886\Bq,0,3.3556639194,2.3622746444,1.3862555615\
 Bq,0,3.3447486361,2.8665842063,1.4607721523\Bq,0,3.3737005421,2.856757
 2362,1.2631229231\Bq,0,3.330272683,2.8714976914,1.5595967669\Bq,0,3.38
 81764952,2.8518437511,1.1642983085\Bq,0,3.31579673,2.8764111765,1.6584
 213815\Bq,0,3.4026524482,2.846930266,1.0654736939\Bq,0,3.3013207769,2.
 8813246616,1.757245996\Bq,0,3.4171284013,2.8420167809,0.9666490794\Bq,
 0,3.2868448239,2.8862381467,1.8560706106\Bq,0,3.4316043543,2.837103295
 9,0.8678244648\Bq,0,3.3592245891,2.8616707213,1.3619475377\Bq,0,3.3483
 093058,3.3659802832,1.4364641284\Bq,0,3.3772612118,3.3561533131,1.2388
 148993\Bq,0,3.3338333527,3.3708937683,1.535288743\Bq,0,3.3917371649,3.
 351239828,1.1399902847\Bq,0,3.3193573997,3.3758072534,1.6341133576\Bq,
 0,3.4062131179,3.3463263429,1.0411656701\Bq,0,3.3048814466,3.380720738
 5,1.7329379722\Bq,0,3.420689071,3.3414128578,0.9423410555\Bq,0,3.29040
 54936,3.3856342236,1.8317625868\Bq,0,3.435165024,3.3364993727,0.843516
 4409\Bq,0,3.3627852588,3.3610667981,1.3376395139\Bq,0,3.3518699755,3.8
 653763601,1.4121561046\Bq,0,3.3808218816,3.85554939,1.2145068754\Bq,0,
 3.3373940224,3.8702898452,1.5109807192\Bq,0,3.3952978346,3.8506359049,
 1.1156822609\Bq,0,3.3229180694,3.8752033303,1.6098053338\Bq,0,3.409773
 7876,3.8457224198,1.0168576463\Bq,0,3.3084421163,3.8801168154,1.708629
 9484\Bq,0,3.4242497407,3.8408089347,0.9180330317\Bq,0,3.2939661633,3.8
 850303004,1.807454563\Bq,0,3.4387256937,3.8358954496,0.8192084171\Bq,0
 ,3.3663459285,3.860462875,1.31333149\Bq,0,3.3554306452,4.364772437,1.3
 878480808\Bq,0,3.3843825513,4.3549454668,1.1901988516\Bq,0,3.340954692
 1,4.3696859221,1.4866726954\Bq,0,3.3988585043,4.3500319818,1.091374237
 \Bq,0,3.3264787391,4.3745994072,1.58549731\Bq,0,3.4133344574,4.3451184
 967,0.9925496224\Bq,0,3.312002786,4.3795128922,1.6843219245\Bq,0,3.427
 8104104,4.3402050116,0.8937250079\Bq,0,3.297526833,4.3844263773,1.7831
 465391\Bq,0,3.4422863634,4.3352915265,0.7949003933\Bq,0,3.3699065982,4
 .3598589519,1.2890234662\\Version=ES64L-G09RevD.01\HF=-847.0032898\RMS
 D=7.547e-09\Dipole=0.0186808,0.0336671,0.0011595\Quadrupole=4.9072795,
 4.7288219,-9.6361014,-0.2850201,2.3867064,-0.880172\PG=C01 [X(C22H14)]
 \\@


 SI MONUMENTUM REQUIRIS, CIRCUMSPICE
     -- FROM SIR CHRISTOPHER WREN'S TOMBSTONE
 Job cpu time:       0 days  4 hours  2 minutes 54.5 seconds.
 File lengths (MBytes):  RWF=    183 Int=      0 D2E=      0 Chk=     18 Scr=      1
 Normal termination of Gaussian 09 at Fri Aug 14 17:43:36 2020.

real	30m50.929s
user	242m52.008s
sys	0m2.520s
