 Entering Gaussian System, Link 0=g09
 Initial command:
 /share/programs/GAUSSIAN/64/g09/l1.exe "/scratch/yannick.28360/Gau-15840.inp" -scrdir="/scratch/yannick.28360/"
 Entering Link 1 = /share/programs/GAUSSIAN/64/g09/l1.exe PID=     15850.
  
 Copyright (c) 1988,1990,1992,1993,1995,1998,2003,2009,2013,
            Gaussian, Inc.  All Rights Reserved.
  
 This is part of the Gaussian(R) 09 program.  It is based on
 the Gaussian(R) 03 system (copyright 2003, Gaussian, Inc.),
 the Gaussian(R) 98 system (copyright 1998, Gaussian, Inc.),
 the Gaussian(R) 94 system (copyright 1995, Gaussian, Inc.),
 the Gaussian 92(TM) system (copyright 1992, Gaussian, Inc.),
 the Gaussian 90(TM) system (copyright 1990, Gaussian, Inc.),
 the Gaussian 88(TM) system (copyright 1988, Gaussian, Inc.),
 the Gaussian 86(TM) system (copyright 1986, Carnegie Mellon
 University), and the Gaussian 82(TM) system (copyright 1983,
 Carnegie Mellon University). Gaussian is a federally registered
 trademark of Gaussian, Inc.
  
 This software contains proprietary and confidential information,
 including trade secrets, belonging to Gaussian, Inc.
  
 This software is provided under written license and may be
 used, copied, transmitted, or stored only in accord with that
 written license.
  
 The following legend is applicable only to US Government
 contracts under FAR:
  
                    RESTRICTED RIGHTS LEGEND
  
 Use, reproduction and disclosure by the US Government is
 subject to restrictions as set forth in subparagraphs (a)
 and (c) of the Commercial Computer Software - Restricted
 Rights clause in FAR 52.227-19.
  
 Gaussian, Inc.
 340 Quinnipiac St., Bldg. 40, Wallingford CT 06492
  
  
 ---------------------------------------------------------------
 Warning -- This program may not be used in any manner that
 competes with the business of Gaussian, Inc. or will provide
 assistance to any competitor of Gaussian, Inc.  The licensee
 of this program is prohibited from giving any competitor of
 Gaussian, Inc. access to this program.  By using this program,
 the user acknowledges that Gaussian, Inc. is engaged in the
 business of creating and licensing software in the field of
 computational chemistry and represents and warrants to the
 licensee that it is not a competitor of Gaussian, Inc. and that
 it will not use this program in any manner prohibited above.
 ---------------------------------------------------------------
  

 Cite this work as:
 Gaussian 09, Revision D.01,
 M. J. Frisch, G. W. Trucks, H. B. Schlegel, G. E. Scuseria, 
 M. A. Robb, J. R. Cheeseman, G. Scalmani, V. Barone, B. Mennucci, 
 G. A. Petersson, H. Nakatsuji, M. Caricato, X. Li, H. P. Hratchian, 
 A. F. Izmaylov, J. Bloino, G. Zheng, J. L. Sonnenberg, M. Hada, 
 M. Ehara, K. Toyota, R. Fukuda, J. Hasegawa, M. Ishida, T. Nakajima, 
 Y. Honda, O. Kitao, H. Nakai, T. Vreven, J. A. Montgomery, Jr., 
 J. E. Peralta, F. Ogliaro, M. Bearpark, J. J. Heyd, E. Brothers, 
 K. N. Kudin, V. N. Staroverov, T. Keith, R. Kobayashi, J. Normand, 
 K. Raghavachari, A. Rendell, J. C. Burant, S. S. Iyengar, J. Tomasi, 
 M. Cossi, N. Rega, J. M. Millam, M. Klene, J. E. Knox, J. B. Cross, 
 V. Bakken, C. Adamo, J. Jaramillo, R. Gomperts, R. E. Stratmann, 
 O. Yazyev, A. J. Austin, R. Cammi, C. Pomelli, J. W. Ochterski, 
 R. L. Martin, K. Morokuma, V. G. Zakrzewski, G. A. Voth, 
 P. Salvador, J. J. Dannenberg, S. Dapprich, A. D. Daniels, 
 O. Farkas, J. B. Foresman, J. V. Ortiz, J. Cioslowski, 
 and D. J. Fox, Gaussian, Inc., Wallingford CT, 2013.
 
 ******************************************
 Gaussian 09:  ES64L-G09RevD.01 24-Apr-2013
                14-Aug-2020 
 ******************************************
 %nproc=8
 Will use up to    8 processors via shared memory.
 %mem=1000MB
 ----------------------------------------
 # rb3lyp/6-311+g** NMR geom=connectivity
 ----------------------------------------
 1/38=1,57=2/1;
 2/12=2,17=6,18=5,40=1/2;
 3/5=4,6=6,7=111,11=2,16=1,25=1,30=1,74=-5,116=1/1,2,8,3;
 4//1;
 5/5=2,38=5/2;
 8/6=1,10=90,11=11/1;
 10/13=100,45=16/2;
 6/7=2,8=2,9=2,10=2,28=1/1;
 99/9=1/99;
 -----
 Title
 -----
 Symbolic Z-matrix:
 Charge =  0 Multiplicity = 1
 C                    -4.05006  -0.57719   0.81367 
 H                    -5.02638  -1.00827   1.00248 
 C                    -3.93816   0.66178   0.24009 
 H                    -4.82524   1.23389  -0.01113 
 C                    -2.67684   1.24332   0.00576 
 C                    -1.49741   0.50515   0.28483 
 C                    -1.65083  -0.73387   0.9404 
 H                    -0.77136  -1.2731    1.26338 
 C                    -2.88985  -1.2624    1.19943 
 H                    -2.96837  -2.21246   1.71527 
 C                    -2.57732   2.59637  -0.41929 
 H                    -3.48707   3.14122  -0.64741 
 C                    -1.37419   3.21479  -0.4364 
 H                    -1.29973   4.2742   -0.65781 
 C                    -0.17195   2.49941  -0.17346 
 C                    -0.20439   1.10184   0.01927 
 C                     1.05135   3.20426  -0.06762 
 H                     1.04273   4.28195  -0.1897 
 C                     2.19421   2.54874   0.25796 
 H                     3.11685   3.09128   0.43347 
 C                     2.22165   1.13366   0.2935 
 C                     1.04869   0.39455   0.03024 
 C                     3.44834   0.46146   0.55739 
 H                     4.30958   1.06061   0.83348 
 C                     3.54273  -0.88559   0.47495 
 H                     4.47315  -1.39397   0.70388 
 C                     2.44901  -1.64744  -0.01963 
 C                     1.21507  -1.00573  -0.30136 
 C                     0.25311  -1.74344  -1.02166 
 H                    -0.65414  -1.25351  -1.34628 
 C                     0.44942  -3.06286  -1.34138 
 H                    -0.30832  -3.59443  -1.90541 
 C                     1.62517  -3.7208   -0.95525 
 H                     1.767    -4.76874  -1.1927 
 C                     2.61099  -3.01442  -0.31831 
 H                     3.55256  -3.49028  -0.06464 
 Bq                   -0.9356    2.49214   0.35846 
 Bq                   -0.97017   2.71309   1.23024 
 Bq                   -0.93175   2.46759   0.2616 
 Bq                   -0.95096   2.59034   0.74592 
 Bq                   -0.94994   3.09959   0.72013 
 Bq                   -0.94226   3.05049   0.52641 
 Bq                   -0.95378   3.12414   0.817 
 Bq                   -0.93842   3.02594   0.42954 
 Bq                   -0.95763   3.14869   0.91386 
 Bq                   -0.93457   3.00139   0.33268 
 Bq                   -0.96147   3.17324   1.01072 
 Bq                   -0.93073   2.97684   0.23581 
 Bq                   -0.96531   3.19779   1.10759 
 Bq                   -0.92689   2.95229   0.13895 
 Bq                   -0.9461    3.07504   0.62327 
 Bq                   -0.94508   3.58429   0.59748 
 Bq                   -0.93739   3.53519   0.40376 
 Bq                   -0.94892   3.60884   0.69435 
 Bq                   -0.93355   3.51064   0.30689 
 Bq                   -0.95276   3.63339   0.79121 
 Bq                   -0.92971   3.48609   0.21003 
 Bq                   -0.9566    3.65794   0.88807 
 Bq                   -0.92587   3.46154   0.11316 
 Bq                   -0.96045   3.68249   0.98494 
 Bq                   -0.92203   3.43699   0.0163 
 Bq                   -0.94124   3.55974   0.50062 
 Bq                   -0.94021   4.06899   0.47483 
 Bq                   -0.93253   4.01989   0.2811 
 Bq                   -0.94405   4.09354   0.5717 
 Bq                   -0.92869   3.99534   0.18424 
 Bq                   -0.9479    4.11809   0.66856 
 Bq                   -0.92484   3.97079   0.08738 
 Bq                   -0.95174   4.14264   0.76542 
 Bq                   -0.921     3.94624  -0.00949 
 Bq                   -0.95558   4.16718   0.86229 
 Bq                   -0.91716   3.92169  -0.10635 
 Bq                   -0.93637   4.04444   0.37797 
 Bq                   -0.93535   4.55369   0.35218 
 Bq                   -0.92766   4.50459   0.15845 
 Bq                   -0.93919   4.57824   0.44905 
 Bq                   -0.92382   4.48004   0.06159 
 Bq                   -0.94303   4.60279   0.54591 
 Bq                   -0.91998   4.45549  -0.03527 
 Bq                   -0.94687   4.62733   0.64277 
 Bq                   -0.91614   4.43094  -0.13214 
 Bq                   -0.95072   4.65188   0.73964 
 Bq                   -0.9123    4.40639  -0.229 
 Bq                   -0.93151   4.52914   0.25532 
 Bq                   -0.48439  -0.29331   1.5985 
 Bq                   -0.4767   -0.3424    1.40477 
 Bq                   -0.48823  -0.26876   1.69536 
 Bq                   -0.47286  -0.36695   1.30791 
 Bq                   -0.49207  -0.24421   1.79223 
 Bq                   -0.46902  -0.3915    1.21105 
 Bq                   -0.49591  -0.21966   1.88909 
 Bq                   -0.46518  -0.41605   1.11418 
 Bq                   -0.49976  -0.19511   1.98595 
 Bq                   -0.46134  -0.4406    1.01732 
 Bq                   -0.48055  -0.31785   1.50164 
 Bq                   -0.47952   0.19139   1.47585 
 Bq                   -0.47184   0.1423    1.28212 
 Bq                   -0.48337   0.21594   1.57271 
 Bq                   -0.468     0.11775   1.18526 
 Bq                   -0.48721   0.24049   1.66958 
 Bq                   -0.46416   0.0932    1.0884 
 Bq                   -0.49105   0.26504   1.76644 
 Bq                   -0.46031   0.06865   0.99153 
 Bq                   -0.49489   0.28959   1.8633 
 Bq                   -0.45647   0.0441    0.89467 
 Bq                   -0.47568   0.16684   1.37899 
 Bq                   -0.47466   0.67609   1.3532 
 Bq                   -0.46697   0.62699   1.15947 
 Bq                   -0.4785    0.70064   1.45006 
 Bq                   -0.46313   0.60245   1.06261 
 Bq                   -0.48234   0.72519   1.54693 
 Bq                   -0.45929   0.5779    0.96574 
 Bq                   -0.48618   0.74974   1.64379 
 Bq                   -0.45545   0.55335   0.86888 
 Bq                   -0.49003   0.77429   1.74065 
 Bq                   -0.45161   0.5288    0.77202 
 Bq                   -0.47082   0.65154   1.25634 
 Bq                   -0.46979   1.16079   1.23055 
 Bq                   -0.46211   1.11169   1.03682 
 Bq                   -0.47364   1.18534   1.32741 
 Bq                   -0.45827   1.08714   0.93996 
 Bq                   -0.47748   1.20989   1.42428 
 Bq                   -0.45443   1.0626    0.84309 
 Bq                   -0.48132   1.23444   1.52114 
 Bq                   -0.45058   1.03805   0.74623 
 Bq                   -0.48516   1.25899   1.618 
 Bq                   -0.44674   1.0135    0.64937 
 Bq                   -0.46595   1.13624   1.13369 
 Bq                   -0.46493   1.64549   1.1079 
 Bq                   -0.45725   1.59639   0.91417 
 Bq                   -0.46877   1.67004   1.20476 
 Bq                   -0.4534    1.57184   0.81731 
 Bq                   -0.47261   1.69459   1.30163 
 Bq                   -0.44956   1.54729   0.72044 
 Bq                   -0.47646   1.71914   1.39849 
 Bq                   -0.44572   1.52274   0.62358 
 Bq                   -0.4803    1.74369   1.49535 
 Bq                   -0.44188   1.4982    0.52672 
 Bq                   -0.46109   1.62094   1.01104 
 Bq                   -0.46006   2.13019   0.98525 
 Bq                   -0.45238   2.08109   0.79152 
 Bq                   -0.46391   2.15474   1.08211 
 Bq                   -0.44854   2.05654   0.69466 
 Bq                   -0.46775   2.17929   1.17898 
 Bq                   -0.4447    2.03199   0.59779 
 Bq                   -0.47159   2.20384   1.27584 
 Bq                   -0.44085   2.00744   0.50093 
 Bq                   -0.47543   2.22839   1.3727 
 Bq                   -0.43701   1.98289   0.40407 
 Bq                   -0.45622   2.10564   0.88839 
 Bq                   -0.4552    2.61489   0.8626 
 Bq                   -0.44752   2.56579   0.66887 
 Bq                   -0.45904   2.63944   0.95946 
 Bq                   -0.44367   2.54124   0.57201 
 Bq                   -0.46288   2.66399   1.05633 
 Bq                   -0.43983   2.51669   0.47514 
 Bq                   -0.46673   2.68854   1.15319 
 Bq                   -0.43599   2.49214   0.37828 
 Bq                   -0.47057   2.71309   1.25005 
 Bq                   -0.43215   2.46759   0.28142 
 Bq                   -0.45136   2.59034   0.76574 
 Bq                   -0.45033   3.09959   0.73995 
 Bq                   -0.44265   3.05049   0.54622 
 Bq                   -0.45418   3.12414   0.83681 
 Bq                   -0.43881   3.02594   0.44936 
 Bq                   -0.45802   3.14869   0.93368 
 Bq                   -0.43497   3.00139   0.35249 
 Bq                   -0.46186   3.17324   1.03054 
 Bq                   -0.43112   2.97684   0.25563 
 Bq                   -0.4657    3.19779   1.1274 
 Bq                   -0.42728   2.95229   0.15877 
 Bq                   -0.44649   3.07504   0.64309 
 Bq                   -0.44547   3.58429   0.6173 
 Bq                   -0.43779   3.53519   0.42357 
 Bq                   -0.44931   3.60884   0.71416 
 Bq                   -0.43394   3.51064   0.32671 
 Bq                   -0.45315   3.63339   0.81103 
 Bq                   -0.4301    3.48609   0.22984 
 Bq                   -0.457     3.65794   0.90789 
 Bq                   -0.42626   3.46154   0.13298 
 Bq                   -0.46084   3.68249   1.00475 
 Bq                   -0.42242   3.43699   0.03612 
 Bq                   -0.44163   3.55974   0.52044 
 Bq                   -0.44061   4.06899   0.49465 
 Bq                   -0.43292   4.01989   0.30092 
 Bq                   -0.44445   4.09354   0.59151 
 Bq                   -0.42908   3.99534   0.20406 
 Bq                   -0.44829   4.11809   0.68838 
 Bq                   -0.42524   3.97079   0.10719 
 Bq                   -0.45213   4.14264   0.78524 
 Bq                   -0.4214    3.94624   0.01033 
 Bq                   -0.45597   4.16718   0.8821 
 Bq                   -0.41755   3.92169  -0.08653 
 Bq                   -0.43676   4.04444   0.39778 
 Bq                   -0.43574   4.55369   0.372 
 Bq                   -0.42806   4.50459   0.17827 
 Bq                   -0.43958   4.57824   0.46886 
 Bq                   -0.42421   4.48004   0.08141 
 Bq                   -0.44342   4.60279   0.56573 
 Bq                   -0.42037   4.45549  -0.01546 
 Bq                   -0.44727   4.62733   0.66259 
 Bq                   -0.41653   4.43094  -0.11232 
 Bq                   -0.45111   4.65188   0.75945 
 Bq                   -0.41269   4.40639  -0.20918 
 Bq                   -0.4319    4.52914   0.27513 
 Bq                    0.01522  -0.29331   1.61832 
 Bq                    0.0229   -0.3424    1.42459 
 Bq                    0.01138  -0.26876   1.71518 
 Bq                    0.02674  -0.36695   1.32773 
 Bq                    0.00753  -0.24421   1.81204 
 Bq                    0.03059  -0.3915    1.23086 
 Bq                    0.00369  -0.21966   1.90891 
 Bq                    0.03443  -0.41605   1.134 
 Bq                   -0.00015  -0.19511   2.00577 
 Bq                    0.03827  -0.4406    1.03713 
 Bq                    0.01906  -0.31785   1.52145 
 Bq                    0.02008   0.19139   1.49567 
 Bq                    0.02777   0.1423    1.30194 
 Bq                    0.01624   0.21594   1.59253 
 Bq                    0.03161   0.11775   1.20508 
 Bq                    0.0124    0.24049   1.68939 
 Bq                    0.03545   0.0932    1.10821 
 Bq                    0.00856   0.26504   1.78626 
 Bq                    0.03929   0.06865   1.01135 
 Bq                    0.00472   0.28959   1.88312 
 Bq                    0.04314   0.0441    0.91448 
 Bq                    0.02393   0.16684   1.3988 
 Bq                    0.02495   0.67609   1.37302 
 Bq                    0.03263   0.62699   1.17929 
 Bq                    0.02111   0.70064   1.46988 
 Bq                    0.03647   0.60245   1.08242 
 Bq                    0.01726   0.72519   1.56674 
 Bq                    0.04032   0.5779    0.98556 
 Bq                    0.01342   0.74974   1.66361 
 Bq                    0.04416   0.55335   0.8887 
 Bq                    0.00958   0.77429   1.76047 
 
 Symmetry turned off:
 Cannot cope with ghost atoms or with translation vectors.
 Stoichiometry    C22H14
 Framework group  C1[X(C22H14)]
 NUMDOF-- NAT=    36 NAtoms=   236
 Deg. of freedom     0
 Full point group                 C1      NOp   1
                          Input orientation:                          
 ---------------------------------------------------------------------
 Center     Atomic      Atomic             Coordinates (Angstroms)
 Number     Number       Type             X           Y           Z
 ---------------------------------------------------------------------
      1          6           0       -4.050056   -0.577186    0.813671
      2          1           0       -5.026380   -1.008273    1.002476
      3          6           0       -3.938155    0.661780    0.240088
      4          1           0       -4.825242    1.233889   -0.011130
      5          6           0       -2.676841    1.243325    0.005758
      6          6           0       -1.497412    0.505153    0.284825
      7          6           0       -1.650833   -0.733873    0.940403
      8          1           0       -0.771365   -1.273097    1.263375
      9          6           0       -2.889855   -1.262404    1.199431
     10          1           0       -2.968371   -2.212456    1.715268
     11          6           0       -2.577319    2.596370   -0.419293
     12          1           0       -3.487073    3.141224   -0.647406
     13          6           0       -1.374190    3.214790   -0.436403
     14          1           0       -1.299732    4.274202   -0.657814
     15          6           0       -0.171949    2.499409   -0.173459
     16          6           0       -0.204392    1.101844    0.019269
     17          6           0        1.051349    3.204256   -0.067622
     18          1           0        1.042734    4.281950   -0.189700
     19          6           0        2.194209    2.548745    0.257958
     20          1           0        3.116853    3.091285    0.433473
     21          6           0        2.221647    1.133656    0.293499
     22          6           0        1.048693    0.394553    0.030241
     23          6           0        3.448336    0.461463    0.557394
     24          1           0        4.309579    1.060605    0.833485
     25          6           0        3.542735   -0.885593    0.474946
     26          1           0        4.473147   -1.393970    0.703882
     27          6           0        2.449005   -1.647445   -0.019632
     28          6           0        1.215070   -1.005726   -0.301357
     29          6           0        0.253111   -1.743444   -1.021659
     30          1           0       -0.654136   -1.253505   -1.346285
     31          6           0        0.449419   -3.062860   -1.341378
     32          1           0       -0.308316   -3.594431   -1.905406
     33          6           0        1.625173   -3.720797   -0.955254
     34          1           0        1.767005   -4.768740   -1.192702
     35          6           0        2.610987   -3.014418   -0.318305
     36          1           0        3.552561   -3.490281   -0.064637
     37          0           0       -0.935597    2.492143    0.358464
     38          0           0       -0.970175    2.713087    1.230237
     39          0           0       -0.931755    2.467594    0.261601
     40          0           0       -0.950965    2.590341    0.745919
     41          0           0       -0.949942    3.099589    0.720133
     42          0           0       -0.942258    3.050490    0.526405
     43          0           0       -0.953784    3.124138    0.816996
     44          0           0       -0.938416    3.025941    0.429542
     45          0           0       -0.957626    3.148688    0.913860
     46          0           0       -0.934574    3.001392    0.332678
     47          0           0       -0.961468    3.173237    1.010724
     48          0           0       -0.930732    2.976842    0.235814
     49          0           0       -0.965310    3.197786    1.107587
     50          0           0       -0.926890    2.952293    0.138951
     51          0           0       -0.946100    3.075040    0.623269
     52          0           0       -0.945077    3.584288    0.597482
     53          0           0       -0.937393    3.535190    0.403755
     54          0           0       -0.948919    3.608837    0.694346
     55          0           0       -0.933551    3.510640    0.306891
     56          0           0       -0.952761    3.633387    0.791210
     57          0           0       -0.929709    3.486091    0.210028
     58          0           0       -0.956603    3.657936    0.888073
     59          0           0       -0.925867    3.461542    0.113164
     60          0           0       -0.960445    3.682485    0.984937
     61          0           0       -0.922025    3.436992    0.016300
     62          0           0       -0.941235    3.559739    0.500619
     63          0           0       -0.940212    4.068987    0.474832
     64          0           0       -0.932529    4.019889    0.281105
     65          0           0       -0.944054    4.093537    0.571696
     66          0           0       -0.928687    3.995339    0.184241
     67          0           0       -0.947896    4.118086    0.668560
     68          0           0       -0.924845    3.970790    0.087378
     69          0           0       -0.951738    4.142635    0.765423
     70          0           0       -0.921003    3.946241   -0.009486
     71          0           0       -0.955580    4.167185    0.862287
     72          0           0       -0.917161    3.921691   -0.106350
     73          0           0       -0.936371    4.044438    0.377969
     74          0           0       -0.935348    4.553686    0.352182
     75          0           0       -0.927664    4.504588    0.158455
     76          0           0       -0.939190    4.578236    0.449046
     77          0           0       -0.923822    4.480039    0.061591
     78          0           0       -0.943032    4.602785    0.545909
     79          0           0       -0.919980    4.455489   -0.035273
     80          0           0       -0.946874    4.627334    0.642773
     81          0           0       -0.916138    4.430940   -0.132136
     82          0           0       -0.950716    4.651884    0.739637
     83          0           0       -0.912296    4.406391   -0.229000
     84          0           0       -0.931506    4.529137    0.255318
     85          0           0       -0.484388   -0.293305    1.598500
     86          0           0       -0.476704   -0.342404    1.404773
     87          0           0       -0.488230   -0.268756    1.695364
     88          0           0       -0.472862   -0.366953    1.307909
     89          0           0       -0.492072   -0.244206    1.792227
     90          0           0       -0.469020   -0.391502    1.211045
     91          0           0       -0.495914   -0.219657    1.889091
     92          0           0       -0.465178   -0.416052    1.114182
     93          0           0       -0.499756   -0.195108    1.985955
     94          0           0       -0.461336   -0.440601    1.017318
     95          0           0       -0.480546   -0.317854    1.501636
     96          0           0       -0.479523    0.191394    1.475850
     97          0           0       -0.471840    0.142295    1.282122
     98          0           0       -0.483365    0.215943    1.572713
     99          0           0       -0.467998    0.117746    1.185259
    100          0           0       -0.487207    0.240493    1.669577
    101          0           0       -0.464156    0.093197    1.088395
    102          0           0       -0.491049    0.265042    1.766441
    103          0           0       -0.460314    0.068647    0.991531
    104          0           0       -0.494891    0.289591    1.863304
    105          0           0       -0.456472    0.044098    0.894668
    106          0           0       -0.475682    0.166845    1.378986
    107          0           0       -0.474659    0.676093    1.353200
    108          0           0       -0.466975    0.626995    1.159472
    109          0           0       -0.478501    0.700643    1.450063
    110          0           0       -0.463133    0.602445    1.062609
    111          0           0       -0.482343    0.725192    1.546927
    112          0           0       -0.459291    0.577896    0.965745
    113          0           0       -0.486185    0.749741    1.643791
    114          0           0       -0.455449    0.553347    0.868881
    115          0           0       -0.490027    0.774290    1.740654
    116          0           0       -0.451607    0.528797    0.772018
    117          0           0       -0.470817    0.651544    1.256336
    118          0           0       -0.469794    1.160792    1.230549
    119          0           0       -0.462110    1.111694    1.036822
    120          0           0       -0.473636    1.185342    1.327413
    121          0           0       -0.458268    1.087144    0.939958
    122          0           0       -0.477478    1.209891    1.424277
    123          0           0       -0.454426    1.062595    0.843095
    124          0           0       -0.481320    1.234440    1.521140
    125          0           0       -0.450584    1.038046    0.746231
    126          0           0       -0.485162    1.258990    1.618004
    127          0           0       -0.446742    1.013496    0.649367
    128          0           0       -0.465952    1.136243    1.133686
    129          0           0       -0.464929    1.645492    1.107899
    130          0           0       -0.457245    1.596393    0.914172
    131          0           0       -0.468771    1.670041    1.204763
    132          0           0       -0.453403    1.571844    0.817308
    133          0           0       -0.472613    1.694590    1.301627
    134          0           0       -0.449561    1.547294    0.720445
    135          0           0       -0.476455    1.719139    1.398490
    136          0           0       -0.445719    1.522745    0.623581
    137          0           0       -0.480297    1.743689    1.495354
    138          0           0       -0.441877    1.498196    0.526717
    139          0           0       -0.461087    1.620942    1.011036
    140          0           0       -0.460064    2.130191    0.985249
    141          0           0       -0.452380    2.081092    0.791522
    142          0           0       -0.463906    2.154740    1.082113
    143          0           0       -0.448538    2.056543    0.694658
    144          0           0       -0.467748    2.179289    1.178977
    145          0           0       -0.444696    2.031993    0.597795
    146          0           0       -0.471590    2.203839    1.275840
    147          0           0       -0.440855    2.007444    0.500931
    148          0           0       -0.475432    2.228388    1.372704
    149          0           0       -0.437013    1.982895    0.404067
    150          0           0       -0.456222    2.105641    0.888386
    151          0           0       -0.455200    2.614890    0.862599
    152          0           0       -0.447516    2.565791    0.668872
    153          0           0       -0.459042    2.639439    0.959463
    154          0           0       -0.443674    2.541242    0.572008
    155          0           0       -0.462884    2.663988    1.056326
    156          0           0       -0.439832    2.516693    0.475144
    157          0           0       -0.466726    2.688538    1.153190
    158          0           0       -0.435990    2.492143    0.378281
    159          0           0       -0.470568    2.713087    1.250054
    160          0           0       -0.432148    2.467594    0.281417
    161          0           0       -0.451358    2.590341    0.765735
    162          0           0       -0.450335    3.099589    0.739949
    163          0           0       -0.442651    3.050490    0.546222
    164          0           0       -0.454177    3.124138    0.836813
    165          0           0       -0.438809    3.025941    0.449358
    166          0           0       -0.458019    3.148688    0.933676
    167          0           0       -0.434967    3.001392    0.352494
    168          0           0       -0.461861    3.173237    1.030540
    169          0           0       -0.431125    2.976842    0.255631
    170          0           0       -0.465703    3.197786    1.127404
    171          0           0       -0.427283    2.952293    0.158767
    172          0           0       -0.446493    3.075040    0.643085
    173          0           0       -0.445470    3.584288    0.617299
    174          0           0       -0.437786    3.535190    0.423571
    175          0           0       -0.449312    3.608837    0.714162
    176          0           0       -0.433944    3.510640    0.326708
    177          0           0       -0.453154    3.633387    0.811026
    178          0           0       -0.430102    3.486091    0.229844
    179          0           0       -0.456996    3.657936    0.907890
    180          0           0       -0.426260    3.461542    0.132980
    181          0           0       -0.460838    3.682485    1.004753
    182          0           0       -0.422418    3.436992    0.036117
    183          0           0       -0.441628    3.559739    0.520435
    184          0           0       -0.440605    4.068987    0.494649
    185          0           0       -0.432921    4.019889    0.300921
    186          0           0       -0.444447    4.093537    0.591512
    187          0           0       -0.429079    3.995339    0.204058
    188          0           0       -0.448289    4.118086    0.688376
    189          0           0       -0.425237    3.970790    0.107194
    190          0           0       -0.452131    4.142635    0.785240
    191          0           0       -0.421395    3.946241    0.010330
    192          0           0       -0.455973    4.167185    0.882103
    193          0           0       -0.417553    3.921691   -0.086533
    194          0           0       -0.436763    4.044438    0.397785
    195          0           0       -0.435741    4.553686    0.371998
    196          0           0       -0.428057    4.504588    0.178271
    197          0           0       -0.439583    4.578236    0.468862
    198          0           0       -0.424215    4.480039    0.081407
    199          0           0       -0.443425    4.602785    0.565726
    200          0           0       -0.420373    4.455489   -0.015456
    201          0           0       -0.447266    4.627334    0.662589
    202          0           0       -0.416531    4.430940   -0.112320
    203          0           0       -0.451108    4.651884    0.759453
    204          0           0       -0.412689    4.406391   -0.209184
    205          0           0       -0.431899    4.529137    0.275135
    206          0           0        0.015219   -0.293305    1.618316
    207          0           0        0.022903   -0.342404    1.424589
    208          0           0        0.011377   -0.268756    1.715180
    209          0           0        0.026745   -0.366953    1.327725
    210          0           0        0.007535   -0.244206    1.812044
    211          0           0        0.030587   -0.391502    1.230862
    212          0           0        0.003693   -0.219657    1.908907
    213          0           0        0.034429   -0.416052    1.133998
    214          0           0       -0.000149   -0.195108    2.005771
    215          0           0        0.038271   -0.440601    1.037134
    216          0           0        0.019061   -0.317854    1.521453
    217          0           0        0.020084    0.191394    1.495666
    218          0           0        0.027768    0.142295    1.301939
    219          0           0        0.016242    0.215943    1.592530
    220          0           0        0.031610    0.117746    1.205075
    221          0           0        0.012400    0.240493    1.689393
    222          0           0        0.035452    0.093197    1.108211
    223          0           0        0.008558    0.265042    1.786257
    224          0           0        0.039294    0.068647    1.011348
    225          0           0        0.004716    0.289591    1.883121
    226          0           0        0.043136    0.044098    0.914484
    227          0           0        0.023926    0.166845    1.398802
    228          0           0        0.024948    0.676093    1.373016
    229          0           0        0.032632    0.626995    1.179289
    230          0           0        0.021106    0.700643    1.469880
    231          0           0        0.036474    0.602445    1.082425
    232          0           0        0.017264    0.725192    1.566743
    233          0           0        0.040316    0.577896    0.985561
    234          0           0        0.013422    0.749741    1.663607
    235          0           0        0.044158    0.553347    0.888698
    236          0           0        0.009581    0.774290    1.760471
 ---------------------------------------------------------------------
 Rotational constants (GHZ):      0.4529074      0.2836956      0.1879557
 Standard basis: 6-311+G(d,p) (5D, 7F)
 Warning:  center  37 has no basis functions!
 Warning:  center  38 has no basis functions!
 Warning:  center  39 has no basis functions!
 Warning:  center  40 has no basis functions!
 Warning:  center  41 has no basis functions!
 Warning:  center  42 has no basis functions!
 Warning:  center  43 has no basis functions!
 Warning:  center  44 has no basis functions!
 Warning:  center  45 has no basis functions!
 Warning:  center  46 has no basis functions!
 Warning:  center  47 has no basis functions!
 Warning:  center  48 has no basis functions!
 Warning:  center  49 has no basis functions!
 Warning:  center  50 has no basis functions!
 Warning:  center  51 has no basis functions!
 Warning:  center  52 has no basis functions!
 Warning:  center  53 has no basis functions!
 Warning:  center  54 has no basis functions!
 Warning:  center  55 has no basis functions!
 Warning:  center  56 has no basis functions!
 Warning:  center  57 has no basis functions!
 Warning:  center  58 has no basis functions!
 Warning:  center  59 has no basis functions!
 Warning:  center  60 has no basis functions!
 Warning:  center  61 has no basis functions!
 Warning:  center  62 has no basis functions!
 Warning:  center  63 has no basis functions!
 Warning:  center  64 has no basis functions!
 Warning:  center  65 has no basis functions!
 Warning:  center  66 has no basis functions!
 Warning:  center  67 has no basis functions!
 Warning:  center  68 has no basis functions!
 Warning:  center  69 has no basis functions!
 Warning:  center  70 has no basis functions!
 Warning:  center  71 has no basis functions!
 Warning:  center  72 has no basis functions!
 Warning:  center  73 has no basis functions!
 Warning:  center  74 has no basis functions!
 Warning:  center  75 has no basis functions!
 Warning:  center  76 has no basis functions!
 Warning:  center  77 has no basis functions!
 Warning:  center  78 has no basis functions!
 Warning:  center  79 has no basis functions!
 Warning:  center  80 has no basis functions!
 Warning:  center  81 has no basis functions!
 Warning:  center  82 has no basis functions!
 Warning:  center  83 has no basis functions!
 Warning:  center  84 has no basis functions!
 Warning:  center  85 has no basis functions!
 Warning:  center  86 has no basis functions!
 Warning:  center  87 has no basis functions!
 Warning:  center  88 has no basis functions!
 Warning:  center  89 has no basis functions!
 Warning:  center  90 has no basis functions!
 Warning:  center  91 has no basis functions!
 Warning:  center  92 has no basis functions!
 Warning:  center  93 has no basis functions!
 Warning:  center  94 has no basis functions!
 Warning:  center  95 has no basis functions!
 Warning:  center  96 has no basis functions!
 Warning:  center  97 has no basis functions!
 Warning:  center  98 has no basis functions!
 Warning:  center  99 has no basis functions!
 Warning:  center 100 has no basis functions!
 Warning:  center 101 has no basis functions!
 Warning:  center 102 has no basis functions!
 Warning:  center 103 has no basis functions!
 Warning:  center 104 has no basis functions!
 Warning:  center 105 has no basis functions!
 Warning:  center 106 has no basis functions!
 Warning:  center 107 has no basis functions!
 Warning:  center 108 has no basis functions!
 Warning:  center 109 has no basis functions!
 Warning:  center 110 has no basis functions!
 Warning:  center 111 has no basis functions!
 Warning:  center 112 has no basis functions!
 Warning:  center 113 has no basis functions!
 Warning:  center 114 has no basis functions!
 Warning:  center 115 has no basis functions!
 Warning:  center 116 has no basis functions!
 Warning:  center 117 has no basis functions!
 Warning:  center 118 has no basis functions!
 Warning:  center 119 has no basis functions!
 Warning:  center 120 has no basis functions!
 Warning:  center 121 has no basis functions!
 Warning:  center 122 has no basis functions!
 Warning:  center 123 has no basis functions!
 Warning:  center 124 has no basis functions!
 Warning:  center 125 has no basis functions!
 Warning:  center 126 has no basis functions!
 Warning:  center 127 has no basis functions!
 Warning:  center 128 has no basis functions!
 Warning:  center 129 has no basis functions!
 Warning:  center 130 has no basis functions!
 Warning:  center 131 has no basis functions!
 Warning:  center 132 has no basis functions!
 Warning:  center 133 has no basis functions!
 Warning:  center 134 has no basis functions!
 Warning:  center 135 has no basis functions!
 Warning:  center 136 has no basis functions!
 Warning:  center 137 has no basis functions!
 Warning:  center 138 has no basis functions!
 Warning:  center 139 has no basis functions!
 Warning:  center 140 has no basis functions!
 Warning:  center 141 has no basis functions!
 Warning:  center 142 has no basis functions!
 Warning:  center 143 has no basis functions!
 Warning:  center 144 has no basis functions!
 Warning:  center 145 has no basis functions!
 Warning:  center 146 has no basis functions!
 Warning:  center 147 has no basis functions!
 Warning:  center 148 has no basis functions!
 Warning:  center 149 has no basis functions!
 Warning:  center 150 has no basis functions!
 Warning:  center 151 has no basis functions!
 Warning:  center 152 has no basis functions!
 Warning:  center 153 has no basis functions!
 Warning:  center 154 has no basis functions!
 Warning:  center 155 has no basis functions!
 Warning:  center 156 has no basis functions!
 Warning:  center 157 has no basis functions!
 Warning:  center 158 has no basis functions!
 Warning:  center 159 has no basis functions!
 Warning:  center 160 has no basis functions!
 Warning:  center 161 has no basis functions!
 Warning:  center 162 has no basis functions!
 Warning:  center 163 has no basis functions!
 Warning:  center 164 has no basis functions!
 Warning:  center 165 has no basis functions!
 Warning:  center 166 has no basis functions!
 Warning:  center 167 has no basis functions!
 Warning:  center 168 has no basis functions!
 Warning:  center 169 has no basis functions!
 Warning:  center 170 has no basis functions!
 Warning:  center 171 has no basis functions!
 Warning:  center 172 has no basis functions!
 Warning:  center 173 has no basis functions!
 Warning:  center 174 has no basis functions!
 Warning:  center 175 has no basis functions!
 Warning:  center 176 has no basis functions!
 Warning:  center 177 has no basis functions!
 Warning:  center 178 has no basis functions!
 Warning:  center 179 has no basis functions!
 Warning:  center 180 has no basis functions!
 Warning:  center 181 has no basis functions!
 Warning:  center 182 has no basis functions!
 Warning:  center 183 has no basis functions!
 Warning:  center 184 has no basis functions!
 Warning:  center 185 has no basis functions!
 Warning:  center 186 has no basis functions!
 Warning:  center 187 has no basis functions!
 Warning:  center 188 has no basis functions!
 Warning:  center 189 has no basis functions!
 Warning:  center 190 has no basis functions!
 Warning:  center 191 has no basis functions!
 Warning:  center 192 has no basis functions!
 Warning:  center 193 has no basis functions!
 Warning:  center 194 has no basis functions!
 Warning:  center 195 has no basis functions!
 Warning:  center 196 has no basis functions!
 Warning:  center 197 has no basis functions!
 Warning:  center 198 has no basis functions!
 Warning:  center 199 has no basis functions!
 Warning:  center 200 has no basis functions!
 Warning:  center 201 has no basis functions!
 Warning:  center 202 has no basis functions!
 Warning:  center 203 has no basis functions!
 Warning:  center 204 has no basis functions!
 Warning:  center 205 has no basis functions!
 Warning:  center 206 has no basis functions!
 Warning:  center 207 has no basis functions!
 Warning:  center 208 has no basis functions!
 Warning:  center 209 has no basis functions!
 Warning:  center 210 has no basis functions!
 Warning:  center 211 has no basis functions!
 Warning:  center 212 has no basis functions!
 Warning:  center 213 has no basis functions!
 Warning:  center 214 has no basis functions!
 Warning:  center 215 has no basis functions!
 Warning:  center 216 has no basis functions!
 Warning:  center 217 has no basis functions!
 Warning:  center 218 has no basis functions!
 Warning:  center 219 has no basis functions!
 Warning:  center 220 has no basis functions!
 Warning:  center 221 has no basis functions!
 Warning:  center 222 has no basis functions!
 Warning:  center 223 has no basis functions!
 Warning:  center 224 has no basis functions!
 Warning:  center 225 has no basis functions!
 Warning:  center 226 has no basis functions!
 Warning:  center 227 has no basis functions!
 Warning:  center 228 has no basis functions!
 Warning:  center 229 has no basis functions!
 Warning:  center 230 has no basis functions!
 Warning:  center 231 has no basis functions!
 Warning:  center 232 has no basis functions!
 Warning:  center 233 has no basis functions!
 Warning:  center 234 has no basis functions!
 Warning:  center 235 has no basis functions!
 Warning:  center 236 has no basis functions!
   568 basis functions,   904 primitive gaussians,   590 cartesian basis functions
    73 alpha electrons       73 beta electrons
       nuclear repulsion energy      1610.9176155625 Hartrees.
 NAtoms=  236 NActive=  236 NUniq=  236 SFac= 1.00D+00 NAtFMM=   60 NAOKFM=T Big=T
 Integral buffers will be    131072 words long.
 Raffenetti 2 integral format.
 Two-electron integral symmetry is turned off.
 One-electron integrals computed using PRISM.
 NBasis=   568 RedAO= T EigKep=  1.78D-06  NBF=   568
 NBsUse=   556 1.00D-06 EigRej=  9.09D-07 NBFU=   556
 ExpMin= 4.38D-02 ExpMax= 4.56D+03 ExpMxC= 6.82D+02 IAcc=2 IRadAn=         4 AccDes= 0.00D+00
 Harris functional with IExCor=  402 and IRadAn=       4 diagonalized for initial guess.
 HarFok:  IExCor=  402 AccDes= 0.00D+00 IRadAn=         4 IDoV= 1 UseB2=F ITyADJ=14
 ICtDFT=  3500011 ScaDFX=  1.000000  1.000000  1.000000  1.000000
 FoFCou: FMM=F IPFlag=           0 FMFlag=      100000 FMFlg1=        2001
         NFxFlg=           0 DoJE=T BraDBF=F KetDBF=T FulRan=T
         wScrn=  0.000000 ICntrl=     500 IOpCl=  0 I1Cent=   200000004 NGrid=           0
         NMat0=    1 NMatS0=      1 NMatT0=    0 NMatD0=    1 NMtDS0=    0 NMtDT0=    0
 Symmetry not used in FoFCou.
 Requested convergence on RMS density matrix=1.00D-08 within 128 cycles.
 Requested convergence on MAX density matrix=1.00D-06.
 Requested convergence on             energy=1.00D-06.
 No special actions if energy rises.
 SCF Done:  E(RB3LYP) =  -847.003289847     A.U. after   15 cycles
            NFock= 15  Conv=0.75D-08     -V/T= 2.0040
 DoSCS=F DFT=T ScalE2(SS,OS)=  1.000000  1.000000
 Range of M.O.s used for correlation:     1   556
 NBasis=   568 NAE=    73 NBE=    73 NFC=     0 NFV=     0
 NROrb=    556 NOA=    73 NOB=    73 NVA=   483 NVB=   483

 **** Warning!!: The largest alpha MO coefficient is  0.10971034D+03

          Differentiating once with respect to magnetic field using GIAOs.
          Electric field/nuclear overlap derivatives assumed to be zero.
 FoFCou: FMM=F IPFlag=           0 FMFlag=      100000 FMFlg1=        2001
         NFxFlg=           0 DoJE=F BraDBF=F KetDBF=T FulRan=T
         wScrn=  0.000000 ICntrl=    6100 IOpCl=  0 I1Cent=           7 NGrid=         236
         NMat0=    1 NMatS0=      1 NMatT0=    0 NMatD0=    1 NMtDS0=    0 NMtDT0=    0
 Symmetry not used in FoFCou.
 FoFJK:  IHMeth= 1 ICntrl=    6127 DoSepK=F KAlg= 0 I1Cent=   0 FoldK=F
 IRaf=         1 NMat=   1 IRICut=       1 DoRegI=T DoRafI=F ISym2E= 0.
          There are     3 degrees of freedom in the 1st order CPHF.  IDoFFX=0 NUNeed=     3.
      3 vectors produced by pass  0 Test12= 1.18D-12 3.33D-08 XBig12= 2.07D+03 9.18D+00.
 AX will form     3 AO Fock derivatives at one time.
      3 vectors produced by pass  1 Test12= 1.18D-12 3.33D-08 XBig12= 3.56D+00 8.03D-01.
      3 vectors produced by pass  2 Test12= 1.18D-12 3.33D-08 XBig12= 2.10D-02 6.92D-02.
      3 vectors produced by pass  3 Test12= 1.18D-12 3.33D-08 XBig12= 5.45D-05 1.89D-03.
      3 vectors produced by pass  4 Test12= 1.18D-12 3.33D-08 XBig12= 1.20D-07 7.79D-05.
      3 vectors produced by pass  5 Test12= 1.18D-12 3.33D-08 XBig12= 4.02D-10 4.73D-06.
      3 vectors produced by pass  6 Test12= 1.18D-12 3.33D-08 XBig12= 1.32D-12 2.61D-07.
 InvSVY:  IOpt=1 It=  1 EMax= 2.13D-14
 Solved reduced A of dimension    21 with     3 vectors.
 Calculating GIAO nuclear magnetic shielding tensors.
 SCF GIAO Magnetic shielding tensor (ppm):
      1  C    Isotropic =    53.8139   Anisotropy =   178.0260
   XX=   -41.4327   YX=   -32.3458   ZX=    10.0287
   XY=   -28.3572   YY=    59.0527   ZY=    55.1899
   XZ=    13.1759   YZ=    58.7550   ZZ=   143.8218
   Eigenvalues:   -53.8775    42.8214   172.4979
      2  H    Isotropic =    24.3095   Anisotropy =     4.8536
   XX=    25.5771   YX=    -1.0289   ZX=     0.5661
   XY=    -0.7431   YY=    26.1829   ZY=    -2.3306
   XZ=    -0.1707   YZ=    -2.4411   ZZ=    21.1687
   Eigenvalues:    20.2108    25.1725    27.5453
      3  C    Isotropic =    51.4055   Anisotropy =   157.8639
   XX=   -31.5399   YX=    38.5015   ZX=   -17.9316
   XY=    34.3519   YY=    49.9437   ZY=    49.6392
   XZ=    -9.8383   YZ=    44.6006   ZZ=   135.8127
   Eigenvalues:   -50.5747    48.1432   156.6481
      4  H    Isotropic =    23.8290   Anisotropy =     7.1838
   XX=    25.3635   YX=     1.8486   ZX=    -0.3559
   XY=     1.9656   YY=    26.4581   ZY=    -2.4103
   XZ=    -1.2941   YZ=    -2.6614   ZZ=    19.6654
   Eigenvalues:    18.8176    24.0511    28.6182
      5  C    Isotropic =    46.0697   Anisotropy =   207.6751
   XX=   -19.2123   YX=    -4.8852   ZX=    -1.6475
   XY=     2.8938   YY=    -2.9860   ZY=    66.5656
   XZ=     2.5356   YZ=    67.9144   ZZ=   160.4073
   Eigenvalues:   -27.2455   -19.0652   184.5197
      6  C    Isotropic =    47.5218   Anisotropy =   196.9389
   XX=   -28.1552   YX=    -2.7889   ZX=    12.0660
   XY=   -14.3886   YY=    21.2063   ZY=    74.2521
   XZ=   -18.6356   YZ=    61.1113   ZZ=   149.5144
   Eigenvalues:   -30.2925    -5.9564   178.8144
      7  C    Isotropic =    49.3915   Anisotropy =   179.8333
   XX=   -12.5211   YX=    28.7048   ZX=   -24.6745
   XY=    31.5123   YY=    29.7000   ZY=    77.7459
   XZ=   -40.0095   YZ=    65.3072   ZZ=   130.9956
   Eigenvalues:   -52.1299    31.0240   169.2804
      8  H    Isotropic =    23.1586   Anisotropy =    13.5525
   XX=    28.5711   YX=     1.5482   ZX=    -3.6986
   XY=     3.2466   YY=    22.7592   ZY=    -2.1157
   XZ=    -8.3753   YZ=    -1.0821   ZZ=    18.1456
   Eigenvalues:    15.3521    21.9301    32.1936
      9  C    Isotropic =    55.1460   Anisotropy =   174.7426
   XX=    46.7071   YX=    -2.6162   ZX=    -2.8420
   XY=     0.6223   YY=    -1.6258   ZY=    92.8272
   XZ=     0.5159   YZ=    95.6598   ZZ=   120.3568
   Eigenvalues:   -52.8932    46.6901   171.6411
     10  H    Isotropic =    24.6278   Anisotropy =     7.1815
   XX=    29.1040   YX=     0.1399   ZX=    -0.3694
   XY=     0.3642   YY=    23.4778   ZY=    -1.0805
   XZ=    -2.4493   YZ=    -2.9465   ZZ=    21.3016
   Eigenvalues:    19.9703    24.4977    29.4155
     11  C    Isotropic =    51.5607   Anisotropy =   151.2142
   XX=     2.1639   YX=    40.9287   ZX=   -26.0048
   XY=    49.9131   YY=    12.2331   ZY=    42.1342
   XZ=   -15.6145   YZ=    38.6614   ZZ=   140.2851
   Eigenvalues:   -48.1951    50.5071   152.3701
     12  H    Isotropic =    23.8537   Anisotropy =     7.3815
   XX=    25.9672   YX=     2.3738   ZX=    -0.2390
   XY=     2.4320   YY=    26.3975   ZY=    -1.8291
   XZ=     0.3529   YZ=    -1.7731   ZZ=    19.1964
   Eigenvalues:    18.7149    24.0714    28.7747
     13  C    Isotropic =    52.8653   Anisotropy =   147.4265
   XX=    51.2944   YX=    19.9221   ZX=   -13.4678
   XY=    11.5478   YY=   -34.0176   ZY=    42.5079
   XZ=    -9.2241   YZ=    40.0716   ZZ=   141.3192
   Eigenvalues:   -46.5152    53.9616   151.1497
     14  H    Isotropic =    24.0156   Anisotropy =     7.3485
   XX=    28.6644   YX=     0.6281   ZX=     1.0808
   XY=     0.5926   YY=    24.4325   ZY=    -1.0823
   XZ=     1.6846   YZ=    -0.3842   ZZ=    18.9500
   Eigenvalues:    18.6430    24.4892    28.9146
     15  C    Isotropic =    46.2221   Anisotropy =   203.9048
   XX=   -27.2215   YX=    -0.0442   ZX=   -28.9124
   XY=     4.6427   YY=   -10.5571   ZY=    28.3830
   XZ=   -10.2704   YZ=    26.7376   ZZ=   176.4448
   Eigenvalues:   -30.5512   -12.9411   182.1586
     16  C    Isotropic =    51.9375   Anisotropy =   188.2004
   XX=   -19.4441   YX=     5.5046   ZX=    15.7858
   XY=    -8.3874   YY=     2.4863   ZY=    22.9264
   XZ=   -50.6243   YZ=    23.3340   ZZ=   172.7704
   Eigenvalues:   -21.0294    -0.5625   177.4045
     17  C    Isotropic =    51.9482   Anisotropy =   149.1264
   XX=    50.7296   YX=   -23.9353   ZX=   -18.4207
   XY=   -16.7271   YY=   -41.8764   ZY=    17.8662
   XZ=   -14.3278   YZ=    11.4871   ZZ=   146.9915
   Eigenvalues:   -46.7796    51.2584   151.3658
     18  H    Isotropic =    24.0122   Anisotropy =     7.5163
   XX=    28.5811   YX=    -0.0866   ZX=     1.5071
   XY=    -0.2466   YY=    24.3342   ZY=    -0.7657
   XZ=     2.5088   YZ=    -1.5208   ZZ=    19.1214
   Eigenvalues:    18.5094    24.5041    29.0231
     19  C    Isotropic =    51.7356   Anisotropy =   148.5924
   XX=     2.4559   YX=   -45.6913   ZX=   -31.2531
   XY=   -53.4448   YY=     7.4698   ZY=    -1.8888
   XZ=   -23.5601   YZ=    -1.2765   ZZ=   145.2810
   Eigenvalues:   -46.9894    51.3989   150.7972
     20  H    Isotropic =    23.9071   Anisotropy =     7.6651
   XX=    25.5796   YX=    -2.0226   ZX=     1.4905
   XY=    -1.9998   YY=    27.3706   ZY=    -0.5164
   XZ=     2.7276   YZ=    -1.1179   ZZ=    18.7711
   Eigenvalues:    18.1643    24.5398    29.0172
     21  C    Isotropic =    45.9767   Anisotropy =   203.9316
   XX=   -16.2108   YX=    13.1802   ZX=   -44.5913
   XY=     6.5714   YY=   -20.6329   ZY=     0.0949
   XZ=   -28.8984   YZ=   -13.0883   ZZ=   174.7736
   Eigenvalues:   -30.5796   -13.4215   181.9311
     22  C    Isotropic =    52.0450   Anisotropy =   188.1157
   XX=    -0.0787   YX=     2.5023   ZX=   -16.3451
   XY=    18.9327   YY=   -14.4798   ZY=   -34.4335
   XZ=   -50.6032   YZ=    19.9104   ZZ=   170.6934
   Eigenvalues:   -20.7705    -0.5500   177.4554
     23  C    Isotropic =    53.2392   Anisotropy =   146.7412
   XX=   -22.0674   YX=   -32.0012   ZX=   -49.4857
   XY=   -23.2043   YY=    44.3661   ZY=   -15.6400
   XZ=   -43.8090   YZ=   -20.2525   ZZ=   137.4189
   Eigenvalues:   -45.6776    54.3286   151.0667
     24  H    Isotropic =    23.8249   Anisotropy =     7.5289
   XX=    25.1073   YX=    -1.7330   ZX=     1.5380
   XY=    -1.5944   YY=    28.0047   ZY=     0.0879
   XZ=     1.2557   YZ=    -0.8283   ZZ=    18.3628
   Eigenvalues:    18.0848    24.5458    28.8442
     25  C    Isotropic =    51.4969   Anisotropy =   150.1066
   XX=   -28.4915   YX=    33.9684   ZX=   -52.3137
   XY=    22.0311   YY=    46.6072   ZY=    -3.8075
   XZ=   -44.5594   YZ=   -10.6355   ZZ=   136.3748
   Eigenvalues:   -48.3857    51.3083   151.5679
     26  H    Isotropic =    23.7431   Anisotropy =     7.4052
   XX=    24.0663   YX=     1.1141   ZX=     1.9989
   XY=     0.9693   YY=    28.1000   ZY=     1.6568
   XZ=     2.0795   YZ=     0.8886   ZZ=    19.0630
   Eigenvalues:    18.2615    24.2880    28.6799
     27  C    Isotropic =    45.8108   Anisotropy =   207.2710
   XX=    -2.7702   YX=    13.7697   ZX=   -61.4651
   XY=     6.5593   YY=   -12.0335   ZY=   -41.6456
   XZ=   -62.6381   YZ=   -44.9232   ZZ=   152.2361
   Eigenvalues:   -28.0803   -18.4787   183.9915
     28  C    Isotropic =    47.8398   Anisotropy =   197.2870
   XX=    19.6900   YX=    14.4398   ZX=   -60.5682
   XY=    28.5650   YY=   -19.3566   ZY=   -56.7015
   XZ=   -63.1331   YZ=   -24.4782   ZZ=   143.1859
   Eigenvalues:   -30.5979    -5.2472   179.3644
     29  C    Isotropic =    49.3441   Anisotropy =   179.7793
   XX=    -3.4110   YX=    38.3775   ZX=   -80.8875
   XY=    36.1252   YY=    25.9805   ZY=   -23.7573
   XZ=   -78.1065   YZ=    -3.9802   ZZ=   125.4627
   Eigenvalues:   -51.6645    30.4997   169.1970
     30  H    Isotropic =    23.1387   Anisotropy =    13.3222
   XX=    22.4354   YX=    -0.7013   ZX=    -0.2375
   XY=    -2.1539   YY=    28.3546   ZY=     4.5555
   XZ=    -3.4181   YZ=     8.3231   ZZ=    18.6259
   Eigenvalues:    15.2751    22.1208    32.0201
     31  C    Isotropic =    55.4410   Anisotropy =   174.9390
   XX=    17.1871   YX=   -14.0890   ZX=   -84.0024
   XY=   -17.9030   YY=    37.4745   ZY=   -50.3662
   XZ=   -84.6557   YZ=   -54.8325   ZZ=   111.6615
   Eigenvalues:   -51.9248    46.1808   172.0670
     32  H    Isotropic =    24.5337   Anisotropy =     7.2554
   XX=    24.6185   YX=    -2.5264   ZX=     0.7632
   XY=    -2.7385   YY=    27.4630   ZY=     1.0335
   XZ=     1.1913   YZ=     3.7573   ZZ=    21.5194
   Eigenvalues:    19.8987    24.3316    29.3706
     33  C    Isotropic =    53.1814   Anisotropy =   179.0596
   XX=    60.9231   YX=    35.2256   ZX=   -42.9515
   XY=    32.0226   YY=   -38.1801   ZY=   -45.5652
   XZ=   -44.2248   YZ=   -50.7831   ZZ=   136.8014
   Eigenvalues:   -55.1197    42.1095   172.5545
     34  H    Isotropic =    24.2825   Anisotropy =     5.1861
   XX=    26.7643   YX=    -0.0934   ZX=     2.5955
   XY=    -0.2993   YY=    24.8157   ZY=     0.8589
   XZ=     2.3715   YZ=     1.4580   ZZ=    21.2676
   Eigenvalues:    20.0339    25.0737    27.7399
     35  C    Isotropic =    51.5295   Anisotropy =   155.1748
   XX=    -0.5131   YX=    52.5760   ZX=   -52.1551
   XY=    55.6135   YY=    25.1843   ZY=   -14.2643
   XZ=   -45.7255   YZ=   -17.1625   ZZ=   129.9171
   Eigenvalues:   -48.3147    47.9237   154.9793
     36  H    Isotropic =    23.8384   Anisotropy =     7.3073
   XX=    24.2302   YX=     1.4459   ZX=     2.1759
   XY=     1.2147   YY=    27.1572   ZY=     2.0665
   XZ=     1.6853   YZ=     2.7775   ZZ=    20.1277
   Eigenvalues:    18.9464    23.8588    28.7099
     37  Bq   Isotropic =    19.1623   Anisotropy =    23.1712
   XX=    11.0798   YX=    -0.7021   ZX=     1.9490
   XY=    -0.0218   YY=    14.6170   ZY=     6.3490
   XZ=    -7.3027   YZ=     7.7489   ZZ=    31.7901
   Eigenvalues:    10.5779    12.2992    34.6098
     38  Bq   Isotropic =     7.8593   Anisotropy =    23.4220
   XX=     1.5576   YX=    -1.7676   ZX=    -1.5461
   XY=     1.1134   YY=     3.0353   ZY=     4.4502
   XZ=    -1.0481   YZ=    14.5013   ZZ=    18.9851
   Eigenvalues:    -1.3966     1.5006    23.4740
     39  Bq   Isotropic =    19.7694   Anisotropy =    21.6457
   XX=    11.0115   YX=    -0.4257   ZX=     2.8451
   XY=    -0.4091   YY=    16.4467   ZY=     6.4420
   XZ=    -8.1708   YZ=     5.5076   ZZ=    31.8499
   Eigenvalues:    10.6500    14.4583    34.1998
     40  Bq   Isotropic =    13.6364   Anisotropy =    26.3249
   XX=     6.5452   YX=    -1.9527   ZX=    -1.0301
   XY=     0.8437   YY=     7.5333   ZY=     5.3775
   XZ=    -3.0875   YZ=    14.4201   ZZ=    26.8306
   Eigenvalues:     3.3313     6.3915    31.1863
     41  Bq   Isotropic =    11.4416   Anisotropy =    24.4040
   XX=     7.5765   YX=    -2.2052   ZX=     0.9591
   XY=     1.3410   YY=     8.1700   ZY=     5.3952
   XZ=     2.1675   YZ=    21.2053   ZZ=    18.5782
   Eigenvalues:    -1.0858     7.6997    27.7109
     42  Bq   Isotropic =    16.0534   Anisotropy =    24.7891
   XX=    12.3766   YX=    -1.3563   ZX=     1.0081
   XY=     2.3952   YY=    12.4485   ZY=     6.5211
   XZ=     1.5576   YZ=    20.5671   ZZ=    23.3350
   Eigenvalues:     3.2856    12.2951    32.5795
     43  Bq   Isotropic =     9.7231   Anisotropy =    23.8585
   XX=     5.7591   YX=    -2.2958   ZX=     0.7879
   XY=     1.0797   YY=     6.6212   ZY=     5.0226
   XZ=     2.0361   YZ=    20.8283   ZZ=    16.7890
   Eigenvalues:    -2.3914     5.9319    25.6288
     44  Bq   Isotropic =    18.9529   Anisotropy =    24.6307
   XX=    15.2574   YX=    -0.4225   ZX=     0.7339
   XY=     3.3464   YY=    15.1566   ZY=     7.3851
   XZ=     0.5422   YZ=    19.2916   ZZ=    26.4448
   Eigenvalues:     6.2336    15.2518    35.3734
     45  Bq   Isotropic =     8.3339   Anisotropy =    23.1456
   XX=     4.2984   YX=    -2.2639   ZX=     0.5862
   XY=     0.9186   YY=     5.4050   ZY=     4.7253
   XZ=     1.7658   YZ=    20.1696   ZZ=    15.2984
   Eigenvalues:    -3.2395     4.4770    23.7643
     46  Bq   Isotropic =    22.1377   Anisotropy =    24.4051
   XX=    18.2190   YX=     0.9553   ZX=     0.1371
   XY=     4.7100   YY=    18.0835   ZY=     8.5316
   XZ=    -1.1072   YZ=    17.3033   ZZ=    30.1104
   Eigenvalues:     9.0771    18.9282    38.4077
     47  Bq   Isotropic =     7.2147   Anisotropy =    22.3235
   XX=     3.1405   YX=    -2.1631   ZX=     0.3826
   XY=     0.8189   YY=     4.4580   ZY=     4.4793
   XZ=     1.4351   YZ=    19.3389   ZZ=    14.0457
   Eigenvalues:    -3.7508     3.2979    22.0971
     48  Bq   Isotropic =    25.3948   Anisotropy =    24.4629
   XX=    20.9123   YX=     2.8048   ZX=    -0.8526
   XY=     6.5851   YY=    20.9478   ZY=     9.9859
   XZ=    -3.4031   YZ=    14.7274   ZZ=    34.3244
   Eigenvalues:    10.9490    23.5321    41.7034
     49  Bq   Isotropic =     6.3104   Anisotropy =    21.4406
   XX=     2.2293   YX=    -2.0305   ZX=     0.1933
   XY=     0.7547   YY=     3.7207   ZY=     4.2684
   XZ=     1.0956   YZ=    18.4171   ZZ=    12.9811
   Eigenvalues:    -4.0268     2.3539    20.6041
     50  Bq   Isotropic =    28.4006   Anisotropy =    25.3900
   XX=    22.8770   YX=     5.0636   ZX=    -2.2196
   XY=     9.0362   YY=    23.3420   ZY=    11.6691
   XZ=    -6.1465   YZ=    11.9369   ZZ=    38.9829
   Eigenvalues:    11.2386    28.6360    45.3273
     51  Bq   Isotropic =    13.5423   Anisotropy =    24.7247
   XX=     9.7859   YX=    -1.9206   ZX=     1.0545
   XY=     1.7559   YY=    10.1053   ZY=     5.8784
   XZ=     2.0521   YZ=    21.1659   ZZ=    20.7356
   Eigenvalues:     0.7918     9.8095    30.0254
     52  Bq   Isotropic =     6.6172   Anisotropy =    18.7032
   XX=     6.0040   YX=    -1.8048   ZX=     2.5981
   XY=     1.2457   YY=     8.9832   ZY=     3.0089
   XZ=     5.2671   YZ=    20.1075   ZZ=     4.8643
   Eigenvalues:    -5.7046     6.4701    19.0860
     53  Bq   Isotropic =     9.3425   Anisotropy =    17.4747
   XX=     9.5760   YX=    -2.0463   ZX=     2.4909
   XY=     1.2313   YY=    12.9651   ZY=     1.9060
   XZ=     6.7839   YZ=    19.3199   ZZ=     5.4865
   Eigenvalues:    -3.3045    10.3398    20.9923
     54  Bq   Isotropic =     5.5884   Anisotropy =    18.7043
   XX=     4.5804   YX=    -1.7347   ZX=     2.3644
   XY=     1.1559   YY=     7.4567   ZY=     3.2915
   XZ=     4.4397   YZ=    19.8441   ZZ=     4.7282
   Eigenvalues:    -6.2570     4.9643    18.0579
     55  Bq   Isotropic =    10.9794   Anisotropy =    16.0372
   XX=    11.5226   YX=    -2.3198   ZX=     1.9276
   XY=     0.9922   YY=    15.3457   ZY=     1.0147
   XZ=     7.3112   YZ=    18.0063   ZZ=     6.0701
   Eigenvalues:    -1.3109    12.5783    21.6709
     56  Bq   Isotropic =     4.7629   Anisotropy =    18.4478
   XX=     3.4147   YX=    -1.6698   ZX=     2.0508
   XY=     1.0488   YY=     6.2163   ZY=     3.4489
   XZ=     3.6432   YZ=    19.3077   ZZ=     4.6576
   Eigenvalues:    -6.5047     3.7320    17.0615
     57  Bq   Isotropic =    12.6478   Anisotropy =    14.1391
   XX=    13.2318   YX=    -2.8194   ZX=     0.8775
   XY=     0.4511   YY=    17.7990   ZY=    -0.1081
   XZ=     7.5515   YZ=    15.9528   ZZ=     6.9127
   Eigenvalues:     1.2137    14.6559    22.0739
     58  Bq   Isotropic =     4.1084   Anisotropy =    18.0220
   XX=     2.4789   YX=    -1.6044   ZX=     1.7107
   XY=     0.9404   YY=     5.2212   ZY=     3.5155
   XZ=     2.9122   YZ=    18.5962   ZZ=     4.6252
   Eigenvalues:    -6.5357     2.7379    16.1231
     59  Bq   Isotropic =    14.1066   Anisotropy =    12.6107
   XX=    14.2191   YX=    -3.6761   ZX=    -0.6823
   XY=    -0.5391   YY=    20.0303   ZY=    -1.3832
   XZ=     7.4179   YZ=    13.1884   ZZ=     8.0705
   Eigenvalues:     4.1252    15.6809    22.5137
     60  Bq   Isotropic =     3.5914   Anisotropy =    17.4914
   XX=     1.7357   YX=    -1.5380   ZX=     1.3779
   XY=     0.8384   YY=     4.4268   ZY=     3.5184
   XZ=     2.2657   YZ=    17.7833   ZZ=     4.6118
   Eigenvalues:    -6.4211     1.9430    15.2524
     61  Bq   Isotropic =    15.0113   Anisotropy =    12.8008
   XX=    13.8395   YX=    -5.0096   ZX=    -2.5679
   XY=    -2.1108   YY=    21.6313   ZY=    -2.6183
   XZ=     6.9024   YZ=     9.9376   ZZ=     9.5633
   Eigenvalues:     7.0587    14.4301    23.5452
     62  Bq   Isotropic =     7.8703   Anisotropy =    18.3340
   XX=     7.6870   YX=    -1.8966   ZX=     2.6745
   XY=     1.2882   YY=    10.8218   ZY=     2.5608
   XZ=     6.0724   YZ=    19.9775   ZZ=     5.1022
   Eigenvalues:    -4.7503     8.2683    20.0930
     63  Bq   Isotropic =     2.5431   Anisotropy =    13.5964
   XX=     3.0923   YX=    -0.7147   ZX=     3.1725
   XY=     1.1777   YY=     6.2296   ZY=     0.9459
   XZ=     4.6386   YZ=    14.5667   ZZ=    -1.6925
   Eigenvalues:    -7.4445     3.4664    11.6073
     64  Bq   Isotropic =     3.9065   Anisotropy =    12.3553
   XX=     5.5944   YX=    -0.8311   ZX=     4.0716
   XY=     0.8828   YY=     7.5902   ZY=    -0.6640
   XZ=     6.6092   YZ=    13.6037   ZZ=    -1.4650
   Eigenvalues:    -6.7028     6.2790    12.1434
     65  Bq   Isotropic =     2.0887   Anisotropy =    13.8010
   XX=     2.2245   YX=    -0.7458   ZX=     2.7228
   XY=     1.1508   YY=     5.5969   ZY=     1.4929
   XZ=     3.7990   YZ=    14.6571   ZZ=    -1.5552
   Eigenvalues:    -7.5309     2.5076    11.2894
     66  Bq   Isotropic =     4.8560   Anisotropy =    11.3715
   XX=     7.3165   YX=    -1.0710   ZX=     4.4736
   XY=     0.4233   YY=     8.2507   ZY=    -1.7189
   XZ=     7.7038   YZ=    12.6502   ZZ=    -0.9992
   Eigenvalues:    -5.9970     8.1279    12.4370
     67  Bq   Isotropic =     1.7508   Anisotropy =    13.8048
   XX=     1.5489   YX=    -0.7962   ZX=     2.2970
   XY=     1.0704   YY=     5.0201   ZY=     1.8933
   XZ=     3.0626   YZ=    14.5523   ZZ=    -1.3166
   Eigenvalues:    -7.4725     1.7708    10.9540
     68  Bq   Isotropic =     5.9893   Anisotropy =    10.9320
   XX=     9.3852   YX=    -1.5101   ZX=     4.8086
   XY=    -0.3613   YY=     8.8360   ZY=    -2.8727
   XZ=     8.8124   YZ=    11.3639   ZZ=    -0.2533
   Eigenvalues:    -5.0540     9.7446    13.2773
     69  Bq   Isotropic =     1.5038   Anisotropy =    13.6639
   XX=     1.0234   YX=    -0.8494   ZX=     1.9061
   XY=     0.9649   YY=     4.5046   ZY=     2.1733
   XZ=     2.4266   YZ=    14.2986   ZZ=    -1.0168
   Eigenvalues:    -7.3039     1.2021    10.6130
     70  Bq   Isotropic =     7.2811   Anisotropy =    12.4204
   XX=    11.7812   YX=    -2.2025   ZX=     5.0515
   XY=    -1.5595   YY=     9.2997   ZY=    -3.9992
   XZ=     9.8442   YZ=     9.7808   ZZ=     0.7623
   Eigenvalues:    -3.8843    10.1662    15.5613
     71  Bq   Isotropic =     1.3256   Anisotropy =    13.4223
   XX=     0.6136   YX=    -0.8963   ZX=     1.5560
   XY=     0.8521   YY=     4.0496   ZY=     2.3583
   XZ=     1.8844   YZ=    13.9359   ZZ=    -0.6864
   Eigenvalues:    -7.0562     0.7592    10.2738
     72  Bq   Isotropic =     8.6704   Anisotropy =    15.2203
   XX=    14.4215   YX=    -3.1692   ZX=     5.1818
   XY=    -3.2230   YY=     9.6143   ZY=    -4.8986
   XZ=    10.6553   YZ=     7.9917   ZZ=     1.9756
   Eigenvalues:    -2.5254     9.7194    18.8173
     73  Bq   Isotropic =     3.1409   Anisotropy =    13.1284
   XX=     4.1997   YX=    -0.7299   ZX=     3.6294
   XY=     1.1083   YY=     6.9031   ZY=     0.2300
   XZ=     5.5790   YZ=    14.2312   ZZ=    -1.6800
   Eigenvalues:    -7.1785     4.7080    11.8932
     74  Bq   Isotropic =     0.5158   Anisotropy =    11.4961
   XX=     0.9698   YX=     0.1900   ZX=     2.4379
   XY=     1.2826   YY=     4.7452   ZY=     1.3375
   XZ=     2.7701   YZ=    10.5114   ZZ=    -4.1677
   Eigenvalues:    -7.6038     0.9713     8.1799
     75  Bq   Isotropic =     1.2955   Anisotropy =    11.9698
   XX=     2.4775   YX=     0.8222   ZX=     3.2744
   XY=     1.6635   YY=     5.6839   ZY=     0.9369
   XZ=     3.9428   YZ=    10.2562   ZZ=    -4.2749
   Eigenvalues:    -7.5905     2.2017     9.2753
     76  Bq   Isotropic =     0.3008   Anisotropy =    11.2696
   XX=     0.5010   YX=    -0.0481   ZX=     2.0688
   XY=     1.1081   YY=     4.3710   ZY=     1.4919
   XZ=     2.2721   YZ=    10.5097   ZZ=    -3.9697
   Eigenvalues:    -7.4669     0.5554     7.8138
     77  Bq   Isotropic =     1.9218   Anisotropy =    12.2546
   XX=     3.6368   YX=     1.2268   ZX=     3.7134
   XY=     1.8569   YY=     6.2816   ZY=     0.6863
   XZ=     4.5897   YZ=     9.9533   ZZ=    -4.1530
   Eigenvalues:    -7.3862     3.0601    10.0915
     78  Bq   Isotropic =     0.1670   Anisotropy =    11.0366
   XX=     0.1596   YX=    -0.2419   ZX=     1.7388
   XY=     0.9488   YY=     4.0434   ZY=     1.6175
   XZ=     1.8361   YZ=    10.4406   ZZ=    -3.7019
   Eigenvalues:    -7.2621     0.2384     7.5248
     79  Bq   Isotropic =     2.7468   Anisotropy =    12.6069
   XX=     5.1558   YX=     1.6930   ZX=     4.1237
   XY=     2.0367   YY=     6.9899   ZY=     0.3961
   XZ=     5.2279   YZ=     9.4805   ZZ=    -3.9052
   Eigenvalues:    -7.0032     4.0923    11.1515
     80  Bq   Isotropic =     0.0935   Anisotropy =    10.7933
   XX=    -0.0885   YX=    -0.3972   ZX=     1.4478
   XY=     0.8061   YY=     3.7530   ZY=     1.7159
   XZ=     1.4587   YZ=    10.3146   ZZ=    -3.3840
   Eigenvalues:    -7.0063    -0.0023     7.2890
     81  Bq   Isotropic =     3.7879   Anisotropy =    13.0500
   XX=     7.0847   YX=     2.2149   ZX=     4.4454
   XY=     2.1840   YY=     7.8179   ZY=     0.0579
   XZ=     5.7833   YZ=     8.7741   ZZ=    -3.5391
   Eigenvalues:    -6.4038     5.2795    12.4879
     82  Bq   Isotropic =     0.0631   Anisotropy =    10.5387
   XX=    -0.2691   YX=    -0.5191   ZX=     1.1940
   XY=     0.6802   YY=     3.4927   ZY=     1.7894
   XZ=     1.1352   YZ=    10.1406   ZZ=    -3.0343
   Eigenvalues:    -6.7142    -0.1855     7.0889
     83  Bq   Isotropic =     5.0283   Anisotropy =    13.5855
   XX=     9.4177   YX=     2.7745   ZX=     4.5911
   XY=     2.2724   YY=     8.7449   ZY=    -0.3364
   XZ=     6.1449   YZ=     7.7529   ZZ=    -3.0778
   Eigenvalues:    -5.5671     6.5666    14.0853
     84  Bq   Isotropic =     0.8376   Anisotropy =    11.7245
   XX=     1.6102   YX=     0.4782   ZX=     2.8428
   XY=     1.4694   YY=     5.1779   ZY=     1.1530
   XZ=     3.3294   YZ=    10.4330   ZZ=    -4.2755
   Eigenvalues:    -7.6531     1.5118     8.6539
     85  Bq   Isotropic =     0.1026   Anisotropy =    11.6945
   XX=     5.5926   YX=     1.1758   ZX=     0.3066
   XY=     6.8361   YY=     0.0366   ZY=    -1.6090
   XZ=     1.1422   YZ=    -7.7630   ZZ=    -5.3213
   Eigenvalues:    -8.5627     0.9716     7.8990
     86  Bq   Isotropic =    -0.4806   Anisotropy =    15.4246
   XX=     6.9220   YX=     1.2220   ZX=    -0.0801
   XY=     7.1270   YY=     1.2606   ZY=    -3.3648
   XZ=    -1.1054   YZ=    -8.7898   ZZ=    -9.6242
   Eigenvalues:   -12.4134     1.1693     9.8025
     87  Bq   Isotropic =     0.3396   Anisotropy =     9.9232
   XX=     4.9108   YX=     1.1071   ZX=     0.4115
   XY=     6.5373   YY=    -0.5938   ZY=    -0.9157
   XZ=     1.8688   YZ=    -7.2827   ZZ=    -3.2981
   Eigenvalues:    -7.1382     1.2020     6.9551
     88  Bq   Isotropic =    -0.8413   Anisotropy =    17.2200
   XX=     7.5047   YX=     1.1657   ZX=    -0.3402
   XY=     7.0381   YY=     1.7281   ZY=    -4.3688
   XZ=    -2.6275   YZ=    -9.2777   ZZ=   -11.7567
   Eigenvalues:   -14.6089     1.4463    10.6387
     89  Bq   Isotropic =     0.5488   Anisotropy =     8.2861
   XX=     4.2552   YX=     1.0259   ZX=     0.4579
   XY=     6.1840   YY=    -1.1744   ZY=    -0.3503
   XZ=     2.3666   YZ=    -6.8351   ZZ=    -1.4344
   Eigenvalues:    -6.1288     1.7022     6.0729
     90  Bq   Isotropic =    -1.2549   Anisotropy =    18.8337
   XX=     7.9955   YX=     1.0335   ZX=    -0.6147
   XY=     6.7458   YY=     2.0130   ZY=    -5.3755
   XZ=    -4.3656   YZ=    -9.6710   ZZ=   -13.7733
   Eigenvalues:   -16.8157     1.7501    11.3009
     91  Bq   Isotropic =     0.7345   Anisotropy =     6.8174
   XX=     3.6451   YX=     0.9409   ZX=     0.4541
   XY=     5.8032   YY=    -1.6792   ZY=     0.0988
   XZ=     2.6750   YZ=    -6.4168   ZZ=     0.2377
   Eigenvalues:    -5.4848     2.4089     5.2794
     92  Bq   Isotropic =    -1.7200   Anisotropy =    20.1711
   XX=     8.3805   YX=     0.8128   ZX=    -0.8744
   XY=     6.2325   YY=     2.0727   ZY=    -6.2966
   XZ=    -6.2434   YZ=    -9.8842   ZZ=   -15.6131
   Eigenvalues:   -18.9134     2.0260    11.7274
     93  Bq   Isotropic =     0.8996   Anisotropy =     5.5741
   XX=     3.0920   YX=     0.8577   ZX=     0.4106
   XY=     5.4140   YY=    -2.0964   ZY=     0.4486
   XZ=     2.8347   YZ=    -6.0217   ZZ=     1.7032
   Eigenvalues:    -5.0923     3.1754     4.6157
     94  Bq   Isotropic =    -2.2272   Anisotropy =    21.1773
   XX=     8.6609   YX=     0.4986   ZX=    -1.0929
   XY=     5.5036   YY=     1.9009   ZY=    -7.0369
   XZ=    -8.1640   YZ=    -9.8228   ZZ=   -17.2433
   Eigenvalues:   -20.7987     2.2262    11.8910
     95  Bq   Isotropic =    -0.1683   Anisotropy =    13.5519
   XX=     6.2737   YX=     1.2194   ZX=     0.1408
   XY=     7.0461   YY=     0.6742   ZY=    -2.4311
   XZ=     0.1554   YZ=    -8.2716   ZZ=    -7.4528
   Eigenvalues:   -10.3563     0.9852     8.8663
     96  Bq   Isotropic =    -1.0314   Anisotropy =    13.5371
   XX=     5.3497   YX=     1.8177   ZX=     0.3619
   XY=     6.5881   YY=    -2.2738   ZY=    -3.1219
   XZ=     0.9249   YZ=   -13.0964   ZZ=    -6.1702
   Eigenvalues:   -13.0995     2.0118     7.9933
     97  Bq   Isotropic =    -2.2431   Anisotropy =    17.9121
   XX=     6.9712   YX=     1.8202   ZX=     0.3193
   XY=     6.4750   YY=    -1.7841   ZY=    -5.0445
   XZ=    -0.8317   YZ=   -15.3163   ZZ=   -11.9162
   Eigenvalues:   -18.3775     1.9500     9.6984
     98  Bq   Isotropic =    -0.4899   Anisotropy =    11.4447
   XX=     4.5927   YX=     1.7520   ZX=     0.3338
   XY=     6.4674   YY=    -2.4389   ZY=    -2.2249
   XZ=     1.5309   YZ=   -11.8700   ZZ=    -3.6234
   Eigenvalues:   -10.8995     2.2900     7.1399
     99  Bq   Isotropic =    -2.8792   Anisotropy =    20.0254
   XX=     7.7803   YX=     1.7432   ZX=     0.2514
   XY=     6.2136   YY=    -1.4419   ZY=    -5.9781
   XZ=    -1.9642   YZ=   -16.1326   ZZ=   -14.9759
   Eigenvalues:   -21.2214     2.1128    10.4711
    100  Bq   Isotropic =    -0.0049   Anisotropy =     9.5069
   XX=     3.8962   YX=     1.6563   ZX=     0.2780
   XY=     6.2567   YY=    -2.5628   ZY=    -1.4118
   XZ=     1.9705   YZ=   -10.6547   ZZ=    -1.3480
   Eigenvalues:    -9.0877     2.7400     6.3331
    101  Bq   Isotropic =    -3.5059   Anisotropy =    21.9596
   XX=     8.5429   YX=     1.6119   ZX=     0.1641
   XY=     5.8129   YY=    -1.0285   ZY=    -6.8185
   XZ=    -3.2181   YZ=   -16.6209   ZZ=   -18.0322
   Eigenvalues:   -24.0123     2.3608    11.1338
    102  Bq   Isotropic =     0.4196   Anisotropy =     7.7971
   XX=     3.2694   YX=     1.5410   ZX=     0.2008
   XY=     5.9796   YY=    -2.6524   ZY=    -0.6977
   XZ=     2.2665   YZ=    -9.4923   ZZ=     0.6417
   Eigenvalues:    -7.6713     3.3124     5.6177
    103  Bq   Isotropic =    -4.0988   Anisotropy =    23.6203
   XX=     9.2248   YX=     1.4299   ZX=     0.0743
   XY=     5.2841   YY=    -0.5477   ZY=    -7.5094
   XZ=    -4.5314   YZ=   -16.6918   ZZ=   -20.9734
   Eigenvalues:   -26.6053     2.6610    11.6481
    104  Bq   Isotropic =     0.7836   Anisotropy =     6.5301
   XX=     2.7158   YX=     1.4152   ZX=     0.1091
   XY=     5.6579   YY=    -2.7128   ZY=    -0.0879
   XZ=     2.4441   YZ=    -8.4080   ZZ=     2.3477
   Eigenvalues:    -6.6056     3.8193     5.1370
    105  Bq   Isotropic =    -4.6347   Anisotropy =    24.9315
   XX=     9.7974   YX=     1.2038   ZX=     0.0025
   XY=     4.6463   YY=    -0.0122   ZY=    -8.0045
   XZ=    -5.8300   YZ=   -16.2843   ZZ=   -23.6894
   Eigenvalues:   -28.8734     2.9830    11.9863
    106  Bq   Isotropic =    -1.6207   Anisotropy =    15.7189
   XX=     6.1506   YX=     1.8433   ZX=     0.3575
   XY=     6.5966   YY=    -2.0587   ZY=    -4.0753
   XZ=     0.1376   YZ=   -14.2722   ZZ=    -8.9539
   Eigenvalues:   -15.6265     1.9059     8.8586
    107  Bq   Isotropic =     2.0216   Anisotropy =    13.1088
   XX=     5.8750   YX=     2.4511   ZX=    -0.1014
   XY=     6.6926   YY=    -2.8436   ZY=    -1.3526
   XZ=     0.8106   YZ=   -16.2615   ZZ=     3.0334
   Eigenvalues:   -10.1635     5.4675    10.7608
    108  Bq   Isotropic =     2.0352   Anisotropy =    15.9662
   XX=     8.6103   YX=     2.3937   ZX=     0.1928
   XY=     6.5735   YY=    -1.5373   ZY=    -2.7597
   XZ=    -0.2776   YZ=   -19.6490   ZZ=    -0.9673
   Eigenvalues:   -12.9395     6.3658    12.6794
    109  Bq   Isotropic =     2.1012   Anisotropy =    11.9227
   XX=     4.7749   YX=     2.3373   ZX=    -0.2151
   XY=     6.5308   YY=    -3.1126   ZY=    -0.6570
   XZ=     1.1901   YZ=   -14.3897   ZZ=     4.6412
   Eigenvalues:    -8.9093     5.1631    10.0496
    110  Bq   Isotropic =     2.1618   Anisotropy =    17.2926
   XX=    10.2173   YX=     2.1478   ZX=     0.3994
   XY=     6.2055   YY=    -0.4095   ZY=    -3.3365
   XZ=    -0.9674   YZ=   -20.8166   ZZ=    -3.3223
   Eigenvalues:   -14.3019     7.0971    13.6903
    111  Bq   Isotropic =     2.2097   Anisotropy =    11.0838
   XX=     3.8447   YX=     2.1721   ZX=    -0.3169
   XY=     6.2752   YY=    -3.2098   ZY=    -0.0215
   XZ=     1.4687   YZ=   -12.5605   ZZ=     5.9943
   Eigenvalues:    -7.8079     4.8381     9.5989
    112  Bq   Isotropic =     2.3697   Anisotropy =    18.3491
   XX=    11.9251   YX=     1.7112   ZX=     0.6687
   XY=     5.5792   YY=     1.0222   ZY=    -3.7096
   XZ=    -1.7058   YZ=   -21.3566   ZZ=    -5.8383
   Eigenvalues:   -15.5218     8.0284    14.6024
    113  Bq   Isotropic =     2.3287   Anisotropy =    10.6271
   XX=     3.0675   YX=     1.9801   ZX=    -0.4105
   XY=     5.9586   YY=    -3.1925   ZY=     0.5354
   XZ=     1.6599   YZ=   -10.8426   ZZ=     7.1111
   Eigenvalues:    -6.8714     4.4441     9.4135
    114  Bq   Isotropic =     2.6338   Anisotropy =    19.0914
   XX=    13.6555   YX=     1.0630   ZX=     1.0165
   XY=     4.6693   YY=     2.6535   ZY=    -3.7887
   XZ=    -2.4228   YZ=   -21.0741   ZZ=    -8.4075
   Eigenvalues:   -16.5147     9.0548    15.3614
    115  Bq   Isotropic =     2.4445   Anisotropy =    10.4823
   XX=     2.4242   YX=     1.7788   ZX=    -0.4976
   XY=     5.6071   YY=    -3.1050   ZY=     1.0070
   XZ=     1.7785   YZ=    -9.2725   ZZ=     8.0143
   Eigenvalues:    -6.0906     3.9913     9.4327
    116  Bq   Isotropic =     2.9061   Anisotropy =    19.7040
   XX=    15.3080   YX=     0.2041   ZX=     1.4462
   XY=     3.4713   YY=     4.2867   ZY=    -3.5167
   XZ=    -3.0254   YZ=   -19.8441   ZZ=   -10.8765
   Eigenvalues:   -17.2212     9.8973    16.0421
    117  Bq   Isotropic =     1.9928   Anisotropy =    14.5135
   XX=     7.1547   YX=     2.4821   ZX=     0.0310
   XY=     6.7213   YY=    -2.3381   ZY=    -2.0724
   XZ=     0.3211   YZ=   -18.0661   ZZ=     1.1617
   Eigenvalues:   -11.5300     5.8399    11.6684
    118  Bq   Isotropic =     8.4598   Anisotropy =    17.6094
   XX=     5.9939   YX=     2.5769   ZX=    -0.7597
   XY=     6.5889   YY=     0.0890   ZY=     2.8355
   XZ=    -0.1700   YZ=   -10.6687   ZZ=    19.2966
   Eigenvalues:    -2.8863     8.0664    20.1994
    119  Bq   Isotropic =    11.5986   Anisotropy =    16.6906
   XX=    10.0100   YX=     2.8343   ZX=     0.5218
   XY=     6.7943   YY=     3.6036   ZY=     2.5195
   XZ=    -1.0259   YZ=   -12.6468   ZZ=    21.1821
   Eigenvalues:     0.1049    11.9651    22.7257
    120  Bq   Isotropic =     7.3812   Anisotropy =    17.5214
   XX=     4.5528   YX=     2.3550   ZX=    -1.0630
   XY=     6.3144   YY=    -0.8608   ZY=     2.9919
   XZ=     0.1429   YZ=    -9.3811   ZZ=    18.4515
   Eigenvalues:    -3.5695     6.6510    19.0621
    121  Bq   Isotropic =    13.6929   Anisotropy =    15.3002
   XX=    12.5687   YX=     2.7848   ZX=     1.7211
   XY=     6.6152   YY=     6.3501   ZY=     2.4911
   XZ=    -1.5527   YZ=   -12.9558   ZZ=    22.1599
   Eigenvalues:     2.6870    14.4986    23.8930
    122  Bq   Isotropic =     6.5583   Anisotropy =    17.2536
   XX=     3.4281   YX=     2.1097   ZX=    -1.2399
   XY=     5.9802   YY=    -1.4359   ZY=     3.1144
   XZ=     0.3853   YZ=    -8.0621   ZZ=    17.6826
   Eigenvalues:    -3.9007     5.5149    18.0606
    123  Bq   Isotropic =    16.0365   Anisotropy =    13.0191
   XX=    15.3102   YX=     2.5303   ZX=     3.4966
   XY=     6.1474   YY=     9.7211   ZY=     2.7297
   XZ=    -2.1067   YZ=   -12.4507   ZZ=    23.0783
   Eigenvalues:     6.0902    17.3034    24.7159
    124  Bq   Isotropic =     5.9318   Anisotropy =    16.8929
   XX=     2.5590   YX=     1.8599   ZX=    -1.3367
   XY=     5.6150   YY=    -1.7483   ZY=     3.1988
   XZ=     0.5668   YZ=    -6.7853   ZZ=    16.9847
   Eigenvalues:    -3.9971     4.5987    17.1937
    125  Bq   Isotropic =    18.3594   Anisotropy =    10.0287
   XX=    17.8245   YX=     1.9621   ZX=     6.0260
[...]
   134  Bq   0.000000
   135  Bq   0.000000
   136  Bq   0.000000
   137  Bq   0.000000
   138  Bq   0.000000
   139  Bq   0.000000
   140  Bq   0.000000
   141  Bq   0.000000
   142  Bq   0.000000
   143  Bq   0.000000
   144  Bq   0.000000
   145  Bq   0.000000
   146  Bq   0.000000
   147  Bq   0.000000
   148  Bq   0.000000
   149  Bq   0.000000
   150  Bq   0.000000
   151  Bq   0.000000
   152  Bq   0.000000
   153  Bq   0.000000
   154  Bq   0.000000
   155  Bq   0.000000
   156  Bq   0.000000
   157  Bq   0.000000
   158  Bq   0.000000
   159  Bq   0.000000
   160  Bq   0.000000
   161  Bq   0.000000
   162  Bq   0.000000
   163  Bq   0.000000
   164  Bq   0.000000
   165  Bq   0.000000
   166  Bq   0.000000
   167  Bq   0.000000
   168  Bq   0.000000
   169  Bq   0.000000
   170  Bq   0.000000
   171  Bq   0.000000
   172  Bq   0.000000
   173  Bq   0.000000
   174  Bq   0.000000
   175  Bq   0.000000
   176  Bq   0.000000
   177  Bq   0.000000
   178  Bq   0.000000
   179  Bq   0.000000
   180  Bq   0.000000
   181  Bq   0.000000
   182  Bq   0.000000
   183  Bq   0.000000
   184  Bq   0.000000
   185  Bq   0.000000
   186  Bq   0.000000
   187  Bq   0.000000
   188  Bq   0.000000
   189  Bq   0.000000
   190  Bq   0.000000
   191  Bq   0.000000
   192  Bq   0.000000
   193  Bq   0.000000
   194  Bq   0.000000
   195  Bq   0.000000
   196  Bq   0.000000
   197  Bq   0.000000
   198  Bq   0.000000
   199  Bq   0.000000
   200  Bq   0.000000
   201  Bq   0.000000
   202  Bq   0.000000
   203  Bq   0.000000
   204  Bq   0.000000
   205  Bq   0.000000
   206  Bq   0.000000
   207  Bq   0.000000
   208  Bq   0.000000
   209  Bq   0.000000
   210  Bq   0.000000
   211  Bq   0.000000
   212  Bq   0.000000
   213  Bq   0.000000
   214  Bq   0.000000
   215  Bq   0.000000
   216  Bq   0.000000
   217  Bq   0.000000
   218  Bq   0.000000
   219  Bq   0.000000
   220  Bq   0.000000
   221  Bq   0.000000
   222  Bq   0.000000
   223  Bq   0.000000
   224  Bq   0.000000
   225  Bq   0.000000
   226  Bq   0.000000
   227  Bq   0.000000
   228  Bq   0.000000
   229  Bq   0.000000
   230  Bq   0.000000
   231  Bq   0.000000
   232  Bq   0.000000
   233  Bq   0.000000
   234  Bq   0.000000
   235  Bq   0.000000
   236  Bq   0.000000
 Sum of Mulliken charges =   0.00000
 Mulliken charges with hydrogens summed into heavy atoms:
               1
     1  C   -0.255498
     3  C    0.169409
     5  C    0.448258
     6  C    0.064351
     7  C   -0.483520
     9  C   -0.139521
    11  C   -0.205988
    13  C   -0.235853
    15  C    0.653397
    16  C    0.034822
    17  C   -0.317410
    19  C   -0.316854
    21  C    0.651066
    22  C    0.037784
    23  C   -0.117289
    25  C   -0.205316
    27  C    0.448331
    28  C    0.061983
    29  C   -0.333381
    31  C   -0.139505
    33  C   -0.255977
    35  C    0.170579
    37  Bq   0.000000
    38  Bq   0.000000
    39  Bq   0.000000
    40  Bq   0.000000
    41  Bq   0.000000
    42  Bq   0.000000
    43  Bq   0.000000
    44  Bq   0.000000
    45  Bq   0.000000
    46  Bq   0.000000
    47  Bq   0.000000
    48  Bq   0.000000
    49  Bq   0.000000
    50  Bq   0.000000
    51  Bq   0.000000
    52  Bq   0.000000
    53  Bq   0.000000
    54  Bq   0.000000
    55  Bq   0.000000
    56  Bq   0.000000
    57  Bq   0.000000
    58  Bq   0.000000
    59  Bq   0.000000
    60  Bq   0.000000
    61  Bq   0.000000
    62  Bq   0.000000
    63  Bq   0.000000
    64  Bq   0.000000
    65  Bq   0.000000
    66  Bq   0.000000
    67  Bq   0.000000
    68  Bq   0.000000
    69  Bq   0.000000
    70  Bq   0.000000
    71  Bq   0.000000
    72  Bq   0.000000
    73  Bq   0.000000
    74  Bq   0.000000
    75  Bq   0.000000
    76  Bq   0.000000
    77  Bq   0.000000
    78  Bq   0.000000
    79  Bq   0.000000
    80  Bq   0.000000
    81  Bq   0.000000
    82  Bq   0.000000
    83  Bq   0.116538
    84  Bq   0.000000
    85  Bq   0.000000
    86  Bq   0.000000
    87  Bq   0.000000
    88  Bq   0.000000
    89  Bq   0.000000
    90  Bq   0.000000
    91  Bq   0.000000
    92  Bq   0.000000
    93  Bq   0.000000
    94  Bq   0.149595
    95  Bq   0.000000
    96  Bq   0.000000
    97  Bq   0.000000
    98  Bq   0.000000
    99  Bq   0.000000
   100  Bq   0.000000
   101  Bq   0.000000
   102  Bq   0.000000
   103  Bq   0.000000
   104  Bq   0.000000
   105  Bq   0.000000
   106  Bq   0.000000
   107  Bq   0.000000
   108  Bq   0.000000
   109  Bq   0.000000
   110  Bq   0.000000
   111  Bq   0.000000
   112  Bq   0.000000
   113  Bq   0.000000
   114  Bq   0.000000
   115  Bq   0.000000
   116  Bq   0.000000
   117  Bq   0.000000
   118  Bq   0.000000
   119  Bq   0.000000
   120  Bq   0.000000
   121  Bq   0.000000
   122  Bq   0.000000
   123  Bq   0.000000
   124  Bq   0.000000
   125  Bq   0.000000
   126  Bq   0.000000
   127  Bq   0.000000
   128  Bq   0.000000
   129  Bq   0.000000
   130  Bq   0.000000
   131  Bq   0.000000
   132  Bq   0.000000
   133  Bq   0.000000
   134  Bq   0.000000
   135  Bq   0.000000
   136  Bq   0.000000
   137  Bq   0.000000
   138  Bq   0.000000
   139  Bq   0.000000
   140  Bq   0.000000
   141  Bq   0.000000
   142  Bq   0.000000
   143  Bq   0.000000
   144  Bq   0.000000
   145  Bq   0.000000
   146  Bq   0.000000
   147  Bq   0.000000
   148  Bq   0.000000
   149  Bq   0.000000
   150  Bq   0.000000
   151  Bq   0.000000
   152  Bq   0.000000
   153  Bq   0.000000
   154  Bq   0.000000
   155  Bq   0.000000
   156  Bq   0.000000
   157  Bq   0.000000
   158  Bq   0.000000
   159  Bq   0.000000
   160  Bq   0.000000
   161  Bq   0.000000
   162  Bq   0.000000
   163  Bq   0.000000
   164  Bq   0.000000
   165  Bq   0.000000
   166  Bq   0.000000
   167  Bq   0.000000
   168  Bq   0.000000
   169  Bq   0.000000
   170  Bq   0.000000
   171  Bq   0.000000
   172  Bq   0.000000
   173  Bq   0.000000
   174  Bq   0.000000
   175  Bq   0.000000
   176  Bq   0.000000
   177  Bq   0.000000
   178  Bq   0.000000
   179  Bq   0.000000
   180  Bq   0.000000
   181  Bq   0.000000
   182  Bq   0.000000
   183  Bq   0.000000
   184  Bq   0.000000
   185  Bq   0.000000
   186  Bq   0.000000
   187  Bq   0.000000
   188  Bq   0.000000
   189  Bq   0.000000
   190  Bq   0.000000
   191  Bq   0.000000
   192  Bq   0.000000
   193  Bq   0.000000
   194  Bq   0.000000
   195  Bq   0.000000
   196  Bq   0.000000
   197  Bq   0.000000
   198  Bq   0.000000
   199  Bq   0.000000
   200  Bq   0.000000
   201  Bq   0.000000
   202  Bq   0.000000
   203  Bq   0.000000
   204  Bq   0.000000
   205  Bq   0.000000
   206  Bq   0.000000
   207  Bq   0.000000
   208  Bq   0.000000
   209  Bq   0.000000
   210  Bq   0.000000
   211  Bq   0.000000
   212  Bq   0.000000
   213  Bq   0.000000
   214  Bq   0.000000
   215  Bq   0.000000
   216  Bq   0.000000
   217  Bq   0.000000
   218  Bq   0.000000
   219  Bq   0.000000
   220  Bq   0.000000
   221  Bq   0.000000
   222  Bq   0.000000
   223  Bq   0.000000
   224  Bq   0.000000
   225  Bq   0.000000
   226  Bq   0.000000
   227  Bq   0.000000
   228  Bq   0.000000
   229  Bq   0.000000
   230  Bq   0.000000
   231  Bq   0.000000
   232  Bq   0.000000
   233  Bq   0.000000
   234  Bq   0.000000
   235  Bq   0.000000
   236  Bq   0.000000
 Electronic spatial extent (au):  <R**2>=           5736.9264
 Charge=              0.0000 electrons
 Dipole moment (field-independent basis, Debye):
    X=              0.0475    Y=              0.0856    Z=              0.0029  Tot=              0.0979
 Quadrupole moment (field-independent basis, Debye-Ang):
   XX=           -113.7056   YY=           -113.9456   ZZ=           -133.2669
   XY=             -0.3834   XZ=              3.2102   YZ=             -1.1839
 Traceless Quadrupole moment (field-independent basis, Debye-Ang):
   XX=              6.6005   YY=              6.3604   ZZ=            -12.9609
   XY=             -0.3834   XZ=              3.2102   YZ=             -1.1839
 Octapole moment (field-independent basis, Debye-Ang**2):
  XXX=            -16.4668  YYY=            -16.1860  ZZZ=             -1.7007  XYY=              2.5576
  XXY=             -6.5650  XXZ=             13.6547  XZZ=             -8.9478  YZZ=            -17.7168
  YYZ=            -13.2941  XYZ=              8.8036
 Hexadecapole moment (field-independent basis, Debye-Ang**3):
 XXXX=          -3951.1638 YYYY=          -3112.2161 ZZZZ=           -504.8311 XXXY=            340.6935
 XXXZ=            156.4968 YYYX=            335.5625 YYYZ=            -87.0893 ZZZX=            120.2262
 ZZZY=           -108.7373 XXYY=          -1176.4844 XXZZ=           -856.7291 YYZZ=           -665.7275
 XXYZ=            -68.9016 YYXZ=             48.1602 ZZXY=            153.0375
 N-N= 1.610917615562D+03 E-N=-5.186891130729D+03  KE= 8.436329774449D+02
 1\1\GINC-CALVANI\SP\RB3LYP\6-311+G(d,p)\C22H14\YANNICK\14-Aug-2020\0\\
 # rb3lyp/6-311+g** NMR geom=connectivity\\Title\\0,1\C,0,-4.0500558,-0
 .5771862,0.8136712\H,0,-5.0263804,-1.0082727,1.002476\C,0,-3.9381552,0
 .6617804,0.2400876\H,0,-4.8252424,1.233889,-0.0111295\C,0,-2.676841,1.
 2433246,0.0057578\C,0,-1.4974121,0.5051527,0.2848253\C,0,-1.6508332,-0
 .7338728,0.9404026\H,0,-0.7713646,-1.2730967,1.2633753\C,0,-2.8898548,
 -1.2624035,1.1994307\H,0,-2.9683706,-2.2124563,1.7152676\C,0,-2.577318
 5,2.5963696,-0.419293\H,0,-3.4870728,3.1412239,-0.6474055\C,0,-1.37418
 95,3.2147896,-0.436403\H,0,-1.2997315,4.2742019,-0.6578144\C,0,-0.1719
 488,2.499409,-0.1734588\C,0,-0.2043917,1.1018437,0.0192689\C,0,1.05134
 91,3.204256,-0.0676222\H,0,1.0427344,4.2819499,-0.1896997\C,0,2.194209
 1,2.5487446,0.2579577\H,0,3.1168527,3.0912848,0.4334727\C,0,2.2216473,
 1.1336562,0.293499\C,0,1.0486931,0.3945528,0.0302412\C,0,3.4483363,0.4
 614633,0.5573939\H,0,4.3095794,1.0606054,0.8334846\C,0,3.5427346,-0.88
 55926,0.4749463\H,0,4.4731467,-1.3939704,0.7038822\C,0,2.4490052,-1.64
 74447,-0.0196319\C,0,1.2150704,-1.0057258,-0.3013573\C,0,0.2531113,-1.
 743444,-1.0216591\H,0,-0.6541356,-1.2535051,-1.3462847\C,0,0.4494193,-
 3.0628597,-1.3413779\H,0,-0.3083162,-3.5944309,-1.905406\C,0,1.6251726
 ,-3.7207967,-0.9552541\H,0,1.7670048,-4.7687404,-1.1927019\C,0,2.61098
 72,-3.0144177,-0.318305\H,0,3.5525612,-3.4902813,-0.0646367\Bq,0,-0.93
 5596891,2.492143264,0.3584643807\Bq,0,-0.970174723,2.7130871203,1.2302
 373935\Bq,0,-0.9317549097,2.4675939466,0.2616007126\Bq,0,-0.9509648163
 ,2.5903405335,0.7459190531\Bq,0,-0.9499420265,3.0995890105,0.720132574
 \Bq,0,-0.9422580639,3.0504903758,0.5264052379\Bq,0,-0.9537840079,3.124
 1383279,0.8169962421\Bq,0,-0.9384160826,3.0259410584,0.4295415698\Bq,0
 ,-0.9576259892,3.1486876453,0.9138599102\Bq,0,-0.9345741012,3.00139174
 1,0.3326779017\Bq,0,-0.9614679705,3.1732369627,1.0107235783\Bq,0,-0.93
 07321199,2.9768424236,0.2358142336\Bq,0,-0.9653099519,3.19778628,1.107
 5872464\Bq,0,-0.9268901386,2.9522931063,0.1389505655\Bq,0,-0.946100045
 2,3.0750396931,0.6232689059\Bq,0,-0.9450772554,3.5842881702,0.59748242
 69\Bq,0,-0.9373932928,3.5351895355,0.4037550907\Bq,0,-0.9489192368,3.6
 088374876,0.694346095\Bq,0,-0.9335513114,3.5106402181,0.3068914226\Bq,
 0,-0.9527612181,3.633386805,0.7912097631\Bq,0,-0.9297093301,3.48609090
 07,0.2100277545\Bq,0,-0.9566031994,3.6579361223,0.8880734312\Bq,0,-0.9
 258673488,3.4615415833,0.1131640865\Bq,0,-0.9604451807,3.6824854397,0.
 9849370993\Bq,0,-0.9220253674,3.436992266,0.0163004184\Bq,0,-0.9412352
 741,3.5597388528,0.5006187588\Bq,0,-0.9402124843,4.0689873299,0.474832
 2798\Bq,0,-0.9325285216,4.0198886952,0.2811049436\Bq,0,-0.9440544656,4
 .0935366473,0.5716959479\Bq,0,-0.9286865403,3.9953393778,0.1842412755\
 Bq,0,-0.947896447,4.1180859647,0.6685596159\Bq,0,-0.924844559,3.970790
 0604,0.0873776074\Bq,0,-0.9517384283,4.142635282,0.765423284\Bq,0,-0.9
 210025777,3.946240743,-0.0094860607\Bq,0,-0.9555804096,4.1671845994,0.
 8622869521\Bq,0,-0.9171605963,3.9216914257,-0.1063497288\Bq,0,-0.93637
 0503,4.0444380125,0.3779686117\Bq,0,-0.9353477132,4.5536864896,0.35218
 21326\Bq,0,-0.9276637505,4.5045878549,0.1584547965\Bq,0,-0.9391896945,
 4.578235807,0.4490458007\Bq,0,-0.9238217692,4.4800385375,0.0615911284\
 Bq,0,-0.9430316758,4.6027851244,0.5459094688\Bq,0,-0.9199797879,4.4554
 892201,-0.0352725397\Bq,0,-0.9468736572,4.6273344417,0.6427731369\Bq,0
 ,-0.9161378065,4.4309399027,-0.1321362078\Bq,0,-0.9507156385,4.6518837
 591,0.739636805\Bq,0,-0.9122958252,4.4063905854,-0.2289998759\Bq,0,-0.
 9315057318,4.5291371722,0.2553184645\Bq,0,-0.4843882652,-0.2933051073,
 1.5984999233\Bq,0,-0.4767043026,-0.3424037421,1.4047725871\Bq,0,-0.488
 2302466,-0.26875579,1.6953635914\Bq,0,-0.4728623212,-0.3669530595,1.30
 7908919\Bq,0,-0.4920722279,-0.2442064726,1.7922272595\Bq,0,-0.46902033
 99,-0.3915023768,1.2110452509\Bq,0,-0.4959142092,-0.2196571552,1.88909
 09276\Bq,0,-0.4651783586,-0.4160516942,1.1141815829\Bq,0,-0.4997561906
 ,-0.1951078378,1.9859545957\Bq,0,-0.4613363773,-0.4406010116,1.0173179
 148\Bq,0,-0.4805462839,-0.3178544247,1.5016362552\Bq,0,-0.4795234941,0
 .1913940524,1.4758497762\Bq,0,-0.4718395315,0.1422954176,1.28212244\Bq
 ,0,-0.4833654754,0.2159433697,1.5727134443\Bq,0,-0.4679975501,0.117746
 1002,1.1852587719\Bq,0,-0.4872074568,0.2404926871,1.6695771124\Bq,0,-0
 .4641555688,0.0931967828,1.0883951038\Bq,0,-0.4910494381,0.2650420045,
 1.7664407804\Bq,0,-0.4603135875,0.0686474655,0.9915314357\Bq,0,-0.4948
 914194,0.2895913219,1.8633044485\Bq,0,-0.4564716061,0.0440981481,0.894
 6677676\Bq,0,-0.4756815128,0.166844735,1.3789861081\Bq,0,-0.474658723,
 0.676093212,1.353199629\Bq,0,-0.4669747603,0.6269945773,1.1594722929\B
 q,0,-0.4785007043,0.7006425294,1.4500632971\Bq,0,-0.463132779,0.602445
 2599,1.0626086248\Bq,0,-0.4823426856,0.7251918468,1.5469269652\Bq,0,-0
 .4592907977,0.5778959425,0.9657449567\Bq,0,-0.486184667,0.7497411642,1
 .6437906333\Bq,0,-0.4554488163,0.5533466252,0.8688812886\Bq,0,-0.49002
 66483,0.7742904816,1.7406543014\Bq,0,-0.451606835,0.5287973078,0.77201
 76205\Bq,0,-0.4708167417,0.6515438947,1.2563359609\Bq,0,-0.4697939519,
 1.1607923717,1.2305494819\Bq,0,-0.4621099892,1.111693737,1.0368221457\
 Bq,0,-0.4736359332,1.1853416891,1.32741315\Bq,0,-0.4582680079,1.087144
 4196,0.9399584776\Bq,0,-0.4774779145,1.2098910065,1.4242768181\Bq,0,-0
 .4544260266,1.0625951022,0.8430948095\Bq,0,-0.4813198959,1.2344403239,
 1.5211404862\Bq,0,-0.4505840452,1.0380457849,0.7462311415\Bq,0,-0.4851
 618772,1.2589896412,1.6180041543\Bq,0,-0.4467420639,1.0134964675,0.649
 3674734\Bq,0,-0.4659519705,1.1362430544,1.1336858138\Bq,0,-0.464929180
 7,1.6454915314,1.1078993348\Bq,0,-0.4572452181,1.5963928967,0.91417199
 86\Bq,0,-0.4687711621,1.6700408488,1.2047630029\Bq,0,-0.4534032368,1.5
 718435793,0.8173083305\Bq,0,-0.4726131434,1.6945901662,1.3016266709\Bq
 ,0,-0.4495612554,1.5472942619,0.7204446624\Bq,0,-0.4764551247,1.719139
 4836,1.398490339\Bq,0,-0.4457192741,1.5227449446,0.6235809943\Bq,0,-0.
 4802971061,1.7436888009,1.4953540071\Bq,0,-0.4418772928,1.4981956272,0
 .5267173262\Bq,0,-0.4610871994,1.6209422141,1.0110356667\Bq,0,-0.46006
 44096,2.1301906911,0.9852491876\Bq,0,-0.452380447,2.0810920564,0.79152
 18515\Bq,0,-0.463906391,2.1547400085,1.0821128557\Bq,0,-0.4485384656,2
 .056542739,0.6946581834\Bq,0,-0.4677483723,2.1792893259,1.1789765238\B
 q,0,-0.4446964843,2.0319934216,0.5977945153\Bq,0,-0.4715903536,2.20383
 86433,1.2758401919\Bq,0,-0.440854503,2.0074441043,0.5009308472\Bq,0,-0
 .4754323349,2.2283879606,1.37270386\Bq,0,-0.4370125216,1.9828947869,0.
 4040671791\Bq,0,-0.4562224283,2.1056413738,0.8883855195\Bq,0,-0.455199
 6385,2.6148898508,0.8625990405\Bq,0,-0.4475156758,2.5657912161,0.66887
 17043\Bq,0,-0.4590416198,2.6394391682,0.9594627086\Bq,0,-0.4436736945,
 2.5412418987,0.5720080362\Bq,0,-0.4628836012,2.6639884856,1.0563263767
 \Bq,0,-0.4398317132,2.5166925813,0.4751443681\Bq,0,-0.4667255825,2.688
 537803,1.1531900448\Bq,0,-0.4359897319,2.492143264,0.3782807\Bq,0,-0.4
 705675638,2.7130871203,1.2500537129\Bq,0,-0.4321477505,2.4675939466,0.
 281417032\Bq,0,-0.4513576572,2.5903405335,0.7657353724\Bq,0,-0.4503348
 674,3.0995890105,0.7399488934\Bq,0,-0.4426509047,3.0504903758,0.546221
 5572\Bq,0,-0.4541768487,3.1241383279,0.8368125614\Bq,0,-0.4388089234,3
 .0259410584,0.4493578891\Bq,0,-0.45801883,3.1486876453,0.9336762295\Bq
 ,0,-0.4349669421,3.001391741,0.352494221\Bq,0,-0.4618608114,3.17323696
 27,1.0305398976\Bq,0,-0.4311249607,2.9768424236,0.2556305529\Bq,0,-0.4
 657027927,3.19778628,1.1274035657\Bq,0,-0.4272829794,2.9522931063,0.15
 87668848\Bq,0,-0.4464928861,3.0750396931,0.6430852253\Bq,0,-0.44547009
 63,3.5842881702,0.6172987462\Bq,0,-0.4377861336,3.5351895355,0.4235714
 1\Bq,0,-0.4493120776,3.6088374876,0.7141624143\Bq,0,-0.4339441523,3.51
 06402181,0.326707742\Bq,0,-0.4531540589,3.633386805,0.8110260824\Bq,0,
 -0.4301021709,3.4860909007,0.2298440739\Bq,0,-0.4569960402,3.657936122
 3,0.9078897505\Bq,0,-0.4262601896,3.4615415833,0.1329804058\Bq,0,-0.46
 08380216,3.6824854397,1.0047534186\Bq,0,-0.4224182083,3.436992266,0.03
 61167377\Bq,0,-0.4416281149,3.5597388528,0.5204350781\Bq,0,-0.44060532
 51,4.0689873299,0.4946485991\Bq,0,-0.4329213625,4.0198886952,0.3009212
 629\Bq,0,-0.4444473065,4.0935366473,0.5915122672\Bq,0,-0.4290793811,3.
 9953393778,0.2040575948\Bq,0,-0.4482892878,4.1180859647,0.6883759353\B
 q,0,-0.4252373998,3.9707900604,0.1071939267\Bq,0,-0.4521312691,4.14263
 5282,0.7852396034\Bq,0,-0.4213954185,3.946240743,0.0103302586\Bq,0,-0.
 4559732505,4.1671845994,0.8821032714\Bq,0,-0.4175534372,3.9216914257,-
 0.0865334095\Bq,0,-0.4367633438,4.0444380125,0.397784931\Bq,0,-0.43574
 0554,4.5536864896,0.371998452\Bq,0,-0.4280565914,4.5045878549,0.178271
 1158\Bq,0,-0.4395825353,4.578235807,0.46886212\Bq,0,-0.42421461,4.4800
 385375,0.0814074477\Bq,0,-0.4434245167,4.6027851244,0.5657257881\Bq,0,
 -0.4203726287,4.4554892201,-0.0154562204\Bq,0,-0.447266498,4.627334441
 7,0.6625894562\Bq,0,-0.4165306474,4.4309399027,-0.1123198885\Bq,0,-0.4
 511084793,4.6518837591,0.7594531243\Bq,0,-0.412688666,4.4063905854,-0.
 2091835566\Bq,0,-0.4318985727,4.5291371722,0.2751347839\Bq,0,0.0152188
 939,-0.2933051073,1.6183162426\Bq,0,0.0229028566,-0.3424037421,1.42458
 89064\Bq,0,0.0113769126,-0.26875579,1.7151799107\Bq,0,0.0267448379,-0.
 3669530595,1.3277252384\Bq,0,0.0075349313,-0.2442064726,1.8120435788\B
 q,0,0.0305868192,-0.3915023768,1.2308615703\Bq,0,0.0036929499,-0.21965
 71552,1.9089072469\Bq,0,0.0344288006,-0.4160516942,1.1339979022\Bq,0,-
 0.0001490314,-0.1951078378,2.005770915\Bq,0,0.0382707819,-0.4406010116
 ,1.0371342341\Bq,0,0.0190608753,-0.3178544247,1.5214525745\Bq,0,0.0200
 836651,0.1913940524,1.4956660955\Bq,0,0.0277676277,0.1422954176,1.3019
 387593\Bq,0,0.0162416837,0.2159433697,1.5925297636\Bq,0,0.031609609,0.
 1177461002,1.2050750912\Bq,0,0.0123997024,0.2404926871,1.6893934317\Bq
 ,0,0.0354515904,0.0931967828,1.1082114231\Bq,0,0.0085577211,0.26504200
 45,1.7862570998\Bq,0,0.0392935717,0.0686474655,1.011347755\Bq,0,0.0047
 157397,0.2895913219,1.8831207679\Bq,0,0.043135553,0.0440981481,0.91448
 4087\Bq,0,0.0239256464,0.166844735,1.3988024274\Bq,0,0.0249484362,0.67
 6093212,1.3730159484\Bq,0,0.0326323988,0.6269945773,1.1792886122\Bq,0,
 0.0211064548,0.7006425294,1.4698796164\Bq,0,0.0364743802,0.6024452599,
 1.0824249441\Bq,0,0.0172644735,0.7251918468,1.5667432845\Bq,0,0.040316
 3615,0.5778959425,0.985561276\Bq,0,0.0134224922,0.7497411642,1.6636069
 526\Bq,0,0.0441583428,0.5533466252,0.8886976079\Bq,0,0.0095805109,0.77
 42904816,1.7604706207\\Version=ES64L-G09RevD.01\HF=-847.0032898\RMSD=7
 .517e-09\Dipole=0.0186808,0.0336671,0.0011595\Quadrupole=4.9072795,4.7
 288219,-9.6361014,-0.2850201,2.3867064,-0.880172\PG=C01 [X(C22H14)]\\@


 The cat could very well be man's best friend
 but would never stoop to admitting it.
                               -- Doug Larson
 Job cpu time:       0 days  2 hours 50 minutes 19.1 seconds.
 File lengths (MBytes):  RWF=    184 Int=      0 D2E=      0 Chk=     19 Scr=      1
 Normal termination of Gaussian 09 at Fri Aug 14 17:34:34 2020.

real	21m49.088s
user	170m17.265s
sys	0m1.924s
