 Entering Gaussian System, Link 0=g09
 Initial command:
 /share/programs/GAUSSIAN/64/g09/l1.exe "/scratch/yannick.28353/Gau-50650.inp" -scrdir="/scratch/yannick.28353/"
 Entering Link 1 = /share/programs/GAUSSIAN/64/g09/l1.exe PID=     50654.
  
 Copyright (c) 1988,1990,1992,1993,1995,1998,2003,2009,2013,
            Gaussian, Inc.  All Rights Reserved.
  
 This is part of the Gaussian(R) 09 program.  It is based on
 the Gaussian(R) 03 system (copyright 2003, Gaussian, Inc.),
 the Gaussian(R) 98 system (copyright 1998, Gaussian, Inc.),
 the Gaussian(R) 94 system (copyright 1995, Gaussian, Inc.),
 the Gaussian 92(TM) system (copyright 1992, Gaussian, Inc.),
 the Gaussian 90(TM) system (copyright 1990, Gaussian, Inc.),
 the Gaussian 88(TM) system (copyright 1988, Gaussian, Inc.),
 the Gaussian 86(TM) system (copyright 1986, Carnegie Mellon
 University), and the Gaussian 82(TM) system (copyright 1983,
 Carnegie Mellon University). Gaussian is a federally registered
 trademark of Gaussian, Inc.
  
 This software contains proprietary and confidential information,
 including trade secrets, belonging to Gaussian, Inc.
  
 This software is provided under written license and may be
 used, copied, transmitted, or stored only in accord with that
 written license.
  
 The following legend is applicable only to US Government
 contracts under FAR:
  
                    RESTRICTED RIGHTS LEGEND
  
 Use, reproduction and disclosure by the US Government is
 subject to restrictions as set forth in subparagraphs (a)
 and (c) of the Commercial Computer Software - Restricted
 Rights clause in FAR 52.227-19.
  
 Gaussian, Inc.
 340 Quinnipiac St., Bldg. 40, Wallingford CT 06492
  
  
 ---------------------------------------------------------------
 Warning -- This program may not be used in any manner that
 competes with the business of Gaussian, Inc. or will provide
 assistance to any competitor of Gaussian, Inc.  The licensee
 of this program is prohibited from giving any competitor of
 Gaussian, Inc. access to this program.  By using this program,
 the user acknowledges that Gaussian, Inc. is engaged in the
 business of creating and licensing software in the field of
 computational chemistry and represents and warrants to the
 licensee that it is not a competitor of Gaussian, Inc. and that
 it will not use this program in any manner prohibited above.
 ---------------------------------------------------------------
  

 Cite this work as:
 Gaussian 09, Revision D.01,
 M. J. Frisch, G. W. Trucks, H. B. Schlegel, G. E. Scuseria, 
 M. A. Robb, J. R. Cheeseman, G. Scalmani, V. Barone, B. Mennucci, 
 G. A. Petersson, H. Nakatsuji, M. Caricato, X. Li, H. P. Hratchian, 
 A. F. Izmaylov, J. Bloino, G. Zheng, J. L. Sonnenberg, M. Hada, 
 M. Ehara, K. Toyota, R. Fukuda, J. Hasegawa, M. Ishida, T. Nakajima, 
 Y. Honda, O. Kitao, H. Nakai, T. Vreven, J. A. Montgomery, Jr., 
 J. E. Peralta, F. Ogliaro, M. Bearpark, J. J. Heyd, E. Brothers, 
 K. N. Kudin, V. N. Staroverov, T. Keith, R. Kobayashi, J. Normand, 
 K. Raghavachari, A. Rendell, J. C. Burant, S. S. Iyengar, J. Tomasi, 
 M. Cossi, N. Rega, J. M. Millam, M. Klene, J. E. Knox, J. B. Cross, 
 V. Bakken, C. Adamo, J. Jaramillo, R. Gomperts, R. E. Stratmann, 
 O. Yazyev, A. J. Austin, R. Cammi, C. Pomelli, J. W. Ochterski, 
 R. L. Martin, K. Morokuma, V. G. Zakrzewski, G. A. Voth, 
 P. Salvador, J. J. Dannenberg, S. Dapprich, A. D. Daniels, 
 O. Farkas, J. B. Foresman, J. V. Ortiz, J. Cioslowski, 
 and D. J. Fox, Gaussian, Inc., Wallingford CT, 2013.
 
 ******************************************
 Gaussian 09:  ES64L-G09RevD.01 24-Apr-2013
                14-Aug-2020 
 ******************************************
 %nproc=8
 Will use up to    8 processors via shared memory.
 %mem=1000MB
 ----------------------------------------
 # rb3lyp/6-311+g** NMR geom=connectivity
 ----------------------------------------
 1/38=1,57=2/1;
 2/12=2,17=6,18=5,40=1/2;
 3/5=4,6=6,7=111,11=2,16=1,25=1,30=1,74=-5,116=1/1,2,8,3;
 4//1;
 5/5=2,38=5/2;
 8/6=1,10=90,11=11/1;
 10/13=100,45=16/2;
 6/7=2,8=2,9=2,10=2,28=1/1;
 99/9=1/99;
 -----
 Title
 -----
 Symbolic Z-matrix:
 Charge =  0 Multiplicity = 1
 C                    -4.05006  -0.57719   0.81367 
 H                    -5.02638  -1.00827   1.00248 
 C                    -3.93816   0.66178   0.24009 
 H                    -4.82524   1.23389  -0.01113 
 C                    -2.67684   1.24332   0.00576 
 C                    -1.49741   0.50515   0.28483 
 C                    -1.65083  -0.73387   0.9404 
 H                    -0.77136  -1.2731    1.26338 
 C                    -2.88985  -1.2624    1.19943 
 H                    -2.96837  -2.21246   1.71527 
 C                    -2.57732   2.59637  -0.41929 
 H                    -3.48707   3.14122  -0.64741 
 C                    -1.37419   3.21479  -0.4364 
 H                    -1.29973   4.2742   -0.65781 
 C                    -0.17195   2.49941  -0.17346 
 C                    -0.20439   1.10184   0.01927 
 C                     1.05135   3.20426  -0.06762 
 H                     1.04273   4.28195  -0.1897 
 C                     2.19421   2.54874   0.25796 
 H                     3.11685   3.09128   0.43347 
 C                     2.22165   1.13366   0.2935 
 C                     1.04869   0.39455   0.03024 
 C                     3.44834   0.46146   0.55739 
 H                     4.30958   1.06061   0.83348 
 C                     3.54273  -0.88559   0.47495 
 H                     4.47315  -1.39397   0.70388 
 C                     2.44901  -1.64744  -0.01963 
 C                     1.21507  -1.00573  -0.30136 
 C                     0.25311  -1.74344  -1.02166 
 H                    -0.65414  -1.25351  -1.34628 
 C                     0.44942  -3.06286  -1.34138 
 H                    -0.30832  -3.59443  -1.90541 
 C                     1.62517  -3.7208   -0.95525 
 H                     1.767    -4.76874  -1.1927 
 C                     2.61099  -3.01442  -0.31831 
 H                     3.55256  -3.49028  -0.06464 
 Bq                    1.59484  -2.04351   0.19492 
 Bq                    1.23608  -2.28305   0.98481 
 Bq                    1.6347   -2.01689   0.10716 
 Bq                    1.43539  -2.14997   0.54598 
 Bq                    1.34049  -1.69462   0.75491 
 Bq                    1.42022  -1.64139   0.57938 
 Bq                    1.30063  -1.72124   0.84268 
 Bq                    1.46008  -1.61478   0.49162 
 Bq                    1.26077  -1.74786   0.93044 
 Bq                    1.49994  -1.58816   0.40385 
 Bq                    1.22091  -1.77447   1.01821 
 Bq                    1.5398   -1.56155   0.31609 
 Bq                    1.18105  -1.80109   1.10597 
 Bq                    1.57967  -1.53493   0.22833 
 Bq                    1.38036  -1.66801   0.66715 
 Bq                    1.28546  -1.21266   0.87608 
 Bq                    1.36519  -1.15943   0.70055 
 Bq                    1.2456   -1.23927   0.96384 
 Bq                    1.40505  -1.13281   0.61279 
 Bq                    1.20574  -1.26589   1.05161 
 Bq                    1.44491  -1.1062    0.52502 
 Bq                    1.16588  -1.29251   1.13937 
 Bq                    1.48477  -1.07958   0.43726 
 Bq                    1.12602  -1.31912   1.22714 
 Bq                    1.52463  -1.05296   0.34949 
 Bq                    1.32532  -1.18604   0.78832 
 Bq                    1.23043  -0.73069   0.99725 
 Bq                    1.31015  -0.67746   0.82172 
 Bq                    1.19057  -0.75731   1.08501 
 Bq                    1.35002  -0.65085   0.73395 
 Bq                    1.15071  -0.78393   1.17278 
 Bq                    1.38988  -0.62423   0.64619 
 Bq                    1.11084  -0.81054   1.26054 
 Bq                    1.42974  -0.59762   0.55842 
 Bq                    1.07098  -0.83716   1.34831 
 Bq                    1.4696   -0.571     0.47066 
 Bq                    1.27029  -0.70408   0.90948 
 Bq                    1.1754   -0.24873   1.11841 
 Bq                    1.25512  -0.1955    0.94288 
 Bq                    1.13554  -0.27534   1.20618 
 Bq                    1.29498  -0.16888   0.85512 
 Bq                    1.09567  -0.30196   1.29394 
 Bq                    1.33484  -0.14227   0.76735 
 Bq                    1.05581  -0.32858   1.38171 
 Bq                    1.37471  -0.11565   0.67959 
 Bq                    1.01595  -0.35519   1.46947 
 Bq                    1.41457  -0.08904   0.59182 
 Bq                    1.21526  -0.22211   1.03065 
 Bq                    2.18097  -5.06838   0.11352 
 Bq                    2.26069  -5.01515  -0.06201 
 Bq                    2.1411   -5.09499   0.20128 
 Bq                    2.30055  -4.98853  -0.14978 
 Bq                    2.10124  -5.12161   0.28905 
 Bq                    2.34041  -4.96192  -0.23754 
 Bq                    2.06138  -5.14823   0.37681 
 Bq                    2.38027  -4.9353   -0.32531 
 Bq                    2.02152  -5.17484   0.46458 
 Bq                    2.42014  -4.90868  -0.41307 
 Bq                    2.22083  -5.04176   0.02575 
 Bq                    2.12593  -4.58641   0.23468 
 Bq                    2.20566  -4.53318   0.05915 
 Bq                    2.08607  -4.61303   0.32245 
 Bq                    2.24552  -4.50657  -0.02861 
 Bq                    2.04621  -4.63964   0.41021 
 Bq                    2.28538  -4.47995  -0.11638 
 Bq                    2.00635  -4.66626   0.49798 
 Bq                    2.32524  -4.45333  -0.20414 
 Bq                    1.96649  -4.69288   0.58574 
 Bq                    2.3651   -4.42672  -0.29191 
 Bq                    2.16579  -4.5598    0.14692 
 Bq                    2.0709   -4.10445   0.35585 
 Bq                    2.15062  -4.05122   0.18032 
 Bq                    2.03104  -4.13106   0.44361 
 Bq                    2.19049  -4.0246    0.09256 
 Bq                    1.99118  -4.15768   0.53138 
 Bq                    2.23035  -3.99799   0.00479 
 Bq                    1.95132  -4.1843    0.61914 
 Bq                    2.27021  -3.97137  -0.08297 
 Bq                    1.91145  -4.21091   0.70691 
 Bq                    2.31007  -3.94475  -0.17074 
 Bq                    2.11076  -4.07783   0.26808 
 Bq                    2.01587  -3.62248   0.47702 
 Bq                    2.09559  -3.56925   0.30149 
 Bq                    1.97601  -3.6491    0.56478 
 Bq                    2.13545  -3.54264   0.21372 
 Bq                    1.93614  -3.67571   0.65255 
 Bq                    2.17532  -3.51602   0.12596 
 Bq                    1.89628  -3.70233   0.74031 
 Bq                    2.21518  -3.48941   0.03819 
 Bq                    1.85642  -3.72895   0.82807 
 Bq                    2.25504  -3.46279  -0.04957 
 Bq                    2.05573  -3.59587   0.38925 
 Bq                    1.96084  -3.14052   0.59818 
 Bq                    2.04056  -3.08729   0.42265 
 Bq                    1.92097  -3.16713   0.68595 
 Bq                    2.08042  -3.06067   0.33489 
 Bq                    1.88111  -3.19375   0.77371 
 Bq                    2.12028  -3.03406   0.24712 
 Bq                    1.84125  -3.22037   0.86148 
 Bq                    2.16014  -3.00744   0.15936 
 Bq                    1.80139  -3.24698   0.94924 
 Bq                    2.20001  -2.98082   0.07159 
 Bq                    2.0007   -3.1139    0.51042 
 Bq                    1.9058   -2.65855   0.71935 
 Bq                    1.98553  -2.60532   0.54382 
 Bq                    1.86594  -2.68517   0.80711 
 Bq                    2.02539  -2.57871   0.45605 
 Bq                    1.82608  -2.71178   0.89488 
 Bq                    2.06525  -2.55209   0.36829 
 Bq                    1.78622  -2.7384    0.98264 
 Bq                    2.10511  -2.52548   0.28052 
 Bq                    1.74636  -2.76502   1.07041 
 Bq                    2.14497  -2.49886   0.19276 
 Bq                    1.94567  -2.63194   0.63158 
 Bq                    1.85077  -2.17659   0.84051 
 Bq                    1.93049  -2.12336   0.66499 
 Bq                    1.81091  -2.2032    0.92828 
 Bq                    1.97036  -2.09674   0.57722 
 Bq                    1.77105  -2.22982   1.01604 
 Bq                    2.01022  -2.07013   0.48946 
 Bq                    1.73119  -2.25644   1.10381 
 Bq                    2.05008  -2.04351   0.40169 
 Bq                    1.69132  -2.28305   1.19157 
 Bq                    2.08994  -2.01689   0.31393 
 Bq                    1.89063  -2.14997   0.75275 
 Bq                    1.79574  -1.69462   0.96168 
 Bq                    1.87546  -1.64139   0.78615 
 Bq                    1.75588  -1.72124   1.04945 
 Bq                    1.91532  -1.61478   0.69839 
 Bq                    1.71602  -1.74786   1.13721 
 Bq                    1.95519  -1.58816   0.61062 
 Bq                    1.67615  -1.77447   1.22497 
 Bq                    1.99505  -1.56155   0.52286 
 Bq                    1.63629  -1.80109   1.31274 
 Bq                    2.03491  -1.53493   0.43509 
 Bq                    1.8356   -1.66801   0.87392 
 Bq                    1.74071  -1.21266   1.08285 
 Bq                    1.82043  -1.15943   0.90732 
 Bq                    1.70084  -1.23927   1.17061 
 Bq                    1.86029  -1.13281   0.81955 
 Bq                    1.66098  -1.26589   1.25838 
 Bq                    1.90015  -1.1062    0.73179 
 Bq                    1.62112  -1.29251   1.34614 
 Bq                    1.94002  -1.07958   0.64402 
 Bq                    1.58126  -1.31912   1.43391 
 Bq                    1.97988  -1.05296   0.55626 
 Bq                    1.78057  -1.18604   0.99508 
 Bq                    1.68567  -0.73069   1.20401 
 Bq                    1.7654   -0.67746   1.02848 
 Bq                    1.64581  -0.75731   1.29178 
 Bq                    1.80526  -0.65085   0.94072 
 Bq                    1.60595  -0.78393   1.37954 
 Bq                    1.84512  -0.62423   0.85295 
 Bq                    1.56609  -0.81054   1.46731 
 Bq                    1.88498  -0.59762   0.76519 
 Bq                    1.52623  -0.83716   1.55507 
 Bq                    1.92484  -0.571     0.67742 
 Bq                    1.72554  -0.70408   1.11625 
 Bq                    1.63064  -0.24873   1.32518 
 Bq                    1.71037  -0.1955    1.14965 
 Bq                    1.59078  -0.27534   1.41294 
 Bq                    1.75023  -0.16888   1.06189 
 Bq                    1.55092  -0.30196   1.50071 
 Bq                    1.79009  -0.14227   0.97412 
 Bq                    1.51106  -0.32858   1.58847 
 Bq                    1.82995  -0.11565   0.88636 
 Bq                    1.47119  -0.35519   1.67624 
 Bq                    1.86981  -0.08904   0.79859 
 Bq                    1.6705   -0.22211   1.23741 
 Bq                    2.63621  -5.06838   0.32028 
 Bq                    2.71593  -5.01515   0.14475 
 Bq                    2.59635  -5.09499   0.40805 
 Bq                    2.7558   -4.98853   0.05699 
 Bq                    2.55649  -5.12161   0.49581 
 Bq                    2.79566  -4.96192  -0.03077 
 Bq                    2.51662  -5.14823   0.58358 
 Bq                    2.83552  -4.9353   -0.11854 
 Bq                    2.47676  -5.17484   0.67134 
 Bq                    2.87538  -4.90868  -0.2063 
 Bq                    2.67607  -5.04176   0.23252 
 Bq                    2.58118  -4.58641   0.44145 
 Bq                    2.6609   -4.53318   0.26592 
 Bq                    2.54132  -4.61303   0.52921 
 Bq                    2.70076  -4.50657   0.17816 
 Bq                    2.50145  -4.63964   0.61698 
 Bq                    2.74062  -4.47995   0.09039 
 Bq                    2.46159  -4.66626   0.70474 
 Bq                    2.78049  -4.45333   0.00263 
 Bq                    2.42173  -4.69288   0.79251 
 Bq                    2.82035  -4.42672  -0.08514 
 Bq                    2.62104  -4.5598    0.35369 
 Bq                    2.52615  -4.10445   0.56262 
 Bq                    2.60587  -4.05122   0.38709 
 Bq                    2.48628  -4.13106   0.65038 
 Bq                    2.64573  -4.0246    0.29932 
 Bq                    2.44642  -4.15768   0.73815 
 Bq                    2.68559  -3.99799   0.21156 
 Bq                    2.40656  -4.1843    0.82591 
 Bq                    2.72545  -3.97137   0.12379 
 Bq                    2.3667   -4.21091   0.91368 
 
 Symmetry turned off:
 Cannot cope with ghost atoms or with translation vectors.
 Stoichiometry    C22H14
 Framework group  C1[X(C22H14)]
 NUMDOF-- NAT=    36 NAtoms=   236
 Deg. of freedom     0
 Full point group                 C1      NOp   1
                          Input orientation:                          
 ---------------------------------------------------------------------
 Center     Atomic      Atomic             Coordinates (Angstroms)
 Number     Number       Type             X           Y           Z
 ---------------------------------------------------------------------
      1          6           0       -4.050056   -0.577186    0.813671
      2          1           0       -5.026380   -1.008273    1.002476
      3          6           0       -3.938155    0.661780    0.240088
      4          1           0       -4.825242    1.233889   -0.011130
      5          6           0       -2.676841    1.243325    0.005758
      6          6           0       -1.497412    0.505153    0.284825
      7          6           0       -1.650833   -0.733873    0.940403
      8          1           0       -0.771365   -1.273097    1.263375
      9          6           0       -2.889855   -1.262404    1.199431
     10          1           0       -2.968371   -2.212456    1.715268
     11          6           0       -2.577319    2.596370   -0.419293
     12          1           0       -3.487073    3.141224   -0.647406
     13          6           0       -1.374190    3.214790   -0.436403
     14          1           0       -1.299732    4.274202   -0.657814
     15          6           0       -0.171949    2.499409   -0.173459
     16          6           0       -0.204392    1.101844    0.019269
     17          6           0        1.051349    3.204256   -0.067622
     18          1           0        1.042734    4.281950   -0.189700
     19          6           0        2.194209    2.548745    0.257958
     20          1           0        3.116853    3.091285    0.433473
     21          6           0        2.221647    1.133656    0.293499
     22          6           0        1.048693    0.394553    0.030241
     23          6           0        3.448336    0.461463    0.557394
     24          1           0        4.309579    1.060605    0.833485
     25          6           0        3.542735   -0.885593    0.474946
     26          1           0        4.473147   -1.393970    0.703882
     27          6           0        2.449005   -1.647445   -0.019632
     28          6           0        1.215070   -1.005726   -0.301357
     29          6           0        0.253111   -1.743444   -1.021659
     30          1           0       -0.654136   -1.253505   -1.346285
     31          6           0        0.449419   -3.062860   -1.341378
     32          1           0       -0.308316   -3.594431   -1.905406
     33          6           0        1.625173   -3.720797   -0.955254
     34          1           0        1.767005   -4.768740   -1.192702
     35          6           0        2.610987   -3.014418   -0.318305
     36          1           0        3.552561   -3.490281   -0.064637
     37          0           0        1.594836   -2.043510    0.194924
     38          0           0        1.236080   -2.283051    0.984807
     39          0           0        1.634698   -2.016895    0.107159
     40          0           0        1.435389   -2.149973    0.545983
     41          0           0        1.340495   -1.694624    0.754914
     42          0           0        1.420218   -1.641392    0.579384
     43          0           0        1.300633   -1.721239    0.842679
     44          0           0        1.460080   -1.614777    0.491620
     45          0           0        1.260771   -1.747855    0.930443
     46          0           0        1.499942   -1.588161    0.403855
     47          0           0        1.220909   -1.774471    1.018208
     48          0           0        1.539803   -1.561546    0.316090
     49          0           0        1.181048   -1.801086    1.105973
     50          0           0        1.579665   -1.534930    0.228326
     51          0           0        1.380356   -1.668008    0.667149
     52          0           0        1.285462   -1.212659    0.876080
     53          0           0        1.365186   -1.159428    0.700551
     54          0           0        1.245600   -1.239275    0.963845
     55          0           0        1.405047   -1.132812    0.612786
     56          0           0        1.205739   -1.265890    1.051610
     57          0           0        1.444909   -1.106196    0.525021
     58          0           0        1.165877   -1.292506    1.139374
     59          0           0        1.484771   -1.079581    0.437256
     60          0           0        1.126015   -1.319121    1.227139
     61          0           0        1.524633   -1.052965    0.349492
     62          0           0        1.325324   -1.186043    0.788315
     63          0           0        1.230430   -0.730694    0.997246
     64          0           0        1.310153   -0.677463    0.821717
     65          0           0        1.190568   -0.757310    1.085011
     66          0           0        1.350015   -0.650847    0.733952
     67          0           0        1.150706   -0.783925    1.172776
     68          0           0        1.389877   -0.624231    0.646187
     69          0           0        1.110845   -0.810541    1.260541
     70          0           0        1.429739   -0.597616    0.558423
     71          0           0        1.070983   -0.837157    1.348305
     72          0           0        1.469600   -0.571000    0.470658
     73          0           0        1.270292   -0.704078    0.909482
     74          0           0        1.175397   -0.248729    1.118413
     75          0           0        1.255121   -0.195498    0.942883
     76          0           0        1.135536   -0.275345    1.206177
     77          0           0        1.294983   -0.168882    0.855118
     78          0           0        1.095674   -0.301960    1.293942
     79          0           0        1.334845   -0.142266    0.767354
     80          0           0        1.055812   -0.328576    1.381707
     81          0           0        1.374706   -0.115651    0.679589
     82          0           0        1.015950   -0.355192    1.469472
     83          0           0        1.414568   -0.089035    0.591824
     84          0           0        1.215259   -0.222113    1.030648
     85          0           0        2.180965   -5.068378    0.113517
     86          0           0        2.260689   -5.015147   -0.062012
     87          0           0        2.141104   -5.094994    0.201282
     88          0           0        2.300551   -4.988531   -0.149777
     89          0           0        2.101242   -5.121609    0.289046
     90          0           0        2.340413   -4.961916   -0.237542
     91          0           0        2.061380   -5.148225    0.376811
     92          0           0        2.380274   -4.935300   -0.325307
     93          0           0        2.021518   -5.174841    0.464576
     94          0           0        2.420136   -4.908684   -0.413071
     95          0           0        2.220827   -5.041763    0.025752
     96          0           0        2.125933   -4.586413    0.234683
     97          0           0        2.205657   -4.533182    0.059154
     98          0           0        2.086071   -4.613029    0.322448
     99          0           0        2.245518   -4.506566   -0.028611
    100          0           0        2.046210   -4.639645    0.410213
    101          0           0        2.285380   -4.479951   -0.116376
    102          0           0        2.006348   -4.666260    0.497977
    103          0           0        2.325242   -4.453335   -0.204140
    104          0           0        1.966486   -4.692876    0.585742
    105          0           0        2.365104   -4.426719   -0.291905
    106          0           0        2.165795   -4.559798    0.146919
    107          0           0        2.070901   -4.104448    0.355850
    108          0           0        2.150624   -4.051217    0.180320
    109          0           0        2.031039   -4.131064    0.443614
    110          0           0        2.190486   -4.024601    0.092555
    111          0           0        1.991177   -4.157680    0.531379
    112          0           0        2.230348   -3.997986    0.004791
    113          0           0        1.951315   -4.184295    0.619144
    114          0           0        2.270210   -3.971370   -0.082974
    115          0           0        1.911454   -4.210911    0.706908
    116          0           0        2.310071   -3.944754   -0.170739
    117          0           0        2.110763   -4.077833    0.268085
    118          0           0        2.015868   -3.622483    0.477016
    119          0           0        2.095592   -3.569252    0.301486
    120          0           0        1.976007   -3.649099    0.564781
    121          0           0        2.135454   -3.542636    0.213722
    122          0           0        1.936145   -3.675715    0.652545
    123          0           0        2.175315   -3.516021    0.125957
    124          0           0        1.896283   -3.702330    0.740310
    125          0           0        2.215177   -3.489405    0.038192
    126          0           0        1.856421   -3.728946    0.828075
    127          0           0        2.255039   -3.462790   -0.049573
    128          0           0        2.055730   -3.595868    0.389251
    129          0           0        1.960836   -3.140519    0.598182
    130          0           0        2.040560   -3.087287    0.422653
    131          0           0        1.920974   -3.167134    0.685947
    132          0           0        2.080421   -3.060672    0.334888
    133          0           0        1.881113   -3.193750    0.773711
    134          0           0        2.120283   -3.034056    0.247123
    135          0           0        1.841251   -3.220365    0.861476
    136          0           0        2.160145   -3.007440    0.159358
    137          0           0        1.801389   -3.246981    0.949241
    138          0           0        2.200007   -2.980825    0.071594
    139          0           0        2.000698   -3.113903    0.510417
    140          0           0        1.905804   -2.658554    0.719348
    141          0           0        1.985527   -2.605322    0.543819
    142          0           0        1.865942   -2.685169    0.807113
    143          0           0        2.025389   -2.578707    0.456054
    144          0           0        1.826080   -2.711785    0.894878
    145          0           0        2.065251   -2.552091    0.368289
    146          0           0        1.786218   -2.738401    0.982642
    147          0           0        2.105112   -2.525475    0.280525
    148          0           0        1.746357   -2.765016    1.070407
    149          0           0        2.144974   -2.498860    0.192760
    150          0           0        1.945665   -2.631938    0.631584
    151          0           0        1.850771   -2.176589    0.840515
    152          0           0        1.930495   -2.123357    0.664985
    153          0           0        1.810910   -2.203204    0.928279
    154          0           0        1.970357   -2.096742    0.577220
    155          0           0        1.771048   -2.229820    1.016044
    156          0           0        2.010218   -2.070126    0.489456
    157          0           0        1.731186   -2.256436    1.103809
    158          0           0        2.050080   -2.043510    0.401691
    159          0           0        1.691324   -2.283051    1.191573
    160          0           0        2.089942   -2.016895    0.313926
    161          0           0        1.890633   -2.149973    0.752750
    162          0           0        1.795739   -1.694624    0.961681
    163          0           0        1.875462   -1.641392    0.786151
    164          0           0        1.755877   -1.721239    1.049446
    165          0           0        1.915324   -1.614777    0.698387
    166          0           0        1.716015   -1.747855    1.137210
    167          0           0        1.955186   -1.588161    0.610622
    168          0           0        1.676154   -1.774471    1.224975
    169          0           0        1.995048   -1.561546    0.522857
    170          0           0        1.636292   -1.801086    1.312740
    171          0           0        2.034910   -1.534930    0.435092
    172          0           0        1.835601   -1.668008    0.873916
    173          0           0        1.740707   -1.212659    1.082847
    174          0           0        1.820430   -1.159428    0.907318
    175          0           0        1.700845   -1.239275    1.170612
    176          0           0        1.860292   -1.132812    0.819553
    177          0           0        1.660983   -1.265890    1.258377
    178          0           0        1.900154   -1.106196    0.731788
    179          0           0        1.621121   -1.292506    1.346141
    180          0           0        1.940015   -1.079581    0.644023
    181          0           0        1.581260   -1.319121    1.433906
    182          0           0        1.979877   -1.052965    0.556259
    183          0           0        1.780568   -1.186043    0.995082
    184          0           0        1.685674   -0.730694    1.204013
    185          0           0        1.765398   -0.677463    1.028484
    186          0           0        1.645812   -0.757310    1.291778
    187          0           0        1.805259   -0.650847    0.940719
    188          0           0        1.605951   -0.783925    1.379543
    189          0           0        1.845121   -0.624231    0.852954
    190          0           0        1.566089   -0.810541    1.467307
    191          0           0        1.884983   -0.597616    0.765190
    192          0           0        1.526227   -0.837157    1.555072
    193          0           0        1.924845   -0.571000    0.677425
    194          0           0        1.725536   -0.704078    1.116249
    195          0           0        1.630642   -0.248729    1.325180
    196          0           0        1.710365   -0.195498    1.149650
    197          0           0        1.590780   -0.275345    1.412944
    198          0           0        1.750227   -0.168882    1.061885
    199          0           0        1.550918   -0.301960    1.500709
    200          0           0        1.790089   -0.142266    0.974121
    201          0           0        1.511057   -0.328576    1.588474
    202          0           0        1.829951   -0.115651    0.886356
    203          0           0        1.471195   -0.355192    1.676238
    204          0           0        1.869812   -0.089035    0.798591
    205          0           0        1.670504   -0.222113    1.237415
    206          0           0        2.636210   -5.068378    0.320284
    207          0           0        2.715933   -5.015147    0.144755
    208          0           0        2.596348   -5.094994    0.408049
    209          0           0        2.755795   -4.988531    0.056990
    210          0           0        2.556486   -5.121609    0.495813
    211          0           0        2.795657   -4.961916   -0.030775
    212          0           0        2.516625   -5.148225    0.583578
    213          0           0        2.835519   -4.935300   -0.118540
    214          0           0        2.476763   -5.174841    0.671343
    215          0           0        2.875380   -4.908684   -0.206304
    216          0           0        2.676072   -5.041763    0.232519
    217          0           0        2.581177   -4.586413    0.441450
    218          0           0        2.660901   -4.533182    0.265921
    219          0           0        2.541316   -4.613029    0.529215
    220          0           0        2.700763   -4.506566    0.178156
    221          0           0        2.501454   -4.639645    0.616980
    222          0           0        2.740625   -4.479951    0.090391
    223          0           0        2.461592   -4.666260    0.704744
    224          0           0        2.780486   -4.453335    0.002627
    225          0           0        2.421730   -4.692876    0.792509
    226          0           0        2.820348   -4.426719   -0.085138
    227          0           0        2.621039   -4.559798    0.353686
    228          0           0        2.526145   -4.104448    0.562616
    229          0           0        2.605869   -4.051217    0.387087
    230          0           0        2.486283   -4.131064    0.650381
    231          0           0        2.645730   -4.024601    0.299322
    232          0           0        2.446422   -4.157680    0.738146
    233          0           0        2.685592   -3.997986    0.211558
    234          0           0        2.406560   -4.184295    0.825911
    235          0           0        2.725454   -3.971370    0.123793
    236          0           0        2.366698   -4.210911    0.913675
 ---------------------------------------------------------------------
 Rotational constants (GHZ):      0.4529074      0.2836956      0.1879557
 Standard basis: 6-311+G(d,p) (5D, 7F)
 Warning:  center  37 has no basis functions!
 Warning:  center  38 has no basis functions!
 Warning:  center  39 has no basis functions!
 Warning:  center  40 has no basis functions!
 Warning:  center  41 has no basis functions!
 Warning:  center  42 has no basis functions!
 Warning:  center  43 has no basis functions!
 Warning:  center  44 has no basis functions!
 Warning:  center  45 has no basis functions!
 Warning:  center  46 has no basis functions!
 Warning:  center  47 has no basis functions!
 Warning:  center  48 has no basis functions!
 Warning:  center  49 has no basis functions!
 Warning:  center  50 has no basis functions!
 Warning:  center  51 has no basis functions!
 Warning:  center  52 has no basis functions!
 Warning:  center  53 has no basis functions!
 Warning:  center  54 has no basis functions!
 Warning:  center  55 has no basis functions!
 Warning:  center  56 has no basis functions!
 Warning:  center  57 has no basis functions!
 Warning:  center  58 has no basis functions!
 Warning:  center  59 has no basis functions!
 Warning:  center  60 has no basis functions!
 Warning:  center  61 has no basis functions!
 Warning:  center  62 has no basis functions!
 Warning:  center  63 has no basis functions!
 Warning:  center  64 has no basis functions!
 Warning:  center  65 has no basis functions!
 Warning:  center  66 has no basis functions!
 Warning:  center  67 has no basis functions!
 Warning:  center  68 has no basis functions!
 Warning:  center  69 has no basis functions!
 Warning:  center  70 has no basis functions!
 Warning:  center  71 has no basis functions!
 Warning:  center  72 has no basis functions!
 Warning:  center  73 has no basis functions!
 Warning:  center  74 has no basis functions!
 Warning:  center  75 has no basis functions!
 Warning:  center  76 has no basis functions!
 Warning:  center  77 has no basis functions!
 Warning:  center  78 has no basis functions!
 Warning:  center  79 has no basis functions!
 Warning:  center  80 has no basis functions!
 Warning:  center  81 has no basis functions!
 Warning:  center  82 has no basis functions!
 Warning:  center  83 has no basis functions!
 Warning:  center  84 has no basis functions!
 Warning:  center  85 has no basis functions!
 Warning:  center  86 has no basis functions!
 Warning:  center  87 has no basis functions!
 Warning:  center  88 has no basis functions!
 Warning:  center  89 has no basis functions!
 Warning:  center  90 has no basis functions!
 Warning:  center  91 has no basis functions!
 Warning:  center  92 has no basis functions!
 Warning:  center  93 has no basis functions!
 Warning:  center  94 has no basis functions!
 Warning:  center  95 has no basis functions!
 Warning:  center  96 has no basis functions!
 Warning:  center  97 has no basis functions!
 Warning:  center  98 has no basis functions!
 Warning:  center  99 has no basis functions!
 Warning:  center 100 has no basis functions!
 Warning:  center 101 has no basis functions!
 Warning:  center 102 has no basis functions!
 Warning:  center 103 has no basis functions!
 Warning:  center 104 has no basis functions!
 Warning:  center 105 has no basis functions!
 Warning:  center 106 has no basis functions!
 Warning:  center 107 has no basis functions!
 Warning:  center 108 has no basis functions!
 Warning:  center 109 has no basis functions!
 Warning:  center 110 has no basis functions!
 Warning:  center 111 has no basis functions!
 Warning:  center 112 has no basis functions!
 Warning:  center 113 has no basis functions!
 Warning:  center 114 has no basis functions!
 Warning:  center 115 has no basis functions!
 Warning:  center 116 has no basis functions!
 Warning:  center 117 has no basis functions!
 Warning:  center 118 has no basis functions!
 Warning:  center 119 has no basis functions!
 Warning:  center 120 has no basis functions!
 Warning:  center 121 has no basis functions!
 Warning:  center 122 has no basis functions!
 Warning:  center 123 has no basis functions!
 Warning:  center 124 has no basis functions!
 Warning:  center 125 has no basis functions!
 Warning:  center 126 has no basis functions!
 Warning:  center 127 has no basis functions!
 Warning:  center 128 has no basis functions!
 Warning:  center 129 has no basis functions!
 Warning:  center 130 has no basis functions!
 Warning:  center 131 has no basis functions!
 Warning:  center 132 has no basis functions!
 Warning:  center 133 has no basis functions!
 Warning:  center 134 has no basis functions!
 Warning:  center 135 has no basis functions!
 Warning:  center 136 has no basis functions!
 Warning:  center 137 has no basis functions!
 Warning:  center 138 has no basis functions!
 Warning:  center 139 has no basis functions!
 Warning:  center 140 has no basis functions!
 Warning:  center 141 has no basis functions!
 Warning:  center 142 has no basis functions!
 Warning:  center 143 has no basis functions!
 Warning:  center 144 has no basis functions!
 Warning:  center 145 has no basis functions!
 Warning:  center 146 has no basis functions!
 Warning:  center 147 has no basis functions!
 Warning:  center 148 has no basis functions!
 Warning:  center 149 has no basis functions!
 Warning:  center 150 has no basis functions!
 Warning:  center 151 has no basis functions!
 Warning:  center 152 has no basis functions!
 Warning:  center 153 has no basis functions!
 Warning:  center 154 has no basis functions!
 Warning:  center 155 has no basis functions!
 Warning:  center 156 has no basis functions!
 Warning:  center 157 has no basis functions!
 Warning:  center 158 has no basis functions!
 Warning:  center 159 has no basis functions!
 Warning:  center 160 has no basis functions!
 Warning:  center 161 has no basis functions!
 Warning:  center 162 has no basis functions!
 Warning:  center 163 has no basis functions!
 Warning:  center 164 has no basis functions!
 Warning:  center 165 has no basis functions!
 Warning:  center 166 has no basis functions!
 Warning:  center 167 has no basis functions!
 Warning:  center 168 has no basis functions!
 Warning:  center 169 has no basis functions!
 Warning:  center 170 has no basis functions!
 Warning:  center 171 has no basis functions!
 Warning:  center 172 has no basis functions!
 Warning:  center 173 has no basis functions!
 Warning:  center 174 has no basis functions!
 Warning:  center 175 has no basis functions!
 Warning:  center 176 has no basis functions!
 Warning:  center 177 has no basis functions!
 Warning:  center 178 has no basis functions!
 Warning:  center 179 has no basis functions!
 Warning:  center 180 has no basis functions!
 Warning:  center 181 has no basis functions!
 Warning:  center 182 has no basis functions!
 Warning:  center 183 has no basis functions!
 Warning:  center 184 has no basis functions!
 Warning:  center 185 has no basis functions!
 Warning:  center 186 has no basis functions!
 Warning:  center 187 has no basis functions!
 Warning:  center 188 has no basis functions!
 Warning:  center 189 has no basis functions!
 Warning:  center 190 has no basis functions!
 Warning:  center 191 has no basis functions!
 Warning:  center 192 has no basis functions!
 Warning:  center 193 has no basis functions!
 Warning:  center 194 has no basis functions!
 Warning:  center 195 has no basis functions!
 Warning:  center 196 has no basis functions!
 Warning:  center 197 has no basis functions!
 Warning:  center 198 has no basis functions!
 Warning:  center 199 has no basis functions!
 Warning:  center 200 has no basis functions!
 Warning:  center 201 has no basis functions!
 Warning:  center 202 has no basis functions!
 Warning:  center 203 has no basis functions!
 Warning:  center 204 has no basis functions!
 Warning:  center 205 has no basis functions!
 Warning:  center 206 has no basis functions!
 Warning:  center 207 has no basis functions!
 Warning:  center 208 has no basis functions!
 Warning:  center 209 has no basis functions!
 Warning:  center 210 has no basis functions!
 Warning:  center 211 has no basis functions!
 Warning:  center 212 has no basis functions!
 Warning:  center 213 has no basis functions!
 Warning:  center 214 has no basis functions!
 Warning:  center 215 has no basis functions!
 Warning:  center 216 has no basis functions!
 Warning:  center 217 has no basis functions!
 Warning:  center 218 has no basis functions!
 Warning:  center 219 has no basis functions!
 Warning:  center 220 has no basis functions!
 Warning:  center 221 has no basis functions!
 Warning:  center 222 has no basis functions!
 Warning:  center 223 has no basis functions!
 Warning:  center 224 has no basis functions!
 Warning:  center 225 has no basis functions!
 Warning:  center 226 has no basis functions!
 Warning:  center 227 has no basis functions!
 Warning:  center 228 has no basis functions!
 Warning:  center 229 has no basis functions!
 Warning:  center 230 has no basis functions!
 Warning:  center 231 has no basis functions!
 Warning:  center 232 has no basis functions!
 Warning:  center 233 has no basis functions!
 Warning:  center 234 has no basis functions!
 Warning:  center 235 has no basis functions!
 Warning:  center 236 has no basis functions!
   568 basis functions,   904 primitive gaussians,   590 cartesian basis functions
    73 alpha electrons       73 beta electrons
       nuclear repulsion energy      1610.9176155625 Hartrees.
 NAtoms=  236 NActive=  236 NUniq=  236 SFac= 1.00D+00 NAtFMM=   60 NAOKFM=T Big=T
 Integral buffers will be    131072 words long.
 Raffenetti 2 integral format.
 Two-electron integral symmetry is turned off.
 One-electron integrals computed using PRISM.
 NBasis=   568 RedAO= T EigKep=  1.78D-06  NBF=   568
 NBsUse=   556 1.00D-06 EigRej=  9.09D-07 NBFU=   556
 ExpMin= 4.38D-02 ExpMax= 4.56D+03 ExpMxC= 6.82D+02 IAcc=2 IRadAn=         4 AccDes= 0.00D+00
 Harris functional with IExCor=  402 and IRadAn=       4 diagonalized for initial guess.
 HarFok:  IExCor=  402 AccDes= 0.00D+00 IRadAn=         4 IDoV= 1 UseB2=F ITyADJ=14
 ICtDFT=  3500011 ScaDFX=  1.000000  1.000000  1.000000  1.000000
 FoFCou: FMM=F IPFlag=           0 FMFlag=      100000 FMFlg1=        2001
         NFxFlg=           0 DoJE=T BraDBF=F KetDBF=T FulRan=T
         wScrn=  0.000000 ICntrl=     500 IOpCl=  0 I1Cent=   200000004 NGrid=           0
         NMat0=    1 NMatS0=      1 NMatT0=    0 NMatD0=    1 NMtDS0=    0 NMtDT0=    0
 Symmetry not used in FoFCou.
 Requested convergence on RMS density matrix=1.00D-08 within 128 cycles.
 Requested convergence on MAX density matrix=1.00D-06.
 Requested convergence on             energy=1.00D-06.
 No special actions if energy rises.
 SCF Done:  E(RB3LYP) =  -847.003289847     A.U. after   15 cycles
            NFock= 15  Conv=0.76D-08     -V/T= 2.0040
 DoSCS=F DFT=T ScalE2(SS,OS)=  1.000000  1.000000
 Range of M.O.s used for correlation:     1   556
 NBasis=   568 NAE=    73 NBE=    73 NFC=     0 NFV=     0
 NROrb=    556 NOA=    73 NOB=    73 NVA=   483 NVB=   483

 **** Warning!!: The largest alpha MO coefficient is  0.10971037D+03

          Differentiating once with respect to magnetic field using GIAOs.
          Electric field/nuclear overlap derivatives assumed to be zero.
 FoFCou: FMM=F IPFlag=           0 FMFlag=      100000 FMFlg1=        2001
         NFxFlg=           0 DoJE=F BraDBF=F KetDBF=T FulRan=T
         wScrn=  0.000000 ICntrl=    6100 IOpCl=  0 I1Cent=           7 NGrid=         236
         NMat0=    1 NMatS0=      1 NMatT0=    0 NMatD0=    1 NMtDS0=    0 NMtDT0=    0
 Symmetry not used in FoFCou.
 FoFJK:  IHMeth= 1 ICntrl=    6127 DoSepK=F KAlg= 0 I1Cent=   0 FoldK=F
 IRaf=         1 NMat=   1 IRICut=       1 DoRegI=T DoRafI=F ISym2E= 0.
          There are     3 degrees of freedom in the 1st order CPHF.  IDoFFX=0 NUNeed=     3.
      3 vectors produced by pass  0 Test12= 1.18D-12 3.33D-08 XBig12= 2.07D+03 9.18D+00.
 AX will form     3 AO Fock derivatives at one time.
      3 vectors produced by pass  1 Test12= 1.18D-12 3.33D-08 XBig12= 3.56D+00 8.03D-01.
      3 vectors produced by pass  2 Test12= 1.18D-12 3.33D-08 XBig12= 2.10D-02 6.92D-02.
      3 vectors produced by pass  3 Test12= 1.18D-12 3.33D-08 XBig12= 5.45D-05 1.89D-03.
      3 vectors produced by pass  4 Test12= 1.18D-12 3.33D-08 XBig12= 1.20D-07 7.79D-05.
      3 vectors produced by pass  5 Test12= 1.18D-12 3.33D-08 XBig12= 4.02D-10 4.73D-06.
      3 vectors produced by pass  6 Test12= 1.18D-12 3.33D-08 XBig12= 1.32D-12 2.61D-07.
 InvSVY:  IOpt=1 It=  1 EMax= 7.11D-15
 Solved reduced A of dimension    21 with     3 vectors.
 Calculating GIAO nuclear magnetic shielding tensors.
 SCF GIAO Magnetic shielding tensor (ppm):
      1  C    Isotropic =    53.8139   Anisotropy =   178.0260
   XX=   -41.4327   YX=   -32.3458   ZX=    10.0287
   XY=   -28.3572   YY=    59.0527   ZY=    55.1899
   XZ=    13.1759   YZ=    58.7550   ZZ=   143.8218
   Eigenvalues:   -53.8775    42.8214   172.4979
      2  H    Isotropic =    24.3095   Anisotropy =     4.8536
   XX=    25.5771   YX=    -1.0289   ZX=     0.5661
   XY=    -0.7431   YY=    26.1829   ZY=    -2.3306
   XZ=    -0.1707   YZ=    -2.4411   ZZ=    21.1687
   Eigenvalues:    20.2108    25.1725    27.5453
      3  C    Isotropic =    51.4055   Anisotropy =   157.8639
   XX=   -31.5399   YX=    38.5015   ZX=   -17.9316
   XY=    34.3519   YY=    49.9437   ZY=    49.6392
   XZ=    -9.8383   YZ=    44.6006   ZZ=   135.8127
   Eigenvalues:   -50.5747    48.1432   156.6481
      4  H    Isotropic =    23.8290   Anisotropy =     7.1838
   XX=    25.3635   YX=     1.8486   ZX=    -0.3559
   XY=     1.9656   YY=    26.4581   ZY=    -2.4103
   XZ=    -1.2941   YZ=    -2.6614   ZZ=    19.6654
   Eigenvalues:    18.8176    24.0511    28.6182
      5  C    Isotropic =    46.0697   Anisotropy =   207.6751
   XX=   -19.2123   YX=    -4.8852   ZX=    -1.6475
   XY=     2.8938   YY=    -2.9860   ZY=    66.5656
   XZ=     2.5356   YZ=    67.9144   ZZ=   160.4073
   Eigenvalues:   -27.2455   -19.0652   184.5197
      6  C    Isotropic =    47.5218   Anisotropy =   196.9389
   XX=   -28.1552   YX=    -2.7889   ZX=    12.0660
   XY=   -14.3886   YY=    21.2063   ZY=    74.2521
   XZ=   -18.6356   YZ=    61.1113   ZZ=   149.5144
   Eigenvalues:   -30.2925    -5.9564   178.8144
      7  C    Isotropic =    49.3915   Anisotropy =   179.8333
   XX=   -12.5211   YX=    28.7048   ZX=   -24.6745
   XY=    31.5123   YY=    29.7000   ZY=    77.7459
   XZ=   -40.0095   YZ=    65.3072   ZZ=   130.9956
   Eigenvalues:   -52.1299    31.0240   169.2804
      8  H    Isotropic =    23.1586   Anisotropy =    13.5525
   XX=    28.5711   YX=     1.5482   ZX=    -3.6986
   XY=     3.2466   YY=    22.7592   ZY=    -2.1157
   XZ=    -8.3753   YZ=    -1.0821   ZZ=    18.1456
   Eigenvalues:    15.3521    21.9301    32.1936
      9  C    Isotropic =    55.1460   Anisotropy =   174.7426
   XX=    46.7071   YX=    -2.6162   ZX=    -2.8420
   XY=     0.6223   YY=    -1.6258   ZY=    92.8272
   XZ=     0.5159   YZ=    95.6598   ZZ=   120.3568
   Eigenvalues:   -52.8932    46.6901   171.6411
     10  H    Isotropic =    24.6278   Anisotropy =     7.1815
   XX=    29.1040   YX=     0.1399   ZX=    -0.3694
   XY=     0.3642   YY=    23.4778   ZY=    -1.0805
   XZ=    -2.4493   YZ=    -2.9465   ZZ=    21.3016
   Eigenvalues:    19.9703    24.4977    29.4155
     11  C    Isotropic =    51.5607   Anisotropy =   151.2142
   XX=     2.1639   YX=    40.9287   ZX=   -26.0048
   XY=    49.9131   YY=    12.2331   ZY=    42.1342
   XZ=   -15.6145   YZ=    38.6614   ZZ=   140.2851
   Eigenvalues:   -48.1951    50.5071   152.3701
     12  H    Isotropic =    23.8537   Anisotropy =     7.3815
   XX=    25.9672   YX=     2.3738   ZX=    -0.2390
   XY=     2.4320   YY=    26.3975   ZY=    -1.8291
   XZ=     0.3529   YZ=    -1.7731   ZZ=    19.1964
   Eigenvalues:    18.7149    24.0714    28.7747
     13  C    Isotropic =    52.8653   Anisotropy =   147.4265
   XX=    51.2944   YX=    19.9221   ZX=   -13.4678
   XY=    11.5478   YY=   -34.0176   ZY=    42.5079
   XZ=    -9.2241   YZ=    40.0716   ZZ=   141.3192
   Eigenvalues:   -46.5152    53.9616   151.1497
     14  H    Isotropic =    24.0156   Anisotropy =     7.3485
   XX=    28.6644   YX=     0.6281   ZX=     1.0808
   XY=     0.5926   YY=    24.4325   ZY=    -1.0823
   XZ=     1.6846   YZ=    -0.3842   ZZ=    18.9500
   Eigenvalues:    18.6430    24.4892    28.9146
     15  C    Isotropic =    46.2221   Anisotropy =   203.9048
   XX=   -27.2215   YX=    -0.0442   ZX=   -28.9124
   XY=     4.6427   YY=   -10.5571   ZY=    28.3830
   XZ=   -10.2704   YZ=    26.7376   ZZ=   176.4448
   Eigenvalues:   -30.5512   -12.9411   182.1586
     16  C    Isotropic =    51.9375   Anisotropy =   188.2004
   XX=   -19.4441   YX=     5.5046   ZX=    15.7858
   XY=    -8.3874   YY=     2.4863   ZY=    22.9264
   XZ=   -50.6243   YZ=    23.3340   ZZ=   172.7704
   Eigenvalues:   -21.0294    -0.5625   177.4045
     17  C    Isotropic =    51.9482   Anisotropy =   149.1264
   XX=    50.7296   YX=   -23.9353   ZX=   -18.4207
   XY=   -16.7271   YY=   -41.8764   ZY=    17.8662
   XZ=   -14.3278   YZ=    11.4871   ZZ=   146.9915
   Eigenvalues:   -46.7796    51.2584   151.3658
     18  H    Isotropic =    24.0122   Anisotropy =     7.5163
   XX=    28.5811   YX=    -0.0866   ZX=     1.5071
   XY=    -0.2466   YY=    24.3342   ZY=    -0.7657
   XZ=     2.5088   YZ=    -1.5208   ZZ=    19.1214
   Eigenvalues:    18.5094    24.5041    29.0231
     19  C    Isotropic =    51.7356   Anisotropy =   148.5924
   XX=     2.4559   YX=   -45.6913   ZX=   -31.2531
   XY=   -53.4448   YY=     7.4698   ZY=    -1.8888
   XZ=   -23.5601   YZ=    -1.2765   ZZ=   145.2810
   Eigenvalues:   -46.9894    51.3989   150.7972
     20  H    Isotropic =    23.9071   Anisotropy =     7.6651
   XX=    25.5796   YX=    -2.0226   ZX=     1.4905
   XY=    -1.9998   YY=    27.3706   ZY=    -0.5164
   XZ=     2.7276   YZ=    -1.1179   ZZ=    18.7711
   Eigenvalues:    18.1643    24.5398    29.0172
     21  C    Isotropic =    45.9767   Anisotropy =   203.9316
   XX=   -16.2108   YX=    13.1802   ZX=   -44.5913
   XY=     6.5714   YY=   -20.6329   ZY=     0.0949
   XZ=   -28.8984   YZ=   -13.0883   ZZ=   174.7736
   Eigenvalues:   -30.5796   -13.4215   181.9311
     22  C    Isotropic =    52.0450   Anisotropy =   188.1157
   XX=    -0.0787   YX=     2.5023   ZX=   -16.3451
   XY=    18.9327   YY=   -14.4798   ZY=   -34.4335
   XZ=   -50.6032   YZ=    19.9104   ZZ=   170.6934
   Eigenvalues:   -20.7705    -0.5500   177.4554
     23  C    Isotropic =    53.2392   Anisotropy =   146.7412
   XX=   -22.0674   YX=   -32.0012   ZX=   -49.4857
   XY=   -23.2043   YY=    44.3661   ZY=   -15.6400
   XZ=   -43.8090   YZ=   -20.2525   ZZ=   137.4189
   Eigenvalues:   -45.6776    54.3286   151.0667
     24  H    Isotropic =    23.8249   Anisotropy =     7.5289
   XX=    25.1073   YX=    -1.7330   ZX=     1.5380
   XY=    -1.5944   YY=    28.0047   ZY=     0.0879
   XZ=     1.2557   YZ=    -0.8283   ZZ=    18.3628
   Eigenvalues:    18.0848    24.5458    28.8442
     25  C    Isotropic =    51.4969   Anisotropy =   150.1066
   XX=   -28.4915   YX=    33.9684   ZX=   -52.3137
   XY=    22.0311   YY=    46.6072   ZY=    -3.8075
   XZ=   -44.5594   YZ=   -10.6355   ZZ=   136.3748
   Eigenvalues:   -48.3857    51.3083   151.5679
     26  H    Isotropic =    23.7431   Anisotropy =     7.4052
   XX=    24.0663   YX=     1.1141   ZX=     1.9989
   XY=     0.9693   YY=    28.1000   ZY=     1.6568
   XZ=     2.0795   YZ=     0.8886   ZZ=    19.0630
   Eigenvalues:    18.2615    24.2880    28.6799
     27  C    Isotropic =    45.8108   Anisotropy =   207.2710
   XX=    -2.7702   YX=    13.7697   ZX=   -61.4651
   XY=     6.5593   YY=   -12.0335   ZY=   -41.6456
   XZ=   -62.6381   YZ=   -44.9232   ZZ=   152.2361
   Eigenvalues:   -28.0803   -18.4787   183.9915
     28  C    Isotropic =    47.8398   Anisotropy =   197.2870
   XX=    19.6900   YX=    14.4398   ZX=   -60.5682
   XY=    28.5650   YY=   -19.3566   ZY=   -56.7015
   XZ=   -63.1331   YZ=   -24.4782   ZZ=   143.1859
   Eigenvalues:   -30.5979    -5.2472   179.3644
     29  C    Isotropic =    49.3441   Anisotropy =   179.7793
   XX=    -3.4110   YX=    38.3775   ZX=   -80.8875
   XY=    36.1252   YY=    25.9805   ZY=   -23.7573
   XZ=   -78.1065   YZ=    -3.9802   ZZ=   125.4627
   Eigenvalues:   -51.6645    30.4997   169.1970
     30  H    Isotropic =    23.1387   Anisotropy =    13.3222
   XX=    22.4354   YX=    -0.7013   ZX=    -0.2375
   XY=    -2.1539   YY=    28.3546   ZY=     4.5555
   XZ=    -3.4181   YZ=     8.3231   ZZ=    18.6259
   Eigenvalues:    15.2751    22.1208    32.0201
     31  C    Isotropic =    55.4410   Anisotropy =   174.9390
   XX=    17.1871   YX=   -14.0890   ZX=   -84.0024
   XY=   -17.9030   YY=    37.4745   ZY=   -50.3662
   XZ=   -84.6557   YZ=   -54.8325   ZZ=   111.6615
   Eigenvalues:   -51.9248    46.1808   172.0670
     32  H    Isotropic =    24.5337   Anisotropy =     7.2554
   XX=    24.6185   YX=    -2.5264   ZX=     0.7632
   XY=    -2.7385   YY=    27.4630   ZY=     1.0335
   XZ=     1.1913   YZ=     3.7573   ZZ=    21.5194
   Eigenvalues:    19.8987    24.3316    29.3706
     33  C    Isotropic =    53.1814   Anisotropy =   179.0596
   XX=    60.9231   YX=    35.2256   ZX=   -42.9515
   XY=    32.0226   YY=   -38.1801   ZY=   -45.5652
   XZ=   -44.2248   YZ=   -50.7831   ZZ=   136.8014
   Eigenvalues:   -55.1197    42.1095   172.5545
     34  H    Isotropic =    24.2825   Anisotropy =     5.1861
   XX=    26.7643   YX=    -0.0934   ZX=     2.5955
   XY=    -0.2993   YY=    24.8157   ZY=     0.8589
   XZ=     2.3715   YZ=     1.4580   ZZ=    21.2676
   Eigenvalues:    20.0339    25.0737    27.7399
     35  C    Isotropic =    51.5295   Anisotropy =   155.1748
   XX=    -0.5131   YX=    52.5760   ZX=   -52.1551
   XY=    55.6135   YY=    25.1843   ZY=   -14.2643
   XZ=   -45.7255   YZ=   -17.1625   ZZ=   129.9171
   Eigenvalues:   -48.3147    47.9237   154.9793
     36  H    Isotropic =    23.8384   Anisotropy =     7.3073
   XX=    24.2302   YX=     1.4459   ZX=     2.1759
   XY=     1.2147   YY=    27.1572   ZY=     2.0665
   XZ=     1.6853   YZ=     2.7775   ZZ=    20.1277
   Eigenvalues:    18.9464    23.8588    28.7099
     37  Bq   Isotropic =    16.9690   Anisotropy =    23.1278
   XX=    13.2923   YX=     0.7403   ZX=    -6.9257
   XY=    -0.3956   YY=    15.3293   ZY=    -3.8507
   XZ=   -16.6224   YZ=    -9.8622   ZZ=    22.2853
   Eigenvalues:     3.8185    14.7009    32.3875
     38  Bq   Isotropic =     6.4332   Anisotropy =    23.6379
   XX=     3.4607   YX=     1.1252   ZX=    -8.9317
   XY=     0.8580   YY=     1.3326   ZY=    -6.9674
   XZ=    -9.4220   YZ=    -8.3535   ZZ=    14.5063
   Eigenvalues:    -4.2111     1.3189    22.1918
     39  Bq   Isotropic =    17.7288   Anisotropy =    20.9592
   XX=    13.5413   YX=    -0.1183   ZX=    -5.8090
   XY=    -1.3382   YY=    17.2470   ZY=    -2.6654
   XZ=   -17.3836   YZ=    -8.7313   ZZ=    22.3982
   Eigenvalues:     4.3525    17.1324    31.7016
     40  Bq   Isotropic =    11.7389   Anisotropy =    27.6460
   XX=     8.3851   YX=     1.6720   ZX=   -10.2428
   XY=     1.0515   YY=     6.9353   ZY=    -7.3933
   XZ=   -12.9720   YZ=   -10.6126   ZZ=    19.8964
   Eigenvalues:    -1.1241     6.1713    30.1696
     41  Bq   Isotropic =    12.5387   Anisotropy =    30.4662
   XX=     8.7633   YX=     0.2381   ZX=   -10.3484
   XY=     1.1120   YY=     4.7003   ZY=    -7.3556
   XZ=   -14.2278   YZ=    -8.4841   ZZ=    24.1526
   Eigenvalues:    -0.7898     5.5565    32.8495
     42  Bq   Isotropic =    17.8084   Anisotropy =    32.6695
   XX=    12.8689   YX=     1.6288   ZX=   -11.0860
   XY=     1.9025   YY=    10.1688   ZY=    -6.5426
   XZ=   -15.6359   YZ=    -8.8759   ZZ=    30.3875
   Eigenvalues:     4.5108     9.3264    39.5881
     43  Bq   Isotropic =    10.5342   Anisotropy =    29.0786
   XX=     7.1734   YX=    -0.0948   ZX=    -9.8844
   XY=     0.9291   YY=     2.8400   ZY=    -7.3826
   XZ=   -13.4546   YZ=    -8.1215   ZZ=    21.5893
   Eigenvalues:    -2.4669     4.1496    29.9200
     44  Bq   Isotropic =    21.0679   Anisotropy =    33.5147
   XX=    15.2461   YX=     2.8435   ZX=   -11.3784
   XY=     2.6569   YY=    13.8185   ZY=    -5.6544
   XZ=   -16.2570   YZ=    -8.7472   ZZ=    34.1391
   Eigenvalues:     7.7552    12.0375    43.4110
     45  Bq   Isotropic =     8.8913   Anisotropy =    27.5569
   XX=     5.8893   YX=    -0.2788   ZX=    -9.3710
   XY=     0.8194   YY=     1.4507   ZY=    -7.2440
   XZ=   -12.6568   YZ=    -7.7285   ZZ=    19.3338
   Eigenvalues:    -3.6119     3.0232    27.2625
     46  Bq   Isotropic =    24.6246   Anisotropy =    34.3538
   XX=    17.5998   YX=     4.4952   ZX=   -11.6784
   XY=     3.7744   YY=    17.9369   ZY=    -4.4471
   XZ=   -16.8404   YZ=    -8.2893   ZZ=    38.3371
   Eigenvalues:    10.2342    16.1125    47.5272
     47  Bq   Isotropic =     7.5503   Anisotropy =    25.9594
   XX=     4.8733   YX=    -0.3664   ZX=    -8.8253
   XY=     0.7505   YY=     0.4339   ZY=    -6.9984
   XZ=   -11.8513   YZ=    -7.3433   ZZ=    17.3436
   Eigenvalues:    -4.3537     2.1480    24.8565
     48  Bq   Isotropic =    28.2675   Anisotropy =    35.4594
   XX=    19.6198   YX=     6.6001   ZX=   -12.0702
   XY=     5.3475   YY=    22.2294   ZY=    -3.0292
   XZ=   -17.4237   YZ=    -7.4363   ZZ=    42.9533
   Eigenvalues:    11.4602    21.4351    51.9071
     49  Bq   Isotropic =     6.4547   Anisotropy =    24.3387
   XX=     4.0803   YX=    -0.3965   ZX=    -8.2636
   XY=     0.7017   YY=    -0.2989   ZY=    -6.6914
   XZ=   -11.0514   YZ=    -6.9883   ZZ=    15.5828
   Eigenvalues:    -4.8049     1.4885    22.6805
     50  Bq   Isotropic =    31.6883   Anisotropy =    37.2039
   XX=    20.9291   YX=     9.0773   ZX=   -12.6568
   XY=     7.4283   YY=    26.2409   ZY=    -1.6359
   XZ=   -18.0527   YZ=    -6.1657   ZZ=    47.8948
   Eigenvalues:    11.4283    27.1456    56.4909
     51  Bq   Isotropic =    14.9556   Anisotropy =    31.6692
   XX=    10.6726   YX=     0.7869   ZX=   -10.7494
   XY=     1.4150   YY=     7.1240   ZY=    -7.0966
   XZ=   -14.9592   YZ=    -8.7599   ZZ=    27.0703
   Eigenvalues:     1.5334     7.2651    36.0684
     52  Bq   Isotropic =    11.2727   Anisotropy =    27.5717
   XX=     7.7958   YX=    -2.6478   ZX=    -9.0023
   XY=    -0.5662   YY=     2.8290   ZY=    -5.8444
   XZ=   -13.4604   YZ=    -4.3894   ZZ=    23.1934
   Eigenvalues:    -1.6930     5.8573    29.6539
     53  Bq   Isotropic =    15.8318   Anisotropy =    29.0382
   XX=    11.0671   YX=    -2.7756   ZX=   -10.9277
   XY=    -1.1942   YY=     7.7330   ZY=    -6.0134
   XZ=   -13.1825   YZ=    -3.1413   ZZ=    28.6954
   Eigenvalues:     2.1490    10.1559    35.1907
     54  Bq   Isotropic =     9.4702   Anisotropy =    26.4842
   XX=     6.5251   YX=    -2.4526   ZX=    -8.3284
   XY=    -0.2920   YY=     1.1667   ZY=    -5.7365
   XZ=   -13.1795   YZ=    -4.7602   ZZ=    20.7188
   Eigenvalues:    -3.0112     4.2954    27.1263
     55  Bq   Isotropic =    18.4741   Anisotropy =    29.3986
   XX=    12.8836   YX=    -2.6401   ZX=   -12.3993
   XY=    -1.5460   YY=    11.0200   ZY=    -6.1320
   XZ=   -12.5692   YZ=    -2.2255   ZZ=    31.5187
   Eigenvalues:     4.4206    12.9284    38.0731
     56  Bq   Isotropic =     7.9747   Anisotropy =    25.2296
   XX=     5.5093   YX=    -2.2174   ZX=    -7.7510
   XY=    -0.0493   YY=    -0.0697   ZY=    -5.5998
   XZ=   -12.6935   YZ=    -5.0054   ZZ=    18.4845
   Eigenvalues:    -3.9484     3.0780    24.7944
     57  Bq   Isotropic =    21.1318   Anisotropy =    29.6203
   XX=    14.5091   YX=    -2.3533   ZX=   -14.3880
   XY=    -1.9300   YY=    14.7383   ZY=    -6.3423
   XZ=   -11.7025   YZ=    -1.1403   ZZ=    34.1481
   Eigenvalues:     6.4221    16.0947    40.8787
     58  Bq   Isotropic =     6.7485   Anisotropy =    23.8689
   XX=     4.7176   YX=    -1.9705   ZX=    -7.2296
   XY=     0.1587   YY=    -0.9676   ZY=    -5.4363
   XZ=   -12.0609   YZ=    -5.1574   ZZ=    16.4955
   Eigenvalues:    -4.5741     2.1585    22.6611
     59  Bq   Isotropic =    23.4822   Anisotropy =    29.9285
   XX=    15.5142   YX=    -1.9540   ZX=   -16.9820
   XY=    -2.3599   YY=    18.6002   ZY=    -6.7096
   XZ=   -10.7640   YZ=     0.0223   ZZ=    36.3321
   Eigenvalues:     7.5109    19.5011    43.4345
     60  Bq   Isotropic =     5.7483   Anisotropy =    22.4567
   XX=     4.1094   YX=    -1.7319   ZX=    -6.7406
   XY=     0.3307   YY=    -1.6059   ZY=    -5.2520
   XZ=   -11.3317   YZ=    -5.2433   ZZ=    14.7414
   Eigenvalues:    -4.9625     1.4880    20.7194
     61  Bq   Isotropic =    25.0995   Anisotropy =    30.6500
   XX=    15.3357   YX=    -1.5558   ZX=   -20.1011
   XY=    -2.8551   YY=    22.1373   ZY=    -7.2762
   XZ=   -10.0708   YZ=     1.0903   ZZ=    37.8255
   Eigenvalues:     7.0148    22.7508    45.5328
     62  Bq   Isotropic =    13.4007   Anisotropy =    28.4346
   XX=     9.3259   YX=    -2.7679   ZX=    -9.8371
   XY=    -0.8678   YY=     4.9996   ZY=    -5.9301
   XZ=   -13.4768   YZ=    -3.8592   ZZ=    25.8767
   Eigenvalues:     0.0427     7.8024    32.3572
     63  Bq   Isotropic =     8.4578   Anisotropy =    22.1192
   XX=     5.9611   YX=    -3.3640   ZX=    -5.6520
   XY=    -0.4204   YY=     1.0055   ZY=    -5.2577
   XZ=   -11.0106   YZ=    -4.8101   ZZ=    18.4067
   Eigenvalues:    -2.8675     5.0369    23.2039
     64  Bq   Isotropic =    11.1760   Anisotropy =    21.7251
   XX=     8.0042   YX=    -4.2098   ZX=    -6.0841
   XY=    -1.5459   YY=     3.6444   ZY=    -5.9438
   XZ=    -8.7427   YZ=    -4.0555   ZZ=    21.8795
   Eigenvalues:    -0.7116     8.5802    25.6594
     65  Bq   Isotropic =     7.3141   Anisotropy =    21.7867
   XX=     5.2292   YX=    -2.9651   ZX=    -5.4569
   XY=     0.0118   YY=    -0.0237   ZY=    -4.9980
   XZ=   -11.3624   YZ=    -5.0618   ZZ=    16.7368
   Eigenvalues:    -3.6183     3.7220    21.8386
     66  Bq   Isotropic =    12.6508   Anisotropy =    20.9078
   XX=     9.3099   YX=    -4.6404   ZX=    -6.3612
   XY=    -2.2571   YY=     5.1788   ZY=    -6.4008
   XZ=    -6.7170   YZ=    -3.5558   ZZ=    23.4636
   Eigenvalues:     0.6140    10.7490    26.5894
     67  Bq   Isotropic =     6.3291   Anisotropy =    21.1931
   XX=     4.6582   YX=    -2.5931   ZX=    -5.2543
   XY=     0.3703   YY=    -0.8587   ZY=    -4.7711
   XZ=   -11.3251   YZ=    -5.2389   ZZ=    15.1877
   Eigenvalues:    -4.1638     2.6932    20.4578
     68  Bq   Isotropic =    14.0659   Anisotropy =    19.6831
   XX=    10.7412   YX=    -5.0698   ZX=    -6.6939
   XY=    -3.0710   YY=     6.7366   ZY=    -6.9338
   XZ=    -4.1714   YZ=    -2.9923   ZZ=    24.7201
   Eigenvalues:     1.9628    13.0470    27.1880
     69  Bq   Isotropic =     5.4925   Anisotropy =    20.4081
   XX=     4.2151   YX=    -2.2537   ZX=    -5.0359
   XY=     0.6643   YY=    -1.5186   ZY=    -4.5638
   XZ=   -10.9997   YZ=    -5.3522   ZZ=    13.7810
   Eigenvalues:    -4.5372     1.9168    19.0979
     70  Bq   Isotropic =    15.2685   Anisotropy =    18.1170
   XX=    12.1971   YX=    -5.4981   ZX=    -7.0592
   XY=    -3.9737   YY=     8.1747   ZY=    -7.5039
   XZ=    -1.3512   YZ=    -2.3887   ZZ=    25.4337
   Eigenvalues:     3.1704    15.2886    27.3465
     71  Bq   Isotropic =     4.7876   Anisotropy =    19.4926
   XX=     3.8685   YX=    -1.9500   ZX=    -4.7987
   XY=     0.9014   YY=    -2.0278   ZY=    -4.3672
   XZ=   -10.4726   YZ=    -5.4131   ZZ=    12.5221
   Eigenvalues:    -4.7754     1.3555    17.7827
     72  Bq   Isotropic =    16.0947   Anisotropy =    16.2963
   XX=    13.5498   YX=    -5.9247   ZX=    -7.3823
   XY=    -4.9238   YY=     9.3346   ZY=    -8.0185
   XZ=     1.3054   YZ=    -1.7706   ZZ=    25.3997
   Eigenvalues:     4.0696    17.2556    26.9589
     73  Bq   Isotropic =     9.7554   Anisotropy =    22.1187
   XX=     6.8821   YX=    -3.7818   ZX=    -5.8544
   XY=    -0.9363   YY=     2.2346   ZY=    -5.5670
   XZ=   -10.1653   YZ=    -4.4755   ZZ=    20.1495
   Eigenvalues:    -1.8935     6.6585    24.5012
     74  Bq   Isotropic =     8.1907   Anisotropy =    21.0486
   XX=     6.4046   YX=    -1.8651   ZX=    -4.0310
   XY=     1.3394   YY=     0.7576   ZY=    -4.4506
   XZ=   -10.0651   YZ=    -7.7678   ZZ=    17.4098
   Eigenvalues:    -2.1572     4.5062    22.2231
     75  Bq   Isotropic =    11.0364   Anisotropy =    20.5491
   XX=     8.8669   YX=    -1.7117   ZX=    -4.2714
   XY=     0.9803   YY=     3.5358   ZY=    -3.9482
   XZ=    -8.4500   YZ=    -7.5450   ZZ=    20.7063
   Eigenvalues:     1.0091     7.3643    24.7358
     76  Bq   Isotropic =     7.0252   Anisotropy =    20.7518
   XX=     5.4972   YX=    -1.7997   ZX=    -3.9636
   XY=     1.5337   YY=    -0.2938   ZY=    -4.4479
   XZ=   -10.2646   YZ=    -7.6440   ZZ=    15.8723
   Eigenvalues:    -3.1665     3.3825    20.8598
     77  Bq   Isotropic =    12.6224   Anisotropy =    19.6443
   XX=    10.3672   YX=    -1.3736   ZX=    -4.5409
   XY=     0.9180   YY=     5.2162   ZY=    -3.3348
   XZ=    -6.9876   YZ=    -7.0425   ZZ=    22.2838
   Eigenvalues:     3.2093     8.9392    25.7186
     78  Bq   Isotropic =     6.0388   Anisotropy =    20.1902
   XX=     4.7810   YX=    -1.6892   ZX=    -3.8901
   XY=     1.7065   YY=    -1.1322   ZY=    -4.3413
   XZ=   -10.1483   YZ=    -7.4382   ZZ=    14.4676
   Eigenvalues:    -3.8697     2.4872    19.4989
     79  Bq   Isotropic =    14.1693   Anisotropy =    18.3094
   XX=    11.8980   YX=    -0.7479   ZX=    -4.9820
   XY=     1.0533   YY=     6.9941   ZY=    -2.4263
   XZ=    -5.1867   YZ=    -6.1566   ZZ=    23.6159
   Eigenvalues:     5.7241    10.4082    26.3756
     80  Bq   Isotropic =     5.2155   Anisotropy =    19.4370
   XX=     4.2204   YX=    -1.5551   ZX=    -3.7958
   XY=     1.8505   YY=    -1.7830   ZY=    -4.1682
   XZ=    -9.7919   YZ=    -7.1866   ZZ=    13.2091
   Eigenvalues:    -4.3314     1.8044    18.1735
     81  Bq   Isotropic =    15.4911   Anisotropy =    16.6690
   XX=    13.2290   YX=     0.2639   ZX=    -5.6183
   XY=     1.5157   YY=     8.7407   ZY=    -1.2351
   XZ=    -3.2849   YZ=    -4.8092   ZZ=    24.5037
   Eigenvalues:     8.1801    11.6895    26.6038
     82  Bq   Isotropic =     4.5338   Anisotropy =    18.5557
   XX=     3.7797   YX=    -1.4114   ZX=    -3.6749
   XY=     1.9647   YY=    -2.2749   ZY=    -3.9556
   XZ=    -9.2643   YZ=    -6.9130   ZZ=    12.0965
   Eigenvalues:    -4.6103     1.3074    16.9042
     83  Bq   Isotropic =    16.3639   Anisotropy =    14.9908
   XX=    14.0408   YX=     1.7350   ZX=    -6.3933
   XY=     2.4445   YY=    10.3021   ZY=     0.1395
   XZ=    -1.6906   YZ=    -2.9805   ZZ=    24.7489
   Eigenvalues:     9.3573    13.3766    26.3578
     84  Bq   Isotropic =     9.5363   Anisotropy =    21.0038
   XX=     7.5284   YX=    -1.8523   ZX=    -4.1195
   XY=     1.1423   YY=     2.0364   ZY=    -4.3022
   XZ=    -9.4768   YZ=    -7.7580   ZZ=    19.0442
   Eigenvalues:    -0.7799     5.8500    23.5389
     85  Bq   Isotropic =    -0.1500   Anisotropy =    10.5321
   XX=    -2.5457   YX=     0.4185   ZX=     2.8393
   XY=    -1.6299   YY=     4.9720   ZY=    -1.7451
   XZ=     4.9930   YZ=    -5.5242   ZZ=    -2.8761
   Eigenvalues:    -7.0727    -0.2486     6.8715
     86  Bq   Isotropic =    -0.0969   Anisotropy =    10.8293
   XX=    -2.1544   YX=    -0.3026   ZX=     3.7908
   XY=    -2.0685   YY=     5.4463   ZY=    -1.1011
   XZ=     6.0533   YZ=    -4.6670   ZZ=    -3.5826
   Eigenvalues:    -7.9977     0.5845     7.1227
     87  Bq   Isotropic =    -0.1631   Anisotropy =    10.3397
   XX=    -2.6232   YX=     0.6991   ZX=     2.4128
   XY=    -1.4223   YY=     4.6984   ZY=    -1.9775
   XZ=     4.4975   YZ=    -5.7999   ZZ=    -2.5644
   Eigenvalues:    -6.6559    -0.5634     6.7301
     88  Bq   Isotropic =    -0.0543   Anisotropy =    10.9398
   XX=    -1.8000   YX=    -0.7388   ZX=     4.2967
   XY=    -2.2824   YY=     5.6266   ZY=    -0.6884
   XZ=     6.5813   YZ=    -4.0717   ZZ=    -3.9895
   Eigenvalues:    -8.5008     1.0991     7.2389
     89  Bq   Isotropic =    -0.1692   Anisotropy =    10.1184
   XX=    -2.6456   YX=     0.9281   ZX=     2.0242
   XY=    -1.2297   YY=     4.4129   ZY=    -2.1548
   XZ=     4.0375   YZ=    -5.9863   ZZ=    -2.2748
   Eigenvalues:    -6.2681    -0.8158     6.5764
     90  Bq   Isotropic =    -0.0005   Anisotropy =    11.0336
   XX=    -1.3147   YX=    -1.2160   ZX=     4.7997
   XY=    -2.4774   YY=     5.7554   ZY=    -0.2204
   XZ=     7.0681   YZ=    -3.3620   ZZ=    -4.4423
   Eigenvalues:    -9.0209     1.6642     7.3552
     91  Bq   Isotropic =    -0.1696   Anisotropy =     9.8703
   XX=    -2.6271   YX=     1.1093   ZX=     1.6742
   XY=    -1.0549   YY=     4.1236   ZY=    -2.2824
   XZ=     3.6159   YZ=    -6.0943   ZZ=    -2.0054
   Eigenvalues:    -5.9063    -1.0131     6.4106
     92  Bq   Isotropic =     0.0632   Anisotropy =    11.1214
   XX=    -0.6867   YX=    -1.7216   ZX=     5.2721
   XY=    -2.6395   YY=     5.8235   ZY=     0.2939
   XZ=     7.4716   YZ=    -2.5416   ZZ=    -4.9473
   Eigenvalues:    -9.5443     2.2564     7.4774
     93  Bq   Isotropic =    -0.1654   Anisotropy =     9.5988
   XX=    -2.5785   YX=     1.2472   ZX=     1.3618
   XY=    -0.8993   YY=     3.8373   ZY=    -2.3664
   XZ=     3.2327   YZ=    -6.1349   ZZ=    -1.7549
   Eigenvalues:    -5.5670    -1.1629     6.2338
     94  Bq   Isotropic =     0.1334   Anisotropy =    11.2155
   XX=     0.0825   YX=    -2.2383   ZX=     5.6777
   XY=    -2.7551   YY=     5.8240   ZY=     0.8404
   XZ=     7.7416   YZ=    -1.6203   ZZ=    -5.5062
   Eigenvalues:   -10.0526     2.8425     7.6105
     95  Bq   Isotropic =    -0.1284   Anisotropy =    10.6948
   XX=    -2.3961   YX=     0.0845   ZX=     3.3009
   XY=    -1.8478   YY=     5.2247   ZY=    -1.4536
   XZ=     5.5163   YZ=    -5.1494   ZZ=    -3.2138
   Eigenvalues:    -7.5203     0.1336     7.0015
     96  Bq   Isotropic =     1.3849   Anisotropy =    13.5978
   XX=    -2.3081   YX=     2.0687   ZX=     2.7035
   XY=    -1.6527   YY=     7.3079   ZY=    -2.4415
   XZ=     7.0775   YZ=    -8.5937   ZZ=    -0.8449
   Eigenvalues:    -7.5767     1.2813    10.4502
     97  Bq   Isotropic =     1.6875   Anisotropy =    13.5649
   XX=    -1.5135   YX=     1.5002   ZX=     4.0674
   XY=    -2.1338   YY=     8.6930   ZY=    -1.1360
   XZ=     8.8153   YZ=    -7.2938   ZZ=    -2.1171
   Eigenvalues:    -8.7435     3.0751    10.7308
     98  Bq   Isotropic =     1.2321   Anisotropy =    13.4715
   XX=    -2.5446   YX=     2.2606   ZX=     2.1085
   XY=    -1.4069   YY=     6.6094   ZY=    -2.8656
   XZ=     6.2585   YZ=    -8.9135   ZZ=    -0.3686
   Eigenvalues:    -7.0987     0.5818    10.2131
     99  Bq   Isotropic =     1.8222   Anisotropy =    13.4168
   XX=    -0.9283   YX=     1.1365   ZX=     4.8093
   XY=    -2.3188   YY=     9.3141   ZY=    -0.2447
   XZ=     9.6615   YZ=    -6.2635   ZZ=    -2.9193
   Eigenvalues:    -9.4599     4.1597    10.7667
    100  Bq   Isotropic =     1.0855   Anisotropy =    13.2572
   XX=    -2.6962   YX=     2.3921   ZX=     1.5803
   XY=    -1.1783   YY=     5.9390   ZY=    -3.1598
   XZ=     5.5004   YZ=    -9.0585   ZZ=     0.0137
   Eigenvalues:    -6.6716     0.0044     9.9237
    101  Bq   Isotropic =     1.9338   Anisotropy =    13.2113
   XX=    -0.2113   YX=     0.7398   ZX=     5.5639
   XY=    -2.4228   YY=     9.8370   ZY=     0.7848
   XZ=    10.4227   YZ=    -4.9722   ZZ=    -3.8243
   Eigenvalues:   -10.2747     5.3348    10.7414
    102  Bq   Isotropic =     0.9490   Anisotropy =    12.9665
   XX=    -2.7788   YX=     2.4692   ZX=     1.1197
   XY=    -0.9743   YY=     5.3114   ZY=    -3.3453
   XZ=     4.8117   YZ=    -9.0630   ZZ=     0.3144
   Eigenvalues:    -6.2831    -0.4632     9.5934
    103  Bq   Isotropic =     2.0138   Anisotropy =    13.0004
   XX=     0.6288   YX=     0.3307   ZX=     6.3049
   XY=    -2.4117   YY=    10.2271   ZY=     1.9089
   XZ=    11.0333   YZ=    -3.4451   ZZ=    -4.8144
   Eigenvalues:   -11.1791     6.5399    10.6807
    104  Bq   Isotropic =     0.8253   Anisotropy =    12.6126
   XX=    -2.8060   YX=     2.4995   ZX=     0.7244
   XY=    -0.7977   YY=     4.7354   ZY=    -3.4433
   XZ=     4.1942   YZ=    -8.9584   ZZ=     0.5464
   Eigenvalues:    -5.9233    -0.8346     9.2336
    105  Bq   Isotropic =     2.0566   Anisotropy =    12.8882
   XX=     1.5701   YX=    -0.0714   ZX=     7.0024
   XY=    -2.2613   YY=    10.4609   ZY=     3.0609
   XZ=    11.4240   YZ=    -1.7357   ZZ=    -5.8613
   Eigenvalues:   -12.1438     7.6648    10.6487
    106  Bq   Isotropic =     1.5390   Anisotropy =    13.6290
   XX=    -1.9697   YX=     1.8142   ZX=     3.3601
   XY=    -1.9022   YY=     8.0123   ZY=    -1.8688
   XZ=     7.9396   YZ=    -8.0640   ZZ=    -1.4256
   Eigenvalues:    -8.1200     2.1119    10.6249
    107  Bq   Isotropic =     5.3992   Anisotropy =    17.9623
   XX=     0.1404   YX=     4.0544   ZX=     0.5235
   XY=    -1.8801   YY=    10.0218   ZY=    -4.5888
   XZ=     7.2457   YZ=   -13.3609   ZZ=     6.0353
   Eigenvalues:    -4.3281     3.1515    17.3740
    108  Bq   Isotropic =     7.4161   Anisotropy =    17.6016
   XX=     3.0184   YX=     3.4349   ZX=     1.9703
   XY=    -3.0567   YY=    13.5296   ZY=    -3.4768
   XZ=     8.8497   YZ=   -12.8215   ZZ=     5.7005
   Eigenvalues:    -3.1700     6.2679    19.1506
    109  Bq   Isotropic =     4.5789   Anisotropy =    17.7882
   XX=    -0.7981   YX=     4.1412   ZX=    -0.0686
   XY=    -1.4438   YY=     8.5098   ZY=    -4.8343
   XZ=     6.3809   YZ=   -13.2016   ZZ=     6.0251
   Eigenvalues:    -4.6457     1.9449    16.4377
    110  Bq   Isotropic =     8.5786   Anisotropy =    17.0605
   XX=     5.0135   YX=     2.8707   ZX=     2.7711
   XY=    -3.7650   YY=    15.3685   ZY=    -2.5483
   XZ=     9.4362   YZ=   -11.9622   ZZ=     5.3540
   Eigenvalues:    -2.3692     8.1528    19.9523
    111  Bq   Isotropic =     3.8798   Anisotropy =    17.4263
   XX=    -1.4730   YX=     4.1188   ZX=    -0.5593
   XY=    -1.1019   YY=     7.1964   ZY=    -4.9309
   XZ=     5.5458   YZ=   -12.8626   ZZ=     5.9159
   Eigenvalues:    -4.8131     0.9551    15.4973
    112  Bq   Isotropic =     9.7796   Anisotropy =    16.3490
   XX=     7.3439   YX=     2.1554   ZX=     3.5684
   XY=    -4.4879   YY=    17.0801   ZY=    -1.3795
   XZ=     9.7640   YZ=   -10.6410   ZZ=     4.9147
   Eigenvalues:    -1.5244    10.1843    20.6789
    113  Bq   Isotropic =     3.2888   Anisotropy =    16.9227
   XX=    -1.9395   YX=     4.0180   ZX=    -0.9514
   XY=    -0.8398   YY=     6.0769   ZY=    -4.9192
   XZ=     4.7700   YZ=   -12.4077   ZZ=     5.7289
   Eigenvalues:    -4.8616     0.1574    14.5706
    114  Bq   Isotropic =    10.9377   Anisotropy =    15.5761
   XX=     9.9023   YX=     1.3438   ZX=     4.3176
   XY=    -5.1380   YY=    18.4834   ZY=    -0.0439
   XZ=     9.7639   YZ=    -8.8728   ZZ=     4.4273
   Eigenvalues:    -0.7639    12.2551    21.3217
    115  Bq   Isotropic =     2.7917   Anisotropy =    16.3196
   XX=    -2.2453   YX=     3.8648   ZX=    -1.2538
   XY=    -0.6416   YY=     5.1346   ZY=    -4.8324
   XZ=     4.0683   YZ=   -11.8844   ZZ=     5.4859
   Eigenvalues:    -4.8216    -0.4747    13.6715
    116  Bq   Isotropic =    11.9575   Anisotropy =    14.8644
   XX=    12.5115   YX=     0.5194   ZX=     4.9876
   XY=    -5.6069   YY=    19.4089   ZY=     1.3146
   XZ=     9.4114   YZ=    -6.7506   ZZ=     3.9522
   Eigenvalues:    -0.2083    14.2138    21.8671
    117  Bq   Isotropic =     6.3471   Anisotropy =    17.9074
   XX=     1.3982   YX=     3.8271   ZX=     1.2098
   XY=    -2.4194   YY=    11.7133   ZY=    -4.1497
   XZ=     8.0915   YZ=   -13.2625   ZZ=     5.9297
   Eigenvalues:    -3.8363     4.5922    18.2853
    118  Bq   Isotropic =    10.7785   Anisotropy =    22.2260
   XX=     3.3519   YX=     4.9146   ZX=    -3.8784
   XY=    -1.6238   YY=    10.6765   ZY=    -5.8202
   XZ=     3.9444   YZ=   -14.9551   ZZ=    18.3073
   Eigenvalues:     2.0018     4.7380    25.5958
    119  Bq   Isotropic =    15.9148   Anisotropy =    21.4056
   XX=     8.6384   YX=     3.8890   ZX=    -2.6024
   XY=    -3.1184   YY=    16.1013   ZY=    -5.0971
   XZ=     4.3349   YZ=   -14.9927   ZZ=    23.0048
   Eigenvalues:     7.9489     9.6103    30.1852
    120  Bq   Isotropic =     8.8495   Anisotropy =    21.9356
   XX=     1.6003   YX=     4.9972   ZX=    -4.2090
   XY=    -1.1688   YY=     8.5666   ZY=    -5.8655
   XZ=     3.5436   YZ=   -14.5164   ZZ=    16.3818
   Eigenvalues:     0.1513     2.9240    23.4733
    121  Bq   Isotropic =    19.0681   Anisotropy =    20.1450
   XX=    12.2149   YX=     2.7741   ZX=    -1.6408
   XY=    -4.2186   YY=    19.1509   ZY=    -4.2691
   XZ=     4.1283   YZ=   -14.3719   ZZ=    25.8386
   Eigenvalues:    12.0832    12.6231    32.4981
    122  Bq   Isotropic =     7.2924   Anisotropy =    21.3321
   XX=     0.3258   YX=     4.9025   ZX=    -4.3778
   XY=    -0.8528   YY=     6.8603   ZY=    -5.7860
   XZ=     3.0927   YZ=   -13.9280   ZZ=    14.6911
   Eigenvalues:    -1.1288     1.4922    21.5138
    123  Bq   Isotropic =    22.3758   Anisotropy =    18.4103
   XX=    16.2167   YX=     1.1849   ZX=    -0.5415
   XY=    -5.5261   YY=    21.9097   ZY=    -3.0591
   XZ=     3.4624   YZ=   -13.2186   ZZ=    29.0009
   Eigenvalues:    15.1771    17.3008    34.6493
    124  Bq   Isotropic =     6.0446   Anisotropy =    20.5226
   XX=    -0.5732   YX=     4.6959   ZX=    -4.4219
   XY=    -0.6377   YY=     5.5044   ZY=    -5.6285
   XZ=     2.6328   YZ=   -13.2614   ZZ=    13.2027
   Eigenvalues:    -1.9771     0.3846    19.7264
    125  Bq   Isotropic =    25.3888   Anisotropy =    16.6085
   XX=    20.1703   YX=    -0.8199   ZX=     0.4921
[...]
   137  Bq   0.000000
   138  Bq   0.000000
   139  Bq   0.000000
   140  Bq   0.000000
   141  Bq   0.000000
   142  Bq   0.000000
   143  Bq   0.000000
   144  Bq   0.000000
   145  Bq   0.000000
   146  Bq   0.000000
   147  Bq   0.000000
   148  Bq   0.000000
   149  Bq   0.000000
   150  Bq   0.000000
   151  Bq   0.000000
   152  Bq   0.000000
   153  Bq   0.000000
   154  Bq   0.000000
   155  Bq   0.000000
   156  Bq   0.000000
   157  Bq   0.000000
   158  Bq   0.000000
   159  Bq   0.000000
   160  Bq   0.000000
   161  Bq   0.000000
   162  Bq   0.000000
   163  Bq   0.000000
   164  Bq   0.000000
   165  Bq   0.000000
   166  Bq   0.000000
   167  Bq   0.000000
   168  Bq   0.000000
   169  Bq   0.000000
   170  Bq   0.000000
   171  Bq   0.000000
   172  Bq   0.000000
   173  Bq   0.000000
   174  Bq   0.000000
   175  Bq   0.000000
   176  Bq   0.000000
   177  Bq   0.000000
   178  Bq   0.000000
   179  Bq   0.000000
   180  Bq   0.000000
   181  Bq   0.000000
   182  Bq   0.000000
   183  Bq   0.000000
   184  Bq   0.000000
   185  Bq   0.000000
   186  Bq   0.000000
   187  Bq   0.000000
   188  Bq   0.000000
   189  Bq   0.000000
   190  Bq   0.000000
   191  Bq   0.000000
   192  Bq   0.000000
   193  Bq   0.000000
   194  Bq   0.000000
   195  Bq   0.000000
   196  Bq   0.000000
   197  Bq   0.000000
   198  Bq   0.000000
   199  Bq   0.000000
   200  Bq   0.000000
   201  Bq   0.000000
   202  Bq   0.000000
   203  Bq   0.000000
   204  Bq   0.000000
   205  Bq   0.000000
   206  Bq   0.000000
   207  Bq   0.000000
   208  Bq   0.000000
   209  Bq   0.000000
   210  Bq   0.000000
   211  Bq   0.000000
   212  Bq   0.000000
   213  Bq   0.000000
   214  Bq   0.000000
   215  Bq   0.000000
   216  Bq   0.000000
   217  Bq   0.000000
   218  Bq   0.000000
   219  Bq   0.000000
   220  Bq   0.000000
   221  Bq   0.000000
   222  Bq   0.000000
   223  Bq   0.000000
   224  Bq   0.000000
   225  Bq   0.000000
   226  Bq   0.000000
   227  Bq   0.000000
   228  Bq   0.000000
   229  Bq   0.000000
   230  Bq   0.000000
   231  Bq   0.000000
   232  Bq   0.000000
   233  Bq   0.000000
   234  Bq   0.000000
   235  Bq   0.000000
   236  Bq   0.000000
 Sum of Mulliken charges =   0.00000
 Mulliken charges with hydrogens summed into heavy atoms:
               1
     1  C   -0.255498
     3  C    0.169409
     5  C    0.448258
     6  C    0.064351
     7  C   -0.333926
     9  C   -0.139521
    11  C   -0.205988
    13  C   -0.119315
    15  C    0.653397
    16  C    0.034822
    17  C   -0.317410
    19  C   -0.316854
    21  C    0.651066
    22  C    0.037784
    23  C   -0.117289
    25  C   -0.205316
    27  C    0.448331
    28  C    0.061983
    29  C   -0.333381
    31  C   -0.139505
    33  C   -0.379734
    35  C    0.055019
    37  Bq   0.000000
    38  Bq   0.000000
    39  Bq   0.000000
    40  Bq   0.000000
    41  Bq   0.000000
    42  Bq   0.000000
    43  Bq   0.000000
    44  Bq   0.000000
    45  Bq   0.000000
    46  Bq   0.000000
    47  Bq   0.000000
    48  Bq   0.000000
    49  Bq   0.000000
    50  Bq   0.000000
    51  Bq   0.000000
    52  Bq   0.000000
    53  Bq   0.000000
    54  Bq   0.000000
    55  Bq   0.000000
    56  Bq   0.000000
    57  Bq   0.000000
    58  Bq   0.000000
    59  Bq   0.000000
    60  Bq   0.000000
    61  Bq   0.000000
    62  Bq   0.000000
    63  Bq   0.000000
    64  Bq   0.000000
    65  Bq   0.000000
    66  Bq   0.000000
    67  Bq   0.000000
    68  Bq   0.000000
    69  Bq   0.000000
    70  Bq   0.000000
    71  Bq   0.000000
    72  Bq   0.000000
    73  Bq   0.000000
    74  Bq   0.000000
    75  Bq   0.000000
    76  Bq   0.000000
    77  Bq   0.000000
    78  Bq   0.000000
    79  Bq   0.000000
    80  Bq   0.000000
    81  Bq   0.000000
    82  Bq   0.000000
    83  Bq   0.000000
    84  Bq   0.000000
    85  Bq   0.000000
    86  Bq   0.000000
    87  Bq   0.000000
    88  Bq   0.000000
    89  Bq   0.000000
    90  Bq   0.000000
    91  Bq   0.000000
    92  Bq   0.000000
    93  Bq   0.000000
    94  Bq   0.123756
    95  Bq   0.000000
    96  Bq   0.000000
    97  Bq   0.000000
    98  Bq   0.000000
    99  Bq   0.000000
   100  Bq   0.000000
   101  Bq   0.000000
   102  Bq   0.000000
   103  Bq   0.000000
   104  Bq   0.000000
   105  Bq   0.000000
   106  Bq   0.000000
   107  Bq   0.000000
   108  Bq   0.000000
   109  Bq   0.000000
   110  Bq   0.000000
   111  Bq   0.000000
   112  Bq   0.000000
   113  Bq   0.000000
   114  Bq   0.000000
   115  Bq   0.000000
   116  Bq   0.000000
   117  Bq   0.000000
   118  Bq   0.000000
   119  Bq   0.000000
   120  Bq   0.000000
   121  Bq   0.000000
   122  Bq   0.000000
   123  Bq   0.000000
   124  Bq   0.000000
   125  Bq   0.000000
   126  Bq   0.000000
   127  Bq   0.000000
   128  Bq   0.000000
   129  Bq   0.000000
   130  Bq   0.000000
   131  Bq   0.000000
   132  Bq   0.000000
   133  Bq   0.000000
   134  Bq   0.000000
   135  Bq   0.000000
   136  Bq   0.000000
   137  Bq   0.000000
   138  Bq   0.000000
   139  Bq   0.000000
   140  Bq   0.000000
   141  Bq   0.000000
   142  Bq   0.000000
   143  Bq   0.000000
   144  Bq   0.000000
   145  Bq   0.000000
   146  Bq   0.000000
   147  Bq   0.000000
   148  Bq   0.000000
   149  Bq   0.000000
   150  Bq   0.000000
   151  Bq   0.000000
   152  Bq   0.000000
   153  Bq   0.000000
   154  Bq   0.000000
   155  Bq   0.000000
   156  Bq   0.000000
   157  Bq   0.000000
   158  Bq   0.000000
   159  Bq   0.000000
   160  Bq   0.000000
   161  Bq   0.000000
   162  Bq   0.000000
   163  Bq   0.000000
   164  Bq   0.000000
   165  Bq   0.000000
   166  Bq   0.000000
   167  Bq   0.000000
   168  Bq   0.000000
   169  Bq   0.000000
   170  Bq   0.000000
   171  Bq   0.000000
   172  Bq   0.000000
   173  Bq   0.000000
   174  Bq   0.000000
   175  Bq   0.000000
   176  Bq   0.000000
   177  Bq   0.000000
   178  Bq   0.000000
   179  Bq   0.000000
   180  Bq   0.000000
   181  Bq   0.000000
   182  Bq   0.000000
   183  Bq   0.000000
   184  Bq   0.000000
   185  Bq   0.000000
   186  Bq   0.000000
   187  Bq   0.000000
   188  Bq   0.000000
   189  Bq   0.000000
   190  Bq   0.000000
   191  Bq   0.000000
   192  Bq   0.000000
   193  Bq   0.000000
   194  Bq   0.000000
   195  Bq   0.000000
   196  Bq   0.000000
   197  Bq   0.000000
   198  Bq   0.000000
   199  Bq   0.000000
   200  Bq   0.000000
   201  Bq   0.000000
   202  Bq   0.000000
   203  Bq   0.000000
   204  Bq   0.000000
   205  Bq   0.000000
   206  Bq   0.000000
   207  Bq   0.000000
   208  Bq   0.000000
   209  Bq   0.000000
   210  Bq   0.000000
   211  Bq   0.000000
   212  Bq   0.000000
   213  Bq   0.000000
   214  Bq   0.000000
   215  Bq   0.000000
   216  Bq   0.000000
   217  Bq   0.000000
   218  Bq   0.000000
   219  Bq   0.000000
   220  Bq   0.000000
   221  Bq   0.000000
   222  Bq   0.000000
   223  Bq   0.000000
   224  Bq   0.000000
   225  Bq   0.000000
   226  Bq   0.000000
   227  Bq   0.000000
   228  Bq   0.000000
   229  Bq   0.000000
   230  Bq   0.000000
   231  Bq   0.000000
   232  Bq   0.000000
   233  Bq   0.000000
   234  Bq   0.000000
   235  Bq   0.115561
   236  Bq   0.000000
 Electronic spatial extent (au):  <R**2>=           5736.9264
 Charge=              0.0000 electrons
 Dipole moment (field-independent basis, Debye):
    X=              0.0475    Y=              0.0856    Z=              0.0029  Tot=              0.0979
 Quadrupole moment (field-independent basis, Debye-Ang):
   XX=           -113.7056   YY=           -113.9456   ZZ=           -133.2669
   XY=             -0.3834   XZ=              3.2102   YZ=             -1.1839
 Traceless Quadrupole moment (field-independent basis, Debye-Ang):
   XX=              6.6005   YY=              6.3604   ZZ=            -12.9609
   XY=             -0.3834   XZ=              3.2102   YZ=             -1.1839
 Octapole moment (field-independent basis, Debye-Ang**2):
  XXX=            -16.4668  YYY=            -16.1860  ZZZ=             -1.7007  XYY=              2.5576
  XXY=             -6.5650  XXZ=             13.6547  XZZ=             -8.9478  YZZ=            -17.7168
  YYZ=            -13.2941  XYZ=              8.8036
 Hexadecapole moment (field-independent basis, Debye-Ang**3):
 XXXX=          -3951.1638 YYYY=          -3112.2161 ZZZZ=           -504.8311 XXXY=            340.6935
 XXXZ=            156.4968 YYYX=            335.5625 YYYZ=            -87.0893 ZZZX=            120.2262
 ZZZY=           -108.7373 XXYY=          -1176.4844 XXZZ=           -856.7291 YYZZ=           -665.7275
 XXYZ=            -68.9016 YYXZ=             48.1602 ZZXY=            153.0375
 N-N= 1.610917615562D+03 E-N=-5.186891130729D+03  KE= 8.436329774449D+02
 1\1\GINC-PLANA\SP\RB3LYP\6-311+G(d,p)\C22H14\YANNICK\14-Aug-2020\0\\# 
 rb3lyp/6-311+g** NMR geom=connectivity\\Title\\0,1\C,0,-4.0500558,-0.5
 771862,0.8136712\H,0,-5.0263804,-1.0082727,1.002476\C,0,-3.9381552,0.6
 617804,0.2400876\H,0,-4.8252424,1.233889,-0.0111295\C,0,-2.676841,1.24
 33246,0.0057578\C,0,-1.4974121,0.5051527,0.2848253\C,0,-1.6508332,-0.7
 338728,0.9404026\H,0,-0.7713646,-1.2730967,1.2633753\C,0,-2.8898548,-1
 .2624035,1.1994307\H,0,-2.9683706,-2.2124563,1.7152676\C,0,-2.5773185,
 2.5963696,-0.419293\H,0,-3.4870728,3.1412239,-0.6474055\C,0,-1.3741895
 ,3.2147896,-0.436403\H,0,-1.2997315,4.2742019,-0.6578144\C,0,-0.171948
 8,2.499409,-0.1734588\C,0,-0.2043917,1.1018437,0.0192689\C,0,1.0513491
 ,3.204256,-0.0676222\H,0,1.0427344,4.2819499,-0.1896997\C,0,2.1942091,
 2.5487446,0.2579577\H,0,3.1168527,3.0912848,0.4334727\C,0,2.2216473,1.
 1336562,0.293499\C,0,1.0486931,0.3945528,0.0302412\C,0,3.4483363,0.461
 4633,0.5573939\H,0,4.3095794,1.0606054,0.8334846\C,0,3.5427346,-0.8855
 926,0.4749463\H,0,4.4731467,-1.3939704,0.7038822\C,0,2.4490052,-1.6474
 447,-0.0196319\C,0,1.2150704,-1.0057258,-0.3013573\C,0,0.2531113,-1.74
 3444,-1.0216591\H,0,-0.6541356,-1.2535051,-1.3462847\C,0,0.4494193,-3.
 0628597,-1.3413779\H,0,-0.3083162,-3.5944309,-1.905406\C,0,1.6251726,-
 3.7207967,-0.9552541\H,0,1.7670048,-4.7687404,-1.1927019\C,0,2.6109872
 ,-3.0144177,-0.318305\H,0,3.5525612,-3.4902813,-0.0646367\Bq,0,1.59483
 57503,-2.0435104264,0.1949239887\Bq,0,1.2360798762,-2.2830512864,0.984
 8065111\Bq,0,1.6346975141,-2.0168947753,0.107159264\Bq,0,1.4353886952,
 -2.1499730308,0.5459828876\Bq,0,1.3404945645,-1.6946237684,0.754913864
 6\Bq,0,1.4202180921,-1.6413924662,0.5793844151\Bq,0,1.3006328007,-1.72
 12394195,0.8426785893\Bq,0,1.4600798559,-1.6147768151,0.4916196904\Bq,
 0,1.2607710369,-1.7478550706,0.930443314\Bq,0,1.4999416197,-1.58816116
 4,0.4038549657\Bq,0,1.2209092732,-1.7744707217,1.0182080387\Bq,0,1.539
 8033835,-1.5615455129,0.316090241\Bq,0,1.1810475094,-1.8010863728,1.10
 59727634\Bq,0,1.5796651472,-1.5349298617,0.2283255163\Bq,0,1.380356328
 3,-1.6680081173,0.6671491398\Bq,0,1.2854621977,-1.2126588548,0.8760801
 169\Bq,0,1.3651857252,-1.1594275526,0.7005506674\Bq,0,1.2456004339,-1.
 2392745059,0.9638448416\Bq,0,1.405047489,-1.1328119015,0.6127859427\Bq
 ,0,1.2057386701,-1.265890157,1.0516095663\Bq,0,1.4449092528,-1.1061962
 504,0.525021218\Bq,0,1.1658769063,-1.2925058081,1.139374291\Bq,0,1.484
 7710166,-1.0795805993,0.4372564933\Bq,0,1.1260151425,-1.3191214593,1.2
 271390157\Bq,0,1.5246327804,-1.0529649482,0.3494917686\Bq,0,1.32532396
 14,-1.1860432037,0.7883153921\Bq,0,1.2304298308,-0.7306939413,0.997246
 3691\Bq,0,1.3101533584,-0.6774626391,0.8217169197\Bq,0,1.190568067,-0.
 7573095924,1.0850110939\Bq,0,1.3500151222,-0.6508469879,0.733952195\Bq
 ,0,1.1507063032,-0.7839252435,1.1727758186\Bq,0,1.3898768859,-0.624231
 3368,0.6461874703\Bq,0,1.1108445394,-0.8105408946,1.2605405433\Bq,0,1.
 4297386497,-0.5976156857,0.5584227456\Bq,0,1.0709827756,-0.8371565457,
 1.348305268\Bq,0,1.4696004135,-0.5710000346,0.4706580209\Bq,0,1.270291
 5946,-0.7040782902,0.9094816444\Bq,0,1.1753974639,-0.2487290277,1.1184
 126214\Bq,0,1.2551209915,-0.1954977255,0.942883172\Bq,0,1.1355357001,-
 0.2753446788,1.2061773461\Bq,0,1.2949827553,-0.1688820744,0.8551184473
 \Bq,0,1.0956739364,-0.3019603299,1.2939420709\Bq,0,1.3348445191,-0.142
 2664233,0.7673537226\Bq,0,1.0558121726,-0.328575981,1.3817067956\Bq,0,
 1.3747062829,-0.1156507722,0.6795889979\Bq,0,1.0159504088,-0.355191632
 1,1.4694715203\Bq,0,1.4145680467,-0.0890351211,0.5918242732\Bq,0,1.215
 2592277,-0.2221133766,1.0306478967\Bq,0,2.1809654991,-5.0683781633,0.1
 135170367\Bq,0,2.2606890267,-5.0151468611,-0.0620124128\Bq,0,2.1411037
 353,-5.0949938144,0.2012817614\Bq,0,2.3005507905,-4.98853121,-0.149777
 1375\Bq,0,2.1012419715,-5.1216094655,0.2890464861\Bq,0,2.3404125543,-4
 .9619155589,-0.2375418622\Bq,0,2.0613802077,-5.1482251166,0.3768112108
 \Bq,0,2.380274318,-4.9352999078,-0.3253065869\Bq,0,2.021518444,-5.1748
 407677,0.4645759355\Bq,0,2.4201360818,-4.9086842567,-0.4130713116\Bq,0
 ,2.2208272629,-5.0417625122,0.025752312\Bq,0,2.1259331322,-4.586413249
 8,0.234683289\Bq,0,2.2056566598,-4.5331819475,0.0591538395\Bq,0,2.0860
 713685,-4.6130289009,0.3224480137\Bq,0,2.2455184236,-4.5065662964,-0.0
 286108852\Bq,0,2.0462096047,-4.639644552,0.4102127384\Bq,0,2.285380187
 4,-4.4799506453,-0.1163756099\Bq,0,2.0063478409,-4.6662602031,0.497977
 4631\Bq,0,2.3252419512,-4.4533349942,-0.2041403346\Bq,0,1.9664860771,-
 4.6928758542,0.5857421878\Bq,0,2.365103715,-4.4267193431,-0.2919050593
 \Bq,0,2.165794896,-4.5597975986,0.1469185643\Bq,0,2.0709007654,-4.1044
 483362,0.3558495413\Bq,0,2.150624293,-4.051217034,0.1803200918\Bq,0,2.
 0310390016,-4.1310639873,0.443614266\Bq,0,2.1904860567,-4.0246013829,0
 .0925553671\Bq,0,1.9911772378,-4.1576796384,0.5313789907\Bq,0,2.230347
 8205,-3.9979857318,0.0047906424\Bq,0,1.951315474,-4.1842952895,0.61914
 37154\Bq,0,2.2702095843,-3.9713700807,-0.0829740823\Bq,0,1.9114537102,
 -4.2109109406,0.7069084401\Bq,0,2.3100713481,-3.9447544296,-0.17073880
 7\Bq,0,2.1107625292,-4.0778326851,0.2680848165\Bq,0,2.0158683985,-3.62
 24834226,0.4770157935\Bq,0,2.0955919261,-3.5692521204,0.3014863441\Bq,
 0,1.9760066347,-3.6490990737,0.5647805183\Bq,0,2.1354536899,-3.5426364
 693,0.2137216194\Bq,0,1.936144871,-3.6757147248,0.652545243\Bq,0,2.175
 3154537,-3.5160208182,0.1259568947\Bq,0,1.8962831072,-3.702330376,0.74
 03099677\Bq,0,2.2151772175,-3.4894051671,0.03819217\Bq,0,1.8564213434,
 -3.7289460271,0.8280746924\Bq,0,2.2550389813,-3.462789516,-0.049572554
 7\Bq,0,2.0557301623,-3.5958677715,0.3892510688\Bq,0,1.9608360317,-3.14
 05185091,0.5981820458\Bq,0,2.0405595592,-3.0872872069,0.4226525964\Bq,
 0,1.9209742679,-3.1671341602,0.6859467705\Bq,0,2.080421323,-3.06067155
 58,0.3348878717\Bq,0,1.8811125041,-3.1937498113,0.7737114953\Bq,0,2.12
 02830868,-3.0340559046,0.247123147\Bq,0,1.8412507403,-3.2203654624,0.8
 6147622\Bq,0,2.1601448506,-3.0074402535,0.1593584223\Bq,0,1.8013889765
 ,-3.2469811135,0.9492409447\Bq,0,2.2000066144,-2.9808246024,0.07159369
 76\Bq,0,2.0006977955,-3.113902858,0.5104173211\Bq,0,1.9058036648,-2.65
 85535955,0.7193482981\Bq,0,1.9855271924,-2.6053222933,0.5438188487\Bq,
 0,1.865941901,-2.6851692466,0.8071130228\Bq,0,2.0253889562,-2.57870664
 22,0.456054124\Bq,0,1.8260801372,-2.7117848977,0.8948777475\Bq,0,2.065
 25072,-2.5520909911,0.3682893993\Bq,0,1.7862183734,-2.7384005488,0.982
 6424723\Bq,0,2.1051124837,-2.52547534,0.2805246746\Bq,0,1.7463566097,-
 2.7650161999,1.070407197\Bq,0,2.1449742475,-2.4988596889,0.1927599498\
 Bq,0,1.9456654286,-2.6319379444,0.6315835734\Bq,0,1.8507712979,-2.1765
 886819,0.8405145504\Bq,0,1.9304948255,-2.1233573797,0.664985101\Bq,0,1
 .8109095342,-2.2032043331,0.9282792751\Bq,0,1.9703565893,-2.0967417286
 ,0.5772203763\Bq,0,1.7710477704,-2.2298199842,1.0160439998\Bq,0,2.0102
 183531,-2.0701260775,0.4894556516\Bq,0,1.7311860066,-2.2564356353,1.10
 38087246\Bq,0,2.0500801169,-2.0435104264,0.4016909268\Bq,0,1.691324242
 8,-2.2830512864,1.1915734493\Bq,0,2.0899418807,-2.0168947753,0.3139262
 021\Bq,0,1.8906330617,-2.1499730308,0.7527498257\Bq,0,1.7957389311,-1.
 6946237684,0.9616808027\Bq,0,1.8754624587,-1.6413924662,0.7861513533\B
 q,0,1.7558771673,-1.7212394195,1.0494455274\Bq,0,1.9153242224,-1.61477
 68151,0.6983866286\Bq,0,1.7160154035,-1.7478550706,1.1372102521\Bq,0,1
 .9551859862,-1.588161164,0.6106219039\Bq,0,1.6761536397,-1.7744707217,
 1.2249749768\Bq,0,1.99504775,-1.5615455129,0.5228571791\Bq,0,1.6362918
 759,-1.8010863728,1.3127397016\Bq,0,2.0349095138,-1.5349298617,0.43509
 24544\Bq,0,1.8356006949,-1.6680081173,0.873916078\Bq,0,1.7407065642,-1
 .2126588548,1.082847055\Bq,0,1.8204300918,-1.1594275526,0.9073176056\B
 q,0,1.7008448004,-1.2392745059,1.1706117797\Bq,0,1.8602918556,-1.13281
 19015,0.8195528809\Bq,0,1.6609830366,-1.265890157,1.2583765044\Bq,0,1.
 9001536194,-1.1061962504,0.7317881561\Bq,0,1.6211212729,-1.2925058081,
 1.3461412291\Bq,0,1.9400153832,-1.0795805993,0.6440234314\Bq,0,1.58125
 95091,-1.3191214593,1.4339059538\Bq,0,1.9798771469,-1.0529649482,0.556
 2587067\Bq,0,1.780568328,-1.1860432037,0.9950823303\Bq,0,1.6856741974,
 -0.7306939413,1.2040133073\Bq,0,1.7653977249,-0.6774626391,1.028483857
 9\Bq,0,1.6458124336,-0.7573095924,1.291778032\Bq,0,1.8052594887,-0.650
 8469879,0.9407191331\Bq,0,1.6059506698,-0.7839252435,1.3795427567\Bq,0
 ,1.8451212525,-0.6242313368,0.8529544084\Bq,0,1.566088906,-0.810540894
 6,1.4673074814\Bq,0,1.8849830163,-0.5976156857,0.7651896837\Bq,0,1.526
 2271422,-0.8371565457,1.5550722061\Bq,0,1.9248447801,-0.5710000346,0.6
 77424959\Bq,0,1.7255359612,-0.7040782902,1.1162485826\Bq,0,1.630641830
 5,-0.2487290277,1.3251795596\Bq,0,1.7103653581,-0.1954977255,1.1496501
 101\Bq,0,1.5907800667,-0.2753446788,1.4129442843\Bq,0,1.7502271219,-0.
 1688820744,1.0618853854\Bq,0,1.5509183029,-0.3019603299,1.500709009\Bq
 ,0,1.7900888857,-0.1422664233,0.9741206607\Bq,0,1.5110565391,-0.328575
 981,1.5884737337\Bq,0,1.8299506494,-0.1156507722,0.886355936\Bq,0,1.47
 11947754,-0.3551916321,1.6762384584\Bq,0,1.8698124132,-0.0890351211,0.
 7985912113\Bq,0,1.6705035943,-0.2221133766,1.2374148349\Bq,0,2.6362098
 657,-5.0683781633,0.3202839748\Bq,0,2.7159333933,-5.0151468611,0.14475
 45254\Bq,0,2.5963481019,-5.0949938144,0.4080486995\Bq,0,2.755795157,-4
 .98853121,0.0569898007\Bq,0,2.5564863381,-5.1216094655,0.4958134242\Bq
 ,0,2.7956569208,-4.9619155589,-0.030774924\Bq,0,2.5166245743,-5.148225
 1166,0.583578149\Bq,0,2.8355186846,-4.9352999078,-0.1185396487\Bq,0,2.
 4767628105,-5.1748407677,0.6713428737\Bq,0,2.8753804484,-4.9086842567,
 -0.2063043735\Bq,0,2.6760716295,-5.0417625122,0.2325192501\Bq,0,2.5811
 774988,-4.5864132498,0.4414502271\Bq,0,2.6609010264,-4.5331819475,0.26
 59207777\Bq,0,2.541315735,-4.6130289009,0.5292149518\Bq,0,2.7007627902
 ,-4.5065662964,0.178156053\Bq,0,2.5014539712,-4.639644552,0.6169796765
 \Bq,0,2.740624554,-4.4799506453,0.0903913283\Bq,0,2.4615922075,-4.6662
 602031,0.7047444012\Bq,0,2.7804863178,-4.4533349942,0.0026266035\Bq,0,
 2.4217304437,-4.6928758542,0.792509126\Bq,0,2.8203480815,-4.4267193431
 ,-0.0851381212\Bq,0,2.6210392626,-4.5597975986,0.3536855024\Bq,0,2.526
 145132,-4.1044483362,0.5626164794\Bq,0,2.6058686595,-4.051217034,0.387
 08703\Bq,0,2.4862833682,-4.1310639873,0.6503812041\Bq,0,2.6457304233,-
 4.0246013829,0.2993223053\Bq,0,2.4464216044,-4.1576796384,0.7381459288
 \Bq,0,2.6855921871,-3.9979857318,0.2115575805\Bq,0,2.4065598406,-4.184
 2952895,0.8259106535\Bq,0,2.7254539509,-3.9713700807,0.1237928558\Bq,0
 ,2.3666980768,-4.2109109406,0.9136753782\\Version=ES64L-G09RevD.01\HF=
 -847.0032898\RMSD=7.613e-09\Dipole=0.0186808,0.0336671,0.0011595\Quadr
 upole=4.9072795,4.7288219,-9.6361014,-0.2850201,2.3867064,-0.880172\PG
 =C01 [X(C22H14)]\\@


 IN SO FAR AS QUANTUM MECHANICS IS CORRECT, CHEMICAL 
 QUESTIONS ARE PROBLEMS IN APPLIED MATHEMATICS.

                    -- EYRING, WALTER, & KIMBALL, 1944
 Job cpu time:       0 days  2 hours  3 minutes 42.8 seconds.
 File lengths (MBytes):  RWF=    184 Int=      0 D2E=      0 Chk=     19 Scr=      1
 Normal termination of Gaussian 09 at Fri Aug 14 17:28:28 2020.

real	15m45.857s
user	123m40.902s
sys	0m1.929s
