 Entering Gaussian System, Link 0=g09
 Initial command:
 /share/programs/GAUSSIAN/64/g09/l1.exe "/scratch/yannick.28375/Gau-23498.inp" -scrdir="/scratch/yannick.28375/"
 Entering Link 1 = /share/programs/GAUSSIAN/64/g09/l1.exe PID=     23559.
  
 Copyright (c) 1988,1990,1992,1993,1995,1998,2003,2009,2013,
            Gaussian, Inc.  All Rights Reserved.
  
 This is part of the Gaussian(R) 09 program.  It is based on
 the Gaussian(R) 03 system (copyright 2003, Gaussian, Inc.),
 the Gaussian(R) 98 system (copyright 1998, Gaussian, Inc.),
 the Gaussian(R) 94 system (copyright 1995, Gaussian, Inc.),
 the Gaussian 92(TM) system (copyright 1992, Gaussian, Inc.),
 the Gaussian 90(TM) system (copyright 1990, Gaussian, Inc.),
 the Gaussian 88(TM) system (copyright 1988, Gaussian, Inc.),
 the Gaussian 86(TM) system (copyright 1986, Carnegie Mellon
 University), and the Gaussian 82(TM) system (copyright 1983,
 Carnegie Mellon University). Gaussian is a federally registered
 trademark of Gaussian, Inc.
  
 This software contains proprietary and confidential information,
 including trade secrets, belonging to Gaussian, Inc.
  
 This software is provided under written license and may be
 used, copied, transmitted, or stored only in accord with that
 written license.
  
 The following legend is applicable only to US Government
 contracts under FAR:
  
                    RESTRICTED RIGHTS LEGEND
  
 Use, reproduction and disclosure by the US Government is
 subject to restrictions as set forth in subparagraphs (a)
 and (c) of the Commercial Computer Software - Restricted
 Rights clause in FAR 52.227-19.
  
 Gaussian, Inc.
 340 Quinnipiac St., Bldg. 40, Wallingford CT 06492
  
  
 ---------------------------------------------------------------
 Warning -- This program may not be used in any manner that
 competes with the business of Gaussian, Inc. or will provide
 assistance to any competitor of Gaussian, Inc.  The licensee
 of this program is prohibited from giving any competitor of
 Gaussian, Inc. access to this program.  By using this program,
 the user acknowledges that Gaussian, Inc. is engaged in the
 business of creating and licensing software in the field of
 computational chemistry and represents and warrants to the
 licensee that it is not a competitor of Gaussian, Inc. and that
 it will not use this program in any manner prohibited above.
 ---------------------------------------------------------------
  

 Cite this work as:
 Gaussian 09, Revision D.01,
 M. J. Frisch, G. W. Trucks, H. B. Schlegel, G. E. Scuseria, 
 M. A. Robb, J. R. Cheeseman, G. Scalmani, V. Barone, B. Mennucci, 
 G. A. Petersson, H. Nakatsuji, M. Caricato, X. Li, H. P. Hratchian, 
 A. F. Izmaylov, J. Bloino, G. Zheng, J. L. Sonnenberg, M. Hada, 
 M. Ehara, K. Toyota, R. Fukuda, J. Hasegawa, M. Ishida, T. Nakajima, 
 Y. Honda, O. Kitao, H. Nakai, T. Vreven, J. A. Montgomery, Jr., 
 J. E. Peralta, F. Ogliaro, M. Bearpark, J. J. Heyd, E. Brothers, 
 K. N. Kudin, V. N. Staroverov, T. Keith, R. Kobayashi, J. Normand, 
 K. Raghavachari, A. Rendell, J. C. Burant, S. S. Iyengar, J. Tomasi, 
 M. Cossi, N. Rega, J. M. Millam, M. Klene, J. E. Knox, J. B. Cross, 
 V. Bakken, C. Adamo, J. Jaramillo, R. Gomperts, R. E. Stratmann, 
 O. Yazyev, A. J. Austin, R. Cammi, C. Pomelli, J. W. Ochterski, 
 R. L. Martin, K. Morokuma, V. G. Zakrzewski, G. A. Voth, 
 P. Salvador, J. J. Dannenberg, S. Dapprich, A. D. Daniels, 
 O. Farkas, J. B. Foresman, J. V. Ortiz, J. Cioslowski, 
 and D. J. Fox, Gaussian, Inc., Wallingford CT, 2013.
 
 ******************************************
 Gaussian 09:  ES64L-G09RevD.01 24-Apr-2013
                14-Aug-2020 
 ******************************************
 %nproc=8
 Will use up to    8 processors via shared memory.
 %mem=1000MB
 ----------------------------------------
 # rb3lyp/6-311+g** NMR geom=connectivity
 ----------------------------------------
 1/38=1,57=2/1;
 2/12=2,17=6,18=5,40=1/2;
 3/5=4,6=6,7=111,11=2,16=1,25=1,30=1,74=-5,116=1/1,2,8,3;
 4//1;
 5/5=2,38=5/2;
 8/6=1,10=90,11=11/1;
 10/13=100,45=16/2;
 6/7=2,8=2,9=2,10=2,28=1/1;
 99/9=1/99;
 -----
 Title
 -----
 Symbolic Z-matrix:
 Charge =  0 Multiplicity = 1
 C                    -4.05006  -0.57719   0.81367 
 H                    -5.02638  -1.00827   1.00248 
 C                    -3.93816   0.66178   0.24009 
 H                    -4.82524   1.23389  -0.01113 
 C                    -2.67684   1.24332   0.00576 
 C                    -1.49741   0.50515   0.28483 
 C                    -1.65083  -0.73387   0.9404 
 H                    -0.77136  -1.2731    1.26338 
 C                    -2.88985  -1.2624    1.19943 
 H                    -2.96837  -2.21246   1.71527 
 C                    -2.57732   2.59637  -0.41929 
 H                    -3.48707   3.14122  -0.64741 
 C                    -1.37419   3.21479  -0.4364 
 H                    -1.29973   4.2742   -0.65781 
 C                    -0.17195   2.49941  -0.17346 
 C                    -0.20439   1.10184   0.01927 
 C                     1.05135   3.20426  -0.06762 
 H                     1.04273   4.28195  -0.1897 
 C                     2.19421   2.54874   0.25796 
 H                     3.11685   3.09128   0.43347 
 C                     2.22165   1.13366   0.2935 
 C                     1.04869   0.39455   0.03024 
 C                     3.44834   0.46146   0.55739 
 H                     4.30958   1.06061   0.83348 
 C                     3.54273  -0.88559   0.47495 
 H                     4.47315  -1.39397   0.70388 
 C                     2.44901  -1.64744  -0.01963 
 C                     1.21507  -1.00573  -0.30136 
 C                     0.25311  -1.74344  -1.02166 
 H                    -0.65414  -1.25351  -1.34628 
 C                     0.44942  -3.06286  -1.34138 
 H                    -0.30832  -3.59443  -1.90541 
 C                     1.62517  -3.7208   -0.95525 
 H                     1.767    -4.76874  -1.1927 
 C                     2.61099  -3.01442  -0.31831 
 H                     3.55256  -3.49028  -0.06464 
 Bq                    3.69653  -1.81406   0.83352 
 Bq                    3.56814  -1.8852    1.31149 
 Bq                    3.524    -1.40451   1.47578 
 Bq                    3.57536  -1.37606   1.2846 
 Bq                    3.49832  -1.41874   1.57138 
 Bq                    3.60104  -1.36183   1.189 
 Bq                    3.47264  -1.43297   1.66697 
 Bq                    3.62672  -1.3476    1.09341 
 Bq                    3.44696  -1.4472    1.76256 
 Bq                    3.6524   -1.33337   0.99781 
 Bq                    3.42129  -1.46142   1.85816 
 Bq                    3.67807  -1.31915   0.90222 
 Bq                    3.54968  -1.39029   1.38019 
 Bq                    3.50555  -0.9096    1.54449 
 Bq                    3.5569   -0.88114   1.3533 
 Bq                    3.47987  -0.92383   1.64008 
 Bq                    3.58258  -0.86692   1.2577 
 Bq                    3.45419  -0.93805   1.73567 
 Bq                    3.60826  -0.85269   1.16211 
 Bq                    3.42851  -0.95228   1.83127 
 Bq                    3.63394  -0.83846   1.06652 
 Bq                    3.40283  -0.96651   1.92686 
 Bq                    3.65962  -0.82423   0.97092 
 Bq                    3.53122  -0.89537   1.44889 
 Bq                    3.48709  -0.41469   1.61319 
 Bq                    3.53845  -0.38623   1.422 
 Bq                    3.46141  -0.42891   1.70878 
 Bq                    3.56413  -0.372     1.32641 
 Bq                    3.43573  -0.44314   1.80438 
 Bq                    3.58981  -0.35778   1.23081 
 Bq                    3.41005  -0.45737   1.89997 
 Bq                    3.61549  -0.34355   1.13522 
 Bq                    3.38438  -0.4716    1.99556 
 Bq                    3.64116  -0.32932   1.03963 
 Bq                    3.51277  -0.40046   1.51759 
 Bq                    3.46864   0.08023   1.68189 
 Bq                    3.51999   0.10868   1.4907 
 Bq                    3.44296   0.066     1.77748 
 Bq                    3.54567   0.12291   1.39511 
 Bq                    3.41728   0.05177   1.87308 
 Bq                    3.57135   0.13714   1.29952 
 Bq                    3.3916    0.03754   1.96867 
 Bq                    3.59703   0.15137   1.20392 
 Bq                    3.36592   0.02332   2.06427 
 Bq                    3.62271   0.16559   1.10833 
 Bq                    3.49431   0.09446   1.5863 
 Bq                    3.45018   0.57514   1.75059 
 Bq                    3.50154   0.6036    1.55941 
 Bq                    3.4245    0.56091   1.84619 
 Bq                    3.52722   0.61782   1.46381 
 Bq                    3.39882   0.54669   1.94178 
 Bq                    3.5529    0.63205   1.36822 
 Bq                    3.37314   0.53246   2.03738 
 Bq                    3.57857   0.64628   1.27262 
 Bq                    3.34746   0.51823   2.13297 
 Bq                    3.60425   0.66051   1.17703 
 Bq                    3.47586   0.58937   1.655 
 Bq                    3.43172   1.07005   1.8193 
 Bq                    3.48308   1.09851   1.62811 
 Bq                    3.40605   1.05583   1.91489 
 Bq                    3.50876   1.11274   1.53252 
 Bq                    3.38037   1.0416    2.01048 
 Bq                    3.53444   1.12696   1.43692 
 Bq                    3.35469   1.02737   2.10608 
 Bq                    3.56012   1.14119   1.34133 
 Bq                    3.32901   1.01314   2.20167 
 Bq                    3.5858    1.15542   1.24573 
 Bq                    3.4574    1.08428   1.7237 
 Bq                    3.41327   1.56497   1.888 
 Bq                    3.46463   1.59342   1.69681 
 Bq                    3.38759   1.55074   1.98359 
 Bq                    3.49031   1.60765   1.60122 
 Bq                    3.36191   1.53651   2.07919 
 Bq                    3.51599   1.62188   1.50562 
 Bq                    3.33623   1.52228   2.17478 
 Bq                    3.54166   1.63611   1.41003 
 Bq                    3.31055   1.50806   2.27037 
 Bq                    3.56734   1.65033   1.31444 
 Bq                    3.43895   1.5792    1.79241 
 Bq                    3.39481   2.05988   1.9567 
 Bq                    3.44617   2.08834   1.76551 
 Bq                    3.36914   2.04565   2.0523 
 Bq                    3.47185   2.10256   1.66992 
 Bq                    3.34346   2.03143   2.14789 
 Bq                    3.49753   2.11679   1.57433 
 Bq                    3.31778   2.0172    2.24348 
 Bq                    3.52321   2.13102   1.47873 
 Bq                    3.2921    2.00297   2.33908 
 Bq                    3.54889   2.14525   1.38314 
 Bq                    3.42049   2.07411   1.86111 
 Bq                    4.06225  -2.88925   1.39939 
 Bq                    4.11361  -2.8608    1.2082 
 Bq                    4.03657  -2.90348   1.49498 
 Bq                    4.13928  -2.84657   1.11261 
 Bq                    4.01089  -2.91771   1.59058 
 Bq                    4.16496  -2.83234   1.01701 
 Bq                    3.98521  -2.93194   1.68617 
 Bq                    4.19064  -2.81812   0.92142 
 Bq                    3.95953  -2.94616   1.78176 
 Bq                    4.21632  -2.80389   0.82583 
 Bq                    4.08793  -2.87503   1.3038 
 Bq                    4.04379  -2.39434   1.46809 
 Bq                    4.09515  -2.36588   1.2769 
 Bq                    4.01811  -2.40857   1.56369 
 Bq                    4.12083  -2.35166   1.18131 
 Bq                    3.99244  -2.4228    1.65928 
 Bq                    4.14651  -2.33743   1.08572 
 Bq                    3.96676  -2.43702   1.75487 
 Bq                    4.17219  -2.3232    0.99012 
 Bq                    3.94108  -2.45125   1.85047 
 Bq                    4.19787  -2.30897   0.89453 
 Bq                    4.06947  -2.38011   1.3725 
 Bq                    4.02534  -1.89943   1.53679 
 Bq                    4.0767   -1.87097   1.34561 
 Bq                    3.99966  -1.91365   1.63239 
 Bq                    4.10237  -1.85674   1.25001 
 Bq                    3.97398  -1.92788   1.72798 
 Bq                    4.12805  -1.84252   1.15442 
 Bq                    3.9483   -1.94211   1.82358 
 Bq                    4.15373  -1.82829   1.05883 
 Bq                    3.92262  -1.95634   1.91917 
 Bq                    4.17941  -1.81406   0.96323 
 Bq                    4.05102  -1.8852    1.4412 
 Bq                    4.00688  -1.40451   1.6055 
 Bq                    4.05824  -1.37606   1.41431 
 Bq                    3.9812   -1.41874   1.70109 
 Bq                    4.08392  -1.36183   1.31872 
 Bq                    3.95552  -1.43297   1.79668 
 Bq                    4.1096   -1.3476    1.22312 
 Bq                    3.92985  -1.4472    1.89228 
 Bq                    4.13528  -1.33337   1.12753 
 Bq                    3.90417  -1.46142   1.98787 
 Bq                    4.16096  -1.31915   1.03193 
 Bq                    4.03256  -1.39029   1.5099 
 Bq                    3.98843  -0.9096    1.6742 
 Bq                    4.03978  -0.88114   1.48301 
 Bq                    3.96275  -0.92383   1.76979 
 Bq                    4.06546  -0.86692   1.38742 
 Bq                    3.93707  -0.93805   1.86539 
 Bq                    4.09114  -0.85269   1.29182 
 Bq                    3.91139  -0.95228   1.96098 
 Bq                    4.11682  -0.83846   1.19623 
 Bq                    3.88571  -0.96651   2.05657 
 Bq                    4.1425   -0.82423   1.10064 
 Bq                    4.01411  -0.89537   1.57861 
 Bq                    3.96997  -0.41469   1.7429 
 Bq                    4.02133  -0.38623   1.55171 
 Bq                    3.94429  -0.42891   1.8385 
 Bq                    4.04701  -0.372     1.45612 
 Bq                    3.91861  -0.44314   1.93409 
 Bq                    4.07269  -0.35778   1.36053 
 Bq                    3.89294  -0.45737   2.02968 
 Bq                    4.09837  -0.34355   1.26493 
 Bq                    3.86726  -0.4716    2.12528 
 Bq                    4.12405  -0.32932   1.16934 
 Bq                    3.99565  -0.40046   1.64731 
 Bq                    3.95152   0.08023   1.81161 
 Bq                    4.00287   0.10868   1.62042 
 Bq                    3.92584   0.066     1.9072 
 Bq                    4.02855   0.12291   1.52482 
 Bq                    3.90016   0.05177   2.00279 
 Bq                    4.05423   0.13714   1.42923 
 Bq                    3.87448   0.03754   2.09839 
 Bq                    4.07991   0.15137   1.33364 
 Bq                    3.8488    0.02332   2.19398 
 Bq                    4.10559   0.16559   1.23804 
 Bq                    3.9772    0.09446   1.71601 
 Bq                    3.93306   0.57514   1.88031 
 Bq                    3.98442   0.6036    1.68912 
 Bq                    3.90738   0.56091   1.9759 
 Bq                    4.0101    0.61782   1.59353 
 Bq                    3.8817    0.54669   2.0715 
 Bq                    4.03578   0.63205   1.49793 
 Bq                    3.85602   0.53246   2.16709 
 Bq                    4.06146   0.64628   1.40234 
 Bq                    3.83035   0.51823   2.26268 
 Bq                    4.08713   0.66051   1.30675 
 Bq                    3.95874   0.58937   1.78471 
 Bq                    3.91461   1.07005   1.94901 
 Bq                    3.96596   1.09851   1.75782 
 Bq                    3.88893   1.05583   2.0446 
 Bq                    3.99164   1.11274   1.66223 
 Bq                    3.86325   1.0416    2.1402 
 Bq                    4.01732   1.12696   1.56664 
 Bq                    3.83757   1.02737   2.23579 
 Bq                    4.043     1.14119   1.47104 
 Bq                    3.81189   1.01314   2.33139 
 Bq                    4.06868   1.15542   1.37545 
 Bq                    3.94029   1.08428   1.85342 
 Bq                    3.89615   1.56497   2.01771 
 Bq                    3.94751   1.59342   1.82653 
 Bq                    3.87047   1.55074   2.11331 
 Bq                    3.97319   1.60765   1.73093 
 Bq                    3.84479   1.53651   2.2089 
 Bq                    3.99887   1.62188   1.63534 
 Bq                    3.81911   1.52228   2.30449 
 Bq                    4.02455   1.63611   1.53974 
 Bq                    3.79344   1.50806   2.40009 
 Bq                    4.05022   1.65033   1.44415 
 Bq                    3.92183   1.5792    1.92212 
 
 Symmetry turned off:
 Cannot cope with ghost atoms or with translation vectors.
 Stoichiometry    C22H14
 Framework group  C1[X(C22H14)]
 NUMDOF-- NAT=    36 NAtoms=   236
 Deg. of freedom     0
 Full point group                 C1      NOp   1
                          Input orientation:                          
 ---------------------------------------------------------------------
 Center     Atomic      Atomic             Coordinates (Angstroms)
 Number     Number       Type             X           Y           Z
 ---------------------------------------------------------------------
      1          6           0       -4.050056   -0.577186    0.813671
      2          1           0       -5.026380   -1.008273    1.002476
      3          6           0       -3.938155    0.661780    0.240088
      4          1           0       -4.825242    1.233889   -0.011130
      5          6           0       -2.676841    1.243325    0.005758
      6          6           0       -1.497412    0.505153    0.284825
      7          6           0       -1.650833   -0.733873    0.940403
      8          1           0       -0.771365   -1.273097    1.263375
      9          6           0       -2.889855   -1.262404    1.199431
     10          1           0       -2.968371   -2.212456    1.715268
     11          6           0       -2.577319    2.596370   -0.419293
     12          1           0       -3.487073    3.141224   -0.647406
     13          6           0       -1.374190    3.214790   -0.436403
     14          1           0       -1.299732    4.274202   -0.657814
     15          6           0       -0.171949    2.499409   -0.173459
     16          6           0       -0.204392    1.101844    0.019269
     17          6           0        1.051349    3.204256   -0.067622
     18          1           0        1.042734    4.281950   -0.189700
     19          6           0        2.194209    2.548745    0.257958
     20          1           0        3.116853    3.091285    0.433473
     21          6           0        2.221647    1.133656    0.293499
     22          6           0        1.048693    0.394553    0.030241
     23          6           0        3.448336    0.461463    0.557394
     24          1           0        4.309579    1.060605    0.833485
     25          6           0        3.542735   -0.885593    0.474946
     26          1           0        4.473147   -1.393970    0.703882
     27          6           0        2.449005   -1.647445   -0.019632
     28          6           0        1.215070   -1.005726   -0.301357
     29          6           0        0.253111   -1.743444   -1.021659
     30          1           0       -0.654136   -1.253505   -1.346285
     31          6           0        0.449419   -3.062860   -1.341378
     32          1           0       -0.308316   -3.594431   -1.905406
     33          6           0        1.625173   -3.720797   -0.955254
     34          1           0        1.767005   -4.768740   -1.192702
     35          6           0        2.610987   -3.014418   -0.318305
     36          1           0        3.552561   -3.490281   -0.064637
     37          0           0        3.696530   -1.814061    0.833518
     38          0           0        3.568135   -1.885199    1.311487
     39          0           0        3.524001   -1.404513    1.475783
     40          0           0        3.575359   -1.376058    1.284595
     41          0           0        3.498322   -1.418741    1.571377
     42          0           0        3.601038   -1.361830    1.189002
     43          0           0        3.472644   -1.432968    1.666971
     44          0           0        3.626717   -1.347602    1.093408
     45          0           0        3.446965   -1.447196    1.762564
     46          0           0        3.652396   -1.333375    0.997814
     47          0           0        3.421286   -1.461424    1.858158
     48          0           0        3.678074   -1.319147    0.902220
     49          0           0        3.549680   -1.390285    1.380189
     50          0           0        3.505546   -0.909600    1.544486
     51          0           0        3.556904   -0.881144    1.353298
     52          0           0        3.479867   -0.923827    1.640080
     53          0           0        3.582583   -0.866917    1.257704
     54          0           0        3.454188   -0.938055    1.735673
     55          0           0        3.608261   -0.852689    1.162111
     56          0           0        3.428509   -0.952282    1.831267
     57          0           0        3.633940   -0.838461    1.066517
     58          0           0        3.402831   -0.966510    1.926861
     59          0           0        3.659619   -0.824234    0.970923
     60          0           0        3.531225   -0.895372    1.448892
     61          0           0        3.487091   -0.414686    1.613188
     62          0           0        3.538448   -0.386231    1.422001
     63          0           0        3.461412   -0.428914    1.708782
     64          0           0        3.564127   -0.372003    1.326407
     65          0           0        3.435733   -0.443141    1.804376
     66          0           0        3.589806   -0.357775    1.230813
     67          0           0        3.410054   -0.457369    1.899970
     68          0           0        3.615485   -0.343548    1.135220
     69          0           0        3.384375   -0.471597    1.995564
     70          0           0        3.641164   -0.329320    1.039626
     71          0           0        3.512770   -0.400458    1.517595
     72          0           0        3.468635    0.080227    1.681891
     73          0           0        3.519993    0.108683    1.490704
     74          0           0        3.442957    0.066000    1.777485
     75          0           0        3.545672    0.122910    1.395110
     76          0           0        3.417278    0.051772    1.873079
     77          0           0        3.571351    0.137138    1.299516
     78          0           0        3.391599    0.037544    1.968672
     79          0           0        3.597030    0.151366    1.203922
     80          0           0        3.365920    0.023317    2.064266
     81          0           0        3.622709    0.165593    1.108328
     82          0           0        3.494314    0.094455    1.586297
     83          0           0        3.450180    0.575141    1.750594
     84          0           0        3.501538    0.603596    1.559406
     85          0           0        3.424501    0.560913    1.846188
     86          0           0        3.527217    0.617824    1.463813
     87          0           0        3.398822    0.546686    1.941781
     88          0           0        3.552896    0.632052    1.368219
     89          0           0        3.373144    0.532458    2.037375
     90          0           0        3.578575    0.646279    1.272625
     91          0           0        3.347465    0.518230    2.132969
     92          0           0        3.604253    0.660507    1.177031
     93          0           0        3.475859    0.589369    1.655000
     94          0           0        3.431725    1.070054    1.819297
     95          0           0        3.483083    1.098510    1.628109
     96          0           0        3.406046    1.055827    1.914890
     97          0           0        3.508762    1.112737    1.532515
     98          0           0        3.380367    1.041599    2.010484
     99          0           0        3.534440    1.126965    1.436921
    100          0           0        3.354688    1.027371    2.106078
    101          0           0        3.560119    1.141193    1.341328
    102          0           0        3.329010    1.013144    2.201672
    103          0           0        3.585798    1.155420    1.245734
    104          0           0        3.457404    1.084282    1.723703
    105          0           0        3.413270    1.564968    1.887999
    106          0           0        3.464627    1.593423    1.696812
    107          0           0        3.387591    1.550740    1.983593
    108          0           0        3.490306    1.607651    1.601218
    109          0           0        3.361912    1.536513    2.079187
    110          0           0        3.515985    1.621878    1.505624
    111          0           0        3.336233    1.522285    2.174781
    112          0           0        3.541664    1.636106    1.410030
    113          0           0        3.310554    1.508057    2.270374
    114          0           0        3.567343    1.650334    1.314437
    115          0           0        3.438949    1.579195    1.792405
    116          0           0        3.394814    2.059881    1.956702
    117          0           0        3.446172    2.088337    1.765514
    118          0           0        3.369136    2.045654    2.052296
    119          0           0        3.471851    2.102564    1.669921
    120          0           0        3.343457    2.031426    2.147889
    121          0           0        3.497530    2.116792    1.574327
    122          0           0        3.317778    2.017198    2.243483
    123          0           0        3.523209    2.131020    1.478733
    124          0           0        3.292099    2.002971    2.339077
    125          0           0        3.548888    2.145247    1.383139
    126          0           0        3.420493    2.074109    1.861108
    127          0           0        4.062248   -2.889253    1.399389
    128          0           0        4.113606   -2.860798    1.208201
    129          0           0        4.036569   -2.903481    1.494983
    130          0           0        4.139285   -2.846570    1.112608
    131          0           0        4.010891   -2.917709    1.590576
    132          0           0        4.164964   -2.832343    1.017014
    133          0           0        3.985212   -2.931936    1.686170
    134          0           0        4.190643   -2.818115    0.921420
    135          0           0        3.959533   -2.946164    1.781764
    136          0           0        4.216321   -2.803887    0.825826
    137          0           0        4.087927   -2.875026    1.303795
    138          0           0        4.043793   -2.394340    1.468092
    139          0           0        4.095151   -2.365885    1.276904
    140          0           0        4.018114   -2.408568    1.563685
    141          0           0        4.120830   -2.351657    1.181310
    142          0           0        3.992435   -2.422795    1.659279
    143          0           0        4.146508   -2.337429    1.085716
    144          0           0        3.966756   -2.437023    1.754873
    145          0           0        4.172187   -2.323202    0.990123
    146          0           0        3.941078   -2.451251    1.850467
    147          0           0        4.197866   -2.308974    0.894529
    148          0           0        4.069472   -2.380112    1.372498
    149          0           0        4.025338   -1.899426    1.536794
    150          0           0        4.076695   -1.870971    1.345607
    151          0           0        3.999659   -1.913654    1.632388
    152          0           0        4.102374   -1.856743    1.250013
    153          0           0        3.973980   -1.927882    1.727982
    154          0           0        4.128053   -1.842516    1.154419
    155          0           0        3.948301   -1.942109    1.823576
    156          0           0        4.153732   -1.828288    1.058825
    157          0           0        3.922622   -1.956337    1.919169
    158          0           0        4.179411   -1.814061    0.963232
    159          0           0        4.051017   -1.885199    1.441200
    160          0           0        4.006882   -1.404513    1.605497
    161          0           0        4.058240   -1.376058    1.414309
    162          0           0        3.981204   -1.418741    1.701091
    163          0           0        4.083919   -1.361830    1.318716
    164          0           0        3.955525   -1.432968    1.796685
    165          0           0        4.109598   -1.347602    1.223122
    166          0           0        3.929846   -1.447196    1.892278
    167          0           0        4.135277   -1.333375    1.127528
    168          0           0        3.904167   -1.461424    1.987872
    169          0           0        4.160956   -1.319147    1.031934
    170          0           0        4.032561   -1.390285    1.509903
    171          0           0        3.988427   -0.909600    1.674200
    172          0           0        4.039785   -0.881144    1.483012
    173          0           0        3.962748   -0.923827    1.769793
    174          0           0        4.065464   -0.866917    1.387418
    175          0           0        3.937070   -0.938055    1.865387
    176          0           0        4.091143   -0.852689    1.291825
    177          0           0        3.911391   -0.952282    1.960981
    178          0           0        4.116822   -0.838461    1.196231
    179          0           0        3.885712   -0.966510    2.056575
    180          0           0        4.142500   -0.824234    1.100637
    181          0           0        4.014106   -0.895372    1.578606
    182          0           0        3.969972   -0.414686    1.742902
    183          0           0        4.021330   -0.386231    1.551715
    184          0           0        3.944293   -0.428914    1.838496
    185          0           0        4.047009   -0.372003    1.456121
    186          0           0        3.918614   -0.443141    1.934090
    187          0           0        4.072687   -0.357775    1.360527
    188          0           0        3.892935   -0.457369    2.029684
    189          0           0        4.098366   -0.343548    1.264933
    190          0           0        3.867257   -0.471597    2.125277
    191          0           0        4.124045   -0.329320    1.169340
    192          0           0        3.995651   -0.400458    1.647309
    193          0           0        3.951517    0.080227    1.811605
    194          0           0        4.002874    0.108683    1.620418
    195          0           0        3.925838    0.066000    1.907199
    196          0           0        4.028553    0.122910    1.524824
    197          0           0        3.900159    0.051772    2.002793
    198          0           0        4.054232    0.137138    1.429230
    199          0           0        3.874480    0.037544    2.098386
    200          0           0        4.079911    0.151366    1.333636
    201          0           0        3.848801    0.023317    2.193980
    202          0           0        4.105590    0.165593    1.238042
    203          0           0        3.977196    0.094455    1.716011
    204          0           0        3.933061    0.575141    1.880308
    205          0           0        3.984419    0.603596    1.689120
    206          0           0        3.907383    0.560913    1.975902
    207          0           0        4.010098    0.617824    1.593526
    208          0           0        3.881704    0.546686    2.071495
    209          0           0        4.035777    0.632052    1.497933
    210          0           0        3.856025    0.532458    2.167089
    211          0           0        4.061456    0.646279    1.402339
    212          0           0        3.830346    0.518230    2.262683
    213          0           0        4.087135    0.660507    1.306745
    214          0           0        3.958740    0.589369    1.784714
    215          0           0        3.914606    1.070054    1.949010
    216          0           0        3.965964    1.098510    1.757823
    217          0           0        3.888927    1.055827    2.044604
    218          0           0        3.991643    1.112737    1.662229
    219          0           0        3.863248    1.041599    2.140198
    220          0           0        4.017322    1.126965    1.566635
    221          0           0        3.837570    1.027371    2.235792
    222          0           0        4.043001    1.141193    1.471042
    223          0           0        3.811891    1.013144    2.331386
    224          0           0        4.068679    1.155420    1.375448
    225          0           0        3.940285    1.084282    1.853417
    226          0           0        3.896151    1.564968    2.017713
    227          0           0        3.947509    1.593423    1.826526
    228          0           0        3.870472    1.550740    2.113307
    229          0           0        3.973188    1.607651    1.730932
    230          0           0        3.844793    1.536513    2.208901
    231          0           0        3.998866    1.621878    1.635338
    232          0           0        3.819114    1.522285    2.304494
    233          0           0        4.024545    1.636106    1.539744
    234          0           0        3.793436    1.508057    2.400088
    235          0           0        4.050224    1.650334    1.444150
    236          0           0        3.921830    1.579195    1.922119
 ---------------------------------------------------------------------
 Rotational constants (GHZ):      0.4529074      0.2836956      0.1879557
 Standard basis: 6-311+G(d,p) (5D, 7F)
 Warning:  center  37 has no basis functions!
 Warning:  center  38 has no basis functions!
 Warning:  center  39 has no basis functions!
 Warning:  center  40 has no basis functions!
 Warning:  center  41 has no basis functions!
 Warning:  center  42 has no basis functions!
 Warning:  center  43 has no basis functions!
 Warning:  center  44 has no basis functions!
 Warning:  center  45 has no basis functions!
 Warning:  center  46 has no basis functions!
 Warning:  center  47 has no basis functions!
 Warning:  center  48 has no basis functions!
 Warning:  center  49 has no basis functions!
 Warning:  center  50 has no basis functions!
 Warning:  center  51 has no basis functions!
 Warning:  center  52 has no basis functions!
 Warning:  center  53 has no basis functions!
 Warning:  center  54 has no basis functions!
 Warning:  center  55 has no basis functions!
 Warning:  center  56 has no basis functions!
 Warning:  center  57 has no basis functions!
 Warning:  center  58 has no basis functions!
 Warning:  center  59 has no basis functions!
 Warning:  center  60 has no basis functions!
 Warning:  center  61 has no basis functions!
 Warning:  center  62 has no basis functions!
 Warning:  center  63 has no basis functions!
 Warning:  center  64 has no basis functions!
 Warning:  center  65 has no basis functions!
 Warning:  center  66 has no basis functions!
 Warning:  center  67 has no basis functions!
 Warning:  center  68 has no basis functions!
 Warning:  center  69 has no basis functions!
 Warning:  center  70 has no basis functions!
 Warning:  center  71 has no basis functions!
 Warning:  center  72 has no basis functions!
 Warning:  center  73 has no basis functions!
 Warning:  center  74 has no basis functions!
 Warning:  center  75 has no basis functions!
 Warning:  center  76 has no basis functions!
 Warning:  center  77 has no basis functions!
 Warning:  center  78 has no basis functions!
 Warning:  center  79 has no basis functions!
 Warning:  center  80 has no basis functions!
 Warning:  center  81 has no basis functions!
 Warning:  center  82 has no basis functions!
 Warning:  center  83 has no basis functions!
 Warning:  center  84 has no basis functions!
 Warning:  center  85 has no basis functions!
 Warning:  center  86 has no basis functions!
 Warning:  center  87 has no basis functions!
 Warning:  center  88 has no basis functions!
 Warning:  center  89 has no basis functions!
 Warning:  center  90 has no basis functions!
 Warning:  center  91 has no basis functions!
 Warning:  center  92 has no basis functions!
 Warning:  center  93 has no basis functions!
 Warning:  center  94 has no basis functions!
 Warning:  center  95 has no basis functions!
 Warning:  center  96 has no basis functions!
 Warning:  center  97 has no basis functions!
 Warning:  center  98 has no basis functions!
 Warning:  center  99 has no basis functions!
 Warning:  center 100 has no basis functions!
 Warning:  center 101 has no basis functions!
 Warning:  center 102 has no basis functions!
 Warning:  center 103 has no basis functions!
 Warning:  center 104 has no basis functions!
 Warning:  center 105 has no basis functions!
 Warning:  center 106 has no basis functions!
 Warning:  center 107 has no basis functions!
 Warning:  center 108 has no basis functions!
 Warning:  center 109 has no basis functions!
 Warning:  center 110 has no basis functions!
 Warning:  center 111 has no basis functions!
 Warning:  center 112 has no basis functions!
 Warning:  center 113 has no basis functions!
 Warning:  center 114 has no basis functions!
 Warning:  center 115 has no basis functions!
 Warning:  center 116 has no basis functions!
 Warning:  center 117 has no basis functions!
 Warning:  center 118 has no basis functions!
 Warning:  center 119 has no basis functions!
 Warning:  center 120 has no basis functions!
 Warning:  center 121 has no basis functions!
 Warning:  center 122 has no basis functions!
 Warning:  center 123 has no basis functions!
 Warning:  center 124 has no basis functions!
 Warning:  center 125 has no basis functions!
 Warning:  center 126 has no basis functions!
 Warning:  center 127 has no basis functions!
 Warning:  center 128 has no basis functions!
 Warning:  center 129 has no basis functions!
 Warning:  center 130 has no basis functions!
 Warning:  center 131 has no basis functions!
 Warning:  center 132 has no basis functions!
 Warning:  center 133 has no basis functions!
 Warning:  center 134 has no basis functions!
 Warning:  center 135 has no basis functions!
 Warning:  center 136 has no basis functions!
 Warning:  center 137 has no basis functions!
 Warning:  center 138 has no basis functions!
 Warning:  center 139 has no basis functions!
 Warning:  center 140 has no basis functions!
 Warning:  center 141 has no basis functions!
 Warning:  center 142 has no basis functions!
 Warning:  center 143 has no basis functions!
 Warning:  center 144 has no basis functions!
 Warning:  center 145 has no basis functions!
 Warning:  center 146 has no basis functions!
 Warning:  center 147 has no basis functions!
 Warning:  center 148 has no basis functions!
 Warning:  center 149 has no basis functions!
 Warning:  center 150 has no basis functions!
 Warning:  center 151 has no basis functions!
 Warning:  center 152 has no basis functions!
 Warning:  center 153 has no basis functions!
 Warning:  center 154 has no basis functions!
 Warning:  center 155 has no basis functions!
 Warning:  center 156 has no basis functions!
 Warning:  center 157 has no basis functions!
 Warning:  center 158 has no basis functions!
 Warning:  center 159 has no basis functions!
 Warning:  center 160 has no basis functions!
 Warning:  center 161 has no basis functions!
 Warning:  center 162 has no basis functions!
 Warning:  center 163 has no basis functions!
 Warning:  center 164 has no basis functions!
 Warning:  center 165 has no basis functions!
 Warning:  center 166 has no basis functions!
 Warning:  center 167 has no basis functions!
 Warning:  center 168 has no basis functions!
 Warning:  center 169 has no basis functions!
 Warning:  center 170 has no basis functions!
 Warning:  center 171 has no basis functions!
 Warning:  center 172 has no basis functions!
 Warning:  center 173 has no basis functions!
 Warning:  center 174 has no basis functions!
 Warning:  center 175 has no basis functions!
 Warning:  center 176 has no basis functions!
 Warning:  center 177 has no basis functions!
 Warning:  center 178 has no basis functions!
 Warning:  center 179 has no basis functions!
 Warning:  center 180 has no basis functions!
 Warning:  center 181 has no basis functions!
 Warning:  center 182 has no basis functions!
 Warning:  center 183 has no basis functions!
 Warning:  center 184 has no basis functions!
 Warning:  center 185 has no basis functions!
 Warning:  center 186 has no basis functions!
 Warning:  center 187 has no basis functions!
 Warning:  center 188 has no basis functions!
 Warning:  center 189 has no basis functions!
 Warning:  center 190 has no basis functions!
 Warning:  center 191 has no basis functions!
 Warning:  center 192 has no basis functions!
 Warning:  center 193 has no basis functions!
 Warning:  center 194 has no basis functions!
 Warning:  center 195 has no basis functions!
 Warning:  center 196 has no basis functions!
 Warning:  center 197 has no basis functions!
 Warning:  center 198 has no basis functions!
 Warning:  center 199 has no basis functions!
 Warning:  center 200 has no basis functions!
 Warning:  center 201 has no basis functions!
 Warning:  center 202 has no basis functions!
 Warning:  center 203 has no basis functions!
 Warning:  center 204 has no basis functions!
 Warning:  center 205 has no basis functions!
 Warning:  center 206 has no basis functions!
 Warning:  center 207 has no basis functions!
 Warning:  center 208 has no basis functions!
 Warning:  center 209 has no basis functions!
 Warning:  center 210 has no basis functions!
 Warning:  center 211 has no basis functions!
 Warning:  center 212 has no basis functions!
 Warning:  center 213 has no basis functions!
 Warning:  center 214 has no basis functions!
 Warning:  center 215 has no basis functions!
 Warning:  center 216 has no basis functions!
 Warning:  center 217 has no basis functions!
 Warning:  center 218 has no basis functions!
 Warning:  center 219 has no basis functions!
 Warning:  center 220 has no basis functions!
 Warning:  center 221 has no basis functions!
 Warning:  center 222 has no basis functions!
 Warning:  center 223 has no basis functions!
 Warning:  center 224 has no basis functions!
 Warning:  center 225 has no basis functions!
 Warning:  center 226 has no basis functions!
 Warning:  center 227 has no basis functions!
 Warning:  center 228 has no basis functions!
 Warning:  center 229 has no basis functions!
 Warning:  center 230 has no basis functions!
 Warning:  center 231 has no basis functions!
 Warning:  center 232 has no basis functions!
 Warning:  center 233 has no basis functions!
 Warning:  center 234 has no basis functions!
 Warning:  center 235 has no basis functions!
 Warning:  center 236 has no basis functions!
   568 basis functions,   904 primitive gaussians,   590 cartesian basis functions
    73 alpha electrons       73 beta electrons
       nuclear repulsion energy      1610.9176155625 Hartrees.
 NAtoms=  236 NActive=  236 NUniq=  236 SFac= 1.00D+00 NAtFMM=   60 NAOKFM=T Big=T
 Integral buffers will be    131072 words long.
 Raffenetti 2 integral format.
 Two-electron integral symmetry is turned off.
 One-electron integrals computed using PRISM.
 NBasis=   568 RedAO= T EigKep=  1.78D-06  NBF=   568
 NBsUse=   556 1.00D-06 EigRej=  9.09D-07 NBFU=   556
 ExpMin= 4.38D-02 ExpMax= 4.56D+03 ExpMxC= 6.82D+02 IAcc=2 IRadAn=         4 AccDes= 0.00D+00
 Harris functional with IExCor=  402 and IRadAn=       4 diagonalized for initial guess.
 HarFok:  IExCor=  402 AccDes= 0.00D+00 IRadAn=         4 IDoV= 1 UseB2=F ITyADJ=14
 ICtDFT=  3500011 ScaDFX=  1.000000  1.000000  1.000000  1.000000
 FoFCou: FMM=F IPFlag=           0 FMFlag=      100000 FMFlg1=        2001
         NFxFlg=           0 DoJE=T BraDBF=F KetDBF=T FulRan=T
         wScrn=  0.000000 ICntrl=     500 IOpCl=  0 I1Cent=   200000004 NGrid=           0
         NMat0=    1 NMatS0=      1 NMatT0=    0 NMatD0=    1 NMtDS0=    0 NMtDT0=    0
 Symmetry not used in FoFCou.
 Requested convergence on RMS density matrix=1.00D-08 within 128 cycles.
 Requested convergence on MAX density matrix=1.00D-06.
 Requested convergence on             energy=1.00D-06.
 No special actions if energy rises.
 SCF Done:  E(RB3LYP) =  -847.003289847     A.U. after   15 cycles
            NFock= 15  Conv=0.75D-08     -V/T= 2.0040
 DoSCS=F DFT=T ScalE2(SS,OS)=  1.000000  1.000000
 Range of M.O.s used for correlation:     1   556
 NBasis=   568 NAE=    73 NBE=    73 NFC=     0 NFV=     0
 NROrb=    556 NOA=    73 NOB=    73 NVA=   483 NVB=   483

 **** Warning!!: The largest alpha MO coefficient is  0.10971036D+03

          Differentiating once with respect to magnetic field using GIAOs.
          Electric field/nuclear overlap derivatives assumed to be zero.
 FoFCou: FMM=F IPFlag=           0 FMFlag=      100000 FMFlg1=        2001
         NFxFlg=           0 DoJE=F BraDBF=F KetDBF=T FulRan=T
         wScrn=  0.000000 ICntrl=    6100 IOpCl=  0 I1Cent=           7 NGrid=         236
         NMat0=    1 NMatS0=      1 NMatT0=    0 NMatD0=    1 NMtDS0=    0 NMtDT0=    0
 Symmetry not used in FoFCou.
 FoFJK:  IHMeth= 1 ICntrl=    6127 DoSepK=F KAlg= 0 I1Cent=   0 FoldK=F
 IRaf=         1 NMat=   1 IRICut=       1 DoRegI=T DoRafI=F ISym2E= 0.
          There are     3 degrees of freedom in the 1st order CPHF.  IDoFFX=0 NUNeed=     3.
      3 vectors produced by pass  0 Test12= 1.18D-12 3.33D-08 XBig12= 2.07D+03 9.18D+00.
 AX will form     3 AO Fock derivatives at one time.
      3 vectors produced by pass  1 Test12= 1.18D-12 3.33D-08 XBig12= 3.56D+00 8.03D-01.
      3 vectors produced by pass  2 Test12= 1.18D-12 3.33D-08 XBig12= 2.10D-02 6.92D-02.
      3 vectors produced by pass  3 Test12= 1.18D-12 3.33D-08 XBig12= 5.45D-05 1.89D-03.
      3 vectors produced by pass  4 Test12= 1.18D-12 3.33D-08 XBig12= 1.20D-07 7.79D-05.
      3 vectors produced by pass  5 Test12= 1.18D-12 3.33D-08 XBig12= 4.02D-10 4.73D-06.
      3 vectors produced by pass  6 Test12= 1.18D-12 3.33D-08 XBig12= 1.32D-12 2.61D-07.
 InvSVY:  IOpt=1 It=  1 EMax= 1.42D-14
 Solved reduced A of dimension    21 with     3 vectors.
 Calculating GIAO nuclear magnetic shielding tensors.
 SCF GIAO Magnetic shielding tensor (ppm):
      1  C    Isotropic =    53.8139   Anisotropy =   178.0260
   XX=   -41.4327   YX=   -32.3458   ZX=    10.0287
   XY=   -28.3572   YY=    59.0527   ZY=    55.1899
   XZ=    13.1759   YZ=    58.7550   ZZ=   143.8218
   Eigenvalues:   -53.8775    42.8214   172.4979
      2  H    Isotropic =    24.3095   Anisotropy =     4.8536
   XX=    25.5771   YX=    -1.0289   ZX=     0.5661
   XY=    -0.7431   YY=    26.1829   ZY=    -2.3306
   XZ=    -0.1707   YZ=    -2.4411   ZZ=    21.1687
   Eigenvalues:    20.2108    25.1725    27.5453
      3  C    Isotropic =    51.4055   Anisotropy =   157.8639
   XX=   -31.5399   YX=    38.5015   ZX=   -17.9316
   XY=    34.3519   YY=    49.9437   ZY=    49.6392
   XZ=    -9.8383   YZ=    44.6006   ZZ=   135.8127
   Eigenvalues:   -50.5747    48.1432   156.6481
      4  H    Isotropic =    23.8290   Anisotropy =     7.1838
   XX=    25.3635   YX=     1.8486   ZX=    -0.3559
   XY=     1.9656   YY=    26.4581   ZY=    -2.4103
   XZ=    -1.2941   YZ=    -2.6614   ZZ=    19.6654
   Eigenvalues:    18.8176    24.0511    28.6182
      5  C    Isotropic =    46.0697   Anisotropy =   207.6751
   XX=   -19.2123   YX=    -4.8852   ZX=    -1.6475
   XY=     2.8938   YY=    -2.9860   ZY=    66.5656
   XZ=     2.5356   YZ=    67.9144   ZZ=   160.4073
   Eigenvalues:   -27.2455   -19.0652   184.5197
      6  C    Isotropic =    47.5218   Anisotropy =   196.9389
   XX=   -28.1552   YX=    -2.7889   ZX=    12.0660
   XY=   -14.3886   YY=    21.2063   ZY=    74.2521
   XZ=   -18.6356   YZ=    61.1113   ZZ=   149.5144
   Eigenvalues:   -30.2925    -5.9564   178.8144
      7  C    Isotropic =    49.3915   Anisotropy =   179.8333
   XX=   -12.5211   YX=    28.7048   ZX=   -24.6745
   XY=    31.5123   YY=    29.7000   ZY=    77.7459
   XZ=   -40.0095   YZ=    65.3072   ZZ=   130.9956
   Eigenvalues:   -52.1299    31.0240   169.2804
      8  H    Isotropic =    23.1586   Anisotropy =    13.5525
   XX=    28.5711   YX=     1.5482   ZX=    -3.6986
   XY=     3.2466   YY=    22.7592   ZY=    -2.1157
   XZ=    -8.3753   YZ=    -1.0821   ZZ=    18.1456
   Eigenvalues:    15.3521    21.9301    32.1936
      9  C    Isotropic =    55.1460   Anisotropy =   174.7426
   XX=    46.7071   YX=    -2.6162   ZX=    -2.8420
   XY=     0.6223   YY=    -1.6258   ZY=    92.8272
   XZ=     0.5159   YZ=    95.6598   ZZ=   120.3568
   Eigenvalues:   -52.8932    46.6901   171.6411
     10  H    Isotropic =    24.6278   Anisotropy =     7.1815
   XX=    29.1040   YX=     0.1399   ZX=    -0.3694
   XY=     0.3642   YY=    23.4778   ZY=    -1.0805
   XZ=    -2.4493   YZ=    -2.9465   ZZ=    21.3016
   Eigenvalues:    19.9703    24.4977    29.4155
     11  C    Isotropic =    51.5607   Anisotropy =   151.2142
   XX=     2.1639   YX=    40.9287   ZX=   -26.0048
   XY=    49.9131   YY=    12.2331   ZY=    42.1342
   XZ=   -15.6145   YZ=    38.6614   ZZ=   140.2851
   Eigenvalues:   -48.1951    50.5071   152.3701
     12  H    Isotropic =    23.8537   Anisotropy =     7.3815
   XX=    25.9672   YX=     2.3738   ZX=    -0.2390
   XY=     2.4320   YY=    26.3975   ZY=    -1.8291
   XZ=     0.3529   YZ=    -1.7731   ZZ=    19.1964
   Eigenvalues:    18.7149    24.0714    28.7747
     13  C    Isotropic =    52.8653   Anisotropy =   147.4265
   XX=    51.2944   YX=    19.9221   ZX=   -13.4678
   XY=    11.5478   YY=   -34.0176   ZY=    42.5079
   XZ=    -9.2241   YZ=    40.0716   ZZ=   141.3192
   Eigenvalues:   -46.5152    53.9616   151.1497
     14  H    Isotropic =    24.0156   Anisotropy =     7.3485
   XX=    28.6644   YX=     0.6281   ZX=     1.0808
   XY=     0.5926   YY=    24.4325   ZY=    -1.0823
   XZ=     1.6846   YZ=    -0.3842   ZZ=    18.9500
   Eigenvalues:    18.6430    24.4892    28.9146
     15  C    Isotropic =    46.2221   Anisotropy =   203.9048
   XX=   -27.2215   YX=    -0.0442   ZX=   -28.9124
   XY=     4.6427   YY=   -10.5571   ZY=    28.3830
   XZ=   -10.2704   YZ=    26.7376   ZZ=   176.4448
   Eigenvalues:   -30.5512   -12.9411   182.1586
     16  C    Isotropic =    51.9375   Anisotropy =   188.2004
   XX=   -19.4441   YX=     5.5046   ZX=    15.7858
   XY=    -8.3874   YY=     2.4863   ZY=    22.9264
   XZ=   -50.6243   YZ=    23.3340   ZZ=   172.7704
   Eigenvalues:   -21.0294    -0.5625   177.4045
     17  C    Isotropic =    51.9482   Anisotropy =   149.1264
   XX=    50.7296   YX=   -23.9353   ZX=   -18.4207
   XY=   -16.7271   YY=   -41.8764   ZY=    17.8662
   XZ=   -14.3278   YZ=    11.4871   ZZ=   146.9915
   Eigenvalues:   -46.7796    51.2584   151.3658
     18  H    Isotropic =    24.0122   Anisotropy =     7.5163
   XX=    28.5811   YX=    -0.0866   ZX=     1.5071
   XY=    -0.2466   YY=    24.3342   ZY=    -0.7657
   XZ=     2.5088   YZ=    -1.5208   ZZ=    19.1214
   Eigenvalues:    18.5094    24.5041    29.0231
     19  C    Isotropic =    51.7356   Anisotropy =   148.5924
   XX=     2.4559   YX=   -45.6913   ZX=   -31.2531
   XY=   -53.4448   YY=     7.4698   ZY=    -1.8888
   XZ=   -23.5601   YZ=    -1.2765   ZZ=   145.2810
   Eigenvalues:   -46.9894    51.3989   150.7972
     20  H    Isotropic =    23.9071   Anisotropy =     7.6651
   XX=    25.5796   YX=    -2.0226   ZX=     1.4905
   XY=    -1.9998   YY=    27.3706   ZY=    -0.5164
   XZ=     2.7276   YZ=    -1.1179   ZZ=    18.7711
   Eigenvalues:    18.1643    24.5398    29.0172
     21  C    Isotropic =    45.9767   Anisotropy =   203.9316
   XX=   -16.2108   YX=    13.1802   ZX=   -44.5913
   XY=     6.5714   YY=   -20.6329   ZY=     0.0949
   XZ=   -28.8984   YZ=   -13.0883   ZZ=   174.7736
   Eigenvalues:   -30.5796   -13.4215   181.9311
     22  C    Isotropic =    52.0450   Anisotropy =   188.1157
   XX=    -0.0787   YX=     2.5023   ZX=   -16.3451
   XY=    18.9327   YY=   -14.4798   ZY=   -34.4335
   XZ=   -50.6032   YZ=    19.9104   ZZ=   170.6934
   Eigenvalues:   -20.7705    -0.5500   177.4554
     23  C    Isotropic =    53.2392   Anisotropy =   146.7412
   XX=   -22.0674   YX=   -32.0012   ZX=   -49.4857
   XY=   -23.2043   YY=    44.3661   ZY=   -15.6400
   XZ=   -43.8090   YZ=   -20.2525   ZZ=   137.4189
   Eigenvalues:   -45.6776    54.3286   151.0667
     24  H    Isotropic =    23.8249   Anisotropy =     7.5289
   XX=    25.1073   YX=    -1.7330   ZX=     1.5380
   XY=    -1.5944   YY=    28.0047   ZY=     0.0879
   XZ=     1.2557   YZ=    -0.8283   ZZ=    18.3628
   Eigenvalues:    18.0848    24.5458    28.8442
     25  C    Isotropic =    51.4969   Anisotropy =   150.1066
   XX=   -28.4915   YX=    33.9684   ZX=   -52.3137
   XY=    22.0311   YY=    46.6072   ZY=    -3.8075
   XZ=   -44.5594   YZ=   -10.6355   ZZ=   136.3748
   Eigenvalues:   -48.3857    51.3083   151.5679
     26  H    Isotropic =    23.7431   Anisotropy =     7.4052
   XX=    24.0663   YX=     1.1141   ZX=     1.9989
   XY=     0.9693   YY=    28.1000   ZY=     1.6568
   XZ=     2.0795   YZ=     0.8886   ZZ=    19.0630
   Eigenvalues:    18.2615    24.2880    28.6799
     27  C    Isotropic =    45.8108   Anisotropy =   207.2710
   XX=    -2.7702   YX=    13.7697   ZX=   -61.4651
   XY=     6.5593   YY=   -12.0335   ZY=   -41.6456
   XZ=   -62.6381   YZ=   -44.9232   ZZ=   152.2361
   Eigenvalues:   -28.0803   -18.4787   183.9915
     28  C    Isotropic =    47.8398   Anisotropy =   197.2870
   XX=    19.6900   YX=    14.4398   ZX=   -60.5682
   XY=    28.5650   YY=   -19.3566   ZY=   -56.7015
   XZ=   -63.1331   YZ=   -24.4782   ZZ=   143.1859
   Eigenvalues:   -30.5979    -5.2472   179.3644
     29  C    Isotropic =    49.3441   Anisotropy =   179.7793
   XX=    -3.4110   YX=    38.3775   ZX=   -80.8875
   XY=    36.1252   YY=    25.9805   ZY=   -23.7573
   XZ=   -78.1065   YZ=    -3.9802   ZZ=   125.4627
   Eigenvalues:   -51.6645    30.4997   169.1970
     30  H    Isotropic =    23.1387   Anisotropy =    13.3222
   XX=    22.4354   YX=    -0.7013   ZX=    -0.2375
   XY=    -2.1539   YY=    28.3546   ZY=     4.5555
   XZ=    -3.4181   YZ=     8.3231   ZZ=    18.6259
   Eigenvalues:    15.2751    22.1208    32.0201
     31  C    Isotropic =    55.4410   Anisotropy =   174.9390
   XX=    17.1871   YX=   -14.0890   ZX=   -84.0024
   XY=   -17.9030   YY=    37.4745   ZY=   -50.3662
   XZ=   -84.6557   YZ=   -54.8325   ZZ=   111.6615
   Eigenvalues:   -51.9248    46.1808   172.0670
     32  H    Isotropic =    24.5337   Anisotropy =     7.2554
   XX=    24.6185   YX=    -2.5264   ZX=     0.7632
   XY=    -2.7385   YY=    27.4630   ZY=     1.0335
   XZ=     1.1913   YZ=     3.7573   ZZ=    21.5194
   Eigenvalues:    19.8987    24.3316    29.3706
     33  C    Isotropic =    53.1814   Anisotropy =   179.0596
   XX=    60.9231   YX=    35.2256   ZX=   -42.9515
   XY=    32.0226   YY=   -38.1801   ZY=   -45.5652
   XZ=   -44.2248   YZ=   -50.7831   ZZ=   136.8014
   Eigenvalues:   -55.1197    42.1095   172.5545
     34  H    Isotropic =    24.2825   Anisotropy =     5.1861
   XX=    26.7643   YX=    -0.0934   ZX=     2.5955
   XY=    -0.2993   YY=    24.8157   ZY=     0.8589
   XZ=     2.3715   YZ=     1.4580   ZZ=    21.2676
   Eigenvalues:    20.0339    25.0737    27.7399
     35  C    Isotropic =    51.5295   Anisotropy =   155.1748
   XX=    -0.5131   YX=    52.5760   ZX=   -52.1551
   XY=    55.6135   YY=    25.1843   ZY=   -14.2643
   XZ=   -45.7255   YZ=   -17.1625   ZZ=   129.9171
   Eigenvalues:   -48.3147    47.9237   154.9793
     36  H    Isotropic =    23.8384   Anisotropy =     7.3073
   XX=    24.2302   YX=     1.4459   ZX=     2.1759
   XY=     1.2147   YY=    27.1572   ZY=     2.0665
   XZ=     1.6853   YZ=     2.7775   ZZ=    20.1277
   Eigenvalues:    18.9464    23.8588    28.7099
     37  Bq   Isotropic =     3.8717   Anisotropy =    14.7387
   XX=     8.1996   YX=     7.0599   ZX=     4.2452
   XY=     1.2638   YY=     9.2148   ZY=     1.9650
   XZ=     9.7534   YZ=    -5.0515   ZZ=    -5.7994
   Eigenvalues:    -9.2075     7.1251    13.6975
     38  Bq   Isotropic =     1.6982   Anisotropy =    11.5110
   XX=     0.1357   YX=     3.2297   ZX=     1.6105
   XY=    -0.8192   YY=     4.9463   ZY=    -2.0407
   XZ=    10.7012   YZ=    -9.0400   ZZ=     0.0124
   Eigenvalues:    -7.9519     3.6742     9.3721
     39  Bq   Isotropic =     6.1124   Anisotropy =    14.6400
   XX=     1.9897   YX=     2.0982   ZX=    -1.6231
   XY=    -1.3817   YY=     5.4589   ZY=    -2.4975
   XZ=    11.2944   YZ=    -9.4699   ZZ=    10.8888
   Eigenvalues:    -1.5946     4.0595    15.8724
     40  Bq   Isotropic =     9.1450   Anisotropy =    10.8153
   XX=     6.7660   YX=     3.2909   ZX=    -2.9625
   XY=    -1.2102   YY=     8.7737   ZY=    -0.7171
   XZ=    11.0378   YZ=    -9.2391   ZZ=    11.8953
   Eigenvalues:     2.4004     8.6794    16.3552
     41  Bq   Isotropic =     4.9542   Anisotropy =    15.4057
   XX=     0.3733   YX=     1.7806   ZX=    -1.2647
   XY=    -1.3590   YY=     4.0812   ZY=    -2.8739
   XZ=    11.0348   YZ=    -9.2243   ZZ=    10.4081
   Eigenvalues:    -2.8520     2.4899    15.2247
     42  Bq   Isotropic =    10.9149   Anisotropy =     7.3010
   XX=     9.8991   YX=     4.4401   ZX=    -4.0878
   XY=    -0.8430   YY=    10.4136   ZY=     0.9226
   XZ=    10.3000   YZ=    -8.5634   ZZ=    12.4321
   Eigenvalues:     5.0897    11.8727    15.7823
     43  Bq   Isotropic =     4.0269   Anisotropy =    15.6741
   XX=    -0.8089   YX=     1.5499   ZX=    -1.0354
   XY=    -1.3157   YY=     2.9441   ZY=    -3.0416
   XZ=    10.6283   YZ=    -8.8453   ZZ=     9.9456
   Eigenvalues:    -3.6970     1.3015    14.4763
     44  Bq   Isotropic =    12.6356   Anisotropy =     4.5224
   XX=    13.2732   YX=     6.2631   ZX=    -5.5951
   XY=    -0.0644   YY=    11.6006   ZY=     3.1771
   XZ=     8.9949   YZ=    -7.3807   ZZ=    13.0329
   Eigenvalues:     7.8246    14.4316    15.6505
     45  Bq   Isotropic =     3.2997   Anisotropy =    15.5960
   XX=    -1.6378   YX=     1.3697   ZX=    -0.8938
   XY=    -1.2660   YY=     2.0338   ZY=    -3.0732
   XZ=    10.1332   YZ=    -8.3918   ZZ=     9.5031
   Eigenvalues:    -4.2139     0.4160    13.6970
     46  Bq   Isotropic =    13.9707   Anisotropy =     8.7338
   XX=    16.3681   YX=     9.0831   ZX=    -7.4446
   XY=     1.3992   YY=    11.7703   ZY=     5.9766
   XZ=     7.0614   YZ=    -5.6530   ZZ=    13.7736
   Eigenvalues:     8.3354    13.7834    19.7932
     47  Bq   Isotropic =     2.7364   Anisotropy =    15.2867
   XX=    -2.1917   YX=     1.2197   ZX=    -0.8099
   XY=    -1.2153   YY=     1.3196   ZY=    -3.0206
   XZ=     9.5916   YZ=    -7.9068   ZZ=     9.0813
   Eigenvalues:    -4.4834    -0.2349    12.9276
     48  Bq   Isotropic =    14.4558   Anisotropy =    14.0044
   XX=    18.3453   YX=    13.2148   ZX=    -9.3710
   XY=     3.8738   YY=    10.2641   ZY=     8.9564
   XZ=     4.6083   YZ=    -3.4814   ZZ=    14.7581
   Eigenvalues:     3.6893    15.8861    23.7921
     49  Bq   Isotropic =     7.5161   Anisotropy =    13.1859
   XX=     4.1101   YX=     2.5664   ZX=    -2.1660
   XY=    -1.3525   YY=     7.0537   ZY=    -1.8171
   XZ=    11.3289   YZ=    -9.5059   ZZ=    11.3847
   Eigenvalues:     0.1467     6.0949    16.3067
     50  Bq   Isotropic =     9.4931   Anisotropy =    18.1009
   XX=     3.4944   YX=    -0.5107   ZX=    -1.9248
   XY=    -1.9501   YY=     6.9781   ZY=    -3.4757
   XZ=    13.3844   YZ=    -5.7784   ZZ=    18.0068
   Eigenvalues:     1.4753     5.4436    21.5604
     51  Bq   Isotropic =    13.9221   Anisotropy =    15.3425
   XX=     9.2252   YX=    -1.5072   ZX=    -3.4576
   XY=    -2.4516   YY=    12.7303   ZY=    -3.8934
   XZ=    14.0749   YZ=    -5.1583   ZZ=    19.8109
   Eigenvalues:     7.0195    10.5965    24.1505
     52  Bq   Isotropic =     7.7391   Anisotropy =    18.4862
   XX=     1.4602   YX=    -0.1573   ZX=    -1.6067
   XY=    -1.7494   YY=     4.9135   ZY=    -3.3056
   XZ=    12.6945   YZ=    -5.8564   ZZ=    16.8437
   Eigenvalues:    -0.3896     3.5437    20.0633
     53  Bq   Isotropic =    16.3020   Anisotropy =    12.9017
   XX=    12.5628   YX=    -2.1225   ZX=    -5.1379
   XY=    -2.7625   YY=    16.2989   ZY=    -4.2239
   XZ=    13.6393   YZ=    -4.5944   ZZ=    20.0442
   Eigenvalues:    10.5931    13.4097    24.9031
     54  Bq   Isotropic =     6.3131   Anisotropy =    18.4110
   XX=    -0.0463   YX=     0.1083   ZX=    -1.4208
   XY=    -1.5750   YY=     3.3209   ZY=    -3.1407
   XZ=    11.9286   YZ=    -5.8179   ZZ=    15.6645
   Eigenvalues:    -1.7315     2.0835    18.5871
     55  Bq   Isotropic =    18.2144   Anisotropy =    10.6047
   XX=    15.3336   YX=    -2.7259   ZX=    -7.9408
   XY=    -3.1199   YY=    19.8765   ZY=    -4.7469
   XZ=    12.1817   YZ=    -3.9193   ZZ=    19.4331
   Eigenvalues:    13.9033    15.4557    25.2842
     56  Bq   Isotropic =     5.1781   Anisotropy =    18.0167
   XX=    -1.1116   YX=     0.2986   ZX=    -1.3057
   XY=    -1.4227   YY=     2.1167   ZY=    -2.9780
   XZ=    11.1461   YZ=    -5.6935   ZZ=    14.5293
   Eigenvalues:    -2.6470     0.9921    17.1893
     57  Bq   Isotropic =    18.7296   Anisotropy =    10.4355
   XX=    15.9461   YX=    -3.1460   ZX=   -12.3778
   XY=    -3.5492   YY=    22.5949   ZY=    -5.5839
   XZ=     9.1837   YZ=    -3.2848   ZZ=    17.6478
   Eigenvalues:    12.2428    18.2594    25.6866
     58  Bq   Isotropic =     4.2857   Anisotropy =    17.4173
   XX=    -1.8306   YX=     0.4267   ZX=    -1.2276
   XY=    -1.2890   YY=     1.2187   ZY=    -2.8179
   XZ=    10.3822   YZ=    -5.5108   ZZ=    13.4690
   Eigenvalues:    -3.2328     0.1927    15.8973
     59  Bq   Isotropic =    16.4375   Anisotropy =    13.2224
   XX=    11.7566   YX=    -3.0930   ZX=   -18.8359
   XY=    -4.1435   YY=    23.0355   ZY=    -6.8154
   XZ=     4.1820   YZ=    -2.9174   ZZ=    14.5204
   Eigenvalues:     3.8605    20.1995    25.2525
     60  Bq   Isotropic =    11.5780   Anisotropy =    17.0970
   XX=     6.1026   YX=    -0.9611   ZX=    -2.4820
   XY=    -2.1823   YY=     9.5806   ZY=    -3.6624
   XZ=    13.8995   YZ=    -5.5534   ZZ=    19.0508
   Eigenvalues:     3.9392     7.8187    22.9760
     61  Bq   Isotropic =     9.6911   Anisotropy =    20.5999
   XX=     3.4286   YX=    -0.5597   ZX=     0.1910
   XY=    -1.9650   YY=     5.3675   ZY=    -2.5391
   XZ=    14.4674   YZ=    -2.2921   ZZ=    20.2771
   Eigenvalues:     0.6609     4.9879    23.4244
     62  Bq   Isotropic =    14.4622   Anisotropy =    20.0929
   XX=    10.2789   YX=    -1.1682   ZX=     1.0911
   XY=    -2.1122   YY=     9.8849   ZY=    -2.8885
   XZ=    15.7235   YZ=    -2.1566   ZZ=    23.2229
   Eigenvalues:     6.1030     9.4262    27.8575
     63  Bq   Isotropic =     7.9331   Anisotropy =    20.3020
   XX=     1.2533   YX=    -0.3017   ZX=    -0.1839
   XY=    -1.8258   YY=     3.7123   ZY=    -2.4128
   XZ=    13.5499   YZ=    -2.3665   ZZ=    18.8338
   Eigenvalues:    -1.0123     3.3439    21.4678
     64  Bq   Isotropic =    17.4660   Anisotropy =    19.2369
   XX=    15.0677   YX=    -1.5006   ZX=     1.4928
   XY=    -2.0980   YY=    12.6795   ZY=    -3.1476
   XZ=    15.7246   YZ=    -2.1451   ZZ=    24.6508
   Eigenvalues:     9.9867    12.1207    30.2906
     65  Bq   Isotropic =     6.5313   Anisotropy =    19.7425
   XX=    -0.2767   YX=    -0.0828   ZX=    -0.4781
   XY=    -1.6634   YY=     2.4159   ZY=    -2.3019
   XZ=    12.5919   YZ=    -2.4274   ZZ=    17.4549
   Eigenvalues:    -2.1525     2.0535    19.6930
     66  Bq   Isotropic =    20.7512   Anisotropy =    18.0808
   XX=    20.5940   YX=    -1.8374   ZX=     1.7211
   XY=    -2.0271   YY=    15.6374   ZY=    -3.4841
   XZ=    15.0343   YZ=    -2.2207   ZZ=    26.0222
   Eigenvalues:    14.4749    14.9737    32.8051
     67  Bq   Isotropic =     5.4222   Anisotropy =    19.0094
   XX=    -1.3143   YX=     0.0948   ZX=    -0.6933
   XY=    -1.4919   YY=     1.4191   ZY=    -2.1994
   XZ=    11.6572   YZ=    -2.4697   ZZ=    16.1618
   Eigenvalues:    -2.8917     1.0632    18.0951
     68  Bq   Isotropic =    24.0946   Anisotropy =    16.8001
   XX=    26.4360   YX=    -2.1664   ZX=     1.6483
   XY=    -1.9233   YY=    18.4786   ZY=    -3.8881
   XZ=    13.4765   YZ=    -2.4232   ZZ=    27.3690
   Eigenvalues:    17.4366    19.5524    35.2947
     69  Bq   Isotropic =     4.5455   Anisotropy =    18.1760
   XX=    -1.9918   YX=     0.2323   ZX=    -0.8401
   XY=    -1.3219   YY=     0.6626   ZY=    -2.1012
   XZ=    10.7795   YZ=    -2.4921   ZZ=    14.9659
   Eigenvalues:    -3.3425     0.3162    16.6629
     70  Bq   Isotropic =    27.1849   Anisotropy =    15.5537
   XX=    31.9132   YX=    -2.4707   ZX=     1.1906
   XY=    -1.8354   YY=    20.8535   ZY=    -4.2964
   XZ=    11.0133   YZ=    -2.7725   ZZ=    28.7881
   Eigenvalues:    19.5044    24.4963    37.5540
     71  Bq   Isotropic =    11.8594   Anisotropy =    20.5496
   XX=     6.4009   YX=    -0.8513   ZX=     0.6306
   XY=    -2.0652   YY=     7.4243   ZY=    -2.6922
   XZ=    15.2412   YZ=    -2.2156   ZZ=    21.7531
   Eigenvalues:     2.9997     7.0194    25.5591
     72  Bq   Isotropic =     8.4448   Anisotropy =    19.4021
   XX=     1.9349   YX=     0.7220   ZX=    -0.1652
   XY=    -1.7121   YY=     4.5586   ZY=    -0.1331
   XZ=    14.1981   YZ=     1.1664   ZZ=    18.8409
   Eigenvalues:    -0.6763     4.6311    21.3795
     73  Bq   Isotropic =    12.5443   Anisotropy =    18.2162
   XX=     7.3000   YX=     1.5300   ZX=    -0.1202
   XY=    -1.5338   YY=     9.2264   ZY=     1.1847
   XZ=    15.6357   YZ=     1.5503   ZZ=    21.1066
   Eigenvalues:     3.7603     9.1843    24.6885
     74  Bq   Isotropic =     6.9127   Anisotropy =    19.2719
   XX=     0.1817   YX=     0.5527   ZX=    -0.3278
   XY=    -1.6483   YY=     2.9408   ZY=    -0.5139
   XZ=    13.2886   YZ=     0.9716   ZZ=    17.6156
   Eigenvalues:    -2.0337     3.0111    19.7606
     75  Bq   Isotropic =    15.0391   Anisotropy =    16.6728
   XX=    10.8700   YX=     2.3180   ZX=    -0.5111
   XY=    -1.1912   YY=    12.3122   ZY=     2.2322
   XZ=    15.8449   YZ=     1.7456   ZZ=    21.9352
   Eigenvalues:     6.9164    12.0467    26.1543
     76  Bq   Isotropic =     5.6885   Anisotropy =    18.8363
   XX=    -1.0613   YX=     0.4674   ZX=    -0.4931
   XY=    -1.5293   YY=     1.7098   ZY=    -0.7690
   XZ=    12.3731   YZ=     0.7757   ZZ=    16.4170
   Eigenvalues:    -2.9445     1.7639    18.2460
     77  Bq   Isotropic =    17.6022   Anisotropy =    14.5589
   XX=    14.6829   YX=     3.4770   ZX=    -1.4885
   XY=    -0.5831   YY=    15.7550   ZY=     3.6111
   XZ=    15.3726   YZ=     1.9473   ZZ=    22.3688
   Eigenvalues:    10.5852    14.9134    27.3081
     78  Bq   Isotropic =     4.7212   Anisotropy =    18.2055
   XX=    -1.9043   YX=     0.4312   ZX=    -0.6342
   XY=    -1.3797   YY=     0.7880   ZY=    -0.9321
   XZ=    11.4963   YZ=     0.5822   ZZ=    15.2801
   Eigenvalues:    -3.5154     0.8209    16.8582
     79  Bq   Isotropic =    19.8196   Anisotropy =    12.5249
   XX=    18.0058   YX=     5.0722   ZX=    -3.3796
   XY=     0.3890   YY=    19.1976   ZY=     5.3280
   XZ=    13.8602   YZ=     2.1448   ZZ=    22.2554
   Eigenvalues:    14.4648    16.8244    28.1695
     80  Bq   Isotropic =     3.9598   Anisotropy =    17.4632
   XX=    -2.4489   YX=     0.4206   ZX=    -0.7422
   XY=    -1.2172   YY=     0.1057   ZY=    -1.0293
   XZ=    10.6795   YZ=     0.3953   ZZ=    14.2225
   Eigenvalues:    -3.8402     0.1176    15.6020
     81  Bq   Isotropic =    21.0048   Anisotropy =    11.9689
   XX=    19.5207   YX=     7.0982   ZX=    -6.4917
   XY=     1.8371   YY=    21.9883   ZY=     7.2655
   XZ=    10.9475   YZ=     2.2898   ZZ=    21.5053
   Eigenvalues:    15.7083    18.3220    28.9841
     82  Bq   Isotropic =    10.3219   Anisotropy =    19.0954
   XX=     4.2940   YX=     1.0255   ZX=    -0.0616
   XY=    -1.6883   YY=     6.6374   ZY=     0.4159
   XZ=    15.0226   YZ=     1.3588   ZZ=    20.0342
   Eigenvalues:     1.2308     6.6827    23.0521
     83  Bq   Isotropic =     5.8000   Anisotropy =    15.9041
   XX=     0.5121   YX=    -0.1806   ZX=    -1.3011
   XY=    -1.1451   YY=     2.8474   ZY=     0.2223
   XZ=    12.4684   YZ=     4.8970   ZZ=    14.0406
   Eigenvalues:    -1.9809     2.9782    16.4028
     84  Bq   Isotropic =     8.7098   Anisotropy =    13.4560
   XX=     4.4688   YX=    -0.3006   ZX=    -2.4737
   XY=    -1.0121   YY=     6.5157   ZY=    -0.1071
   XZ=    12.9326   YZ=     5.1803   ZZ=    15.1449
   Eigenvalues:     1.7826     6.6663    17.6805
     85  Bq   Isotropic =     4.7282   Anisotropy =    16.2280
   XX=    -0.7905   YX=    -0.1428   ZX=    -1.0418
   XY=    -1.1384   YY=     1.5889   ZY=     0.1921
   XZ=    11.9727   YZ=     4.5396   ZZ=    13.3863
   Eigenvalues:    -3.0754     1.7131    15.5469
     86  Bq   Isotropic =    10.5292   Anisotropy =    10.8505
   XX=     7.1484   YX=    -0.4685   ZX=    -3.6478
   XY=    -0.9074   YY=     8.9625   ZY=    -0.6699
   XZ=    12.6406   YZ=     4.9073   ZZ=    15.4768
   Eigenvalues:     4.6503     9.1746    17.7629
     87  Bq   Isotropic =     3.8781   Anisotropy =    16.1881
   XX=    -1.7252   YX=    -0.1041   ZX=    -0.8931
   XY=    -1.0881   YY=     0.6395   ZY=     0.1127
   XZ=    11.4057   YZ=     4.1235   ZZ=    12.7200
   Eigenvalues:    -3.7874     0.7515    14.6702
     88  Bq   Isotropic =    12.4792   Anisotropy =     6.9627
   XX=    10.1482   YX=    -0.8602   ZX=    -5.4666
   XY=    -0.8660   YY=    11.7100   ZY=    -1.6988
   XZ=    11.7332   YZ=     4.1583   ZZ=    15.5793
   Eigenvalues:     8.2261    12.0904    17.1210
     89  Bq   Isotropic =     3.2125   Anisotropy =    15.9074
   XX=    -2.3660   YX=    -0.0645   ZX=    -0.8092
   XY=    -1.0053   YY=    -0.0632   ZY=     0.0167
   XZ=    10.8114   YZ=     3.6877   ZZ=    12.0667
   Eigenvalues:    -4.2118     0.0320    13.8174
     90  Bq   Isotropic =    14.3331   Anisotropy =     2.7717
   XX=    13.0978   YX=    -1.7268   ZX=    -8.1525
   XY=    -1.0519   YY=    14.4684   ZY=    -3.3745
   XZ=     9.9506   YZ=     2.7322   ZZ=    15.4329
   Eigenvalues:    12.1215    14.6968    16.1808
     91  Bq   Isotropic =     2.6950   Anisotropy =    15.4745
   XX=    -2.7813   YX=    -0.0258   ZX=    -0.7617
   XY=    -0.9020   YY=    -0.5750   ZY=    -0.0778
   XZ=    10.2162   YZ=     3.2578   ZZ=    11.4412
   Eigenvalues:    -4.4275    -0.4989    13.0113
     92  Bq   Isotropic =    15.6942   Anisotropy =     4.9161
   XX=    15.2812   YX=    -3.4857   ZX=   -11.8469
   XY=    -1.7550   YY=    16.6777   ZY=    -5.8236
   XZ=     7.0631   YZ=     0.4312   ZZ=    15.1238
   Eigenvalues:    10.5153    17.5957    18.9716
     93  Bq   Isotropic =     7.1237   Anisotropy =    15.0516
   XX=     2.2510   YX=    -0.2250   ZX=    -1.7426
   XY=    -1.1013   YY=     4.4756   ZY=     0.1501
   XZ=    12.8236   YZ=     5.1379   ZZ=    14.6446
   Eigenvalues:    -0.3976     4.6107    17.1581
     94  Bq   Isotropic =     2.0874   Anisotropy =    12.4497
   XX=    -0.7435   YX=    -1.7122   ZX=    -0.2192
   XY=    -0.9238   YY=     0.6934   ZY=     1.5960
   XZ=    10.7590   YZ=     7.4153   ZZ=     6.3124
   Eigenvalues:    -5.5336     1.4087    10.3872
     95  Bq   Isotropic =     3.1119   Anisotropy =    10.8858
   XX=     1.6823   YX=    -2.5245   ZX=    -0.4992
   XY=    -1.0771   YY=     2.3529   ZY=     1.7561
   XZ=    10.6385   YZ=     8.3772   ZZ=     5.3005
   Eigenvalues:    -4.8549     3.8215    10.3691
     96  Bq   Isotropic =     1.7346   Anisotropy =    12.8029
   XX=    -1.5378   YX=    -1.4246   ZX=    -0.1500
   XY=    -0.8528   YY=     0.0863   ZY=     1.4379
   XZ=    10.5908   YZ=     6.8250   ZZ=     6.6551
   Eigenvalues:    -5.6634     0.5972    10.2698
     97  Bq   Isotropic =     3.8169   Anisotropy =     9.5497
   XX=     3.3971   YX=    -3.1022   ZX=    -0.7181
   XY=    -1.1992   YY=     3.4161   ZY=     1.6920
   XZ=    10.2724   YZ=     8.6257   ZZ=     4.6375
   Eigenvalues:    -4.2823     5.5496    10.1833
     98  Bq   Isotropic =     1.4633   Anisotropy =    12.9485
   XX=    -2.1149   YX=    -1.1915   ZX=    -0.1157
   XY=    -0.7752   YY=    -0.3938   ZY=     1.2625
   XZ=    10.3197   YZ=     6.2197   ZZ=     6.8985
   Eigenvalues:    -5.6817    -0.0241    10.0956
     99  Bq   Isotropic =     4.6633   Anisotropy =     7.7785
   XX=     5.4763   YX=    -3.8392   ZX=    -0.9754
   XY=    -1.3995   YY=     4.6173   ZY=     1.4877
   XZ=     9.6636   YZ=     8.6140   ZZ=     3.8963
   Eigenvalues:    -3.5599     7.7008     9.8490
    100  Bq   Isotropic =     1.2568   Anisotropy =    12.9346
   XX=    -2.5180   YX=    -1.0006   ZX=    -0.1070
   XY=    -0.6908   YY=    -0.7662   ZY=     1.0864
   XZ=     9.9761   YZ=     5.6265   ZZ=     7.0546
   Eigenvalues:    -5.6122    -0.4973     9.8799
    101  Bq   Isotropic =     5.6467   Anisotropy =     7.0430
   XX=     7.9013   YX=    -4.7693   ZX=    -1.2305
   XY=    -1.7296   YY=     5.9189   ZY=     1.1247
   XZ=     8.8124   YZ=     8.2505   ZZ=     3.1199
   Eigenvalues:    -2.7127     9.3108    10.3420
    102  Bq   Isotropic =     1.1012   Anisotropy =    12.8002
   XX=    -2.7839   YX=    -0.8430   ZX=    -0.1157
   XY=    -0.6017   YY=    -1.0492   ZY=     0.9200
   XZ=     9.5848   YZ=     5.0620   ZZ=     7.1367
   Eigenvalues:    -5.4766    -0.8544     9.6347
    103  Bq   Isotropic =     6.7447   Anisotropy =     9.9135
   XX=    10.5966   YX=    -5.9089   ZX=    -1.4059
   XY=    -2.2430   YY=     7.2663   ZY=     0.6120
   XZ=     7.7638   YZ=     7.4425   ZZ=     2.3711
   Eigenvalues:    -1.7845     8.6648    13.3537
    104  Bq   Isotropic =     2.5404   Anisotropy =    11.8317
   XX=     0.3146   YX=    -2.0711   ZX=    -0.3331
   XY=    -0.9939   YY=     1.4451   ZY=     1.7124
   XZ=    10.7881   YZ=     7.9507   ZZ=     5.8616
   Eigenvalues:    -5.2698     2.4629    10.4282
    105  Bq   Isotropic =    -0.2161   Anisotropy =    10.1094
   XX=    -1.6721   YX=    -1.8731   ZX=     1.3879
   XY=    -0.7219   YY=     0.3482   ZY=     2.0653
   XZ=    10.0954   YZ=     6.3551   ZZ=     0.6756
   Eigenvalues:    -8.0498     0.8779     6.5235
    106  Bq   Isotropic =    -0.3287   Anisotropy =     9.4304
   XX=    -0.7817   YX=    -2.3951   ZX=     1.7382
   XY=    -1.0200   YY=     1.4662   ZY=     2.4032
   XZ=    10.2478   YZ=     6.7445   ZZ=    -1.6706
   Eigenvalues:    -9.1925     2.2481     5.9582
    107  Bq   Isotropic =    -0.1510   Anisotropy =    10.3412
   XX=    -1.9894   YX=    -1.6574   ZX=     1.2275
   XY=    -0.5976   YY=    -0.0773   ZY=     1.8868
   XZ=     9.8986   YZ=     6.0560   ZZ=     1.6138
   Eigenvalues:    -7.5470     0.3508     6.7432
    108  Bq   Isotropic =    -0.3689   Anisotropy =     9.0304
   XX=    -0.2050   YX=    -2.7036   ZX=     1.9345
   XY=    -1.2008   YY=     2.1725   ZY=     2.5391
   XZ=    10.1830   YZ=     6.7727   ZZ=    -3.0740
   Eigenvalues:    -9.8532     3.0953     5.6514
    109  Bq   Isotropic =    -0.0838   Anisotropy =    10.4913
   XX=    -2.2301   YX=    -1.4684   ZX=     1.0752
   XY=    -0.4864   YY=    -0.4256   ZY=     1.7124
   XZ=     9.6391   YZ=     5.7198   ZZ=     2.4043
   Eigenvalues:    -7.0783    -0.0835     6.9104
    110  Bq   Isotropic =    -0.3934   Anisotropy =     8.6982
   XX=     0.4508   YX=    -3.0408   ZX=     2.1525
   XY=    -1.4069   YY=     2.9800   ZY=     2.6317
   XZ=    10.0179   YZ=     6.6410   ZZ=    -4.6109
   Eigenvalues:   -10.5860     4.0004     5.4054
    111  Bq   Isotropic =    -0.0166   Anisotropy =    10.5610
   XX=    -2.4029   YX=    -1.3029   ZX=     0.9312
   XY=    -0.3863   YY=    -0.7058   ZY=     1.5466
   XZ=     9.3307   YZ=     5.3643   ZZ=     3.0589
   Eigenvalues:    -6.6378    -0.4360     7.0241
    112  Bq   Isotropic =    -0.4002   Anisotropy =     9.0226
   XX=     1.1675   YX=    -3.3983   ZX=     2.4003
   XY=    -1.6393   YY=     3.8822   ZY=     2.6613
   XZ=     9.7556   YZ=     6.3109   ZZ=    -6.2503
   Eigenvalues:   -11.3943     4.5789     5.6149
    113  Bq   Isotropic =     0.0494   Anisotropy =    10.5562
   XX=    -2.5167   YX=    -1.1581   ZX=     0.7960
   XY=    -0.2962   YY=    -0.9265   ZY=     1.3920
   XZ=     8.9867   YZ=     5.0026   ZZ=     3.5915
   Eigenvalues:    -6.2213    -0.7173     7.0869
    114  Bq   Isotropic =    -0.3894   Anisotropy =    10.4956
   XX=     1.9160   YX=    -3.7604   ZX=     2.6869
   XY=    -1.8940   YY=     4.8618   ZY=     2.6076
   XZ=     9.4058   YZ=     5.7474   ZZ=    -7.9461
   Eigenvalues:   -12.2713     4.4954     6.6076
    115  Bq   Isotropic =    -0.2765   Anisotropy =     9.8009
   XX=    -1.2710   YX=    -2.1184   ZX=     1.5574
   XY=    -0.8616   YY=     0.8599   ZY=     2.2408
   XZ=    10.2158   YZ=     6.5941   ZZ=    -0.4186
   Eigenvalues:    -8.5949     1.5079     6.2574
    116  Bq   Isotropic =    -0.7115   Anisotropy =     9.1381
   XX=    -1.7520   YX=    -1.2410   ZX=     2.1559
   XY=    -0.1889   YY=     0.1316   ZY=     1.3900
   XZ=     9.5879   YZ=     4.4740   ZZ=    -0.5141
   Eigenvalues:    -7.8402     0.3251     5.3806
    117  Bq   Isotropic =    -0.9630   Anisotropy =     8.7898
   XX=    -1.3871   YX=    -1.4204   ZX=     2.6399
   XY=    -0.4125   YY=     0.8458   ZY=     1.3068
   XZ=    10.0174   YZ=     4.2331   ZZ=    -2.3476
   Eigenvalues:    -8.9422     1.1564     4.8969
    118  Bq   Isotropic =    -0.5882   Anisotropy =     9.2433
   XX=    -1.8792   YX=    -1.1597   ZX=     1.9310
   XY=    -0.1007   YY=    -0.1524   ZY=     1.3909
   XZ=     9.3083   YZ=     4.4867   ZZ=     0.2670
   Eigenvalues:    -7.3338    -0.0048     5.5740
    119  Bq   Isotropic =    -1.0856   Anisotropy =     8.5671
   XX=    -1.1465   YX=    -1.5190   ZX=     2.8954
   XY=    -0.5525   YY=     1.2784   ZY=     1.2146
   XZ=    10.1482   YZ=     3.9839   ZZ=    -3.3886
   Eigenvalues:    -9.5400     1.6574     4.6258
    120  Bq   Isotropic =    -0.4691   Anisotropy =     9.2986
   XX=    -1.9728   YX=    -1.0832   ZX=     1.7190
   XY=    -0.0253   YY=    -0.3911   ZY=     1.3715
   XZ=     8.9978   YZ=     4.4432   ZZ=     0.9567
   Eigenvalues:    -6.8551    -0.2821     5.7300
    121  Bq   Isotropic =    -1.2014   Anisotropy =     8.3475
   XX=    -0.8665   YX=    -1.6236   ZX=     3.1563
   XY=    -0.7143   YY=     1.7597   ZY=     1.0835
   XZ=    10.2099   YZ=     3.6389   ZZ=    -4.4974
   Eigenvalues:   -10.1686     2.2008     4.3636
    122  Bq   Isotropic =    -0.3555   Anisotropy =     9.3053
   XX=    -2.0359   YX=    -1.0112   ZX=     1.5210
   XY=     0.0390   YY=    -0.5881   ZY=     1.3367
   XZ=     8.6649   YZ=     4.3547   ZZ=     1.5576
   Eigenvalues:    -6.4031    -0.5114     5.8480
    123  Bq   Isotropic =    -1.3064   Anisotropy =     8.2178
   XX=    -0.5482   YX=    -1.7333   ZX=     3.4188
   XY=    -0.8999   YY=     2.2850   ZY=     0.9124
   XZ=    10.1924   YZ=     3.1963   ZZ=    -5.6560
   Eigenvalues:   -10.8247     2.7334     4.1722
    124  Bq   Isotropic =    -0.2483   Anisotropy =     9.2668
   XX=    -2.0721   YX=    -0.9432   ZX=     1.3375
   XY=     0.0935   YY=    -0.7473   ZY=     1.2905
   XZ=     8.3171   YZ=     4.2317   ZZ=     2.0744
   Eigenvalues:    -5.9769    -0.6976     5.9295
    125  Bq   Isotropic =    -1.3963   Anisotropy =     8.4597
   XX=    -0.1931   YX=    -1.8465   ZX=     3.6773
[...]
   126  Bq   0.000000
   127  Bq   0.000000
   128  Bq   0.000000
   129  Bq   0.000000
   130  Bq   0.000000
   131  Bq   0.000000
   132  Bq   0.000000
   133  Bq   0.000000
   134  Bq   0.000000
   135  Bq   0.000000
   136  Bq   0.000000
   137  Bq   0.000000
   138  Bq   0.000000
   139  Bq   0.000000
   140  Bq   0.000000
   141  Bq   0.000000
   142  Bq   0.000000
   143  Bq   0.000000
   144  Bq   0.000000
   145  Bq   0.000000
   146  Bq   0.000000
   147  Bq   0.000000
   148  Bq   0.000000
   149  Bq   0.000000
   150  Bq   0.000000
   151  Bq   0.000000
   152  Bq   0.000000
   153  Bq   0.000000
   154  Bq   0.000000
   155  Bq   0.000000
   156  Bq   0.000000
   157  Bq   0.000000
   158  Bq   0.000000
   159  Bq   0.000000
   160  Bq   0.000000
   161  Bq   0.000000
   162  Bq   0.000000
   163  Bq   0.000000
   164  Bq   0.000000
   165  Bq   0.000000
   166  Bq   0.000000
   167  Bq   0.000000
   168  Bq   0.000000
   169  Bq   0.000000
   170  Bq   0.000000
   171  Bq   0.000000
   172  Bq   0.000000
   173  Bq   0.000000
   174  Bq   0.000000
   175  Bq   0.000000
   176  Bq   0.000000
   177  Bq   0.000000
   178  Bq   0.000000
   179  Bq   0.000000
   180  Bq   0.000000
   181  Bq   0.000000
   182  Bq   0.000000
   183  Bq   0.000000
   184  Bq   0.000000
   185  Bq   0.000000
   186  Bq   0.000000
   187  Bq   0.000000
   188  Bq   0.000000
   189  Bq   0.000000
   190  Bq   0.000000
   191  Bq   0.000000
   192  Bq   0.000000
   193  Bq   0.000000
   194  Bq   0.000000
   195  Bq   0.000000
   196  Bq   0.000000
   197  Bq   0.000000
   198  Bq   0.000000
   199  Bq   0.000000
   200  Bq   0.000000
   201  Bq   0.000000
   202  Bq   0.000000
   203  Bq   0.000000
   204  Bq   0.000000
   205  Bq   0.000000
   206  Bq   0.000000
   207  Bq   0.000000
   208  Bq   0.000000
   209  Bq   0.000000
   210  Bq   0.000000
   211  Bq   0.000000
   212  Bq   0.000000
   213  Bq   0.000000
   214  Bq   0.000000
   215  Bq   0.000000
   216  Bq   0.000000
   217  Bq   0.000000
   218  Bq   0.000000
   219  Bq   0.000000
   220  Bq   0.000000
   221  Bq   0.000000
   222  Bq   0.000000
   223  Bq   0.000000
   224  Bq   0.000000
   225  Bq   0.000000
   226  Bq   0.000000
   227  Bq   0.000000
   228  Bq   0.000000
   229  Bq   0.000000
   230  Bq   0.000000
   231  Bq   0.000000
   232  Bq   0.000000
   233  Bq   0.000000
   234  Bq   0.000000
   235  Bq   0.000000
   236  Bq   0.000000
 Sum of Mulliken charges =   0.00000
 Mulliken charges with hydrogens summed into heavy atoms:
               1
     1  C   -0.255498
     3  C    0.169409
     5  C    0.448258
     6  C    0.064351
     7  C   -0.333926
     9  C   -0.139521
    11  C   -0.205988
    13  C   -0.119315
    15  C    0.653397
    16  C    0.034822
    17  C   -0.317410
    19  C   -0.316854
    21  C    0.651066
    22  C    0.037784
    23  C   -0.233803
    25  C   -0.321531
    27  C    0.448331
    28  C    0.061983
    29  C   -0.333381
    31  C   -0.139505
    33  C   -0.255977
    35  C    0.170579
    37  Bq   0.000000
    38  Bq   0.000000
    39  Bq   0.000000
    40  Bq   0.000000
    41  Bq   0.000000
    42  Bq   0.000000
    43  Bq   0.000000
    44  Bq   0.000000
    45  Bq   0.000000
    46  Bq   0.000000
    47  Bq   0.000000
    48  Bq   0.000000
    49  Bq   0.000000
    50  Bq   0.000000
    51  Bq   0.000000
    52  Bq   0.000000
    53  Bq   0.000000
    54  Bq   0.000000
    55  Bq   0.000000
    56  Bq   0.000000
    57  Bq   0.000000
    58  Bq   0.000000
    59  Bq   0.000000
    60  Bq   0.000000
    61  Bq   0.000000
    62  Bq   0.000000
    63  Bq   0.000000
    64  Bq   0.000000
    65  Bq   0.000000
    66  Bq   0.000000
    67  Bq   0.000000
    68  Bq   0.000000
    69  Bq   0.000000
    70  Bq   0.000000
    71  Bq   0.000000
    72  Bq   0.000000
    73  Bq   0.000000
    74  Bq   0.000000
    75  Bq   0.000000
    76  Bq   0.000000
    77  Bq   0.000000
    78  Bq   0.000000
    79  Bq   0.000000
    80  Bq   0.000000
    81  Bq   0.000000
    82  Bq   0.000000
    83  Bq   0.000000
    84  Bq   0.000000
    85  Bq   0.000000
    86  Bq   0.000000
    87  Bq   0.000000
    88  Bq   0.000000
    89  Bq   0.000000
    90  Bq   0.000000
    91  Bq   0.000000
    92  Bq   0.000000
    93  Bq   0.000000
    94  Bq   0.000000
    95  Bq   0.000000
    96  Bq   0.000000
    97  Bq   0.000000
    98  Bq   0.000000
    99  Bq   0.000000
   100  Bq   0.000000
   101  Bq   0.000000
   102  Bq   0.000000
   103  Bq   0.000000
   104  Bq   0.000000
   105  Bq   0.000000
   106  Bq   0.000000
   107  Bq   0.000000
   108  Bq   0.000000
   109  Bq   0.000000
   110  Bq   0.000000
   111  Bq   0.000000
   112  Bq   0.000000
   113  Bq   0.000000
   114  Bq   0.000000
   115  Bq   0.000000
   116  Bq   0.000000
   117  Bq   0.000000
   118  Bq   0.000000
   119  Bq   0.000000
   120  Bq   0.000000
   121  Bq   0.000000
   122  Bq   0.000000
   123  Bq   0.000000
   124  Bq   0.000000
   125  Bq   0.000000
   126  Bq   0.000000
   127  Bq   0.000000
   128  Bq   0.000000
   129  Bq   0.000000
   130  Bq   0.000000
   131  Bq   0.000000
   132  Bq   0.000000
   133  Bq   0.000000
   134  Bq   0.000000
   135  Bq   0.000000
   136  Bq   0.000000
   137  Bq   0.000000
   138  Bq   0.000000
   139  Bq   0.000000
   140  Bq   0.000000
   141  Bq   0.000000
   142  Bq   0.000000
   143  Bq   0.000000
   144  Bq   0.000000
   145  Bq   0.000000
   146  Bq   0.000000
   147  Bq   0.000000
   148  Bq   0.000000
   149  Bq   0.000000
   150  Bq   0.000000
   151  Bq   0.000000
   152  Bq   0.000000
   153  Bq   0.000000
   154  Bq   0.000000
   155  Bq   0.000000
   156  Bq   0.000000
   157  Bq   0.000000
   158  Bq   0.000000
   159  Bq   0.000000
   160  Bq   0.000000
   161  Bq   0.000000
   162  Bq   0.000000
   163  Bq   0.000000
   164  Bq   0.000000
   165  Bq   0.000000
   166  Bq   0.000000
   167  Bq   0.000000
   168  Bq   0.000000
   169  Bq   0.116215
   170  Bq   0.000000
   171  Bq   0.000000
   172  Bq   0.000000
   173  Bq   0.000000
   174  Bq   0.000000
   175  Bq   0.000000
   176  Bq   0.000000
   177  Bq   0.000000
   178  Bq   0.000000
   179  Bq   0.000000
   180  Bq   0.000000
   181  Bq   0.000000
   182  Bq   0.000000
   183  Bq   0.000000
   184  Bq   0.000000
   185  Bq   0.000000
   186  Bq   0.000000
   187  Bq   0.000000
   188  Bq   0.000000
   189  Bq   0.000000
   190  Bq   0.000000
   191  Bq   0.000000
   192  Bq   0.000000
   193  Bq   0.000000
   194  Bq   0.000000
   195  Bq   0.000000
   196  Bq   0.000000
   197  Bq   0.000000
   198  Bq   0.000000
   199  Bq   0.000000
   200  Bq   0.000000
   201  Bq   0.000000
   202  Bq   0.000000
   203  Bq   0.000000
   204  Bq   0.000000
   205  Bq   0.000000
   206  Bq   0.000000
   207  Bq   0.000000
   208  Bq   0.000000
   209  Bq   0.000000
   210  Bq   0.000000
   211  Bq   0.000000
   212  Bq   0.000000
   213  Bq   0.000000
   214  Bq   0.000000
   215  Bq   0.000000
   216  Bq   0.000000
   217  Bq   0.000000
   218  Bq   0.000000
   219  Bq   0.000000
   220  Bq   0.000000
   221  Bq   0.000000
   222  Bq   0.000000
   223  Bq   0.000000
   224  Bq   0.116514
   225  Bq   0.000000
   226  Bq   0.000000
   227  Bq   0.000000
   228  Bq   0.000000
   229  Bq   0.000000
   230  Bq   0.000000
   231  Bq   0.000000
   232  Bq   0.000000
   233  Bq   0.000000
   234  Bq   0.000000
   235  Bq   0.000000
   236  Bq   0.000000
 Electronic spatial extent (au):  <R**2>=           5736.9264
 Charge=              0.0000 electrons
 Dipole moment (field-independent basis, Debye):
    X=              0.0475    Y=              0.0856    Z=              0.0029  Tot=              0.0979
 Quadrupole moment (field-independent basis, Debye-Ang):
   XX=           -113.7056   YY=           -113.9456   ZZ=           -133.2669
   XY=             -0.3834   XZ=              3.2102   YZ=             -1.1839
 Traceless Quadrupole moment (field-independent basis, Debye-Ang):
   XX=              6.6005   YY=              6.3604   ZZ=            -12.9609
   XY=             -0.3834   XZ=              3.2102   YZ=             -1.1839
 Octapole moment (field-independent basis, Debye-Ang**2):
  XXX=            -16.4668  YYY=            -16.1860  ZZZ=             -1.7007  XYY=              2.5576
  XXY=             -6.5650  XXZ=             13.6547  XZZ=             -8.9478  YZZ=            -17.7168
  YYZ=            -13.2941  XYZ=              8.8036
 Hexadecapole moment (field-independent basis, Debye-Ang**3):
 XXXX=          -3951.1638 YYYY=          -3112.2161 ZZZZ=           -504.8311 XXXY=            340.6935
 XXXZ=            156.4968 YYYX=            335.5625 YYYZ=            -87.0893 ZZZX=            120.2262
 ZZZY=           -108.7373 XXYY=          -1176.4844 XXZZ=           -856.7291 YYZZ=           -665.7275
 XXYZ=            -68.9016 YYXZ=             48.1602 ZZXY=            153.0375
 N-N= 1.610917615562D+03 E-N=-5.186891130729D+03  KE= 8.436329774449D+02
 1\1\GINC-MUHKA\SP\RB3LYP\6-311+G(d,p)\C22H14\YANNICK\14-Aug-2020\0\\# 
 rb3lyp/6-311+g** NMR geom=connectivity\\Title\\0,1\C,0,-4.0500558,-0.5
 771862,0.8136712\H,0,-5.0263804,-1.0082727,1.002476\C,0,-3.9381552,0.6
 617804,0.2400876\H,0,-4.8252424,1.233889,-0.0111295\C,0,-2.676841,1.24
 33246,0.0057578\C,0,-1.4974121,0.5051527,0.2848253\C,0,-1.6508332,-0.7
 338728,0.9404026\H,0,-0.7713646,-1.2730967,1.2633753\C,0,-2.8898548,-1
 .2624035,1.1994307\H,0,-2.9683706,-2.2124563,1.7152676\C,0,-2.5773185,
 2.5963696,-0.419293\H,0,-3.4870728,3.1412239,-0.6474055\C,0,-1.3741895
 ,3.2147896,-0.436403\H,0,-1.2997315,4.2742019,-0.6578144\C,0,-0.171948
 8,2.499409,-0.1734588\C,0,-0.2043917,1.1018437,0.0192689\C,0,1.0513491
 ,3.204256,-0.0676222\H,0,1.0427344,4.2819499,-0.1896997\C,0,2.1942091,
 2.5487446,0.2579577\H,0,3.1168527,3.0912848,0.4334727\C,0,2.2216473,1.
 1336562,0.293499\C,0,1.0486931,0.3945528,0.0302412\C,0,3.4483363,0.461
 4633,0.5573939\H,0,4.3095794,1.0606054,0.8334846\C,0,3.5427346,-0.8855
 926,0.4749463\H,0,4.4731467,-1.3939704,0.7038822\C,0,2.4490052,-1.6474
 447,-0.0196319\C,0,1.2150704,-1.0057258,-0.3013573\C,0,0.2531113,-1.74
 3444,-1.0216591\H,0,-0.6541356,-1.2535051,-1.3462847\C,0,0.4494193,-3.
 0628597,-1.3413779\H,0,-0.3083162,-3.5944309,-1.905406\C,0,1.6251726,-
 3.7207967,-0.9552541\H,0,1.7670048,-4.7687404,-1.1927019\C,0,2.6109872
 ,-3.0144177,-0.318305\H,0,3.5525612,-3.4902813,-0.0646367\Bq,0,3.69652
 96704,-1.8140605057,0.8335177039\Bq,0,3.5681353488,-1.8851988008,1.311
 4865744\Bq,0,3.5240012318,-1.4045129897,1.4757830463\Bq,0,3.5753589605
 ,-1.3760576716,1.2845954981\Bq,0,3.4983223675,-1.4187406487,1.57137682
 04\Bq,0,3.6010378248,-1.3618300126,1.189001724\Bq,0,3.4726435032,-1.43
 29683077,1.6669705945\Bq,0,3.6267166891,-1.3476023536,1.0934079499\Bq,
 0,3.4469646389,-1.4471959668,1.7625643686\Bq,0,3.6523955534,-1.3333746
 945,0.9978141758\Bq,0,3.4212857745,-1.4614236258,1.8581581427\Bq,0,3.6
 780744178,-1.3191470355,0.9022204017\Bq,0,3.5496800962,-1.3902853306,1
 .3801892722\Bq,0,3.5055459792,-0.9095995195,1.5444857441\Bq,0,3.556903
 7078,-0.8811442014,1.3532981959\Bq,0,3.4798671148,-0.9238271785,1.6400
 795182\Bq,0,3.5825825721,-0.8669165424,1.2577044218\Bq,0,3.4541882505,
 -0.9380548375,1.7356732923\Bq,0,3.6082614365,-0.8526888834,1.162110647
 7\Bq,0,3.4285093862,-0.9522824966,1.8312670664\Bq,0,3.6339403008,-0.83
 84612243,1.0665168736\Bq,0,3.4028305219,-0.9665101556,1.9268608405\Bq,
 0,3.6596191651,-0.8242335653,0.9709230995\Bq,0,3.5312248435,-0.8953718
 605,1.44889197\Bq,0,3.4870907265,-0.4146860493,1.6131884419\Bq,0,3.538
 4484551,-0.3862307313,1.4220008937\Bq,0,3.4614118622,-0.4289137083,1.7
 08782216\Bq,0,3.5641273195,-0.3720030722,1.3264071196\Bq,0,3.435732997
 8,-0.4431413674,1.8043759901\Bq,0,3.5898061838,-0.3577754132,1.2308133
 455\Bq,0,3.4100541335,-0.4573690264,1.8999697642\Bq,0,3.6154850481,-0.
 3435477542,1.1352195714\Bq,0,3.3843752692,-0.4715966854,1.9955635383\B
 q,0,3.6411639124,-0.3293200951,1.0396257973\Bq,0,3.5127695908,-0.40045
 83903,1.5175946678\Bq,0,3.4686354738,0.0802274209,1.6818911397\Bq,0,3.
 5199932025,0.1086827389,1.4907035915\Bq,0,3.4429566095,0.0659997618,1.
 7774849138\Bq,0,3.5456720668,0.122910398,1.3951098174\Bq,0,3.417277745
 2,0.0517721028,1.8730786879\Bq,0,3.5713509311,0.137138057,1.2995160433
 \Bq,0,3.3915988808,0.0375444438,1.968672462\Bq,0,3.5970297954,0.151365
 716,1.2039222692\Bq,0,3.3659200165,0.0233167848,2.0642662361\Bq,0,3.62
 27086597,0.165593375,1.1083284951\Bq,0,3.4943143381,0.0944550799,1.586
 2973656\Bq,0,3.4501802211,0.575140891,1.7505938375\Bq,0,3.5015379498,0
 .6035962091,1.5594062893\Bq,0,3.4245013568,0.560913232,1.8461876116\Bq
 ,0,3.5272168141,0.6178238681,1.4638125152\Bq,0,3.3988224925,0.54668557
 3,1.9417813857\Bq,0,3.5528956784,0.6320515272,1.3682187411\Bq,0,3.3731
 436282,0.532457914,2.0373751598\Bq,0,3.5785745427,0.6462791862,1.27262
 4967\Bq,0,3.3474647638,0.5182302549,2.1329689338\Bq,0,3.6042534071,0.6
 605068452,1.1770311929\Bq,0,3.4758590855,0.5893685501,1.6550000634\Bq,
 0,3.4317249685,1.0700543612,1.8192965353\Bq,0,3.4830826971,1.098509679
 3,1.6281089871\Bq,0,3.4060461041,1.0558267022,1.9148903094\Bq,0,3.5087
 615614,1.1127373383,1.532515213\Bq,0,3.3803672398,1.0415990432,2.01048
 40834\Bq,0,3.5344404257,1.1269649973,1.4369214389\Bq,0,3.3546883755,1.
 0273713841,2.1060778575\Bq,0,3.5601192901,1.1411926564,1.3413276648\Bq
 ,0,3.3290095112,1.0131437251,2.2016716316\Bq,0,3.5857981544,1.15542031
 54,1.2457338907\Bq,0,3.4574038328,1.0842820203,1.7237027612\Bq,0,3.413
 2697158,1.5649678314,1.8879992331\Bq,0,3.4646274444,1.5934231495,1.696
 8116849\Bq,0,3.3875908515,1.5507401724,1.9835930071\Bq,0,3.4903063087,
 1.6076508085,1.6012179108\Bq,0,3.3619119871,1.5365125133,2.0791867812\
 Bq,0,3.5159851731,1.6218784675,1.5056241367\Bq,0,3.3362331228,1.522284
 8543,2.1747805553\Bq,0,3.5416640374,1.6361061265,1.4100303626\Bq,0,3.3
 105542585,1.5080571953,2.2703743294\Bq,0,3.5673429017,1.6503337856,1.3
 144365885\Bq,0,3.4389485801,1.5791954904,1.792405459\Bq,0,3.3948144631
 ,2.0598813016,1.9567019308\Bq,0,3.4461721917,2.0883366196,1.7655143827
 \Bq,0,3.3691355988,2.0456536426,2.0522957049\Bq,0,3.4718510561,2.10256
 42787,1.6699206086\Bq,0,3.3434567345,2.0314259835,2.147889479\Bq,0,3.4
 975299204,2.1167919377,1.5743268345\Bq,0,3.3177778701,2.0171983245,2.2
 434832531\Bq,0,3.5232087847,2.1310195967,1.4787330604\Bq,0,3.292099005
 8,2.0029706655,2.3390770272\Bq,0,3.548887649,2.1452472558,1.3831392863
 \Bq,0,3.4204933274,2.0741089606,1.8611081568\Bq,0,4.0622482401,-2.8892
 534002,1.3993888618\Bq,0,4.1136059687,-2.8607980821,1.2082013137\Bq,0,
 4.0365693758,-2.9034810592,1.4949826359\Bq,0,4.1392848331,-2.846570423
 1,1.1126075396\Bq,0,4.0108905115,-2.9177087183,1.59057641\Bq,0,4.16496
 36974,-2.8323427641,1.0170137655\Bq,0,3.9852116471,-2.9319363773,1.686
 1701841\Bq,0,4.1906425617,-2.8181151051,0.9214199914\Bq,0,3.9595327828
 ,-2.9461640363,1.7817639582\Bq,0,4.216321426,-2.803887446,0.8258262173
 \Bq,0,4.0879271044,-2.8750257412,1.3037950878\Bq,0,4.0437929874,-2.394
 33993,1.4680915596\Bq,0,4.0951507161,-2.365884612,1.2769040115\Bq,0,4.
 0181141231,-2.4085675891,1.5636853337\Bq,0,4.1208295804,-2.3516569529,
 1.1813102374\Bq,0,3.9924352588,-2.4227952481,1.6592791078\Bq,0,4.14650
 84447,-2.3374292939,1.0857164633\Bq,0,3.9667563945,-2.4370229071,1.754
 8728819\Bq,0,4.172187309,-2.3232016349,0.9901226892\Bq,0,3.9410775301,
 -2.4512505661,1.850466656\Bq,0,4.1978661734,-2.3089739759,0.8945289151
 \Bq,0,4.0694718517,-2.380112271,1.3724977855\Bq,0,4.0253377347,-1.8994
 264598,1.5367942574\Bq,0,4.0766954634,-1.8709711418,1.3456067092\Bq,0,
 3.9996588704,-1.9136541189,1.6323880315\Bq,0,4.1023743277,-1.856743482
 8,1.2500129352\Bq,0,3.9739800061,-1.9278817779,1.7279818056\Bq,0,4.128
 053192,-1.8425158237,1.1544191611\Bq,0,3.9483011418,-1.9421094369,1.82
 35755797\Bq,0,4.1537320564,-1.8282881647,1.058825387\Bq,0,3.9226222775
 ,-1.956337096,1.9191693538\Bq,0,4.1794109207,-1.8140605057,0.963231612
 9\Bq,0,4.0510165991,-1.8851988008,1.4412004833\Bq,0,4.0068824821,-1.40
 45129897,1.6054969552\Bq,0,4.0582402107,-1.3760576716,1.414309407\Bq,0
 ,3.9812036177,-1.4187406487,1.7010907293\Bq,0,4.083919075,-1.361830012
 6,1.3187156329\Bq,0,3.9555247534,-1.4329683077,1.7966845034\Bq,0,4.109
 5979394,-1.3476023536,1.2231218589\Bq,0,3.9298458891,-1.4471959668,1.8
 922782775\Bq,0,4.1352768037,-1.3333746945,1.1275280848\Bq,0,3.90416702
 48,-1.4614236258,1.9878720516\Bq,0,4.160955668,-1.3191470355,1.0319343
 107\Bq,0,4.0325613464,-1.3902853306,1.5099031811\Bq,0,3.9884272294,-0.
 9095995195,1.674199653\Bq,0,4.039784958,-0.8811442014,1.4830121048\Bq,
 0,3.9627483651,-0.9238271785,1.7697934271\Bq,0,4.0654638224,-0.8669165
 424,1.3874183307\Bq,0,3.9370695007,-0.9380548375,1.8653872012\Bq,0,4.0
 911426867,-0.8526888834,1.2918245566\Bq,0,3.9113906364,-0.9522824966,1
 .9609809753\Bq,0,4.116821551,-0.8384612243,1.1962307826\Bq,0,3.8857117
 721,-0.9665101556,2.0565747494\Bq,0,4.1425004153,-0.8242335653,1.10063
 70085\Bq,0,4.0141060937,-0.8953718605,1.5786058789\Bq,0,3.9699719767,-
 0.4146860493,1.7429023508\Bq,0,4.0213297054,-0.3862307313,1.5517148026
 \Bq,0,3.9442931124,-0.4289137083,1.8384961249\Bq,0,4.0470085697,-0.372
 0030722,1.4561210285\Bq,0,3.9186142481,-0.4431413674,1.934089899\Bq,0,
 4.072687434,-0.3577754132,1.3605272544\Bq,0,3.8929353837,-0.4573690264
 ,2.0296836731\Bq,0,4.0983662983,-0.3435477542,1.2649334803\Bq,0,3.8672
 565194,-0.4715966854,2.1252774472\Bq,0,4.1240451627,-0.3293200951,1.16
 93397063\Bq,0,3.995650841,-0.4004583903,1.6473085767\Bq,0,3.951516724,
 0.0802274209,1.8116050486\Bq,0,4.0028744527,0.1086827389,1.6204175004\
 Bq,0,3.9258378597,0.0659997618,1.9071988227\Bq,0,4.028553317,0.1229103
 98,1.5248237263\Bq,0,3.9001589954,0.0517721028,2.0027925968\Bq,0,4.054
 2321813,0.137138057,1.4292299522\Bq,0,3.8744801311,0.0375444438,2.0983
 863709\Bq,0,4.0799110457,0.151365716,1.3336361781\Bq,0,3.8488012667,0.
 0233167848,2.193980145\Bq,0,4.10558991,0.165593375,1.238042404\Bq,0,3.
 9771955884,0.0944550799,1.7160112745\Bq,0,3.9330614714,0.575140891,1.8
 803077464\Bq,0,3.9844192,0.6035962091,1.6891201982\Bq,0,3.907382607,0.
 560913232,1.9759015205\Bq,0,4.0100980643,0.6178238681,1.5935264241\Bq,
 0,3.8817037427,0.546685573,2.0714952946\Bq,0,4.0357769287,0.6320515272
 ,1.49793265\Bq,0,3.8560248784,0.532457914,2.1670890687\Bq,0,4.06145579
 3,0.6462791862,1.4023388759\Bq,0,3.8303460141,0.5182302549,2.262682842
 8\Bq,0,4.0871346573,0.6605068452,1.3067451018\Bq,0,3.9587403357,0.5893
 685501,1.7847139723\Bq,0,3.9146062187,1.0700543612,1.9490104442\Bq,0,3
 .9659639473,1.0985096793,1.757822896\Bq,0,3.8889273544,1.0558267022,2.
 0446042183\Bq,0,3.9916428117,1.1127373383,1.6622291219\Bq,0,3.86324849
 ,1.0415990432,2.1401979924\Bq,0,4.017321676,1.1269649973,1.5666353478\
 Bq,0,3.8375696257,1.0273713841,2.2357917665\Bq,0,4.0430005403,1.141192
 6564,1.4710415737\Bq,0,3.8118907614,1.0131437251,2.3313855406\Bq,0,4.0
 686794046,1.1554203154,1.3754477996\Bq,0,3.940285083,1.0842820203,1.85
 34166701\Bq,0,3.896150966,1.5649678314,2.017713142\Bq,0,3.9475086947,1
 .5934231495,1.8265255938\Bq,0,3.8704721017,1.5507401724,2.1133069161\B
 q,0,3.973187559,1.6076508085,1.7309318197\Bq,0,3.8447932374,1.53651251
 33,2.2089006902\Bq,0,3.9988664233,1.6218784675,1.6353380456\Bq,0,3.819
 114373,1.5222848543,2.3044944643\Bq,0,4.0245452876,1.6361061265,1.5397
 442715\Bq,0,3.7934355087,1.5080571953,2.4000882384\Bq,0,4.0502241519,1
 .6503337856,1.4441504974\Bq,0,3.9218298303,1.5791954904,1.9221193679\\
 Version=ES64L-G09RevD.01\HF=-847.0032898\RMSD=7.512e-09\Dipole=0.01868
 08,0.0336671,0.0011595\Quadrupole=4.9072795,4.7288219,-9.6361014,-0.28
 50201,2.3867064,-0.880172\PG=C01 [X(C22H14)]\\@


 IF IT'S NOT TRUE, IT'S WELL INVENTED -- DANTE
 Job cpu time:       0 days  3 hours  4 minutes 42.2 seconds.
 File lengths (MBytes):  RWF=    184 Int=      0 D2E=      0 Chk=     19 Scr=      1
 Normal termination of Gaussian 09 at Fri Aug 14 17:36:23 2020.

real	23m37.659s
user	184m40.177s
sys	0m2.114s
