 Entering Gaussian System, Link 0=g09
 Initial command:
 /share/programs/GAUSSIAN/64/g09/l1.exe "/scratch/yannick.28378/Gau-23497.inp" -scrdir="/scratch/yannick.28378/"
 Entering Link 1 = /share/programs/GAUSSIAN/64/g09/l1.exe PID=     23556.
  
 Copyright (c) 1988,1990,1992,1993,1995,1998,2003,2009,2013,
            Gaussian, Inc.  All Rights Reserved.
  
 This is part of the Gaussian(R) 09 program.  It is based on
 the Gaussian(R) 03 system (copyright 2003, Gaussian, Inc.),
 the Gaussian(R) 98 system (copyright 1998, Gaussian, Inc.),
 the Gaussian(R) 94 system (copyright 1995, Gaussian, Inc.),
 the Gaussian 92(TM) system (copyright 1992, Gaussian, Inc.),
 the Gaussian 90(TM) system (copyright 1990, Gaussian, Inc.),
 the Gaussian 88(TM) system (copyright 1988, Gaussian, Inc.),
 the Gaussian 86(TM) system (copyright 1986, Carnegie Mellon
 University), and the Gaussian 82(TM) system (copyright 1983,
 Carnegie Mellon University). Gaussian is a federally registered
 trademark of Gaussian, Inc.
  
 This software contains proprietary and confidential information,
 including trade secrets, belonging to Gaussian, Inc.
  
 This software is provided under written license and may be
 used, copied, transmitted, or stored only in accord with that
 written license.
  
 The following legend is applicable only to US Government
 contracts under FAR:
  
                    RESTRICTED RIGHTS LEGEND
  
 Use, reproduction and disclosure by the US Government is
 subject to restrictions as set forth in subparagraphs (a)
 and (c) of the Commercial Computer Software - Restricted
 Rights clause in FAR 52.227-19.
  
 Gaussian, Inc.
 340 Quinnipiac St., Bldg. 40, Wallingford CT 06492
  
  
 ---------------------------------------------------------------
 Warning -- This program may not be used in any manner that
 competes with the business of Gaussian, Inc. or will provide
 assistance to any competitor of Gaussian, Inc.  The licensee
 of this program is prohibited from giving any competitor of
 Gaussian, Inc. access to this program.  By using this program,
 the user acknowledges that Gaussian, Inc. is engaged in the
 business of creating and licensing software in the field of
 computational chemistry and represents and warrants to the
 licensee that it is not a competitor of Gaussian, Inc. and that
 it will not use this program in any manner prohibited above.
 ---------------------------------------------------------------
  

 Cite this work as:
 Gaussian 09, Revision D.01,
 M. J. Frisch, G. W. Trucks, H. B. Schlegel, G. E. Scuseria, 
 M. A. Robb, J. R. Cheeseman, G. Scalmani, V. Barone, B. Mennucci, 
 G. A. Petersson, H. Nakatsuji, M. Caricato, X. Li, H. P. Hratchian, 
 A. F. Izmaylov, J. Bloino, G. Zheng, J. L. Sonnenberg, M. Hada, 
 M. Ehara, K. Toyota, R. Fukuda, J. Hasegawa, M. Ishida, T. Nakajima, 
 Y. Honda, O. Kitao, H. Nakai, T. Vreven, J. A. Montgomery, Jr., 
 J. E. Peralta, F. Ogliaro, M. Bearpark, J. J. Heyd, E. Brothers, 
 K. N. Kudin, V. N. Staroverov, T. Keith, R. Kobayashi, J. Normand, 
 K. Raghavachari, A. Rendell, J. C. Burant, S. S. Iyengar, J. Tomasi, 
 M. Cossi, N. Rega, J. M. Millam, M. Klene, J. E. Knox, J. B. Cross, 
 V. Bakken, C. Adamo, J. Jaramillo, R. Gomperts, R. E. Stratmann, 
 O. Yazyev, A. J. Austin, R. Cammi, C. Pomelli, J. W. Ochterski, 
 R. L. Martin, K. Morokuma, V. G. Zakrzewski, G. A. Voth, 
 P. Salvador, J. J. Dannenberg, S. Dapprich, A. D. Daniels, 
 O. Farkas, J. B. Foresman, J. V. Ortiz, J. Cioslowski, 
 and D. J. Fox, Gaussian, Inc., Wallingford CT, 2013.
 
 ******************************************
 Gaussian 09:  ES64L-G09RevD.01 24-Apr-2013
                14-Aug-2020 
 ******************************************
 %nproc=8
 Will use up to    8 processors via shared memory.
 %mem=1000MB
 ----------------------------------------
 # rb3lyp/6-311+g** NMR geom=connectivity
 ----------------------------------------
 1/38=1,57=2/1;
 2/12=2,17=6,18=5,40=1/2;
 3/5=4,6=6,7=111,11=2,16=1,25=1,30=1,74=-5,116=1/1,2,8,3;
 4//1;
 5/5=2,38=5/2;
 8/6=1,10=90,11=11/1;
 10/13=100,45=16/2;
 6/7=2,8=2,9=2,10=2,28=1/1;
 99/9=1/99;
 -----
 Title
 -----
 Symbolic Z-matrix:
 Charge =  0 Multiplicity = 1
 C                    -4.05006  -0.57719   0.81367 
 H                    -5.02638  -1.00827   1.00248 
 C                    -3.93816   0.66178   0.24009 
 H                    -4.82524   1.23389  -0.01113 
 C                    -2.67684   1.24332   0.00576 
 C                    -1.49741   0.50515   0.28483 
 C                    -1.65083  -0.73387   0.9404 
 H                    -0.77136  -1.2731    1.26338 
 C                    -2.88985  -1.2624    1.19943 
 H                    -2.96837  -2.21246   1.71527 
 C                    -2.57732   2.59637  -0.41929 
 H                    -3.48707   3.14122  -0.64741 
 C                    -1.37419   3.21479  -0.4364 
 H                    -1.29973   4.2742   -0.65781 
 C                    -0.17195   2.49941  -0.17346 
 C                    -0.20439   1.10184   0.01927 
 C                     1.05135   3.20426  -0.06762 
 H                     1.04273   4.28195  -0.1897 
 C                     2.19421   2.54874   0.25796 
 H                     3.11685   3.09128   0.43347 
 C                     2.22165   1.13366   0.2935 
 C                     1.04869   0.39455   0.03024 
 C                     3.44834   0.46146   0.55739 
 H                     4.30958   1.06061   0.83348 
 C                     3.54273  -0.88559   0.47495 
 H                     4.47315  -1.39397   0.70388 
 C                     2.44901  -1.64744  -0.01963 
 C                     1.21507  -1.00573  -0.30136 
 C                     0.25311  -1.74344  -1.02166 
 H                    -0.65414  -1.25351  -1.34628 
 C                     0.44942  -3.06286  -1.34138 
 H                    -0.30832  -3.59443  -1.90541 
 C                     1.62517  -3.7208   -0.95525 
 H                     1.767    -4.76874  -1.1927 
 C                     2.61099  -3.01442  -0.31831 
 H                     3.55256  -3.49028  -0.06464 
 Bq                   -4.78532   1.26466   0.94847 
 Bq                   -4.78638   1.39511   1.21862 
 Bq                   -4.78497   1.22117   0.85842 
 Bq                   -4.78674   1.43859   1.30867 
 Bq                   -4.78461   1.17769   0.76836 
 Bq                   -4.78709   1.48207   1.39872 
 Bq                   -4.78426   1.13421   0.67831 
 Bq                   -4.78744   1.52555   1.48877 
 Bq                   -4.7839    1.09073   0.58826 
 Bq                   -4.78567   1.30814   1.03852 
 Bq                   -4.78517   1.80188   0.91116 
 Bq                   -4.78447   1.71491   0.73105 
 Bq                   -4.78553   1.84536   1.00121 
 Bq                   -4.78411   1.67143   0.641 
 Bq                   -4.78588   1.88885   1.09126 
 Bq                   -4.78376   1.62795   0.55095 
 Bq                   -4.78624   1.93233   1.18131 
 Bq                   -4.7834    1.58447   0.4609 
 Bq                   -4.78659   1.97581   1.27136 
 Bq                   -4.78305   1.54098   0.37085 
 Bq                   -4.78482   1.7584    0.82111 
 Bq                   -4.78432   2.25214   0.69374 
 Bq                   -4.78361   2.16517   0.51364 
 Bq                   -4.78467   2.29562   0.78379 
 Bq                   -4.78326   2.12169   0.42359 
 Bq                   -4.78503   2.3391    0.87385 
 Bq                   -4.7829    2.07821   0.33354 
 Bq                   -4.78538   2.38259   0.9639 
 Bq                   -4.78255   2.03472   0.24349 
 Bq                   -4.78573   2.42607   1.05395 
 Bq                   -4.78219   1.99124   0.15344 
 Bq                   -4.78396   2.20865   0.60369 
 Bq                   -4.78346   2.70239   0.47633 
 Bq                   -4.78276   2.61543   0.29623 
 Bq                   -4.78382   2.74588   0.56638 
 Bq                   -4.7824    2.57195   0.20618 
 Bq                   -4.78417   2.78936   0.65643 
 Bq                   -4.78205   2.52846   0.11613 
 Bq                   -4.78453   2.83284   0.74648 
 Bq                   -4.78169   2.48498   0.02608 
 Bq                   -4.78488   2.87632   0.83653 
 Bq                   -4.78134   2.4415   -0.06397 
 Bq                   -4.78311   2.65891   0.38628 
 Bq                   -4.29201  -1.80018   2.65242 
 Bq                   -4.29131  -1.88714   2.47232 
 Bq                   -4.29237  -1.75669   2.74247 
 Bq                   -4.29095  -1.93062   2.38226 
 Bq                   -4.29272  -1.71321   2.83252 
 Bq                   -4.2906   -1.97411   2.29221 
 Bq                   -4.29308  -1.66973   2.92257 
 Bq                   -4.29024  -2.01759   2.20216 
 Bq                   -4.29343  -1.62624   3.01262 
 Bq                   -4.28989  -2.06107   2.11211 
 Bq                   -4.29166  -1.84366   2.56237 
 Bq                   -4.29116  -1.34992   2.435 
 Bq                   -4.29045  -1.43688   2.2549 
 Bq                   -4.29151  -1.30644   2.52506 
 Bq                   -4.2901   -1.48037   2.16485 
 Bq                   -4.29187  -1.26295   2.61511 
 Bq                   -4.28974  -1.52385   2.0748 
 Bq                   -4.29222  -1.21947   2.70516 
 Bq                   -4.28939  -1.56733   1.98475 
 Bq                   -4.29258  -1.17599   2.79521 
 Bq                   -4.28904  -1.61082   1.8947 
 Bq                   -4.29081  -1.3934    2.34495 
 Bq                   -4.29031  -0.89966   2.21759 
 Bq                   -4.2896   -0.98663   2.03749 
 Bq                   -4.29066  -0.85618   2.30764 
 Bq                   -4.28924  -1.03011   1.94744 
 Bq                   -4.29101  -0.8127    2.39769 
 Bq                   -4.28889  -1.07359   1.85739 
 Bq                   -4.29137  -0.76921   2.48774 
 Bq                   -4.28854  -1.11708   1.76734 
 Bq                   -4.29172  -0.72573   2.5778 
 Bq                   -4.28818  -1.16056   1.67729 
 Bq                   -4.28995  -0.94314   2.12754 
 Bq                   -4.28945  -0.4494    2.00018 
 Bq                   -4.28874  -0.53637   1.82008 
 Bq                   -4.2898   -0.40592   2.09023 
 Bq                   -4.28839  -0.57985   1.73003 
 Bq                   -4.29016  -0.36244   2.18028 
 Bq                   -4.28803  -0.62334   1.63998 
 Bq                   -4.29051  -0.31896   2.27033 
 Bq                   -4.28768  -0.66682   1.54993 
 Bq                   -4.29087  -0.27547   2.36038 
 Bq                   -4.28733  -0.7103    1.45988 
 Bq                   -4.2891   -0.49289   1.91013 
 Bq                   -4.2886    0.00085   1.78277 
 Bq                   -4.28789  -0.08611   1.60267 
 Bq                   -4.28895   0.04433   1.87282 
 Bq                   -4.28753  -0.1296    1.51262 
 Bq                   -4.2893    0.08782   1.96287 
 Bq                   -4.28718  -0.17308   1.42257 
 Bq                   -4.28966   0.1313    2.05292 
 Bq                   -4.28683  -0.21656   1.33252 
 Bq                   -4.29001   0.17478   2.14297 
 Bq                   -4.28647  -0.26004   1.24246 
 Bq                   -4.28824  -0.04263   1.69272 
 Bq                   -4.28774   0.45111   1.56536 
 Bq                   -4.28703   0.36414   1.38526 
 Bq                   -4.2881    0.49459   1.65541 
 Bq                   -4.28668   0.32066   1.2952 
 Bq                   -4.28845   0.53807   1.74546 
 Bq                   -4.28633   0.27718   1.20515 
 Bq                   -4.2888    0.58156   1.83551 
 Bq                   -4.28597   0.2337    1.1151 
 Bq                   -4.28916   0.62504   1.92556 
 Bq                   -4.28562   0.19021   1.02505 
 Bq                   -4.28739   0.40763   1.47531 
 Bq                   -4.28689   0.90137   1.34795 
 Bq                   -4.28618   0.8144    1.16784 
 Bq                   -4.28724   0.94485   1.438 
 Bq                   -4.28582   0.77092   1.07779 
 Bq                   -4.28759   0.98833   1.52805 
 Bq                   -4.28547   0.72744   0.98774 
 Bq                   -4.28795   1.03181   1.6181 
 Bq                   -4.28512   0.68395   0.89769 
 Bq                   -4.2883    1.0753    1.70815 
 Bq                   -4.28476   0.64047   0.80764 
 Bq                   -4.28653   0.85788   1.25789 
 Bq                   -4.28603   1.35162   1.13053 
 Bq                   -4.28532   1.26466   0.95043 
 Bq                   -4.28639   1.39511   1.22058 
 Bq                   -4.28497   1.22117   0.86038 
 Bq                   -4.28674   1.43859   1.31063 
 Bq                   -4.28462   1.17769   0.77033 
 Bq                   -4.28709   1.48207   1.40069 
 Bq                   -4.28426   1.13421   0.68028 
 Bq                   -4.28745   1.52555   1.49074 
 Bq                   -4.28391   1.09073   0.59023 
 Bq                   -4.28568   1.30814   1.04048 
 Bq                   -4.28518   1.80188   0.91312 
 Bq                   -4.28447   1.71491   0.73302 
 Bq                   -4.28553   1.84536   1.00317 
 Bq                   -4.28412   1.67143   0.64297 
 Bq                   -4.28589   1.88885   1.09322 
 Bq                   -4.28376   1.62795   0.55292 
 Bq                   -4.28624   1.93233   1.18327 
 Bq                   -4.28341   1.58447   0.46287 
 Bq                   -4.28659   1.97581   1.27332 
 Bq                   -4.28305   1.54098   0.37282 
 Bq                   -4.28482   1.7584    0.82307 
 Bq                   -4.28432   2.25214   0.69571 
 Bq                   -4.28361   2.16517   0.51561 
 Bq                   -4.28468   2.29562   0.78576 
 Bq                   -4.28326   2.12169   0.42556 
 Bq                   -4.28503   2.3391    0.87581 
 Bq                   -4.28291   2.07821   0.33551 
 Bq                   -4.28538   2.38259   0.96586 
 Bq                   -4.28255   2.03472   0.24546 
 Bq                   -4.28574   2.42607   1.05591 
 Bq                   -4.2822    1.99124   0.15541 
 Bq                   -4.28397   2.20865   0.60566 
 Bq                   -4.28347   2.70239   0.4783 
 Bq                   -4.28276   2.61543   0.2982 
 Bq                   -4.28382   2.74588   0.56835 
 Bq                   -4.28241   2.57195   0.20815 
 Bq                   -4.28418   2.78936   0.6584 
 Bq                   -4.28205   2.52846   0.11809 
 Bq                   -4.28453   2.83284   0.74845 
 Bq                   -4.2817    2.48498   0.02804 
 Bq                   -4.28488   2.87632   0.8385 
 Bq                   -4.28134   2.4415   -0.06201 
 Bq                   -4.28311   2.65891   0.38825 
 Bq                   -3.79202  -1.80018   2.65438 
 Bq                   -3.79131  -1.88714   2.47428 
 Bq                   -3.79237  -1.75669   2.74443 
 Bq                   -3.79096  -1.93062   2.38423 
 Bq                   -3.79273  -1.71321   2.83448 
 Bq                   -3.7906   -1.97411   2.29418 
 Bq                   -3.79308  -1.66973   2.92453 
 Bq                   -3.79025  -2.01759   2.20413 
 Bq                   -3.79343  -1.62624   3.01458 
 Bq                   -3.78989  -2.06107   2.11408 
 Bq                   -3.79166  -1.84366   2.56433 
 Bq                   -3.79116  -1.34992   2.43697 
 Bq                   -3.79046  -1.43688   2.25687 
 Bq                   -3.79152  -1.30644   2.52702 
 Bq                   -3.7901   -1.48037   2.16682 
 Bq                   -3.79187  -1.26295   2.61707 
 Bq                   -3.78975  -1.52385   2.07677 
 Bq                   -3.79223  -1.21947   2.70712 
 Bq                   -3.78939  -1.56733   1.98672 
 Bq                   -3.79258  -1.17599   2.79717 
 Bq                   -3.78904  -1.61082   1.89667 
 Bq                   -3.79081  -1.3934    2.34692 
 Bq                   -3.79031  -0.89966   2.21956 
 Bq                   -3.7896   -0.98663   2.03946 
 Bq                   -3.79066  -0.85618   2.30961 
 Bq                   -3.78925  -1.03011   1.94941 
 Bq                   -3.79102  -0.8127    2.39966 
 Bq                   -3.78889  -1.07359   1.85936 
 Bq                   -3.79137  -0.76921   2.48971 
 Bq                   -3.78854  -1.11708   1.7693 
 Bq                   -3.79172  -0.72573   2.57976 
 Bq                   -3.78818  -1.16056   1.67925 
 Bq                   -3.78995  -0.94314   2.12951 
 Bq                   -3.78945  -0.4494    2.00215 
 Bq                   -3.78875  -0.53637   1.82204 
 Bq                   -3.78981  -0.40592   2.0922 
 
 Symmetry turned off:
 Cannot cope with ghost atoms or with translation vectors.
 Stoichiometry    C22H14
 Framework group  C1[X(C22H14)]
 NUMDOF-- NAT=    36 NAtoms=   236
 Deg. of freedom     0
 Full point group                 C1      NOp   1
                          Input orientation:                          
 ---------------------------------------------------------------------
 Center     Atomic      Atomic             Coordinates (Angstroms)
 Number     Number       Type             X           Y           Z
 ---------------------------------------------------------------------
      1          6           0       -4.050056   -0.577186    0.813671
      2          1           0       -5.026380   -1.008273    1.002476
      3          6           0       -3.938155    0.661780    0.240088
      4          1           0       -4.825242    1.233889   -0.011130
      5          6           0       -2.676841    1.243325    0.005758
      6          6           0       -1.497412    0.505153    0.284825
      7          6           0       -1.650833   -0.733873    0.940403
      8          1           0       -0.771365   -1.273097    1.263375
      9          6           0       -2.889855   -1.262404    1.199431
     10          1           0       -2.968371   -2.212456    1.715268
     11          6           0       -2.577319    2.596370   -0.419293
     12          1           0       -3.487073    3.141224   -0.647406
     13          6           0       -1.374190    3.214790   -0.436403
     14          1           0       -1.299732    4.274202   -0.657814
     15          6           0       -0.171949    2.499409   -0.173459
     16          6           0       -0.204392    1.101844    0.019269
     17          6           0        1.051349    3.204256   -0.067622
     18          1           0        1.042734    4.281950   -0.189700
     19          6           0        2.194209    2.548745    0.257958
     20          1           0        3.116853    3.091285    0.433473
     21          6           0        2.221647    1.133656    0.293499
     22          6           0        1.048693    0.394553    0.030241
     23          6           0        3.448336    0.461463    0.557394
     24          1           0        4.309579    1.060605    0.833485
     25          6           0        3.542735   -0.885593    0.474946
     26          1           0        4.473147   -1.393970    0.703882
     27          6           0        2.449005   -1.647445   -0.019632
     28          6           0        1.215070   -1.005726   -0.301357
     29          6           0        0.253111   -1.743444   -1.021659
     30          1           0       -0.654136   -1.253505   -1.346285
     31          6           0        0.449419   -3.062860   -1.341378
     32          1           0       -0.308316   -3.594431   -1.905406
     33          6           0        1.625173   -3.720797   -0.955254
     34          1           0        1.767005   -4.768740   -1.192702
     35          6           0        2.610987   -3.014418   -0.318305
     36          1           0        3.552561   -3.490281   -0.064637
     37          0           0       -4.785320    1.264658    0.948466
     38          0           0       -4.786382    1.395106    1.218618
     39          0           0       -4.784966    1.221175    0.858416
     40          0           0       -4.786736    1.438588    1.308669
     41          0           0       -4.784612    1.177692    0.768365
     42          0           0       -4.787090    1.482071    1.398720
     43          0           0       -4.784258    1.134209    0.678314
     44          0           0       -4.787444    1.525554    1.488770
     45          0           0       -4.783904    1.090727    0.588263
     46          0           0       -4.785674    1.308140    1.038517
     47          0           0       -4.785173    1.801880    0.911156
     48          0           0       -4.784465    1.714915    0.731054
     49          0           0       -4.785527    1.845363    1.001206
     50          0           0       -4.784111    1.671432    0.641004
     51          0           0       -4.785881    1.888845    1.091257
     52          0           0       -4.783757    1.627949    0.550953
     53          0           0       -4.786235    1.932328    1.181308
     54          0           0       -4.783403    1.584466    0.460902
     55          0           0       -4.786589    1.975811    1.271359
     56          0           0       -4.783049    1.540984    0.370852
     57          0           0       -4.784819    1.758397    0.821105
     58          0           0       -4.784319    2.252137    0.693744
     59          0           0       -4.783611    2.165172    0.513642
     60          0           0       -4.784673    2.295620    0.783795
     61          0           0       -4.783257    2.121689    0.423592
     62          0           0       -4.785027    2.339102    0.873845
     63          0           0       -4.782903    2.078206    0.333541
     64          0           0       -4.785381    2.382585    0.963896
     65          0           0       -4.782549    2.034723    0.243490
     66          0           0       -4.785735    2.426068    1.053947
     67          0           0       -4.782195    1.991241    0.153440
     68          0           0       -4.783965    2.208654    0.603693
     69          0           0       -4.783464    2.702394    0.476332
     70          0           0       -4.782756    2.615428    0.296231
     71          0           0       -4.783818    2.745877    0.566383
     72          0           0       -4.782402    2.571946    0.206180
     73          0           0       -4.784172    2.789359    0.656433
     74          0           0       -4.782048    2.528463    0.116129
     75          0           0       -4.784526    2.832842    0.746484
     76          0           0       -4.781694    2.484980    0.026078
     77          0           0       -4.784880    2.876325    0.836535
     78          0           0       -4.781340    2.441498   -0.063972
     79          0           0       -4.783110    2.658911    0.386281
     80          0           0       -4.292014   -1.800176    2.652416
     81          0           0       -4.291306   -1.887141    2.472315
     82          0           0       -4.292368   -1.756693    2.742467
     83          0           0       -4.290952   -1.930624    2.382264
     84          0           0       -4.292722   -1.713210    2.832518
     85          0           0       -4.290598   -1.974107    2.292214
     86          0           0       -4.293076   -1.669728    2.922569
     87          0           0       -4.290244   -2.017589    2.202163
     88          0           0       -4.293430   -1.626245    3.012619
     89          0           0       -4.289890   -2.061072    2.112112
     90          0           0       -4.291660   -1.843658    2.562366
     91          0           0       -4.291160   -1.349919    2.435005
     92          0           0       -4.290452   -1.436884    2.254903
     93          0           0       -4.291514   -1.306436    2.525055
     94          0           0       -4.290098   -1.480367    2.164853
     95          0           0       -4.291868   -1.262953    2.615106
     96          0           0       -4.289744   -1.523850    2.074802
     97          0           0       -4.292222   -1.219471    2.705157
     98          0           0       -4.289390   -1.567332    1.984751
     99          0           0       -4.292576   -1.175988    2.795207
    100          0           0       -4.289036   -1.610815    1.894700
    101          0           0       -4.290806   -1.393401    2.344954
    102          0           0       -4.290305   -0.899662    2.217593
    103          0           0       -4.289597   -0.986627    2.037491
    104          0           0       -4.290659   -0.856179    2.307643
    105          0           0       -4.289243   -1.030110    1.947441
    106          0           0       -4.291013   -0.812696    2.397694
    107          0           0       -4.288889   -1.073593    1.857390
    108          0           0       -4.291367   -0.769214    2.487745
    109          0           0       -4.288535   -1.117075    1.767339
    110          0           0       -4.291721   -0.725731    2.577795
    111          0           0       -4.288181   -1.160558    1.677289
    112          0           0       -4.289951   -0.943145    2.127542
    113          0           0       -4.289450   -0.449405    2.000181
    114          0           0       -4.288742   -0.536370    1.820079
    115          0           0       -4.289804   -0.405922    2.090231
    116          0           0       -4.288388   -0.579853    1.730029
    117          0           0       -4.290158   -0.362439    2.180282
    118          0           0       -4.288034   -0.623336    1.639978
    119          0           0       -4.290512   -0.318957    2.270333
    120          0           0       -4.287680   -0.666818    1.549927
    121          0           0       -4.290866   -0.275474    2.360384
    122          0           0       -4.287326   -0.710301    1.459877
    123          0           0       -4.289096   -0.492888    1.910130
    124          0           0       -4.288596    0.000852    1.782769
    125          0           0       -4.287888   -0.086113    1.602667
    126          0           0       -4.288950    0.044335    1.872820
    127          0           0       -4.287534   -0.129596    1.512617
    128          0           0       -4.289304    0.087818    1.962870
    129          0           0       -4.287180   -0.173079    1.422566
    130          0           0       -4.289658    0.131300    2.052921
    131          0           0       -4.286826   -0.216561    1.332515
    132          0           0       -4.290012    0.174783    2.142972
    133          0           0       -4.286472   -0.260044    1.242465
    134          0           0       -4.288242   -0.042631    1.692718
    135          0           0       -4.287741    0.451109    1.565357
    136          0           0       -4.287033    0.364144    1.385256
    137          0           0       -4.288095    0.494592    1.655408
    138          0           0       -4.286679    0.320661    1.295205
    139          0           0       -4.288449    0.538075    1.745458
    140          0           0       -4.286325    0.277178    1.205154
    141          0           0       -4.288803    0.581557    1.835509
    142          0           0       -4.285971    0.233696    1.115103
    143          0           0       -4.289157    0.625040    1.925560
    144          0           0       -4.285617    0.190213    1.025053
    145          0           0       -4.287387    0.407626    1.475306
    146          0           0       -4.286886    0.901366    1.347945
    147          0           0       -4.286178    0.814401    1.167844
    148          0           0       -4.287240    0.944849    1.437996
    149          0           0       -4.285824    0.770918    1.077793
    150          0           0       -4.287594    0.988331    1.528046
    151          0           0       -4.285470    0.727435    0.987742
    152          0           0       -4.287948    1.031814    1.618097
    153          0           0       -4.285116    0.683952    0.897692
    154          0           0       -4.288302    1.075297    1.708148
    155          0           0       -4.284762    0.640470    0.807641
    156          0           0       -4.286532    0.857883    1.257894
    157          0           0       -4.286032    1.351623    1.130533
    158          0           0       -4.285324    1.264658    0.950432
    159          0           0       -4.286386    1.395106    1.220584
    160          0           0       -4.284970    1.221175    0.860381
    161          0           0       -4.286740    1.438588    1.310635
    162          0           0       -4.284616    1.177692    0.770330
    163          0           0       -4.287094    1.482071    1.400685
    164          0           0       -4.284262    1.134209    0.680280
    165          0           0       -4.287448    1.525554    1.490736
    166          0           0       -4.283908    1.090727    0.590229
    167          0           0       -4.285678    1.308140    1.040482
    168          0           0       -4.285177    1.801880    0.913121
    169          0           0       -4.284469    1.714915    0.733020
    170          0           0       -4.285531    1.845363    1.003172
    171          0           0       -4.284115    1.671432    0.642969
    172          0           0       -4.285885    1.888845    1.093223
    173          0           0       -4.283761    1.627949    0.552918
    174          0           0       -4.286239    1.932328    1.183273
    175          0           0       -4.283407    1.584466    0.462868
    176          0           0       -4.286593    1.975811    1.273324
    177          0           0       -4.283053    1.540984    0.372817
    178          0           0       -4.284823    1.758397    0.823071
    179          0           0       -4.284322    2.252137    0.695709
    180          0           0       -4.283614    2.165172    0.515608
    181          0           0       -4.284676    2.295620    0.785760
    182          0           0       -4.283260    2.121689    0.425557
    183          0           0       -4.285030    2.339102    0.875811
    184          0           0       -4.282906    2.078206    0.335507
    185          0           0       -4.285384    2.382585    0.965861
    186          0           0       -4.282552    2.034723    0.245456
    187          0           0       -4.285738    2.426068    1.055912
    188          0           0       -4.282198    1.991241    0.155405
    189          0           0       -4.283968    2.208654    0.605659
    190          0           0       -4.283468    2.702394    0.478297
    191          0           0       -4.282760    2.615428    0.298196
    192          0           0       -4.283822    2.745877    0.568348
    193          0           0       -4.282406    2.571946    0.208145
    194          0           0       -4.284176    2.789359    0.658399
    195          0           0       -4.282052    2.528463    0.118095
    196          0           0       -4.284530    2.832842    0.748450
    197          0           0       -4.281698    2.484980    0.028044
    198          0           0       -4.284884    2.876325    0.838500
    199          0           0       -4.281344    2.441498   -0.062007
    200          0           0       -4.283114    2.658911    0.388247
    201          0           0       -3.792018   -1.800176    2.654382
    202          0           0       -3.791310   -1.887141    2.474281
    203          0           0       -3.792372   -1.756693    2.744433
    204          0           0       -3.790956   -1.930624    2.384230
    205          0           0       -3.792726   -1.713210    2.834483
    206          0           0       -3.790602   -1.974107    2.294179
    207          0           0       -3.793080   -1.669728    2.924534
    208          0           0       -3.790248   -2.017589    2.204129
    209          0           0       -3.793434   -1.626245    3.014585
    210          0           0       -3.789894   -2.061072    2.114078
    211          0           0       -3.791664   -1.843658    2.564331
    212          0           0       -3.791164   -1.349919    2.436970
    213          0           0       -3.790456   -1.436884    2.256869
    214          0           0       -3.791518   -1.306436    2.527021
    215          0           0       -3.790102   -1.480367    2.166818
    216          0           0       -3.791872   -1.262953    2.617072
    217          0           0       -3.789748   -1.523850    2.076767
    218          0           0       -3.792226   -1.219471    2.707122
    219          0           0       -3.789394   -1.567332    1.986717
    220          0           0       -3.792580   -1.175988    2.797173
    221          0           0       -3.789040   -1.610815    1.896666
    222          0           0       -3.790810   -1.393401    2.346919
    223          0           0       -3.790309   -0.899662    2.219558
    224          0           0       -3.789601   -0.986627    2.039457
    225          0           0       -3.790663   -0.856179    2.309609
    226          0           0       -3.789247   -1.030110    1.949406
    227          0           0       -3.791017   -0.812696    2.399660
    228          0           0       -3.788893   -1.073593    1.859355
    229          0           0       -3.791371   -0.769214    2.489710
    230          0           0       -3.788539   -1.117075    1.769305
    231          0           0       -3.791725   -0.725731    2.579761
    232          0           0       -3.788185   -1.160558    1.679254
    233          0           0       -3.789955   -0.943145    2.129508
    234          0           0       -3.789454   -0.449405    2.002146
    235          0           0       -3.788746   -0.536370    1.822045
    236          0           0       -3.789808   -0.405922    2.092197
 ---------------------------------------------------------------------
 Rotational constants (GHZ):      0.4529074      0.2836956      0.1879557
 Standard basis: 6-311+G(d,p) (5D, 7F)
 Warning:  center  37 has no basis functions!
 Warning:  center  38 has no basis functions!
 Warning:  center  39 has no basis functions!
 Warning:  center  40 has no basis functions!
 Warning:  center  41 has no basis functions!
 Warning:  center  42 has no basis functions!
 Warning:  center  43 has no basis functions!
 Warning:  center  44 has no basis functions!
 Warning:  center  45 has no basis functions!
 Warning:  center  46 has no basis functions!
 Warning:  center  47 has no basis functions!
 Warning:  center  48 has no basis functions!
 Warning:  center  49 has no basis functions!
 Warning:  center  50 has no basis functions!
 Warning:  center  51 has no basis functions!
 Warning:  center  52 has no basis functions!
 Warning:  center  53 has no basis functions!
 Warning:  center  54 has no basis functions!
 Warning:  center  55 has no basis functions!
 Warning:  center  56 has no basis functions!
 Warning:  center  57 has no basis functions!
 Warning:  center  58 has no basis functions!
 Warning:  center  59 has no basis functions!
 Warning:  center  60 has no basis functions!
 Warning:  center  61 has no basis functions!
 Warning:  center  62 has no basis functions!
 Warning:  center  63 has no basis functions!
 Warning:  center  64 has no basis functions!
 Warning:  center  65 has no basis functions!
 Warning:  center  66 has no basis functions!
 Warning:  center  67 has no basis functions!
 Warning:  center  68 has no basis functions!
 Warning:  center  69 has no basis functions!
 Warning:  center  70 has no basis functions!
 Warning:  center  71 has no basis functions!
 Warning:  center  72 has no basis functions!
 Warning:  center  73 has no basis functions!
 Warning:  center  74 has no basis functions!
 Warning:  center  75 has no basis functions!
 Warning:  center  76 has no basis functions!
 Warning:  center  77 has no basis functions!
 Warning:  center  78 has no basis functions!
 Warning:  center  79 has no basis functions!
 Warning:  center  80 has no basis functions!
 Warning:  center  81 has no basis functions!
 Warning:  center  82 has no basis functions!
 Warning:  center  83 has no basis functions!
 Warning:  center  84 has no basis functions!
 Warning:  center  85 has no basis functions!
 Warning:  center  86 has no basis functions!
 Warning:  center  87 has no basis functions!
 Warning:  center  88 has no basis functions!
 Warning:  center  89 has no basis functions!
 Warning:  center  90 has no basis functions!
 Warning:  center  91 has no basis functions!
 Warning:  center  92 has no basis functions!
 Warning:  center  93 has no basis functions!
 Warning:  center  94 has no basis functions!
 Warning:  center  95 has no basis functions!
 Warning:  center  96 has no basis functions!
 Warning:  center  97 has no basis functions!
 Warning:  center  98 has no basis functions!
 Warning:  center  99 has no basis functions!
 Warning:  center 100 has no basis functions!
 Warning:  center 101 has no basis functions!
 Warning:  center 102 has no basis functions!
 Warning:  center 103 has no basis functions!
 Warning:  center 104 has no basis functions!
 Warning:  center 105 has no basis functions!
 Warning:  center 106 has no basis functions!
 Warning:  center 107 has no basis functions!
 Warning:  center 108 has no basis functions!
 Warning:  center 109 has no basis functions!
 Warning:  center 110 has no basis functions!
 Warning:  center 111 has no basis functions!
 Warning:  center 112 has no basis functions!
 Warning:  center 113 has no basis functions!
 Warning:  center 114 has no basis functions!
 Warning:  center 115 has no basis functions!
 Warning:  center 116 has no basis functions!
 Warning:  center 117 has no basis functions!
 Warning:  center 118 has no basis functions!
 Warning:  center 119 has no basis functions!
 Warning:  center 120 has no basis functions!
 Warning:  center 121 has no basis functions!
 Warning:  center 122 has no basis functions!
 Warning:  center 123 has no basis functions!
 Warning:  center 124 has no basis functions!
 Warning:  center 125 has no basis functions!
 Warning:  center 126 has no basis functions!
 Warning:  center 127 has no basis functions!
 Warning:  center 128 has no basis functions!
 Warning:  center 129 has no basis functions!
 Warning:  center 130 has no basis functions!
 Warning:  center 131 has no basis functions!
 Warning:  center 132 has no basis functions!
 Warning:  center 133 has no basis functions!
 Warning:  center 134 has no basis functions!
 Warning:  center 135 has no basis functions!
 Warning:  center 136 has no basis functions!
 Warning:  center 137 has no basis functions!
 Warning:  center 138 has no basis functions!
 Warning:  center 139 has no basis functions!
 Warning:  center 140 has no basis functions!
 Warning:  center 141 has no basis functions!
 Warning:  center 142 has no basis functions!
 Warning:  center 143 has no basis functions!
 Warning:  center 144 has no basis functions!
 Warning:  center 145 has no basis functions!
 Warning:  center 146 has no basis functions!
 Warning:  center 147 has no basis functions!
 Warning:  center 148 has no basis functions!
 Warning:  center 149 has no basis functions!
 Warning:  center 150 has no basis functions!
 Warning:  center 151 has no basis functions!
 Warning:  center 152 has no basis functions!
 Warning:  center 153 has no basis functions!
 Warning:  center 154 has no basis functions!
 Warning:  center 155 has no basis functions!
 Warning:  center 156 has no basis functions!
 Warning:  center 157 has no basis functions!
 Warning:  center 158 has no basis functions!
 Warning:  center 159 has no basis functions!
 Warning:  center 160 has no basis functions!
 Warning:  center 161 has no basis functions!
 Warning:  center 162 has no basis functions!
 Warning:  center 163 has no basis functions!
 Warning:  center 164 has no basis functions!
 Warning:  center 165 has no basis functions!
 Warning:  center 166 has no basis functions!
 Warning:  center 167 has no basis functions!
 Warning:  center 168 has no basis functions!
 Warning:  center 169 has no basis functions!
 Warning:  center 170 has no basis functions!
 Warning:  center 171 has no basis functions!
 Warning:  center 172 has no basis functions!
 Warning:  center 173 has no basis functions!
 Warning:  center 174 has no basis functions!
 Warning:  center 175 has no basis functions!
 Warning:  center 176 has no basis functions!
 Warning:  center 177 has no basis functions!
 Warning:  center 178 has no basis functions!
 Warning:  center 179 has no basis functions!
 Warning:  center 180 has no basis functions!
 Warning:  center 181 has no basis functions!
 Warning:  center 182 has no basis functions!
 Warning:  center 183 has no basis functions!
 Warning:  center 184 has no basis functions!
 Warning:  center 185 has no basis functions!
 Warning:  center 186 has no basis functions!
 Warning:  center 187 has no basis functions!
 Warning:  center 188 has no basis functions!
 Warning:  center 189 has no basis functions!
 Warning:  center 190 has no basis functions!
 Warning:  center 191 has no basis functions!
 Warning:  center 192 has no basis functions!
 Warning:  center 193 has no basis functions!
 Warning:  center 194 has no basis functions!
 Warning:  center 195 has no basis functions!
 Warning:  center 196 has no basis functions!
 Warning:  center 197 has no basis functions!
 Warning:  center 198 has no basis functions!
 Warning:  center 199 has no basis functions!
 Warning:  center 200 has no basis functions!
 Warning:  center 201 has no basis functions!
 Warning:  center 202 has no basis functions!
 Warning:  center 203 has no basis functions!
 Warning:  center 204 has no basis functions!
 Warning:  center 205 has no basis functions!
 Warning:  center 206 has no basis functions!
 Warning:  center 207 has no basis functions!
 Warning:  center 208 has no basis functions!
 Warning:  center 209 has no basis functions!
 Warning:  center 210 has no basis functions!
 Warning:  center 211 has no basis functions!
 Warning:  center 212 has no basis functions!
 Warning:  center 213 has no basis functions!
 Warning:  center 214 has no basis functions!
 Warning:  center 215 has no basis functions!
 Warning:  center 216 has no basis functions!
 Warning:  center 217 has no basis functions!
 Warning:  center 218 has no basis functions!
 Warning:  center 219 has no basis functions!
 Warning:  center 220 has no basis functions!
 Warning:  center 221 has no basis functions!
 Warning:  center 222 has no basis functions!
 Warning:  center 223 has no basis functions!
 Warning:  center 224 has no basis functions!
 Warning:  center 225 has no basis functions!
 Warning:  center 226 has no basis functions!
 Warning:  center 227 has no basis functions!
 Warning:  center 228 has no basis functions!
 Warning:  center 229 has no basis functions!
 Warning:  center 230 has no basis functions!
 Warning:  center 231 has no basis functions!
 Warning:  center 232 has no basis functions!
 Warning:  center 233 has no basis functions!
 Warning:  center 234 has no basis functions!
 Warning:  center 235 has no basis functions!
 Warning:  center 236 has no basis functions!
   568 basis functions,   904 primitive gaussians,   590 cartesian basis functions
    73 alpha electrons       73 beta electrons
       nuclear repulsion energy      1610.9176155625 Hartrees.
 NAtoms=  236 NActive=  236 NUniq=  236 SFac= 1.00D+00 NAtFMM=   60 NAOKFM=T Big=T
 Integral buffers will be    131072 words long.
 Raffenetti 2 integral format.
 Two-electron integral symmetry is turned off.
 One-electron integrals computed using PRISM.
 NBasis=   568 RedAO= T EigKep=  1.78D-06  NBF=   568
 NBsUse=   556 1.00D-06 EigRej=  9.09D-07 NBFU=   556
 ExpMin= 4.38D-02 ExpMax= 4.56D+03 ExpMxC= 6.82D+02 IAcc=2 IRadAn=         4 AccDes= 0.00D+00
 Harris functional with IExCor=  402 and IRadAn=       4 diagonalized for initial guess.
 HarFok:  IExCor=  402 AccDes= 0.00D+00 IRadAn=         4 IDoV= 1 UseB2=F ITyADJ=14
 ICtDFT=  3500011 ScaDFX=  1.000000  1.000000  1.000000  1.000000
 FoFCou: FMM=F IPFlag=           0 FMFlag=      100000 FMFlg1=        2001
         NFxFlg=           0 DoJE=T BraDBF=F KetDBF=T FulRan=T
         wScrn=  0.000000 ICntrl=     500 IOpCl=  0 I1Cent=   200000004 NGrid=           0
         NMat0=    1 NMatS0=      1 NMatT0=    0 NMatD0=    1 NMtDS0=    0 NMtDT0=    0
 Symmetry not used in FoFCou.
 Requested convergence on RMS density matrix=1.00D-08 within 128 cycles.
 Requested convergence on MAX density matrix=1.00D-06.
 Requested convergence on             energy=1.00D-06.
 No special actions if energy rises.
 SCF Done:  E(RB3LYP) =  -847.003289847     A.U. after   15 cycles
            NFock= 15  Conv=0.75D-08     -V/T= 2.0040
 DoSCS=F DFT=T ScalE2(SS,OS)=  1.000000  1.000000
 Range of M.O.s used for correlation:     1   556
 NBasis=   568 NAE=    73 NBE=    73 NFC=     0 NFV=     0
 NROrb=    556 NOA=    73 NOB=    73 NVA=   483 NVB=   483

 **** Warning!!: The largest alpha MO coefficient is  0.10971036D+03

          Differentiating once with respect to magnetic field using GIAOs.
          Electric field/nuclear overlap derivatives assumed to be zero.
 FoFCou: FMM=F IPFlag=           0 FMFlag=      100000 FMFlg1=        2001
         NFxFlg=           0 DoJE=F BraDBF=F KetDBF=T FulRan=T
         wScrn=  0.000000 ICntrl=    6100 IOpCl=  0 I1Cent=           7 NGrid=         236
         NMat0=    1 NMatS0=      1 NMatT0=    0 NMatD0=    1 NMtDS0=    0 NMtDT0=    0
 Symmetry not used in FoFCou.
 FoFJK:  IHMeth= 1 ICntrl=    6127 DoSepK=F KAlg= 0 I1Cent=   0 FoldK=F
 IRaf=         1 NMat=   1 IRICut=       1 DoRegI=T DoRafI=F ISym2E= 0.
          There are     3 degrees of freedom in the 1st order CPHF.  IDoFFX=0 NUNeed=     3.
      3 vectors produced by pass  0 Test12= 1.18D-12 3.33D-08 XBig12= 2.07D+03 9.18D+00.
 AX will form     3 AO Fock derivatives at one time.
      3 vectors produced by pass  1 Test12= 1.18D-12 3.33D-08 XBig12= 3.56D+00 8.03D-01.
      3 vectors produced by pass  2 Test12= 1.18D-12 3.33D-08 XBig12= 2.10D-02 6.92D-02.
      3 vectors produced by pass  3 Test12= 1.18D-12 3.33D-08 XBig12= 5.45D-05 1.89D-03.
      3 vectors produced by pass  4 Test12= 1.18D-12 3.33D-08 XBig12= 1.20D-07 7.79D-05.
      3 vectors produced by pass  5 Test12= 1.18D-12 3.33D-08 XBig12= 4.02D-10 4.73D-06.
      3 vectors produced by pass  6 Test12= 1.18D-12 3.33D-08 XBig12= 1.32D-12 2.61D-07.
 InvSVY:  IOpt=1 It=  1 EMax= 1.42D-14
 Solved reduced A of dimension    21 with     3 vectors.
 Calculating GIAO nuclear magnetic shielding tensors.
 SCF GIAO Magnetic shielding tensor (ppm):
      1  C    Isotropic =    53.8139   Anisotropy =   178.0260
   XX=   -41.4327   YX=   -32.3458   ZX=    10.0287
   XY=   -28.3572   YY=    59.0527   ZY=    55.1899
   XZ=    13.1759   YZ=    58.7550   ZZ=   143.8218
   Eigenvalues:   -53.8775    42.8214   172.4979
      2  H    Isotropic =    24.3095   Anisotropy =     4.8536
   XX=    25.5771   YX=    -1.0289   ZX=     0.5661
   XY=    -0.7431   YY=    26.1829   ZY=    -2.3306
   XZ=    -0.1707   YZ=    -2.4411   ZZ=    21.1687
   Eigenvalues:    20.2108    25.1725    27.5453
      3  C    Isotropic =    51.4055   Anisotropy =   157.8639
   XX=   -31.5399   YX=    38.5015   ZX=   -17.9316
   XY=    34.3519   YY=    49.9437   ZY=    49.6392
   XZ=    -9.8383   YZ=    44.6006   ZZ=   135.8127
   Eigenvalues:   -50.5747    48.1432   156.6481
      4  H    Isotropic =    23.8290   Anisotropy =     7.1838
   XX=    25.3635   YX=     1.8486   ZX=    -0.3559
   XY=     1.9656   YY=    26.4581   ZY=    -2.4103
   XZ=    -1.2941   YZ=    -2.6614   ZZ=    19.6654
   Eigenvalues:    18.8176    24.0511    28.6182
      5  C    Isotropic =    46.0697   Anisotropy =   207.6751
   XX=   -19.2123   YX=    -4.8852   ZX=    -1.6475
   XY=     2.8938   YY=    -2.9860   ZY=    66.5656
   XZ=     2.5356   YZ=    67.9144   ZZ=   160.4073
   Eigenvalues:   -27.2455   -19.0652   184.5197
      6  C    Isotropic =    47.5218   Anisotropy =   196.9389
   XX=   -28.1552   YX=    -2.7889   ZX=    12.0660
   XY=   -14.3886   YY=    21.2063   ZY=    74.2521
   XZ=   -18.6356   YZ=    61.1113   ZZ=   149.5144
   Eigenvalues:   -30.2925    -5.9564   178.8144
      7  C    Isotropic =    49.3915   Anisotropy =   179.8333
   XX=   -12.5211   YX=    28.7048   ZX=   -24.6745
   XY=    31.5123   YY=    29.7000   ZY=    77.7459
   XZ=   -40.0095   YZ=    65.3072   ZZ=   130.9956
   Eigenvalues:   -52.1299    31.0240   169.2804
      8  H    Isotropic =    23.1586   Anisotropy =    13.5525
   XX=    28.5711   YX=     1.5482   ZX=    -3.6986
   XY=     3.2466   YY=    22.7592   ZY=    -2.1157
   XZ=    -8.3753   YZ=    -1.0821   ZZ=    18.1456
   Eigenvalues:    15.3521    21.9301    32.1936
      9  C    Isotropic =    55.1460   Anisotropy =   174.7426
   XX=    46.7071   YX=    -2.6162   ZX=    -2.8420
   XY=     0.6223   YY=    -1.6258   ZY=    92.8272
   XZ=     0.5159   YZ=    95.6598   ZZ=   120.3568
   Eigenvalues:   -52.8932    46.6901   171.6411
     10  H    Isotropic =    24.6278   Anisotropy =     7.1815
   XX=    29.1040   YX=     0.1399   ZX=    -0.3694
   XY=     0.3642   YY=    23.4778   ZY=    -1.0805
   XZ=    -2.4493   YZ=    -2.9465   ZZ=    21.3016
   Eigenvalues:    19.9703    24.4977    29.4155
     11  C    Isotropic =    51.5607   Anisotropy =   151.2142
   XX=     2.1639   YX=    40.9287   ZX=   -26.0048
   XY=    49.9131   YY=    12.2331   ZY=    42.1342
   XZ=   -15.6145   YZ=    38.6614   ZZ=   140.2851
   Eigenvalues:   -48.1951    50.5071   152.3701
     12  H    Isotropic =    23.8537   Anisotropy =     7.3815
   XX=    25.9672   YX=     2.3738   ZX=    -0.2390
   XY=     2.4320   YY=    26.3975   ZY=    -1.8291
   XZ=     0.3529   YZ=    -1.7731   ZZ=    19.1964
   Eigenvalues:    18.7149    24.0714    28.7747
     13  C    Isotropic =    52.8653   Anisotropy =   147.4265
   XX=    51.2944   YX=    19.9221   ZX=   -13.4678
   XY=    11.5478   YY=   -34.0176   ZY=    42.5079
   XZ=    -9.2241   YZ=    40.0716   ZZ=   141.3192
   Eigenvalues:   -46.5152    53.9616   151.1497
     14  H    Isotropic =    24.0156   Anisotropy =     7.3485
   XX=    28.6644   YX=     0.6281   ZX=     1.0808
   XY=     0.5926   YY=    24.4325   ZY=    -1.0823
   XZ=     1.6846   YZ=    -0.3842   ZZ=    18.9500
   Eigenvalues:    18.6430    24.4892    28.9146
     15  C    Isotropic =    46.2221   Anisotropy =   203.9048
   XX=   -27.2215   YX=    -0.0442   ZX=   -28.9124
   XY=     4.6427   YY=   -10.5571   ZY=    28.3830
   XZ=   -10.2704   YZ=    26.7376   ZZ=   176.4448
   Eigenvalues:   -30.5512   -12.9411   182.1586
     16  C    Isotropic =    51.9375   Anisotropy =   188.2004
   XX=   -19.4441   YX=     5.5046   ZX=    15.7858
   XY=    -8.3874   YY=     2.4863   ZY=    22.9264
   XZ=   -50.6243   YZ=    23.3340   ZZ=   172.7704
   Eigenvalues:   -21.0294    -0.5625   177.4045
     17  C    Isotropic =    51.9482   Anisotropy =   149.1264
   XX=    50.7296   YX=   -23.9353   ZX=   -18.4207
   XY=   -16.7271   YY=   -41.8764   ZY=    17.8662
   XZ=   -14.3278   YZ=    11.4871   ZZ=   146.9915
   Eigenvalues:   -46.7796    51.2584   151.3658
     18  H    Isotropic =    24.0122   Anisotropy =     7.5163
   XX=    28.5811   YX=    -0.0866   ZX=     1.5071
   XY=    -0.2466   YY=    24.3342   ZY=    -0.7657
   XZ=     2.5088   YZ=    -1.5208   ZZ=    19.1214
   Eigenvalues:    18.5094    24.5041    29.0231
     19  C    Isotropic =    51.7356   Anisotropy =   148.5924
   XX=     2.4559   YX=   -45.6913   ZX=   -31.2531
   XY=   -53.4448   YY=     7.4698   ZY=    -1.8888
   XZ=   -23.5601   YZ=    -1.2765   ZZ=   145.2810
   Eigenvalues:   -46.9894    51.3989   150.7972
     20  H    Isotropic =    23.9071   Anisotropy =     7.6651
   XX=    25.5796   YX=    -2.0226   ZX=     1.4905
   XY=    -1.9998   YY=    27.3706   ZY=    -0.5164
   XZ=     2.7276   YZ=    -1.1179   ZZ=    18.7711
   Eigenvalues:    18.1643    24.5398    29.0172
     21  C    Isotropic =    45.9767   Anisotropy =   203.9316
   XX=   -16.2108   YX=    13.1802   ZX=   -44.5913
   XY=     6.5714   YY=   -20.6329   ZY=     0.0949
   XZ=   -28.8984   YZ=   -13.0883   ZZ=   174.7736
   Eigenvalues:   -30.5796   -13.4215   181.9311
     22  C    Isotropic =    52.0450   Anisotropy =   188.1157
   XX=    -0.0787   YX=     2.5023   ZX=   -16.3451
   XY=    18.9327   YY=   -14.4798   ZY=   -34.4335
   XZ=   -50.6032   YZ=    19.9104   ZZ=   170.6934
   Eigenvalues:   -20.7705    -0.5500   177.4554
     23  C    Isotropic =    53.2392   Anisotropy =   146.7412
   XX=   -22.0674   YX=   -32.0012   ZX=   -49.4857
   XY=   -23.2043   YY=    44.3661   ZY=   -15.6400
   XZ=   -43.8090   YZ=   -20.2525   ZZ=   137.4189
   Eigenvalues:   -45.6776    54.3286   151.0667
     24  H    Isotropic =    23.8249   Anisotropy =     7.5289
   XX=    25.1073   YX=    -1.7330   ZX=     1.5380
   XY=    -1.5944   YY=    28.0047   ZY=     0.0879
   XZ=     1.2557   YZ=    -0.8283   ZZ=    18.3628
   Eigenvalues:    18.0848    24.5458    28.8442
     25  C    Isotropic =    51.4969   Anisotropy =   150.1066
   XX=   -28.4915   YX=    33.9684   ZX=   -52.3137
   XY=    22.0311   YY=    46.6072   ZY=    -3.8075
   XZ=   -44.5594   YZ=   -10.6355   ZZ=   136.3748
   Eigenvalues:   -48.3857    51.3083   151.5679
     26  H    Isotropic =    23.7431   Anisotropy =     7.4052
   XX=    24.0663   YX=     1.1141   ZX=     1.9989
   XY=     0.9693   YY=    28.1000   ZY=     1.6568
   XZ=     2.0795   YZ=     0.8886   ZZ=    19.0630
   Eigenvalues:    18.2615    24.2880    28.6799
     27  C    Isotropic =    45.8108   Anisotropy =   207.2710
   XX=    -2.7702   YX=    13.7697   ZX=   -61.4651
   XY=     6.5593   YY=   -12.0335   ZY=   -41.6456
   XZ=   -62.6381   YZ=   -44.9232   ZZ=   152.2361
   Eigenvalues:   -28.0803   -18.4787   183.9915
     28  C    Isotropic =    47.8398   Anisotropy =   197.2870
   XX=    19.6900   YX=    14.4398   ZX=   -60.5682
   XY=    28.5650   YY=   -19.3566   ZY=   -56.7015
   XZ=   -63.1331   YZ=   -24.4782   ZZ=   143.1859
   Eigenvalues:   -30.5979    -5.2472   179.3644
     29  C    Isotropic =    49.3441   Anisotropy =   179.7793
   XX=    -3.4110   YX=    38.3775   ZX=   -80.8875
   XY=    36.1252   YY=    25.9805   ZY=   -23.7573
   XZ=   -78.1065   YZ=    -3.9802   ZZ=   125.4627
   Eigenvalues:   -51.6645    30.4997   169.1970
     30  H    Isotropic =    23.1387   Anisotropy =    13.3222
   XX=    22.4354   YX=    -0.7013   ZX=    -0.2375
   XY=    -2.1539   YY=    28.3546   ZY=     4.5555
   XZ=    -3.4181   YZ=     8.3231   ZZ=    18.6259
   Eigenvalues:    15.2751    22.1208    32.0201
     31  C    Isotropic =    55.4410   Anisotropy =   174.9390
   XX=    17.1871   YX=   -14.0890   ZX=   -84.0024
   XY=   -17.9030   YY=    37.4745   ZY=   -50.3662
   XZ=   -84.6557   YZ=   -54.8325   ZZ=   111.6615
   Eigenvalues:   -51.9248    46.1808   172.0670
     32  H    Isotropic =    24.5337   Anisotropy =     7.2554
   XX=    24.6185   YX=    -2.5264   ZX=     0.7632
   XY=    -2.7385   YY=    27.4630   ZY=     1.0335
   XZ=     1.1913   YZ=     3.7573   ZZ=    21.5194
   Eigenvalues:    19.8987    24.3316    29.3706
     33  C    Isotropic =    53.1814   Anisotropy =   179.0596
   XX=    60.9231   YX=    35.2256   ZX=   -42.9515
   XY=    32.0226   YY=   -38.1801   ZY=   -45.5652
   XZ=   -44.2248   YZ=   -50.7831   ZZ=   136.8014
   Eigenvalues:   -55.1197    42.1095   172.5545
     34  H    Isotropic =    24.2825   Anisotropy =     5.1861
   XX=    26.7643   YX=    -0.0934   ZX=     2.5955
   XY=    -0.2993   YY=    24.8157   ZY=     0.8589
   XZ=     2.3715   YZ=     1.4580   ZZ=    21.2676
   Eigenvalues:    20.0339    25.0737    27.7399
     35  C    Isotropic =    51.5295   Anisotropy =   155.1748
   XX=    -0.5131   YX=    52.5760   ZX=   -52.1551
   XY=    55.6135   YY=    25.1843   ZY=   -14.2643
   XZ=   -45.7255   YZ=   -17.1625   ZZ=   129.9171
   Eigenvalues:   -48.3147    47.9237   154.9793
     36  H    Isotropic =    23.8384   Anisotropy =     7.3073
   XX=    24.2302   YX=     1.4459   ZX=     2.1759
   XY=     1.2147   YY=    27.1572   ZY=     2.0665
   XZ=     1.6853   YZ=     2.7775   ZZ=    20.1277
   Eigenvalues:    18.9464    23.8588    28.7099
     37  Bq   Isotropic =     4.0916   Anisotropy =    13.3964
   XX=     4.6968   YX=    -2.6881   ZX=    -0.7439
   XY=    -6.0788   YY=     5.0108   ZY=    -0.4082
   XZ=   -13.8322   YZ=     2.3771   ZZ=     2.5673
   Eigenvalues:    -4.2784     3.5307    13.0226
     38  Bq   Isotropic =     2.1617   Anisotropy =    14.4127
   XX=     2.4763   YX=    -2.8256   ZX=    -1.5772
   XY=    -5.7801   YY=     3.1287   ZY=     1.0591
   XZ=   -12.9485   YZ=     3.9925   ZZ=     0.8800
   Eigenvalues:    -5.7634     0.4782    11.7701
     39  Bq   Isotropic =     5.1801   Anisotropy =    12.3203
   XX=     5.6964   YX=    -2.3635   ZX=    -0.3447
   XY=    -5.8355   YY=     6.0753   ZY=    -1.1505
   XZ=   -13.8943   YZ=     1.4685   ZZ=     3.7686
   Eigenvalues:    -3.2223     5.3690    13.3936
     40  Bq   Isotropic =     1.8162   Anisotropy =    14.2569
   XX=     1.9620   YX=    -2.7191   ZX=    -1.7178
   XY=    -5.5087   YY=     2.7488   ZY=     1.3418
   XZ=   -12.5110   YZ=     4.2358   ZZ=     0.7379
   Eigenvalues:    -5.8669    -0.0052    11.3209
     41  Bq   Isotropic =     6.5743   Anisotropy =    10.8154
   XX=     6.8386   YX=    -1.8340   ZX=     0.0691
   XY=    -5.3100   YY=     7.5022   ZY=    -2.0226
   XZ=   -13.7818   YZ=     0.3621   ZZ=     5.3822
   Eigenvalues:    -1.7893     7.7276    13.7846
     42  Bq   Isotropic =     1.5630   Anisotropy =    13.9616
   XX=     1.5393   YX=    -2.5830   ZX=    -1.8017
   XY=    -5.2078   YY=     2.4354   ZY=     1.5493
   XZ=   -12.0364   YZ=     4.3742   ZZ=     0.7142
   Eigenvalues:    -5.8450    -0.3368    10.8707
     43  Bq   Isotropic =     8.3132   Anisotropy =     9.1102
   XX=     8.1289   YX=    -1.0796   ZX=     0.4377
   XY=    -4.4328   YY=     9.4024   ZY=    -2.9983
   XZ=   -13.4451   YZ=    -0.9134   ZZ=     7.4082
   Eigenvalues:     0.0731    10.4798    14.3866
     44  Bq   Isotropic =     1.3780   Anisotropy =    13.5730
   XX=     1.1948   YX=    -2.4338   ZX=    -1.8398
   XY=    -4.8966   YY=     2.1698   ZY=     1.6969
   XZ=   -11.5397   YZ=     4.4302   ZZ=     0.7694
   Eigenvalues:    -5.7308    -0.5619    10.4267
     45  Bq   Isotropic =    10.3975   Anisotropy =     8.5451
   XX=     9.5621   YX=    -0.1161   ZX=     0.6823
   XY=    -3.1528   YY=    11.8708   ZY=    -4.0156
   XZ=   -12.8180   YZ=    -2.2845   ZZ=     9.7596
   Eigenvalues:     2.3808    12.7174    16.0942
     46  Bq   Isotropic =     3.2582   Anisotropy =    14.0569
   XX=     3.8325   YX=    -2.8456   ZX=    -1.0914
   XY=    -6.1106   YY=     4.2119   ZY=     0.2004
   XZ=   -13.6338   YZ=     3.0883   ZZ=     1.7302
   Eigenvalues:    -5.0172     2.1623    12.6295
     47  Bq   Isotropic =     1.2955   Anisotropy =    12.5003
   XX=     1.9806   YX=    -2.0898   ZX=    -0.7145
   XY=    -4.7500   YY=     4.4629   ZY=     1.0905
   XZ=    -9.8128   YZ=     5.3639   ZZ=    -2.5570
   Eigenvalues:    -6.0966     0.3540     9.6290
     48  Bq   Isotropic =     2.4253   Anisotropy =    12.6688
   XX=     3.1441   YX=    -1.9028   ZX=    -0.3505
   XY=    -4.9309   YY=     6.2271   ZY=     0.9594
   XZ=    -9.8153   YZ=     5.5272   ZZ=    -2.0953
   Eigenvalues:    -5.2953     1.7000    10.8712
     49  Bq   Isotropic =     0.9774   Anisotropy =    12.2979
   XX=     1.5990   YX=    -2.0991   ZX=    -0.8739
   XY=    -4.5926   YY=     3.8531   ZY=     1.1426
   XZ=    -9.7300   YZ=     5.2582   ZZ=    -2.5200
   Eigenvalues:    -6.2169    -0.0270     9.1760
     50  Bq   Isotropic =     3.3555   Anisotropy =    12.5870
   XX=     4.0373   YX=    -1.6889   ZX=    -0.1725
   XY=    -4.9139   YY=     7.5087   ZY=     0.8631
   XZ=    -9.7236   YZ=     5.5552   ZZ=    -1.4794
   Eigenvalues:    -4.5028     2.8225    11.7469
     51  Bq   Isotropic =     0.7668   Anisotropy =    12.0417
   XX=     1.3035   YX=    -2.0728   ZX=    -1.0085
   XY=    -4.4107   YY=     3.3647   ZY=     1.1894
   XZ=    -9.5984   YZ=     5.1440   ZZ=    -2.3680
   Eigenvalues:    -6.2071    -0.2872     8.7946
     52  Bq   Isotropic =     4.6325   Anisotropy =    12.3515
   XX=     5.2488   YX=    -1.3712   ZX=    -0.0219
   XY=    -4.7915   YY=     9.1653   ZY=     0.7193
   XZ=    -9.5527   YZ=     5.5018   ZZ=    -0.5167
   Eigenvalues:    -3.3520     4.3826    12.8668
     53  Bq   Isotropic =     0.6334   Anisotropy =    11.7465
   XX=     1.0713   YX=    -2.0226   ZX=    -1.1158
   XY=    -4.2150   YY=     2.9669   ZY=     1.2318
   XZ=    -9.4233   YZ=     5.0238   ZZ=    -2.1379
   Eigenvalues:    -6.1005    -0.4637     8.4644
     54  Bq   Isotropic =     6.3392   Anisotropy =    11.9220
   XX=     6.8810   YX=    -0.9380   ZX=     0.0811
   XY=    -4.5371   YY=    11.2773   ZY=     0.4918
   XZ=    -9.2733   YZ=     5.3042   ZZ=     0.8593
   Eigenvalues:    -1.7569     6.4874    14.2873
     55  Bq   Isotropic =     0.5545   Anisotropy =    11.4244
   XX=     0.8858   YX=    -1.9573   ZX=    -1.1963
   XY=    -4.0131   YY=     2.6369   ZY=     1.2697
   XZ=    -9.2106   YZ=     4.8991   ZZ=    -1.8592
   Eigenvalues:    -5.9241    -0.5831     8.1708
     56  Bq   Isotropic =     8.5311   Anisotropy =    11.2710
   XX=     9.0159   YX=    -0.3898   ZX=     0.1215
   XY=    -4.1301   YY=    13.8844   ZY=     0.1368
   XZ=    -8.8354   YZ=     4.8783   ZZ=     2.6930
   Eigenvalues:     0.3559     9.1924    16.0451
     57  Bq   Isotropic =     1.7608   Anisotropy =    12.6310
   XX=     2.4804   YX=    -2.0301   ZX=    -0.5364
   XY=    -4.8688   YY=     5.2357   ZY=     1.0312
   XZ=    -9.8427   YZ=     5.4568   ZZ=    -2.4336
   Eigenvalues:    -5.8059     0.9069    10.1815
     58  Bq   Isotropic =    -0.2982   Anisotropy =     9.7932
   XX=     1.2479   YX=    -1.3932   ZX=    -0.5771
   XY=    -3.2441   YY=     3.9364   ZY=    -0.2037
   XZ=    -6.8624   YZ=     3.5492   ZZ=    -6.0788
   Eigenvalues:    -7.6748     0.5496     6.2306
     59  Bq   Isotropic =    -0.1265   Anisotropy =    10.2225
   XX=     1.6207   YX=    -1.2163   ZX=    -0.3001
   XY=    -3.2403   YY=     5.1142   ZY=    -0.6740
   XZ=    -6.2877   YZ=     3.0442   ZZ=    -7.1142
   Eigenvalues:    -8.2306     1.1627     6.6885
     60  Bq   Isotropic =    -0.3173   Anisotropy =     9.6219
   XX=     1.1081   YX=    -1.4479   ZX=    -0.6972
   XY=    -3.2143   YY=     3.4713   ZY=    -0.0263
   XZ=    -7.0359   YZ=     3.6978   ZZ=    -5.5313
   Eigenvalues:    -7.3560     0.3068     6.0973
     61  Bq   Isotropic =     0.0440   Anisotropy =    10.5119
   XX=     1.8669   YX=    -1.0912   ZX=    -0.1524
   XY=    -3.2006   YY=     5.8312   ZY=    -0.9969
   XZ=    -5.8760   YZ=     2.6398   ZZ=    -7.5660
   Eigenvalues:    -8.4495     1.5295     7.0520
     62  Bq   Isotropic =    -0.3047   Anisotropy =     9.4614
   XX=     0.9908   YX=    -1.4829   ZX=    -0.8013
   XY=    -3.1670   YY=     3.0776   ZY=     0.1260
   XZ=    -7.1415   YZ=     3.7993   ZZ=    -4.9825
   Eigenvalues:    -7.0208     0.1037     6.0029
     63  Bq   Isotropic =     0.2792   Anisotropy =    10.8671
   XX=     2.1602   YX=    -0.9423   ZX=    -0.0071
   XY=    -3.1310   YY=     6.6188   ZY=    -1.4054
   XZ=    -5.3742   YZ=     2.0910   ZZ=    -7.9412
   Eigenvalues:    -8.6150     1.9287     7.5240
     64  Bq   Isotropic =    -0.2692   Anisotropy =     9.3026
   XX=     0.8903   YX=    -1.5009   ZX=    -0.8882
   XY=    -3.1051   YY=     2.7450   ZY=     0.2593
   XZ=    -7.1857   YZ=     3.8647   ZZ=    -4.4429
   Eigenvalues:    -6.6763    -0.0638     5.9325
     65  Bq   Isotropic =     0.5795   Anisotropy =    11.2850
   XX=     2.5023   YX=    -0.7729   ZX=     0.1288
   XY=    -3.0269   YY=     7.4416   ZY=    -1.9223
   XZ=    -4.7762   YZ=     1.3592   ZZ=    -8.2054
   Eigenvalues:    -8.7156     2.3511     8.1028
     66  Bq   Isotropic =    -0.2183   Anisotropy =     9.1393
   XX=     0.8025   YX=    -1.5045   ZX=    -0.9580
   XY=    -3.0309   YY=     2.4635   ZY=     0.3775
   XZ=    -7.1756   YZ=     3.9019   ZZ=    -3.9208
   Eigenvalues:    -6.3287    -0.2006     5.8746
     67  Bq   Isotropic =     0.9359   Anisotropy =    11.7417
   XX=     2.8875   YX=    -0.5903   ZX=     0.2487
   XY=    -2.8827   YY=     8.2345   ZY=    -2.5648
   XZ=    -4.0754   YZ=     0.4085   ZZ=    -8.3143
   Eigenvalues:    -8.7404     2.7844     8.7637
     68  Bq   Isotropic =    -0.2377   Anisotropy =     9.9882
   XX=     1.4165   YX=    -1.3167   ZX=    -0.4434
   XY=    -3.2537   YY=     4.4821   ZY=    -0.4153
   XZ=    -6.6148   YZ=     3.3382   ZZ=    -6.6118
   Eigenvalues:    -7.9692     0.8349     6.4211
     69  Bq   Isotropic =    -0.9788   Anisotropy =     7.4714
   XX=     1.3966   YX=    -1.1140   ZX=    -0.7638
   XY=    -2.2289   YY=     2.2325   ZY=    -1.1588
   XZ=    -5.2638   YZ=     1.7366   ZZ=    -6.5656
   Eigenvalues:    -7.5848     0.6461     4.0021
     70  Bq   Isotropic =    -1.1226   Anisotropy =     7.3687
   XX=     1.6123   YX=    -0.9183   ZX=    -0.5702
   XY=    -2.0109   YY=     2.5848   ZY=    -1.7310
   XZ=    -4.6458   YZ=     0.9138   ZZ=    -7.5649
   Eigenvalues:    -8.3094     1.1517     3.7898
     71  Bq   Isotropic =    -0.8942   Anisotropy =     7.5124
   XX=     1.2906   YX=    -1.1890   ZX=    -0.8379
   XY=    -2.3003   YY=     2.0724   ZY=    -0.9083
   XZ=    -5.4726   YZ=     2.0660   ZZ=    -6.0455
   Eigenvalues:    -7.2163     0.4197     4.1141
     72  Bq   Isotropic =    -1.1776   Anisotropy =     7.3378
   XX=     1.7171   YX=    -0.8014   ZX=    -0.4506
   XY=    -1.8649   YY=     2.7627   ZY=    -2.0516
   XZ=    -4.2309   YZ=     0.4158   ZZ=    -8.0124
   Eigenvalues:    -8.6522     1.4052     3.7143
     73  Bq   Isotropic =    -0.8043   Anisotropy =     7.5349
   XX=     1.1879   YX=    -1.2481   ZX=    -0.8976
   XY=    -2.3478   YY=     1.9273   ZY=    -0.6808
   XZ=    -5.6208   YZ=     2.3455   ZZ=    -5.5280
   Eigenvalues:    -6.8507     0.2188     4.2190
     74  Bq   Isotropic =    -1.2195   Anisotropy =     7.3501
   XX=     1.8149   YX=    -0.6763   ZX=    -0.3167
   XY=    -1.6962   YY=     2.9262   ZY=    -2.3920
   XZ=    -3.7451   YZ=    -0.1394   ZZ=    -8.3996
   Eigenvalues:    -8.9705     1.6314     3.6805
     75  Bq   Isotropic =    -0.7116   Anisotropy =     7.5349
   XX=     1.0893   YX=    -1.2918   ZX=    -0.9440
   XY=    -2.3733   YY=     1.7977   ZY=    -0.4752
   XZ=    -5.7142   YZ=     2.5793   ZZ=    -5.0218
   Eigenvalues:    -6.4916     0.0451     4.3117
     76  Bq   Isotropic =    -1.2485   Anisotropy =     7.4261
   XX=     1.9013   YX=    -0.5477   ZX=    -0.1703
   XY=    -1.5078   YY=     3.0585   ZY=    -2.7467
   XZ=    -3.1916   YZ=    -0.7474   ZZ=    -8.7051
   Eigenvalues:    -9.2545     1.8068     3.7022
     77  Bq   Isotropic =    -0.6182   Anisotropy =     7.5109
   XX=     0.9956   YX=    -1.3211   ZX=    -0.9784
   XY=    -2.3788   YY=     1.6831   ZY=    -0.2905
   XZ=    -5.7591   YZ=     2.7716   ZZ=    -4.5334
   Eigenvalues:    -6.1418    -0.1019     4.3890
     78  Bq   Isotropic =    -1.2655   Anisotropy =     7.5666
   XX=     1.9707   YX=    -0.4212   ZX=    -0.0137
   XY=    -1.3036   YY=     3.1402   ZY=    -3.1067
   XZ=    -2.5768   YZ=    -1.3987   ZZ=    -8.9075
   Eigenvalues:    -9.4933     1.9178     3.7788
     79  Bq   Isotropic =    -1.0558   Anisotropy =     7.4193
   XX=     1.5045   YX=    -1.0233   ZX=    -0.6747
   XY=    -2.1325   YY=     2.4051   ZY=    -1.4330
   XZ=    -4.9895   YZ=     1.3535   ZZ=    -7.0769
   Eigenvalues:    -7.9512     0.8934     3.8905
     80  Bq   Isotropic =    -0.3369   Anisotropy =     9.5020
   XX=     1.2314   YX=     0.7160   ZX=    -2.3182
   XY=    -0.2906   YY=    -2.5619   ZY=    -2.4407
   XZ=    -5.4218   YZ=    -6.5265   ZZ=     0.3199
   Eigenvalues:    -6.4958    -0.5126     5.9978
     81  Bq   Isotropic =    -0.5034   Anisotropy =     9.6838
   XX=     1.7709   YX=     0.8542   ZX=    -2.3271
   XY=    -0.1501   YY=    -2.2823   ZY=    -3.1296
   XZ=    -5.2690   YZ=    -6.9511   ZZ=    -0.9989
   Eigenvalues:    -7.3351    -0.1277     5.9524
     82  Bq   Isotropic =    -0.2535   Anisotropy =     9.3711
   XX=     1.0068   YX=     0.6516   ZX=    -2.2774
   XY=    -0.3414   YY=    -2.6441   ZY=    -2.1148
   XZ=    -5.4147   YZ=    -6.2645   ZZ=     0.8769
   Eigenvalues:    -6.0952    -0.6592     5.9939
     83  Bq   Isotropic =    -0.5835   Anisotropy =     9.7376
   XX=     2.0783   YX=     0.9291   ZX=    -2.2842
   XY=    -0.0548   YY=    -2.0812   ZY=    -3.4783
   XZ=    -5.0941   YZ=    -7.0936   ZZ=    -1.7478
   Eigenvalues:    -7.7636     0.1047     5.9082
     84  Bq   Isotropic =    -0.1717   Anisotropy =     9.2139
   XX=     0.8133   YX=     0.5901   ZX=    -2.2194
   XY=    -0.3822   YY=    -2.6917   ZY=    -1.8077
   XZ=    -5.3631   YZ=    -5.9815   ZZ=     1.3631
   Eigenvalues:    -5.7112    -0.7749     5.9709
     85  Bq   Isotropic =    -0.6593   Anisotropy =     9.7707
   XX=     2.4005   YX=     1.0090   ZX=    -2.2031
   XY=     0.0613   YY=    -1.8382   ZY=    -3.8171
   XZ=    -4.8462   YZ=    -7.1755   ZZ=    -2.5401
   Eigenvalues:    -8.1872     0.3549     5.8545
     86  Bq   Isotropic =    -0.0927   Anisotropy =     9.0323
   XX=     0.6496   YX=     0.5314   ZX=    -2.1490
   XY=    -0.4146   YY=    -2.7082   ZY=    -1.5224
   XZ=    -5.2751   YZ=    -5.6851   ZZ=     1.7805
   Eigenvalues:    -5.3453    -0.8616     5.9288
     87  Bq   Isotropic =    -0.7290   Anisotropy =     9.7870
   XX=     2.7253   YX=     1.0950   ZX=    -2.0806
   XY=     0.2011   YY=    -1.5541   ZY=    -4.1341
   XZ=    -4.5236   YZ=    -7.1860   ZZ=    -3.3581
   Eigenvalues:    -8.5950     0.6123     5.7957
     88  Bq   Isotropic =    -0.0172   Anisotropy =     8.8290
   XX=     0.5133   YX=     0.4760   ZX=    -2.0701
   XY=    -0.4399   YY=    -2.6973   ZY=    -1.2605
   XZ=    -5.1584   YZ=    -5.3819   ZZ=     2.1325
   Eigenvalues:    -4.9981    -0.9223     5.8688
     89  Bq   Isotropic =    -0.7913   Anisotropy =     9.7905
   XX=     3.0372   YX=     1.1879   ZX=    -1.9157
   XY=     0.3668   YY=    -1.2312   ZY=    -4.4160
   XZ=    -4.1285   YZ=    -7.1152   ZZ=    -4.1798
   Eigenvalues:    -8.9737     0.8641     5.7357
     90  Bq   Isotropic =    -0.4207   Anisotropy =     9.6060
   XX=     1.4869   YX=     0.7834   ZX=    -2.3366
   XY=    -0.2277   YY=    -2.4421   ZY=    -2.7810
   XZ=    -5.3759   YZ=    -6.7586   ZZ=    -0.3069
   Eigenvalues:    -6.9105    -0.3349     5.9833
     91  Bq   Isotropic =     0.2912   Anisotropy =    11.9100
   XX=     2.1885   YX=     0.2696   ZX=    -2.3454
   XY=    -1.3244   YY=    -3.5280   ZY=    -2.4952
   XZ=    -7.1891   YZ=    -8.6206   ZZ=     2.2130
   Eigenvalues:    -7.8683     0.5107     8.2311
     92  Bq   Isotropic =     0.1178   Anisotropy =    11.8831
   XX=     3.1155   YX=     0.2874   ZX=    -2.1047
   XY=    -1.2104   YY=    -3.1907   ZY=    -3.7250
   XZ=    -6.8149   YZ=    -9.7542   ZZ=     0.4287
   Eigenvalues:    -9.1790     1.4925     8.0399
     93  Bq   Isotropic =     0.3659   Anisotropy =    11.8227
   XX=     1.7999   YX=     0.2414   ZX=    -2.3899
   XY=    -1.3532   YY=    -3.5961   ZY=    -1.9574
   XZ=    -7.2157   YZ=    -8.0257   ZZ=     2.8938
   Eigenvalues:    -7.2860     0.1360     8.2477
     94  Bq   Isotropic =     0.0221   Anisotropy =    11.7762
   XX=     3.6425   YX=     0.2676   ZX=    -1.8996
   XY=    -1.1237   YY=    -2.9043   ZY=    -4.3951
   XZ=    -6.4428   YZ=   -10.2433   ZZ=    -0.6717
   Eigenvalues:    -9.9035     2.0970     7.8729
     95  Bq   Isotropic =     0.4322   Anisotropy =    11.6710
   XX=     1.4628   YX=     0.2065   ZX=    -2.3936
   XY=    -1.3649   YY=    -3.6097   ZY=    -1.4778
   XZ=    -7.1567   YZ=    -7.4362   ZZ=     3.4433
   Eigenvalues:    -6.7493    -0.1670     8.2128
     96  Bq   Isotropic =    -0.0759   Anisotropy =    11.6203
   XX=     4.1959   YX=     0.2238   ZX=    -1.6386
   XY=    -1.0170   YY=    -2.5311   ZY=    -5.0780
   XZ=    -5.9418   YZ=   -10.6394   ZZ=    -1.8926
   Eigenvalues:   -10.6620     2.7633     7.6710
     97  Bq   Isotropic =     0.4905   Anisotropy =    11.4611
   XX=     1.1752   YX=     0.1682   ZX=    -2.3645
   XY=    -1.3616   YY=    -3.5778   ZY=    -1.0568
   XZ=    -7.0292   YZ=    -6.8642   ZZ=     3.8742
   Eigenvalues:    -6.2541    -0.4056     8.1313
     98  Bq   Isotropic =    -0.1724   Anisotropy =    11.4322
   XX=     4.7569   YX=     0.1550   ZX=    -1.3292
   XY=    -0.8902   YY=    -2.0686   ZY=    -5.7485
   XZ=    -5.3197   YZ=   -10.9081   ZZ=    -3.2057
   Eigenvalues:   -11.4350     3.4687     7.4490
     99  Bq   Isotropic =     0.5418   Anisotropy =    11.2011
   XX=     0.9337   YX=     0.1295   ZX=    -2.3102
   XY=    -1.3454   YY=    -3.5088   ZY=    -0.6923
   XZ=    -6.8493   YZ=    -6.3176   ZZ=     4.2006
   Eigenvalues:    -5.7959    -0.5879     8.0092
    100  Bq   Isotropic =    -0.2628   Anisotropy =    11.2329
   XX=     5.3015   YX=     0.0647   ZX=    -0.9854
   XY=    -0.7420   YY=    -1.5187   ZY=    -6.3767
   XZ=    -4.5952   YZ=   -11.0147   ZZ=    -4.5712
   Eigenvalues:   -12.1929     4.1787     7.2258
    101  Bq   Isotropic =     0.2082   Anisotropy =    11.9297
   XX=     2.6282   YX=     0.2865   ZX=    -2.2523
   XY=    -1.2772   YY=    -3.3959   ZY=    -3.0871
   XZ=    -7.0604   YZ=    -9.2042   ZZ=     1.3922
   Eigenvalues:    -8.4992     0.9624     8.1613
    102  Bq   Isotropic =     2.5732   Anisotropy =    15.1315
   XX=     3.9776   YX=    -0.1044   ZX=    -2.0829
   XY=    -2.6133   YY=    -3.7997   ZY=    -0.5771
   XZ=    -9.8290   YZ=    -9.4843   ZZ=     7.5417
   Eigenvalues:    -6.9364     1.9952    12.6609
    103  Bq   Isotropic =     3.1065   Anisotropy =    14.4417
   XX=     6.0765   YX=    -0.0724   ZX=    -1.3388
   XY=    -2.3403   YY=    -3.2588   ZY=    -1.7148
   XZ=    -9.2656   YZ=   -11.4680   ZZ=     6.5018
   Eigenvalues:    -7.5321     4.1174    12.7343
    104  Bq   Isotropic =     2.3590   Anisotropy =    15.1272
   XX=     3.1708   YX=    -0.1594   ZX=    -2.2745
   XY=    -2.6701   YY=    -3.8920   ZY=    -0.0871
   XZ=    -9.8073   YZ=    -8.5233   ZZ=     7.7981
   Eigenvalues:    -6.6091     1.2423    12.4438
    105  Bq   Isotropic =     3.4237   Anisotropy =    13.6814
   XX=     7.3795   YX=    -0.1516   ZX=    -0.7510
   XY=    -2.1416   YY=    -2.7763   ZY=    -2.3224
   XZ=    -8.5987   YZ=   -12.3802   ZZ=     5.6678
   Eigenvalues:    -7.7986     5.5250    12.5446
    106  Bq   Isotropic =     2.1757   Anisotropy =    14.9484
   XX=     2.5052   YX=    -0.2179   ZX=    -2.3760
   XY=    -2.6761   YY=    -3.8963   ZY=     0.3360
   XZ=    -9.6428   YZ=    -7.6255   ZZ=     7.9182
   Eigenvalues:    -6.2688     0.6546    12.1413
    107  Bq   Isotropic =     3.7641   Anisotropy =    12.6617
   XX=     8.8353   YX=    -0.3468   ZX=    -0.0167
   XY=    -1.9328   YY=    -2.1496   ZY=    -2.9207
   XZ=    -7.6457   YZ=   -13.1322   ZZ=     4.6067
   Eigenvalues:    -8.0499     7.1370    12.2052
    108  Bq   Isotropic =     2.0191   Anisotropy =    14.6368
   XX=     1.9618   YX=    -0.2716   ZX=    -2.4090
   XY=    -2.6389   YY=    -3.8348   ZY=     0.6902
   XZ=    -9.3752   YZ=    -6.8045   ZZ=     7.9301
   Eigenvalues:    -5.9217     0.2020    11.7769
    109  Bq   Isotropic =     4.1119   Anisotropy =    11.6127
   XX=    10.4061   YX=    -0.7026   ZX=     0.8362
   XY=    -1.7518   YY=    -1.3970   ZY=    -3.4859
   XZ=    -6.4244   YZ=   -13.6238   ZZ=     3.3266
   Eigenvalues:    -8.2935     8.7755    11.8537
    110  Bq   Isotropic =     1.8851   Anisotropy =    14.2283
   XX=     1.5223   YX=    -0.3164   ZX=    -2.3919
   XY=    -2.5677   YY=    -3.7259   ZY=     0.9780
   XZ=    -9.0373   YZ=    -6.0643   ZZ=     7.8591
   Eigenvalues:    -5.5732    -0.1420    11.3706
    111  Bq   Isotropic =     4.4464   Anisotropy =    11.7578
   XX=    12.0301   YX=    -1.2550   ZX=     1.7448
   XY=    -1.6411   YY=    -0.5506   ZY=    -4.0059
   XZ=    -4.9998   YZ=   -13.7501   ZZ=     1.8596
   Eigenvalues:    -8.5321     9.5864    12.2849
    112  Bq   Isotropic =     2.8220   Anisotropy =    14.9168
   XX=     4.9425   YX=    -0.0676   ZX=    -1.7782
   XY=    -2.5022   YY=    -3.5956   ZY=    -1.1252
   XZ=    -9.6634   YZ=   -10.4809   ZZ=     7.1190
   Eigenvalues:    -7.2451     2.9445    12.7665
    113  Bq   Isotropic =     6.9094   Anisotropy =    18.9752
   XX=     6.0940   YX=    -0.4177   ZX=    -2.0028
   XY=    -4.6551   YY=    -0.2957   ZY=     3.5983
   XZ=   -13.7748   YZ=    -5.7763   ZZ=    14.9298
   Eigenvalues:    -2.2939     3.4625    19.5595
    114  Bq   Isotropic =     9.5597   Anisotropy =    17.0236
   XX=    10.0627   YX=    -0.0231   ZX=    -0.5970
   XY=    -4.5520   YY=     2.2927   ZY=     3.9076
   XZ=   -13.5039   YZ=    -7.2598   ZZ=    16.3237
   Eigenvalues:     0.6361     7.1343    20.9088
    115  Bq   Isotropic =     5.8959   Anisotropy =    19.0553
   XX=     4.6381   YX=    -0.5847   ZX=    -2.2992
   XY=    -4.5892   YY=    -1.0862   ZY=     3.5735
   XZ=   -13.4420   YZ=    -5.0590   ZZ=    14.1357
   Eigenvalues:    -3.1520     2.2402    18.5994
    116  Bq   Isotropic =    11.1550   Anisotropy =    14.7179
   XX=    12.5441   YX=     0.1062   ZX=     0.7464
   XY=    -4.4261   YY=     4.1358   ZY=     4.3919
   XZ=   -12.6121   YZ=    -7.8689   ZZ=    16.7850
   Eigenvalues:     2.7664     9.7317    20.9669
    117  Bq   Isotropic =     5.0701   Anisotropy =    18.7688
   XX=     3.4901   YX=    -0.7111   ZX=    -2.4367
   XY=    -4.4534   YY=    -1.6167   ZY=     3.5642
   XZ=   -12.9381   YZ=    -4.4038   ZZ=    13.3370
   Eigenvalues:    -3.6949     1.3226    17.5826
    118  Bq   Isotropic =    12.8087   Anisotropy =    11.2662
   XX=    15.1977   YX=     0.0357   ZX=     2.7069
   XY=    -4.3575   YY=     6.2583   ZY=     5.3092
   XZ=   -10.9817   YZ=    -8.1834   ZZ=    16.9700
   Eigenvalues:     5.2441    12.8625    20.3195
    119  Bq   Isotropic =     4.4032   Anisotropy =    18.2410
   XX=     2.5995   YX=    -0.7977   ZX=    -2.4709
   XY=    -4.2644   YY=    -1.9488   ZY=     3.5468
   XZ=   -12.3350   YZ=    -3.8208   ZZ=    12.5590
   Eigenvalues:    -3.9958     0.6415    16.5639
    120  Bq   Isotropic =    14.3100   Anisotropy =     7.2449
   XX=    17.7168   YX=    -0.4674   ZX=     5.4075
   XY=    -4.5311   YY=     8.4162   ZY=     6.8664
   XZ=    -8.4479   YZ=    -7.9372   ZZ=    16.7968
   Eigenvalues:     7.6984    16.0915    19.1399
    121  Bq   Isotropic =     3.8653   Anisotropy =    17.5645
   XX=     1.9159   YX=    -0.8498   ZX=    -2.4404
   XY=    -4.0397   YY=    -2.1361   ZY=     3.5112
   XZ=   -11.6832   YZ=    -3.3102   ZZ=    11.8163
   Eigenvalues:    -4.1194     0.1404    15.5750
    122  Bq   Isotropic =    15.3214   Anisotropy =     8.8297
   XX=    19.5895   YX=    -1.7662   ZX=     8.8566
   XY=    -5.2491   YY=    10.1303   ZY=     9.2320
   XZ=    -4.9490   YZ=    -6.7802   ZZ=    16.2445
   Eigenvalues:     8.5514    16.2049    21.2079
    123  Bq   Isotropic =     8.1310   Anisotropy =    18.3656
   XX=     7.8982   YX=    -0.2203   ZX=    -1.4699
   XY=    -4.6408   YY=     0.8159   ZY=     3.6837
   XZ=   -13.8382   YZ=    -6.5285   ZZ=    15.6788
   Eigenvalues:    -1.0489     5.0671    20.3747
    124  Bq   Isotropic =     9.9947   Anisotropy =    22.8963
   XX=     6.8385   YX=    -0.9697   ZX=    -2.8933
   XY=    -6.6061   YY=     4.9458   ZY=     4.8841
   XZ=   -17.8134   YZ=     0.7009   ZZ=    18.1997
   Eigenvalues:    -0.0827     4.8078    25.2588
    125  Bq   Isotropic =    14.1722   Anisotropy =    21.7796
   XX=    11.8403   YX=     0.0923   ZX=    -2.2039
[...]
   144  Bq   0.000000
   145  Bq   0.000000
   146  Bq   0.000000
   147  Bq   0.000000
   148  Bq   0.000000
   149  Bq   0.000000
   150  Bq   0.000000
   151  Bq   0.000000
   152  Bq   0.000000
   153  Bq   0.000000
   154  Bq   0.000000
   155  Bq   0.000000
   156  Bq   0.000000
   157  Bq   0.000000
   158  Bq   0.000000
   159  Bq   0.000000
   160  Bq   0.000000
   161  Bq   0.000000
   162  Bq   0.000000
   163  Bq   0.000000
   164  Bq   0.000000
   165  Bq   0.000000
   166  Bq   0.000000
   167  Bq   0.000000
   168  Bq   0.000000
   169  Bq   0.000000
   170  Bq   0.000000
   171  Bq   0.000000
   172  Bq   0.000000
   173  Bq   0.000000
   174  Bq   0.000000
   175  Bq   0.000000
   176  Bq   0.000000
   177  Bq   0.000000
   178  Bq   0.000000
   179  Bq   0.000000
   180  Bq   0.000000
   181  Bq   0.000000
   182  Bq   0.000000
   183  Bq   0.000000
   184  Bq   0.000000
   185  Bq   0.000000
   186  Bq   0.000000
   187  Bq   0.000000
   188  Bq   0.000000
   189  Bq   0.000000
   190  Bq   0.000000
   191  Bq   0.000000
   192  Bq   0.000000
   193  Bq   0.000000
   194  Bq   0.000000
   195  Bq   0.000000
   196  Bq   0.000000
   197  Bq   0.000000
   198  Bq   0.000000
   199  Bq   0.000000
   200  Bq   0.000000
   201  Bq   0.000000
   202  Bq   0.000000
   203  Bq   0.000000
   204  Bq   0.000000
   205  Bq   0.000000
   206  Bq   0.000000
   207  Bq   0.000000
   208  Bq   0.000000
   209  Bq   0.000000
   210  Bq   0.000000
   211  Bq   0.000000
   212  Bq   0.000000
   213  Bq   0.000000
   214  Bq   0.000000
   215  Bq   0.000000
   216  Bq   0.000000
   217  Bq   0.000000
   218  Bq   0.000000
   219  Bq   0.000000
   220  Bq   0.000000
   221  Bq   0.000000
   222  Bq   0.000000
   223  Bq   0.000000
   224  Bq   0.000000
   225  Bq   0.000000
   226  Bq   0.000000
   227  Bq   0.000000
   228  Bq   0.000000
   229  Bq   0.000000
   230  Bq   0.000000
   231  Bq   0.000000
   232  Bq   0.000000
   233  Bq   0.000000
   234  Bq   0.000000
   235  Bq   0.000000
   236  Bq   0.000000
 Sum of Mulliken charges =   0.00000
 Mulliken charges with hydrogens summed into heavy atoms:
               1
     1  C   -0.379265
     3  C    0.053849
     5  C    0.448258
     6  C    0.064351
     7  C   -0.333926
     9  C   -0.261805
    11  C   -0.205988
    13  C   -0.119315
    15  C    0.653397
    16  C    0.034822
    17  C   -0.317410
    19  C   -0.316854
    21  C    0.651066
    22  C    0.037784
    23  C   -0.117289
    25  C   -0.205316
    27  C    0.448331
    28  C    0.061983
    29  C   -0.333381
    31  C   -0.139505
    33  C   -0.255977
    35  C    0.170579
    37  Bq   0.000000
    38  Bq   0.000000
    39  Bq   0.000000
    40  Bq   0.000000
    41  Bq   0.000000
    42  Bq   0.000000
    43  Bq   0.000000
    44  Bq   0.000000
    45  Bq   0.000000
    46  Bq   0.000000
    47  Bq   0.000000
    48  Bq   0.000000
    49  Bq   0.000000
    50  Bq   0.000000
    51  Bq   0.000000
    52  Bq   0.000000
    53  Bq   0.000000
    54  Bq   0.000000
    55  Bq   0.000000
    56  Bq   0.115559
    57  Bq   0.000000
    58  Bq   0.000000
    59  Bq   0.000000
    60  Bq   0.000000
    61  Bq   0.000000
    62  Bq   0.000000
    63  Bq   0.000000
    64  Bq   0.000000
    65  Bq   0.000000
    66  Bq   0.000000
    67  Bq   0.000000
    68  Bq   0.000000
    69  Bq   0.000000
    70  Bq   0.000000
    71  Bq   0.000000
    72  Bq   0.000000
    73  Bq   0.000000
    74  Bq   0.000000
    75  Bq   0.000000
    76  Bq   0.000000
    77  Bq   0.000000
    78  Bq   0.000000
    79  Bq   0.000000
    80  Bq   0.000000
    81  Bq   0.000000
    82  Bq   0.000000
    83  Bq   0.000000
    84  Bq   0.000000
    85  Bq   0.000000
    86  Bq   0.000000
    87  Bq   0.000000
    88  Bq   0.000000
    89  Bq   0.000000
    90  Bq   0.000000
    91  Bq   0.000000
    92  Bq   0.000000
    93  Bq   0.000000
    94  Bq   0.000000
    95  Bq   0.000000
    96  Bq   0.000000
    97  Bq   0.000000
    98  Bq   0.000000
    99  Bq   0.000000
   100  Bq   0.000000
   101  Bq   0.000000
   102  Bq   0.000000
   103  Bq   0.000000
   104  Bq   0.000000
   105  Bq   0.000000
   106  Bq   0.000000
   107  Bq   0.000000
   108  Bq   0.000000
   109  Bq   0.000000
   110  Bq   0.000000
   111  Bq   0.000000
   112  Bq   0.000000
   113  Bq   0.000000
   114  Bq   0.000000
   115  Bq   0.000000
   116  Bq   0.000000
   117  Bq   0.000000
   118  Bq   0.000000
   119  Bq   0.000000
   120  Bq   0.000000
   121  Bq   0.000000
   122  Bq   0.123768
   123  Bq   0.000000
   124  Bq   0.000000
   125  Bq   0.000000
   126  Bq   0.000000
   127  Bq   0.000000
   128  Bq   0.000000
   129  Bq   0.000000
   130  Bq   0.000000
   131  Bq   0.000000
   132  Bq   0.000000
   133  Bq   0.000000
   134  Bq   0.000000
   135  Bq   0.000000
   136  Bq   0.000000
   137  Bq   0.000000
   138  Bq   0.000000
   139  Bq   0.000000
   140  Bq   0.000000
   141  Bq   0.000000
   142  Bq   0.000000
   143  Bq   0.000000
   144  Bq   0.000000
   145  Bq   0.000000
   146  Bq   0.000000
   147  Bq   0.000000
   148  Bq   0.000000
   149  Bq   0.000000
   150  Bq   0.000000
   151  Bq   0.000000
   152  Bq   0.000000
   153  Bq   0.000000
   154  Bq   0.000000
   155  Bq   0.000000
   156  Bq   0.000000
   157  Bq   0.000000
   158  Bq   0.000000
   159  Bq   0.000000
   160  Bq   0.000000
   161  Bq   0.000000
   162  Bq   0.000000
   163  Bq   0.000000
   164  Bq   0.000000
   165  Bq   0.000000
   166  Bq   0.000000
   167  Bq   0.000000
   168  Bq   0.000000
   169  Bq   0.000000
   170  Bq   0.000000
   171  Bq   0.000000
   172  Bq   0.000000
   173  Bq   0.000000
   174  Bq   0.000000
   175  Bq   0.000000
   176  Bq   0.000000
   177  Bq   0.000000
   178  Bq   0.000000
   179  Bq   0.000000
   180  Bq   0.000000
   181  Bq   0.000000
   182  Bq   0.000000
   183  Bq   0.000000
   184  Bq   0.000000
   185  Bq   0.000000
   186  Bq   0.000000
   187  Bq   0.000000
   188  Bq   0.000000
   189  Bq   0.000000
   190  Bq   0.000000
   191  Bq   0.000000
   192  Bq   0.000000
   193  Bq   0.000000
   194  Bq   0.000000
   195  Bq   0.000000
   196  Bq   0.000000
   197  Bq   0.000000
   198  Bq   0.000000
   199  Bq   0.000000
   200  Bq   0.000000
   201  Bq   0.000000
   202  Bq   0.000000
   203  Bq   0.000000
   204  Bq   0.000000
   205  Bq   0.000000
   206  Bq   0.000000
   207  Bq   0.000000
   208  Bq   0.000000
   209  Bq   0.000000
   210  Bq   0.122284
   211  Bq   0.000000
   212  Bq   0.000000
   213  Bq   0.000000
   214  Bq   0.000000
   215  Bq   0.000000
   216  Bq   0.000000
   217  Bq   0.000000
   218  Bq   0.000000
   219  Bq   0.000000
   220  Bq   0.000000
   221  Bq   0.000000
   222  Bq   0.000000
   223  Bq   0.000000
   224  Bq   0.000000
   225  Bq   0.000000
   226  Bq   0.000000
   227  Bq   0.000000
   228  Bq   0.000000
   229  Bq   0.000000
   230  Bq   0.000000
   231  Bq   0.000000
   232  Bq   0.000000
   233  Bq   0.000000
   234  Bq   0.000000
   235  Bq   0.000000
   236  Bq   0.000000
 Electronic spatial extent (au):  <R**2>=           5736.9264
 Charge=              0.0000 electrons
 Dipole moment (field-independent basis, Debye):
    X=              0.0475    Y=              0.0856    Z=              0.0029  Tot=              0.0979
 Quadrupole moment (field-independent basis, Debye-Ang):
   XX=           -113.7056   YY=           -113.9456   ZZ=           -133.2669
   XY=             -0.3834   XZ=              3.2102   YZ=             -1.1839
 Traceless Quadrupole moment (field-independent basis, Debye-Ang):
   XX=              6.6005   YY=              6.3604   ZZ=            -12.9609
   XY=             -0.3834   XZ=              3.2102   YZ=             -1.1839
 Octapole moment (field-independent basis, Debye-Ang**2):
  XXX=            -16.4668  YYY=            -16.1860  ZZZ=             -1.7007  XYY=              2.5576
  XXY=             -6.5650  XXZ=             13.6547  XZZ=             -8.9478  YZZ=            -17.7168
  YYZ=            -13.2941  XYZ=              8.8036
 Hexadecapole moment (field-independent basis, Debye-Ang**3):
 XXXX=          -3951.1638 YYYY=          -3112.2161 ZZZZ=           -504.8311 XXXY=            340.6935
 XXXZ=            156.4968 YYYX=            335.5625 YYYZ=            -87.0893 ZZZX=            120.2262
 ZZZY=           -108.7373 XXYY=          -1176.4844 XXZZ=           -856.7291 YYZZ=           -665.7275
 XXYZ=            -68.9016 YYXZ=             48.1602 ZZXY=            153.0375
 N-N= 1.610917615562D+03 E-N=-5.186891130729D+03  KE= 8.436329774448D+02
 1\1\GINC-MUHKA\SP\RB3LYP\6-311+G(d,p)\C22H14\YANNICK\14-Aug-2020\0\\# 
 rb3lyp/6-311+g** NMR geom=connectivity\\Title\\0,1\C,0,-4.0500558,-0.5
 771862,0.8136712\H,0,-5.0263804,-1.0082727,1.002476\C,0,-3.9381552,0.6
 617804,0.2400876\H,0,-4.8252424,1.233889,-0.0111295\C,0,-2.676841,1.24
 33246,0.0057578\C,0,-1.4974121,0.5051527,0.2848253\C,0,-1.6508332,-0.7
 338728,0.9404026\H,0,-0.7713646,-1.2730967,1.2633753\C,0,-2.8898548,-1
 .2624035,1.1994307\H,0,-2.9683706,-2.2124563,1.7152676\C,0,-2.5773185,
 2.5963696,-0.419293\H,0,-3.4870728,3.1412239,-0.6474055\C,0,-1.3741895
 ,3.2147896,-0.436403\H,0,-1.2997315,4.2742019,-0.6578144\C,0,-0.171948
 8,2.499409,-0.1734588\C,0,-0.2043917,1.1018437,0.0192689\C,0,1.0513491
 ,3.204256,-0.0676222\H,0,1.0427344,4.2819499,-0.1896997\C,0,2.1942091,
 2.5487446,0.2579577\H,0,3.1168527,3.0912848,0.4334727\C,0,2.2216473,1.
 1336562,0.293499\C,0,1.0486931,0.3945528,0.0302412\C,0,3.4483363,0.461
 4633,0.5573939\H,0,4.3095794,1.0606054,0.8334846\C,0,3.5427346,-0.8855
 926,0.4749463\H,0,4.4731467,-1.3939704,0.7038822\C,0,2.4490052,-1.6474
 447,-0.0196319\C,0,1.2150704,-1.0057258,-0.3013573\C,0,0.2531113,-1.74
 3444,-1.0216591\H,0,-0.6541356,-1.2535051,-1.3462847\C,0,0.4494193,-3.
 0628597,-1.3413779\H,0,-0.3083162,-3.5944309,-1.905406\C,0,1.6251726,-
 3.7207967,-0.9552541\H,0,1.7670048,-4.7687404,-1.1927019\C,0,2.6109872
 ,-3.0144177,-0.318305\H,0,3.5525612,-3.4902813,-0.0646367\Bq,0,-4.7853
 198676,1.2646575797,0.9484662494\Bq,0,-4.7863818544,1.3951057308,1.218
 6183401\Bq,0,-4.7849658721,1.2211748627,0.8584155526\Bq,0,-4.786735849
 9,1.4385884478,1.308669037\Bq,0,-4.7846118765,1.1776921457,0.768364855
 7\Bq,0,-4.7870898455,1.4820711648,1.3987197339\Bq,0,-4.7842578809,1.13
 42094287,0.6783141588\Bq,0,-4.7874438411,1.5255538818,1.4887704307\Bq,
 0,-4.7839038853,1.0907267117,0.5882634619\Bq,0,-4.7856738632,1.3081402
 968,1.0385169463\Bq,0,-4.7851731974,1.8018799771,0.911155738\Bq,0,-4.7
 844652063,1.7149145431,0.7310543443\Bq,0,-4.785527193,1.8453626941,1.0
 012064349\Bq,0,-4.7841112107,1.6714318261,0.6410036474\Bq,0,-4.7858811
 886,1.8888454111,1.0912571318\Bq,0,-4.7837572151,1.6279491091,0.550952
 9505\Bq,0,-4.7862351841,1.9323281281,1.1813078287\Bq,0,-4.7834032195,1
 .5844663921,0.4609022536\Bq,0,-4.7865891797,1.9758108451,1.2713585256\
 Bq,0,-4.783049224,1.5409836751,0.3708515567\Bq,0,-4.7848192018,1.75839
 72601,0.8211050412\Bq,0,-4.784318536,2.2521369405,0.6937438329\Bq,0,-4
 .7836105449,2.1651715065,0.5136424391\Bq,0,-4.7846725316,2.2956196575,
 0.7837945298\Bq,0,-4.7832565493,2.1216887894,0.4235917422\Bq,0,-4.7850
 265272,2.3391023745,0.8738452266\Bq,0,-4.7829025537,2.0782060724,0.333
 5410454\Bq,0,-4.7853805228,2.3825850915,0.9638959235\Bq,0,-4.782548558
 2,2.0347233554,0.2434903485\Bq,0,-4.7857345183,2.4260678085,1.05394662
 04\Bq,0,-4.7821945626,1.9912406384,0.1534396516\Bq,0,-4.7839645405,2.2
 086542235,0.603693136\Bq,0,-4.7834638747,2.7023939038,0.4763319277\Bq,
 0,-4.7827558835,2.6154284698,0.296230534\Bq,0,-4.7838178702,2.74587662
 08,0.5663826246\Bq,0,-4.7824018879,2.5719457528,0.2061798371\Bq,0,-4.7
 841718658,2.7893593378,0.6564333215\Bq,0,-4.7820478924,2.5284630358,0.
 1161291402\Bq,0,-4.7845258614,2.8328420548,0.7464840184\Bq,0,-4.781693
 8968,2.4849803188,0.0260784433\Bq,0,-4.784879857,2.8763247718,0.836534
 7152\Bq,0,-4.7813399012,2.4414976018,-0.0639722536\Bq,0,-4.7831098791,
 2.6589111868,0.3862812308\Bq,0,-4.2920143517,-1.8001757297,2.652416499
 1\Bq,0,-4.2913063605,-1.8871411637,2.4723151053\Bq,0,-4.2923683472,-1.
 7566930127,2.7424671959\Bq,0,-4.290952365,-1.9306238807,2.3822644084\B
 q,0,-4.2927223428,-1.7132102957,2.8325178928\Bq,0,-4.2905983694,-1.974
 1065977,2.2922137115\Bq,0,-4.2930763384,-1.6697275787,2.9225685897\Bq,
 0,-4.2902443738,-2.0175893147,2.2021630146\Bq,0,-4.293430334,-1.626244
 8617,3.0126192866\Bq,0,-4.2898903782,-2.0610720317,2.1121123178\Bq,0,-
 4.2916603561,-1.8436584467,2.5623658022\Bq,0,-4.2911596903,-1.34991876
 64,2.4350045939\Bq,0,-4.2904516992,-1.4368842004,2.2549032001\Bq,0,-4.
 2915136859,-1.3064360494,2.5250552908\Bq,0,-4.2900977036,-1.4803669174
 ,2.1648525032\Bq,0,-4.2918676814,-1.2629533324,2.6151059877\Bq,0,-4.28
 9743708,-1.5238496344,2.0748018064\Bq,0,-4.292221677,-1.2194706153,2.7
 051566845\Bq,0,-4.2893897124,-1.5673323514,1.9847511095\Bq,0,-4.292575
 6726,-1.1759878983,2.7952073814\Bq,0,-4.2890357169,-1.6108150684,1.894
 7004126\Bq,0,-4.2908056947,-1.3934014834,2.344953897\Bq,0,-4.290305028
 9,-0.899661803,2.2175926887\Bq,0,-4.2895970378,-0.986627237,2.03749129
 5\Bq,0,-4.2906590245,-0.856179086,2.3076433856\Bq,0,-4.2892430422,-1.0
 30109954,1.9474405981\Bq,0,-4.2910130201,-0.812696369,2.3976940825\Bq,
 0,-4.2888890466,-1.073592671,1.8573899012\Bq,0,-4.2913670157,-0.769213
 652,2.4877447794\Bq,0,-4.2885350511,-1.117075388,1.7673392043\Bq,0,-4.
 2917210112,-0.725730935,2.5777954763\Bq,0,-4.2881810555,-1.160558105,1
 .6772885074\Bq,0,-4.2899510334,-0.94314452,2.1275419918\Bq,0,-4.289450
 3676,-0.4494048397,2.0001807836\Bq,0,-4.2887423764,-0.5363702737,1.820
 0793898\Bq,0,-4.2898043631,-0.4059221227,2.0902314804\Bq,0,-4.28838838
 08,-0.5798529907,1.7300286929\Bq,0,-4.2901583587,-0.3624394056,2.18028
 21773\Bq,0,-4.2880343853,-0.6233357077,1.639977996\Bq,0,-4.2905123543,
 -0.3189566886,2.2703328742\Bq,0,-4.2876803897,-0.6668184247,1.54992729
 92\Bq,0,-4.2908663499,-0.2754739716,2.3603835711\Bq,0,-4.2873263941,-0
 .7103011417,1.4598766023\Bq,0,-4.289096372,-0.4928875567,1.9101300867\
 Bq,0,-4.2885957062,0.0008521237,1.7827688784\Bq,0,-4.287887715,-0.0861
 133103,1.6026674846\Bq,0,-4.2889497018,0.0443348407,1.8728195753\Bq,0,
 -4.2875337195,-0.1295960273,1.5126167878\Bq,0,-4.2893036973,0.08781755
 77,1.9628702722\Bq,0,-4.2871797239,-0.1730787443,1.4225660909\Bq,0,-4.
 2896576929,0.1313002747,2.0529209691\Bq,0,-4.2868257283,-0.2165614613,
 1.332515394\Bq,0,-4.2900116885,0.1747829917,2.1429716659\Bq,0,-4.28647
 17327,-0.2600441783,1.2424646971\Bq,0,-4.2882417106,-0.0426305933,1.69
 27181815\Bq,0,-4.2877410448,0.451109087,1.5653569732\Bq,0,-4.287033053
 7,0.364143653,1.3852555795\Bq,0,-4.2880950404,0.4945918041,1.655407670
 1\Bq,0,-4.2866790581,0.320660936,1.2952048826\Bq,0,-4.288449036,0.5380
 745211,1.745458367\Bq,0,-4.2863250625,0.277178219,1.2051541857\Bq,0,-4
 .2888030315,0.5815572381,1.8355090639\Bq,0,-4.2859710669,0.233695502,1
 .1151034888\Bq,0,-4.2891570271,0.6250399551,1.9255597608\Bq,0,-4.28561
 70714,0.190212785,1.0250527919\Bq,0,-4.2873870492,0.40762637,1.4753062
 764\Bq,0,-4.2868863834,0.9013660504,1.3479450681\Bq,0,-4.2861783923,0.
 8144006164,1.1678436743\Bq,0,-4.287240379,0.9448487674,1.437995765\Bq,
 0,-4.2858243967,0.7709178994,1.0777929774\Bq,0,-4.2875943746,0.9883314
 844,1.5280464618\Bq,0,-4.2854704011,0.7274351824,0.9877422805\Bq,0,-4.
 2879483702,1.0318142014,1.6180971587\Bq,0,-4.2851164056,0.6839524654,0
 .8976915837\Bq,0,-4.2883023657,1.0752969184,1.7081478556\Bq,0,-4.28476
 241,0.6404697484,0.8076408868\Bq,0,-4.2865323879,0.8578833334,1.257894
 3712\Bq,0,-4.2860317221,1.3516230138,1.1305331629\Bq,0,-4.2853237309,1
 .2646575797,0.9504317692\Bq,0,-4.2863857176,1.3951057308,1.2205838598\
 Bq,0,-4.2849697353,1.2211748627,0.8603810723\Bq,0,-4.2867397132,1.4385
 884478,1.3106345567\Bq,0,-4.2846157398,1.1776921457,0.7703303754\Bq,0,
 -4.2870937088,1.4820711648,1.4006852536\Bq,0,-4.2842617442,1.134209428
 7,0.6802796785\Bq,0,-4.2874477044,1.5255538818,1.4907359504\Bq,0,-4.28
 39077486,1.0907267117,0.5902289816\Bq,0,-4.2856777265,1.3081402968,1.0
 40482466\Bq,0,-4.2851770607,1.8018799771,0.9131212578\Bq,0,-4.28446906
 95,1.7149145431,0.733019864\Bq,0,-4.2855310563,1.8453626941,1.00317195
 46\Bq,0,-4.284115074,1.6714318261,0.6429691671\Bq,0,-4.2858850518,1.88
 88454111,1.0932226515\Bq,0,-4.2837610784,1.6279491091,0.5529184702\Bq,
 0,-4.2862390474,1.9323281281,1.1832733484\Bq,0,-4.2834070828,1.5844663
 921,0.4628677733\Bq,0,-4.286593043,1.9758108451,1.2733240453\Bq,0,-4.2
 830530872,1.5409836751,0.3728170765\Bq,0,-4.2848230651,1.7583972601,0.
 8230705609\Bq,0,-4.2843223993,2.2521369405,0.6957093526\Bq,0,-4.283614
 4082,2.1651715065,0.5156079588\Bq,0,-4.2846763949,2.2956196575,0.78576
 00495\Bq,0,-4.2832604126,2.1216887894,0.4255572619\Bq,0,-4.2850303905,
 2.3391023745,0.8758107464\Bq,0,-4.282906417,2.0782060724,0.3355065651\
 Bq,0,-4.285384386,2.3825850915,0.9658614432\Bq,0,-4.2825524214,2.03472
 33554,0.2454558682\Bq,0,-4.2857383816,2.4260678085,1.0559121401\Bq,0,-
 4.2821984259,1.9912406384,0.1554051713\Bq,0,-4.2839684037,2.2086542235
 ,0.6056586557\Bq,0,-4.2834677379,2.7023939038,0.4782974474\Bq,0,-4.282
 7597468,2.6154284698,0.2981960537\Bq,0,-4.2838217335,2.7458766208,0.56
 83481443\Bq,0,-4.2824057512,2.5719457528,0.2081453568\Bq,0,-4.28417572
 91,2.7893593378,0.6583988412\Bq,0,-4.2820517556,2.5284630358,0.1180946
 599\Bq,0,-4.2845297247,2.8328420548,0.7484495381\Bq,0,-4.2816977601,2.
 4849803188,0.028043963\Bq,0,-4.2848837202,2.8763247718,0.838500235\Bq,
 0,-4.2813437645,2.4414976018,-0.0620067339\Bq,0,-4.2831137424,2.658911
 1868,0.3882467505\Bq,0,-3.792018215,-1.8001757297,2.6543820188\Bq,0,-3
 .7913102238,-1.8871411637,2.474280625\Bq,0,-3.7923722105,-1.7566930127
 ,2.7444327156\Bq,0,-3.7909562282,-1.9306238807,2.3842299281\Bq,0,-3.79
 27262061,-1.7132102957,2.8344834125\Bq,0,-3.7906022327,-1.9741065977,2
 .2941792312\Bq,0,-3.7930802017,-1.6697275787,2.9245341094\Bq,0,-3.7902
 482371,-2.0175893147,2.2041285344\Bq,0,-3.7934341973,-1.6262448617,3.0
 145848063\Bq,0,-3.7898942415,-2.0610720317,2.1140778375\Bq,0,-3.791664
 2194,-1.8436584467,2.5643313219\Bq,0,-3.7911635536,-1.3499187664,2.436
 9701136\Bq,0,-3.7904555624,-1.4368842004,2.2568687198\Bq,0,-3.79151754
 92,-1.3064360494,2.5270208105\Bq,0,-3.7901015669,-1.4803669174,2.16681
 8023\Bq,0,-3.7918715447,-1.2629533324,2.6170715074\Bq,0,-3.7897475713,
 -1.5238496344,2.0767673261\Bq,0,-3.7922255403,-1.2194706153,2.70712220
 43\Bq,0,-3.7893935757,-1.5673323514,1.9867166292\Bq,0,-3.7925795359,-1
 .1759878983,2.7971729011\Bq,0,-3.7890395801,-1.6108150684,1.8966659323
 \Bq,0,-3.790809558,-1.3934014834,2.3469194167\Bq,0,-3.7903088922,-0.89
 9661803,2.2195582084\Bq,0,-3.7896009011,-0.986627237,2.0394568147\Bq,0
 ,-3.7906628878,-0.856179086,2.3096089053\Bq,0,-3.7892469055,-1.0301099
 54,1.9494061178\Bq,0,-3.7910168834,-0.812696369,2.3996596022\Bq,0,-3.7
 888929099,-1.073592671,1.8593554209\Bq,0,-3.7913708789,-0.769213652,2.
 4897102991\Bq,0,-3.7885389143,-1.117075388,1.769304724\Bq,0,-3.7917248
 745,-0.725730935,2.579760996\Bq,0,-3.7881849188,-1.160558105,1.6792540
 271\Bq,0,-3.7899548966,-0.94314452,2.1295075116\Bq,0,-3.7894542308,-0.
 4494048397,2.0021463033\Bq,0,-3.7887462397,-0.5363702737,1.8220449095\
 Bq,0,-3.7898082264,-0.4059221227,2.0921970002\\Version=ES64L-G09RevD.0
 1\HF=-847.0032898\RMSD=7.549e-09\Dipole=0.0186808,0.0336671,0.0011595\
 Quadrupole=4.9072795,4.7288219,-9.6361014,-0.2850201,2.3867064,-0.8801
 72\PG=C01 [X(C22H14)]\\@


 ... UNTIL SCIENCE IS MIXED WITH EMOTION AND APPEALS TO THE HEART AND
 IMAGINATION , IT IS LIKE DEAD INORGANIC MATTER; AND WHEN IT IS SO MIXED
 AND SO TRANSFORMED IT IS LITERATURE.

                                  -- JOHN BURROUGHS
 Job cpu time:       0 days  3 hours  6 minutes 59.3 seconds.
 File lengths (MBytes):  RWF=    184 Int=      0 D2E=      0 Chk=     19 Scr=      1
 Normal termination of Gaussian 09 at Fri Aug 14 17:36:34 2020.

real	23m48.511s
user	186m57.143s
sys	0m2.223s
