 Entering Gaussian System, Link 0=g09
 Initial command:
 /share/programs/GAUSSIAN/64/g09/l1.exe "/scratch/yannick.28350/Gau-25546.inp" -scrdir="/scratch/yannick.28350/"
 Entering Link 1 = /share/programs/GAUSSIAN/64/g09/l1.exe PID=     25557.
  
 Copyright (c) 1988,1990,1992,1993,1995,1998,2003,2009,2013,
            Gaussian, Inc.  All Rights Reserved.
  
 This is part of the Gaussian(R) 09 program.  It is based on
 the Gaussian(R) 03 system (copyright 2003, Gaussian, Inc.),
 the Gaussian(R) 98 system (copyright 1998, Gaussian, Inc.),
 the Gaussian(R) 94 system (copyright 1995, Gaussian, Inc.),
 the Gaussian 92(TM) system (copyright 1992, Gaussian, Inc.),
 the Gaussian 90(TM) system (copyright 1990, Gaussian, Inc.),
 the Gaussian 88(TM) system (copyright 1988, Gaussian, Inc.),
 the Gaussian 86(TM) system (copyright 1986, Carnegie Mellon
 University), and the Gaussian 82(TM) system (copyright 1983,
 Carnegie Mellon University). Gaussian is a federally registered
 trademark of Gaussian, Inc.
  
 This software contains proprietary and confidential information,
 including trade secrets, belonging to Gaussian, Inc.
  
 This software is provided under written license and may be
 used, copied, transmitted, or stored only in accord with that
 written license.
  
 The following legend is applicable only to US Government
 contracts under FAR:
  
                    RESTRICTED RIGHTS LEGEND
  
 Use, reproduction and disclosure by the US Government is
 subject to restrictions as set forth in subparagraphs (a)
 and (c) of the Commercial Computer Software - Restricted
 Rights clause in FAR 52.227-19.
  
 Gaussian, Inc.
 340 Quinnipiac St., Bldg. 40, Wallingford CT 06492
  
  
 ---------------------------------------------------------------
 Warning -- This program may not be used in any manner that
 competes with the business of Gaussian, Inc. or will provide
 assistance to any competitor of Gaussian, Inc.  The licensee
 of this program is prohibited from giving any competitor of
 Gaussian, Inc. access to this program.  By using this program,
 the user acknowledges that Gaussian, Inc. is engaged in the
 business of creating and licensing software in the field of
 computational chemistry and represents and warrants to the
 licensee that it is not a competitor of Gaussian, Inc. and that
 it will not use this program in any manner prohibited above.
 ---------------------------------------------------------------
  

 Cite this work as:
 Gaussian 09, Revision D.01,
 M. J. Frisch, G. W. Trucks, H. B. Schlegel, G. E. Scuseria, 
 M. A. Robb, J. R. Cheeseman, G. Scalmani, V. Barone, B. Mennucci, 
 G. A. Petersson, H. Nakatsuji, M. Caricato, X. Li, H. P. Hratchian, 
 A. F. Izmaylov, J. Bloino, G. Zheng, J. L. Sonnenberg, M. Hada, 
 M. Ehara, K. Toyota, R. Fukuda, J. Hasegawa, M. Ishida, T. Nakajima, 
 Y. Honda, O. Kitao, H. Nakai, T. Vreven, J. A. Montgomery, Jr., 
 J. E. Peralta, F. Ogliaro, M. Bearpark, J. J. Heyd, E. Brothers, 
 K. N. Kudin, V. N. Staroverov, T. Keith, R. Kobayashi, J. Normand, 
 K. Raghavachari, A. Rendell, J. C. Burant, S. S. Iyengar, J. Tomasi, 
 M. Cossi, N. Rega, J. M. Millam, M. Klene, J. E. Knox, J. B. Cross, 
 V. Bakken, C. Adamo, J. Jaramillo, R. Gomperts, R. E. Stratmann, 
 O. Yazyev, A. J. Austin, R. Cammi, C. Pomelli, J. W. Ochterski, 
 R. L. Martin, K. Morokuma, V. G. Zakrzewski, G. A. Voth, 
 P. Salvador, J. J. Dannenberg, S. Dapprich, A. D. Daniels, 
 O. Farkas, J. B. Foresman, J. V. Ortiz, J. Cioslowski, 
 and D. J. Fox, Gaussian, Inc., Wallingford CT, 2013.
 
 ******************************************
 Gaussian 09:  ES64L-G09RevD.01 24-Apr-2013
                14-Aug-2020 
 ******************************************
 %nproc=8
 Will use up to    8 processors via shared memory.
 %mem=1000MB
 ----------------------------------------
 # rb3lyp/6-311+g** NMR geom=connectivity
 ----------------------------------------
 1/38=1,57=2/1;
 2/12=2,17=6,18=5,40=1/2;
 3/5=4,6=6,7=111,11=2,16=1,25=1,30=1,74=-5,116=1/1,2,8,3;
 4//1;
 5/5=2,38=5/2;
 8/6=1,10=90,11=11/1;
 10/13=100,45=16/2;
 6/7=2,8=2,9=2,10=2,28=1/1;
 99/9=1/99;
 -----
 Title
 -----
 Symbolic Z-matrix:
 Charge =  0 Multiplicity = 1
 C                    -4.05006  -0.57719   0.81367 
 H                    -5.02638  -1.00827   1.00248 
 C                    -3.93816   0.66178   0.24009 
 H                    -4.82524   1.23389  -0.01113 
 C                    -2.67684   1.24332   0.00576 
 C                    -1.49741   0.50515   0.28483 
 C                    -1.65083  -0.73387   0.9404 
 H                    -0.77136  -1.2731    1.26338 
 C                    -2.88985  -1.2624    1.19943 
 H                    -2.96837  -2.21246   1.71527 
 C                    -2.57732   2.59637  -0.41929 
 H                    -3.48707   3.14122  -0.64741 
 C                    -1.37419   3.21479  -0.4364 
 H                    -1.29973   4.2742   -0.65781 
 C                    -0.17195   2.49941  -0.17346 
 C                    -0.20439   1.10184   0.01927 
 C                     1.05135   3.20426  -0.06762 
 H                     1.04273   4.28195  -0.1897 
 C                     2.19421   2.54874   0.25796 
 H                     3.11685   3.09128   0.43347 
 C                     2.22165   1.13366   0.2935 
 C                     1.04869   0.39455   0.03024 
 C                     3.44834   0.46146   0.55739 
 H                     4.30958   1.06061   0.83348 
 C                     3.54273  -0.88559   0.47495 
 H                     4.47315  -1.39397   0.70388 
 C                     2.44901  -1.64744  -0.01963 
 C                     1.21507  -1.00573  -0.30136 
 C                     0.25311  -1.74344  -1.02166 
 H                    -0.65414  -1.25351  -1.34628 
 C                     0.44942  -3.06286  -1.34138 
 H                    -0.30832  -3.59443  -1.90541 
 C                     1.62517  -3.7208   -0.95525 
 H                     1.767    -4.76874  -1.1927 
 C                     2.61099  -3.01442  -0.31831 
 H                     3.55256  -3.49028  -0.06464 
 Bq                   -0.856    -1.64139  -0.45445 
 Bq                   -0.97559  -1.72124  -0.19116 
 Bq                   -0.81614  -1.61478  -0.54222 
 Bq                   -1.01545  -1.74786  -0.10339 
 Bq                   -0.77628  -1.58816  -0.62998 
 Bq                   -1.05531  -1.77447  -0.01563 
 Bq                   -0.73642  -1.56155  -0.71774 
 Bq                   -1.09517  -1.80109   0.07214 
 Bq                   -0.69656  -1.53493  -0.80551 
 Bq                   -0.89587  -1.66801  -0.36669 
 Bq                   -0.99076  -1.21266  -0.15775 
 Bq                   -0.91104  -1.15943  -0.33328 
 Bq                   -1.03062  -1.23927  -0.06999 
 Bq                   -0.87117  -1.13281  -0.42105 
 Bq                   -1.07048  -1.26589   0.01777 
 Bq                   -0.83131  -1.1062   -0.50881 
 Bq                   -1.11034  -1.29251   0.10554 
 Bq                   -0.79145  -1.07958  -0.59658 
 Bq                   -1.15021  -1.31912   0.1933 
 Bq                   -0.75159  -1.05296  -0.68434 
 Bq                   -0.9509   -1.18604  -0.24552 
 Bq                   -1.04579  -0.73069  -0.03659 
 Bq                   -0.96607  -0.67746  -0.21212 
 Bq                   -1.08565  -0.75731   0.05118 
 Bq                   -0.92621  -0.65085  -0.29988 
 Bq                   -1.12552  -0.78393   0.13894 
 Bq                   -0.88634  -0.62423  -0.38765 
 Bq                   -1.16538  -0.81054   0.22671 
 Bq                   -0.84648  -0.59762  -0.47541 
 Bq                   -1.20524  -0.83716   0.31447 
 Bq                   -0.80662  -0.571    -0.56318 
 Bq                   -1.00593  -0.70408  -0.12435 
 Bq                   -1.10082  -0.24873   0.08458 
 Bq                   -1.0211   -0.1955   -0.09095 
 Bq                   -1.14069  -0.27534   0.17234 
 Bq                   -0.98124  -0.16888  -0.17872 
 Bq                   -1.18055  -0.30196   0.26011 
 Bq                   -0.94138  -0.14227  -0.26648 
 Bq                   -1.22041  -0.32858   0.34787 
 Bq                   -0.90152  -0.11565  -0.35425 
 Bq                   -1.26027  -0.35519   0.43564 
 Bq                   -0.86165  -0.08904  -0.44201 
 Bq                   -1.06096  -0.22211  -0.00319 
 Bq                   -0.09526  -5.06838  -0.92032 
 Bq                   -0.01553  -5.01515  -1.09585 
 Bq                   -0.13512  -5.09499  -0.83255 
 Bq                    0.02433  -4.98853  -1.18361 
 Bq                   -0.17498  -5.12161  -0.74479 
 Bq                    0.06419  -4.96192  -1.27138 
 Bq                   -0.21484  -5.14823  -0.65702 
 Bq                    0.10405  -4.9353   -1.35914 
 Bq                   -0.2547   -5.17484  -0.56926 
 Bq                    0.14391  -4.90868  -1.44691 
 Bq                   -0.05539  -5.04176  -1.00808 
 Bq                   -0.15029  -4.58641  -0.79915 
 Bq                   -0.07057  -4.53318  -0.97468 
 Bq                   -0.19015  -4.61303  -0.71139 
 Bq                   -0.0307   -4.50657  -1.06245 
 Bq                   -0.23001  -4.63964  -0.62362 
 Bq                    0.00916  -4.47995  -1.15021 
 Bq                   -0.26987  -4.66626  -0.53586 
 Bq                    0.04902  -4.45333  -1.23798 
 Bq                   -0.30974  -4.69288  -0.44809 
 Bq                    0.08888  -4.42672  -1.32574 
 Bq                   -0.11043  -4.5598   -0.88692 
 Bq                   -0.20532  -4.10445  -0.67799 
 Bq                   -0.1256   -4.05122  -0.85351 
 Bq                   -0.24518  -4.13106  -0.59022 
 Bq                   -0.08574  -4.0246   -0.94128 
 Bq                   -0.28504  -4.15768  -0.50246 
 Bq                   -0.04587  -3.99799  -1.02904 
 Bq                   -0.32491  -4.1843   -0.41469 
 Bq                   -0.00601  -3.97137  -1.11681 
 Bq                   -0.36477  -4.21091  -0.32693 
 Bq                    0.03385  -3.94475  -1.20457 
 Bq                   -0.16546  -4.07783  -0.76575 
 Bq                   -0.26035  -3.62248  -0.55682 
 Bq                   -0.18063  -3.56925  -0.73235 
 Bq                   -0.30022  -3.6491   -0.46905 
 Bq                   -0.14077  -3.54264  -0.82011 
 Bq                   -0.34008  -3.67571  -0.38129 
 Bq                   -0.10091  -3.51602  -0.90788 
 Bq                   -0.37994  -3.70233  -0.29352 
 Bq                   -0.06104  -3.48941  -0.99564 
 Bq                   -0.4198   -3.72895  -0.20576 
 Bq                   -0.02118  -3.46279  -1.08341 
 Bq                   -0.22049  -3.59587  -0.64458 
 Bq                   -0.31539  -3.14052  -0.43565 
 Bq                   -0.23566  -3.08729  -0.61118 
 Bq                   -0.35525  -3.16713  -0.34789 
 Bq                   -0.1958   -3.06067  -0.69895 
 Bq                   -0.39511  -3.19375  -0.26012 
 Bq                   -0.15594  -3.03406  -0.78671 
 Bq                   -0.43497  -3.22037  -0.17236 
 Bq                   -0.11608  -3.00744  -0.87448 
 Bq                   -0.47483  -3.24698  -0.08459 
 Bq                   -0.07622  -2.98082  -0.96224 
 Bq                   -0.27552  -3.1139   -0.52342 
 Bq                   -0.37042  -2.65855  -0.31449 
 Bq                   -0.29069  -2.60532  -0.49002 
 Bq                   -0.41028  -2.68517  -0.22672 
 Bq                   -0.25083  -2.57871  -0.57778 
 Bq                   -0.45014  -2.71178  -0.13896 
 Bq                   -0.21097  -2.55209  -0.66555 
 Bq                   -0.49     -2.7384   -0.05119 
 Bq                   -0.17111  -2.52548  -0.75331 
 Bq                   -0.52987  -2.76502   0.03657 
 Bq                   -0.13125  -2.49886  -0.84107 
 Bq                   -0.33056  -2.63194  -0.40225 
 Bq                   -0.42545  -2.17659  -0.19332 
 Bq                   -0.34573  -2.12336  -0.36885 
 Bq                   -0.46531  -2.2032   -0.10556 
 Bq                   -0.30587  -2.09674  -0.45661 
 Bq                   -0.50517  -2.22982  -0.01779 
 Bq                   -0.266    -2.07013  -0.54438 
 Bq                   -0.54504  -2.25644   0.06997 
 Bq                   -0.22614  -2.04351  -0.63214 
 Bq                   -0.5849   -2.28305   0.15774 
 Bq                   -0.18628  -2.01689  -0.71991 
 Bq                   -0.38559  -2.14997  -0.28108 
 Bq                   -0.48048  -1.69462  -0.07215 
 Bq                   -0.40076  -1.64139  -0.24768 
 Bq                   -0.52034  -1.72124   0.01561 
 Bq                   -0.3609   -1.61478  -0.33545 
 Bq                   -0.56021  -1.74786   0.10338 
 Bq                   -0.32104  -1.58816  -0.42321 
 Bq                   -0.60007  -1.77447   0.19114 
 Bq                   -0.28117  -1.56155  -0.51098 
 Bq                   -0.63993  -1.80109   0.27891 
 Bq                   -0.24131  -1.53493  -0.59874 
 Bq                   -0.44062  -1.66801  -0.15992 
 Bq                   -0.53552  -1.21266   0.04901 
 Bq                   -0.45579  -1.15943  -0.12652 
 Bq                   -0.57538  -1.23927   0.13678 
 Bq                   -0.41593  -1.13281  -0.21428 
 Bq                   -0.61524  -1.26589   0.22454 
 Bq                   -0.37607  -1.1062   -0.30205 
 Bq                   -0.6551   -1.29251   0.31231 
 Bq                   -0.33621  -1.07958  -0.38981 
 Bq                   -0.69496  -1.31912   0.40007 
 Bq                   -0.29634  -1.05296  -0.47758 
 Bq                   -0.49565  -1.18604  -0.03875 
 Bq                   -0.59055  -0.73069   0.17018 
 Bq                   -0.51082  -0.67746  -0.00535 
 Bq                   -0.63041  -0.75731   0.25794 
 Bq                   -0.47096  -0.65085  -0.09312 
 Bq                   -0.67027  -0.78393   0.34571 
 Bq                   -0.4311   -0.62423  -0.18088 
 Bq                   -0.71013  -0.81054   0.43347 
 Bq                   -0.39124  -0.59762  -0.26865 
 Bq                   -0.74999  -0.83716   0.52124 
 Bq                   -0.35138  -0.571    -0.35641 
 Bq                   -0.55069  -0.70408   0.08241 
 Bq                   -0.64558  -0.24873   0.29134 
 Bq                   -0.56586  -0.1955    0.11582 
 Bq                   -0.68544  -0.27534   0.37911 
 Bq                   -0.52599  -0.16888   0.02805 
 Bq                   -0.7253   -0.30196   0.46687 
 Bq                   -0.48613  -0.14227  -0.05971 
 Bq                   -0.76517  -0.32858   0.55464 
 Bq                   -0.44627  -0.11565  -0.14748 
 Bq                   -0.80503  -0.35519   0.6424 
 Bq                   -0.40641  -0.08904  -0.23524 
 Bq                   -0.60572  -0.22211   0.20358 
 Bq                    0.35999  -5.06838  -0.71355 
 Bq                    0.43971  -5.01515  -0.88908 
 Bq                    0.32013  -5.09499  -0.62579 
 Bq                    0.47957  -4.98853  -0.97684 
 Bq                    0.28026  -5.12161  -0.53802 
 Bq                    0.51944  -4.96192  -1.06461 
 Bq                    0.2404   -5.14823  -0.45026 
 Bq                    0.5593   -4.9353   -1.15237 
 Bq                    0.20054  -5.17484  -0.36249 
 Bq                    0.59916  -4.90868  -1.24014 
 Bq                    0.39985  -5.04176  -0.80132 
 Bq                    0.30496  -4.58641  -0.59238 
 Bq                    0.38468  -4.53318  -0.76791 
 Bq                    0.26509  -4.61303  -0.50462 
 Bq                    0.42454  -4.50657  -0.85568 
 Bq                    0.22523  -4.63964  -0.41686 
 Bq                    0.4644   -4.47995  -0.94344 
 Bq                    0.18537  -4.66626  -0.32909 
 Bq                    0.50426  -4.45333  -1.03121 
 Bq                    0.14551  -4.69288  -0.24133 
 Bq                    0.54413  -4.42672  -1.11897 
 Bq                    0.34482  -4.5598   -0.68015 
 Bq                    0.24992  -4.10445  -0.47122 
 Bq                    0.32965  -4.05122  -0.64675 
 Bq                    0.21006  -4.13106  -0.38345 
 Bq                    0.36951  -4.0246   -0.73451 
 Bq                    0.1702   -4.15768  -0.29569 
 Bq                    0.40937  -3.99799  -0.82228 
 Bq                    0.13034  -4.1843   -0.20792 
 Bq                    0.44923  -3.97137  -0.91004 
 Bq                    0.09048  -4.21091  -0.12016 
 Bq                    0.48909  -3.94475  -0.99781 
 Bq                    0.28979  -4.07783  -0.55898 
 Bq                    0.19489  -3.62248  -0.35005 
 Bq                    0.27461  -3.56925  -0.52558 
 Bq                    0.15503  -3.6491   -0.26229 
 
 Symmetry turned off:
 Cannot cope with ghost atoms or with translation vectors.
 Stoichiometry    C22H14
 Framework group  C1[X(C22H14)]
 NUMDOF-- NAT=    36 NAtoms=   236
 Deg. of freedom     0
 Full point group                 C1      NOp   1
                          Input orientation:                          
 ---------------------------------------------------------------------
 Center     Atomic      Atomic             Coordinates (Angstroms)
 Number     Number       Type             X           Y           Z
 ---------------------------------------------------------------------
      1          6           0       -4.050056   -0.577186    0.813671
      2          1           0       -5.026380   -1.008273    1.002476
      3          6           0       -3.938155    0.661780    0.240088
      4          1           0       -4.825242    1.233889   -0.011130
      5          6           0       -2.676841    1.243325    0.005758
      6          6           0       -1.497412    0.505153    0.284825
      7          6           0       -1.650833   -0.733873    0.940403
      8          1           0       -0.771365   -1.273097    1.263375
      9          6           0       -2.889855   -1.262404    1.199431
     10          1           0       -2.968371   -2.212456    1.715268
     11          6           0       -2.577319    2.596370   -0.419293
     12          1           0       -3.487073    3.141224   -0.647406
     13          6           0       -1.374190    3.214790   -0.436403
     14          1           0       -1.299732    4.274202   -0.657814
     15          6           0       -0.171949    2.499409   -0.173459
     16          6           0       -0.204392    1.101844    0.019269
     17          6           0        1.051349    3.204256   -0.067622
     18          1           0        1.042734    4.281950   -0.189700
     19          6           0        2.194209    2.548745    0.257958
     20          1           0        3.116853    3.091285    0.433473
     21          6           0        2.221647    1.133656    0.293499
     22          6           0        1.048693    0.394553    0.030241
     23          6           0        3.448336    0.461463    0.557394
     24          1           0        4.309579    1.060605    0.833485
     25          6           0        3.542735   -0.885593    0.474946
     26          1           0        4.473147   -1.393970    0.703882
     27          6           0        2.449005   -1.647445   -0.019632
     28          6           0        1.215070   -1.005726   -0.301357
     29          6           0        0.253111   -1.743444   -1.021659
     30          1           0       -0.654136   -1.253505   -1.346285
     31          6           0        0.449419   -3.062860   -1.341378
     32          1           0       -0.308316   -3.594431   -1.905406
     33          6           0        1.625173   -3.720797   -0.955254
     34          1           0        1.767005   -4.768740   -1.192702
     35          6           0        2.610987   -3.014418   -0.318305
     36          1           0        3.552561   -3.490281   -0.064637
     37          0           0       -0.856004   -1.641392   -0.454450
     38          0           0       -0.975589   -1.721239   -0.191156
     39          0           0       -0.816142   -1.614777   -0.542215
     40          0           0       -1.015451   -1.747855   -0.103391
     41          0           0       -0.776280   -1.588161   -0.629980
     42          0           0       -1.055313   -1.774471   -0.015627
     43          0           0       -0.736418   -1.561546   -0.717744
     44          0           0       -1.095174   -1.801086    0.072138
     45          0           0       -0.696557   -1.534930   -0.805509
     46          0           0       -0.895866   -1.668008   -0.366686
     47          0           0       -0.990760   -1.212659   -0.157755
     48          0           0       -0.911036   -1.159428   -0.333284
     49          0           0       -1.030621   -1.239275   -0.069990
     50          0           0       -0.871174   -1.132812   -0.421049
     51          0           0       -1.070483   -1.265890    0.017775
     52          0           0       -0.831313   -1.106196   -0.508813
     53          0           0       -1.110345   -1.292506    0.105540
     54          0           0       -0.791451   -1.079581   -0.596578
     55          0           0       -1.150207   -1.319121    0.193304
     56          0           0       -0.751589   -1.052965   -0.684343
     57          0           0       -0.950898   -1.186043   -0.245519
     58          0           0       -1.045792   -0.730694   -0.036588
     59          0           0       -0.966068   -0.677463   -0.212118
     60          0           0       -1.085654   -0.757310    0.051176
     61          0           0       -0.926207   -0.650847   -0.299882
     62          0           0       -1.125516   -0.783925    0.138941
     63          0           0       -0.886345   -0.624231   -0.387647
     64          0           0       -1.165377   -0.810541    0.226706
     65          0           0       -0.846483   -0.597616   -0.475412
     66          0           0       -1.205239   -0.837157    0.314471
     67          0           0       -0.806621   -0.571000   -0.563177
     68          0           0       -1.005930   -0.704078   -0.124353
     69          0           0       -1.100824   -0.248729    0.084578
     70          0           0       -1.021101   -0.195498   -0.090952
     71          0           0       -1.140686   -0.275345    0.172343
     72          0           0       -0.981239   -0.168882   -0.178716
     73          0           0       -1.180548   -0.301960    0.260107
     74          0           0       -0.941377   -0.142266   -0.266481
     75          0           0       -1.220410   -0.328576    0.347872
     76          0           0       -0.901516   -0.115651   -0.354246
     77          0           0       -1.260271   -0.355192    0.435637
     78          0           0       -0.861654   -0.089035   -0.442010
     79          0           0       -1.060963   -0.222113   -0.003187
     80          0           0       -0.095256   -5.068378   -0.920318
     81          0           0       -0.015533   -5.015147   -1.095847
     82          0           0       -0.135118   -5.094994   -0.832553
     83          0           0        0.024329   -4.988531   -1.183612
     84          0           0       -0.174980   -5.121609   -0.744788
     85          0           0        0.064191   -4.961916   -1.271377
     86          0           0       -0.214842   -5.148225   -0.657023
     87          0           0        0.104052   -4.935300   -1.359141
     88          0           0       -0.254703   -5.174841   -0.569259
     89          0           0        0.143914   -4.908684   -1.446906
     90          0           0       -0.055395   -5.041763   -1.008082
     91          0           0       -0.150289   -4.586413   -0.799151
     92          0           0       -0.070565   -4.533182   -0.974681
     93          0           0       -0.190150   -4.613029   -0.711387
     94          0           0       -0.030703   -4.506566   -1.062446
     95          0           0       -0.230012   -4.639645   -0.623622
     96          0           0        0.009158   -4.479951   -1.150210
     97          0           0       -0.269874   -4.666260   -0.535857
     98          0           0        0.049020   -4.453335   -1.237975
     99          0           0       -0.309736   -4.692876   -0.448093
    100          0           0        0.088882   -4.426719   -1.325740
    101          0           0       -0.110427   -4.559798   -0.886916
    102          0           0       -0.205321   -4.104448   -0.677985
    103          0           0       -0.125598   -4.051217   -0.853515
    104          0           0       -0.245183   -4.131064   -0.590220
    105          0           0       -0.085736   -4.024601   -0.941279
    106          0           0       -0.285045   -4.157680   -0.502456
    107          0           0       -0.045874   -3.997986   -1.029044
    108          0           0       -0.324906   -4.184295   -0.414691
    109          0           0       -0.006012   -3.971370   -1.116809
    110          0           0       -0.364768   -4.210911   -0.326926
    111          0           0        0.033850   -3.944754   -1.204573
    112          0           0       -0.165459   -4.077833   -0.765750
    113          0           0       -0.260353   -3.622483   -0.556819
    114          0           0       -0.180630   -3.569252   -0.732348
    115          0           0       -0.300215   -3.649099   -0.469054
    116          0           0       -0.140768   -3.542636   -0.820113
    117          0           0       -0.340077   -3.675715   -0.381289
    118          0           0       -0.100906   -3.516021   -0.907878
    119          0           0       -0.379939   -3.702330   -0.293525
    120          0           0       -0.061045   -3.489405   -0.995643
    121          0           0       -0.419800   -3.728946   -0.205760
    122          0           0       -0.021183   -3.462790   -1.083407
    123          0           0       -0.220492   -3.595868   -0.644584
    124          0           0       -0.315386   -3.140519   -0.435653
    125          0           0       -0.235662   -3.087287   -0.611182
    126          0           0       -0.355248   -3.167134   -0.347888
    127          0           0       -0.195801   -3.060672   -0.698947
    128          0           0       -0.395109   -3.193750   -0.260123
    129          0           0       -0.155939   -3.034056   -0.786712
    130          0           0       -0.434971   -3.220365   -0.172358
    131          0           0       -0.116077   -3.007440   -0.874476
    132          0           0       -0.474833   -3.246981   -0.084594
    133          0           0       -0.076215   -2.980825   -0.962241
    134          0           0       -0.275524   -3.113903   -0.523417
    135          0           0       -0.370418   -2.658554   -0.314486
    136          0           0       -0.290695   -2.605322   -0.490016
    137          0           0       -0.410280   -2.685169   -0.226722
    138          0           0       -0.250833   -2.578707   -0.577781
    139          0           0       -0.450142   -2.711785   -0.138957
    140          0           0       -0.210971   -2.552091   -0.665545
    141          0           0       -0.490003   -2.738401   -0.051192
    142          0           0       -0.171109   -2.525475   -0.753310
    143          0           0       -0.529865   -2.765016    0.036573
    144          0           0       -0.131248   -2.498860   -0.841075
    145          0           0       -0.330556   -2.631938   -0.402251
    146          0           0       -0.425451   -2.176589   -0.193320
    147          0           0       -0.345727   -2.123357   -0.368850
    148          0           0       -0.465312   -2.203204   -0.105555
    149          0           0       -0.305865   -2.096742   -0.456614
    150          0           0       -0.505174   -2.229820   -0.017791
    151          0           0       -0.266003   -2.070126   -0.544379
    152          0           0       -0.545036   -2.256436    0.069974
    153          0           0       -0.226142   -2.043510   -0.632144
    154          0           0       -0.584898   -2.283051    0.157739
    155          0           0       -0.186280   -2.016895   -0.719908
    156          0           0       -0.385589   -2.149973   -0.281085
    157          0           0       -0.480483   -1.694624   -0.072154
    158          0           0       -0.400759   -1.641392   -0.247683
    159          0           0       -0.520345   -1.721239    0.015611
    160          0           0       -0.360898   -1.614777   -0.335448
    161          0           0       -0.560206   -1.747855    0.103376
    162          0           0       -0.321036   -1.588161   -0.423213
    163          0           0       -0.600068   -1.774471    0.191140
    164          0           0       -0.281174   -1.561546   -0.510978
    165          0           0       -0.639930   -1.801086    0.278905
    166          0           0       -0.241312   -1.534930   -0.598742
    167          0           0       -0.440621   -1.668008   -0.159919
    168          0           0       -0.535515   -1.212659    0.049012
    169          0           0       -0.455792   -1.159428   -0.126517
    170          0           0       -0.575377   -1.239275    0.136777
    171          0           0       -0.415930   -1.132812   -0.214282
    172          0           0       -0.615239   -1.265890    0.224542
    173          0           0       -0.376068   -1.106196   -0.302047
    174          0           0       -0.655101   -1.292506    0.312307
    175          0           0       -0.336206   -1.079581   -0.389811
    176          0           0       -0.694962   -1.319121    0.400071
    177          0           0       -0.296345   -1.052965   -0.477576
    178          0           0       -0.495654   -1.186043   -0.038752
    179          0           0       -0.590548   -0.730694    0.170179
    180          0           0       -0.510824   -0.677463   -0.005351
    181          0           0       -0.630409   -0.757310    0.257943
    182          0           0       -0.470962   -0.650847   -0.093116
    183          0           0       -0.670271   -0.783925    0.345708
    184          0           0       -0.431101   -0.624231   -0.180880
    185          0           0       -0.710133   -0.810541    0.433473
    186          0           0       -0.391239   -0.597616   -0.268645
    187          0           0       -0.749995   -0.837157    0.521238
    188          0           0       -0.351377   -0.571000   -0.356410
    189          0           0       -0.550686   -0.704078    0.082414
    190          0           0       -0.645580   -0.248729    0.291345
    191          0           0       -0.565856   -0.195498    0.115815
    192          0           0       -0.685442   -0.275345    0.379110
    193          0           0       -0.525995   -0.168882    0.028051
    194          0           0       -0.725304   -0.301960    0.466874
    195          0           0       -0.486133   -0.142266   -0.059714
    196          0           0       -0.765165   -0.328576    0.554639
    197          0           0       -0.446271   -0.115651   -0.147479
    198          0           0       -0.805027   -0.355192    0.642404
    199          0           0       -0.406409   -0.089035   -0.235243
    200          0           0       -0.605718   -0.222113    0.203580
    201          0           0        0.359988   -5.068378   -0.713551
    202          0           0        0.439712   -5.015147   -0.889080
    203          0           0        0.320126   -5.094994   -0.625786
    204          0           0        0.479573   -4.988531   -0.976845
    205          0           0        0.280265   -5.121609   -0.538021
    206          0           0        0.519435   -4.961916   -1.064610
    207          0           0        0.240403   -5.148225   -0.450257
    208          0           0        0.559297   -4.935300   -1.152374
    209          0           0        0.200541   -5.174841   -0.362492
    210          0           0        0.599159   -4.908684   -1.240139
    211          0           0        0.399850   -5.041763   -0.801315
    212          0           0        0.304956   -4.586413   -0.592384
    213          0           0        0.384679   -4.533182   -0.767914
    214          0           0        0.265094   -4.613029   -0.504620
    215          0           0        0.424541   -4.506566   -0.855679
    216          0           0        0.225232   -4.639645   -0.416855
    217          0           0        0.464403   -4.479951   -0.943443
    218          0           0        0.185370   -4.666260   -0.329090
    219          0           0        0.504264   -4.453335   -1.031208
    220          0           0        0.145509   -4.692876   -0.241326
    221          0           0        0.544126   -4.426719   -1.118973
    222          0           0        0.344817   -4.559798   -0.680149
    223          0           0        0.249923   -4.104448   -0.471218
    224          0           0        0.329647   -4.051217   -0.646748
    225          0           0        0.210062   -4.131064   -0.383453
    226          0           0        0.369509   -4.024601   -0.734512
    227          0           0        0.170200   -4.157680   -0.295689
    228          0           0        0.409370   -3.997986   -0.822277
    229          0           0        0.130338   -4.184295   -0.207924
    230          0           0        0.449232   -3.971370   -0.910042
    231          0           0        0.090476   -4.210911   -0.120159
    232          0           0        0.489094   -3.944754   -0.997807
    233          0           0        0.289785   -4.077833   -0.558983
    234          0           0        0.194891   -3.622483   -0.350052
    235          0           0        0.274614   -3.569252   -0.525581
    236          0           0        0.155029   -3.649099   -0.262287
 ---------------------------------------------------------------------
 Rotational constants (GHZ):      0.4529074      0.2836956      0.1879557
 Standard basis: 6-311+G(d,p) (5D, 7F)
 Warning:  center  37 has no basis functions!
 Warning:  center  38 has no basis functions!
 Warning:  center  39 has no basis functions!
 Warning:  center  40 has no basis functions!
 Warning:  center  41 has no basis functions!
 Warning:  center  42 has no basis functions!
 Warning:  center  43 has no basis functions!
 Warning:  center  44 has no basis functions!
 Warning:  center  45 has no basis functions!
 Warning:  center  46 has no basis functions!
 Warning:  center  47 has no basis functions!
 Warning:  center  48 has no basis functions!
 Warning:  center  49 has no basis functions!
 Warning:  center  50 has no basis functions!
 Warning:  center  51 has no basis functions!
 Warning:  center  52 has no basis functions!
 Warning:  center  53 has no basis functions!
 Warning:  center  54 has no basis functions!
 Warning:  center  55 has no basis functions!
 Warning:  center  56 has no basis functions!
 Warning:  center  57 has no basis functions!
 Warning:  center  58 has no basis functions!
 Warning:  center  59 has no basis functions!
 Warning:  center  60 has no basis functions!
 Warning:  center  61 has no basis functions!
 Warning:  center  62 has no basis functions!
 Warning:  center  63 has no basis functions!
 Warning:  center  64 has no basis functions!
 Warning:  center  65 has no basis functions!
 Warning:  center  66 has no basis functions!
 Warning:  center  67 has no basis functions!
 Warning:  center  68 has no basis functions!
 Warning:  center  69 has no basis functions!
 Warning:  center  70 has no basis functions!
 Warning:  center  71 has no basis functions!
 Warning:  center  72 has no basis functions!
 Warning:  center  73 has no basis functions!
 Warning:  center  74 has no basis functions!
 Warning:  center  75 has no basis functions!
 Warning:  center  76 has no basis functions!
 Warning:  center  77 has no basis functions!
 Warning:  center  78 has no basis functions!
 Warning:  center  79 has no basis functions!
 Warning:  center  80 has no basis functions!
 Warning:  center  81 has no basis functions!
 Warning:  center  82 has no basis functions!
 Warning:  center  83 has no basis functions!
 Warning:  center  84 has no basis functions!
 Warning:  center  85 has no basis functions!
 Warning:  center  86 has no basis functions!
 Warning:  center  87 has no basis functions!
 Warning:  center  88 has no basis functions!
 Warning:  center  89 has no basis functions!
 Warning:  center  90 has no basis functions!
 Warning:  center  91 has no basis functions!
 Warning:  center  92 has no basis functions!
 Warning:  center  93 has no basis functions!
 Warning:  center  94 has no basis functions!
 Warning:  center  95 has no basis functions!
 Warning:  center  96 has no basis functions!
 Warning:  center  97 has no basis functions!
 Warning:  center  98 has no basis functions!
 Warning:  center  99 has no basis functions!
 Warning:  center 100 has no basis functions!
 Warning:  center 101 has no basis functions!
 Warning:  center 102 has no basis functions!
 Warning:  center 103 has no basis functions!
 Warning:  center 104 has no basis functions!
 Warning:  center 105 has no basis functions!
 Warning:  center 106 has no basis functions!
 Warning:  center 107 has no basis functions!
 Warning:  center 108 has no basis functions!
 Warning:  center 109 has no basis functions!
 Warning:  center 110 has no basis functions!
 Warning:  center 111 has no basis functions!
 Warning:  center 112 has no basis functions!
 Warning:  center 113 has no basis functions!
 Warning:  center 114 has no basis functions!
 Warning:  center 115 has no basis functions!
 Warning:  center 116 has no basis functions!
 Warning:  center 117 has no basis functions!
 Warning:  center 118 has no basis functions!
 Warning:  center 119 has no basis functions!
 Warning:  center 120 has no basis functions!
 Warning:  center 121 has no basis functions!
 Warning:  center 122 has no basis functions!
 Warning:  center 123 has no basis functions!
 Warning:  center 124 has no basis functions!
 Warning:  center 125 has no basis functions!
 Warning:  center 126 has no basis functions!
 Warning:  center 127 has no basis functions!
 Warning:  center 128 has no basis functions!
 Warning:  center 129 has no basis functions!
 Warning:  center 130 has no basis functions!
 Warning:  center 131 has no basis functions!
 Warning:  center 132 has no basis functions!
 Warning:  center 133 has no basis functions!
 Warning:  center 134 has no basis functions!
 Warning:  center 135 has no basis functions!
 Warning:  center 136 has no basis functions!
 Warning:  center 137 has no basis functions!
 Warning:  center 138 has no basis functions!
 Warning:  center 139 has no basis functions!
 Warning:  center 140 has no basis functions!
 Warning:  center 141 has no basis functions!
 Warning:  center 142 has no basis functions!
 Warning:  center 143 has no basis functions!
 Warning:  center 144 has no basis functions!
 Warning:  center 145 has no basis functions!
 Warning:  center 146 has no basis functions!
 Warning:  center 147 has no basis functions!
 Warning:  center 148 has no basis functions!
 Warning:  center 149 has no basis functions!
 Warning:  center 150 has no basis functions!
 Warning:  center 151 has no basis functions!
 Warning:  center 152 has no basis functions!
 Warning:  center 153 has no basis functions!
 Warning:  center 154 has no basis functions!
 Warning:  center 155 has no basis functions!
 Warning:  center 156 has no basis functions!
 Warning:  center 157 has no basis functions!
 Warning:  center 158 has no basis functions!
 Warning:  center 159 has no basis functions!
 Warning:  center 160 has no basis functions!
 Warning:  center 161 has no basis functions!
 Warning:  center 162 has no basis functions!
 Warning:  center 163 has no basis functions!
 Warning:  center 164 has no basis functions!
 Warning:  center 165 has no basis functions!
 Warning:  center 166 has no basis functions!
 Warning:  center 167 has no basis functions!
 Warning:  center 168 has no basis functions!
 Warning:  center 169 has no basis functions!
 Warning:  center 170 has no basis functions!
 Warning:  center 171 has no basis functions!
 Warning:  center 172 has no basis functions!
 Warning:  center 173 has no basis functions!
 Warning:  center 174 has no basis functions!
 Warning:  center 175 has no basis functions!
 Warning:  center 176 has no basis functions!
 Warning:  center 177 has no basis functions!
 Warning:  center 178 has no basis functions!
 Warning:  center 179 has no basis functions!
 Warning:  center 180 has no basis functions!
 Warning:  center 181 has no basis functions!
 Warning:  center 182 has no basis functions!
 Warning:  center 183 has no basis functions!
 Warning:  center 184 has no basis functions!
 Warning:  center 185 has no basis functions!
 Warning:  center 186 has no basis functions!
 Warning:  center 187 has no basis functions!
 Warning:  center 188 has no basis functions!
 Warning:  center 189 has no basis functions!
 Warning:  center 190 has no basis functions!
 Warning:  center 191 has no basis functions!
 Warning:  center 192 has no basis functions!
 Warning:  center 193 has no basis functions!
 Warning:  center 194 has no basis functions!
 Warning:  center 195 has no basis functions!
 Warning:  center 196 has no basis functions!
 Warning:  center 197 has no basis functions!
 Warning:  center 198 has no basis functions!
 Warning:  center 199 has no basis functions!
 Warning:  center 200 has no basis functions!
 Warning:  center 201 has no basis functions!
 Warning:  center 202 has no basis functions!
 Warning:  center 203 has no basis functions!
 Warning:  center 204 has no basis functions!
 Warning:  center 205 has no basis functions!
 Warning:  center 206 has no basis functions!
 Warning:  center 207 has no basis functions!
 Warning:  center 208 has no basis functions!
 Warning:  center 209 has no basis functions!
 Warning:  center 210 has no basis functions!
 Warning:  center 211 has no basis functions!
 Warning:  center 212 has no basis functions!
 Warning:  center 213 has no basis functions!
 Warning:  center 214 has no basis functions!
 Warning:  center 215 has no basis functions!
 Warning:  center 216 has no basis functions!
 Warning:  center 217 has no basis functions!
 Warning:  center 218 has no basis functions!
 Warning:  center 219 has no basis functions!
 Warning:  center 220 has no basis functions!
 Warning:  center 221 has no basis functions!
 Warning:  center 222 has no basis functions!
 Warning:  center 223 has no basis functions!
 Warning:  center 224 has no basis functions!
 Warning:  center 225 has no basis functions!
 Warning:  center 226 has no basis functions!
 Warning:  center 227 has no basis functions!
 Warning:  center 228 has no basis functions!
 Warning:  center 229 has no basis functions!
 Warning:  center 230 has no basis functions!
 Warning:  center 231 has no basis functions!
 Warning:  center 232 has no basis functions!
 Warning:  center 233 has no basis functions!
 Warning:  center 234 has no basis functions!
 Warning:  center 235 has no basis functions!
 Warning:  center 236 has no basis functions!
   568 basis functions,   904 primitive gaussians,   590 cartesian basis functions
    73 alpha electrons       73 beta electrons
       nuclear repulsion energy      1610.9176155625 Hartrees.
 NAtoms=  236 NActive=  236 NUniq=  236 SFac= 1.00D+00 NAtFMM=   60 NAOKFM=T Big=T
 Integral buffers will be    131072 words long.
 Raffenetti 2 integral format.
 Two-electron integral symmetry is turned off.
 One-electron integrals computed using PRISM.
 NBasis=   568 RedAO= T EigKep=  1.78D-06  NBF=   568
 NBsUse=   556 1.00D-06 EigRej=  9.09D-07 NBFU=   556
 ExpMin= 4.38D-02 ExpMax= 4.56D+03 ExpMxC= 6.82D+02 IAcc=2 IRadAn=         4 AccDes= 0.00D+00
 Harris functional with IExCor=  402 and IRadAn=       4 diagonalized for initial guess.
 HarFok:  IExCor=  402 AccDes= 0.00D+00 IRadAn=         4 IDoV= 1 UseB2=F ITyADJ=14
 ICtDFT=  3500011 ScaDFX=  1.000000  1.000000  1.000000  1.000000
 FoFCou: FMM=F IPFlag=           0 FMFlag=      100000 FMFlg1=        2001
         NFxFlg=           0 DoJE=T BraDBF=F KetDBF=T FulRan=T
         wScrn=  0.000000 ICntrl=     500 IOpCl=  0 I1Cent=   200000004 NGrid=           0
         NMat0=    1 NMatS0=      1 NMatT0=    0 NMatD0=    1 NMtDS0=    0 NMtDT0=    0
 Symmetry not used in FoFCou.
 Requested convergence on RMS density matrix=1.00D-08 within 128 cycles.
 Requested convergence on MAX density matrix=1.00D-06.
 Requested convergence on             energy=1.00D-06.
 No special actions if energy rises.
 SCF Done:  E(RB3LYP) =  -847.003289847     A.U. after   15 cycles
            NFock= 15  Conv=0.76D-08     -V/T= 2.0040
 DoSCS=F DFT=T ScalE2(SS,OS)=  1.000000  1.000000
 Range of M.O.s used for correlation:     1   556
 NBasis=   568 NAE=    73 NBE=    73 NFC=     0 NFV=     0
 NROrb=    556 NOA=    73 NOB=    73 NVA=   483 NVB=   483

 **** Warning!!: The largest alpha MO coefficient is  0.10971038D+03

          Differentiating once with respect to magnetic field using GIAOs.
          Electric field/nuclear overlap derivatives assumed to be zero.
 FoFCou: FMM=F IPFlag=           0 FMFlag=      100000 FMFlg1=        2001
         NFxFlg=           0 DoJE=F BraDBF=F KetDBF=T FulRan=T
         wScrn=  0.000000 ICntrl=    6100 IOpCl=  0 I1Cent=           7 NGrid=         236
         NMat0=    1 NMatS0=      1 NMatT0=    0 NMatD0=    1 NMtDS0=    0 NMtDT0=    0
 Symmetry not used in FoFCou.
 FoFJK:  IHMeth= 1 ICntrl=    6127 DoSepK=F KAlg= 0 I1Cent=   0 FoldK=F
 IRaf=         1 NMat=   1 IRICut=       1 DoRegI=T DoRafI=F ISym2E= 0.
          There are     3 degrees of freedom in the 1st order CPHF.  IDoFFX=0 NUNeed=     3.
      3 vectors produced by pass  0 Test12= 1.18D-12 3.33D-08 XBig12= 2.07D+03 9.18D+00.
 AX will form     3 AO Fock derivatives at one time.
      3 vectors produced by pass  1 Test12= 1.18D-12 3.33D-08 XBig12= 3.56D+00 8.03D-01.
      3 vectors produced by pass  2 Test12= 1.18D-12 3.33D-08 XBig12= 2.10D-02 6.92D-02.
      3 vectors produced by pass  3 Test12= 1.18D-12 3.33D-08 XBig12= 5.45D-05 1.89D-03.
      3 vectors produced by pass  4 Test12= 1.18D-12 3.33D-08 XBig12= 1.20D-07 7.79D-05.
      3 vectors produced by pass  5 Test12= 1.18D-12 3.33D-08 XBig12= 4.02D-10 4.73D-06.
      3 vectors produced by pass  6 Test12= 1.18D-12 3.33D-08 XBig12= 1.32D-12 2.61D-07.
 InvSVY:  IOpt=1 It=  1 EMax= 2.13D-14
 Solved reduced A of dimension    21 with     3 vectors.
 Calculating GIAO nuclear magnetic shielding tensors.
 SCF GIAO Magnetic shielding tensor (ppm):
      1  C    Isotropic =    53.8139   Anisotropy =   178.0260
   XX=   -41.4327   YX=   -32.3458   ZX=    10.0287
   XY=   -28.3572   YY=    59.0527   ZY=    55.1899
   XZ=    13.1759   YZ=    58.7550   ZZ=   143.8218
   Eigenvalues:   -53.8775    42.8214   172.4979
      2  H    Isotropic =    24.3095   Anisotropy =     4.8536
   XX=    25.5771   YX=    -1.0289   ZX=     0.5661
   XY=    -0.7431   YY=    26.1829   ZY=    -2.3306
   XZ=    -0.1707   YZ=    -2.4411   ZZ=    21.1687
   Eigenvalues:    20.2108    25.1725    27.5453
      3  C    Isotropic =    51.4055   Anisotropy =   157.8639
   XX=   -31.5399   YX=    38.5015   ZX=   -17.9316
   XY=    34.3519   YY=    49.9437   ZY=    49.6392
   XZ=    -9.8383   YZ=    44.6006   ZZ=   135.8127
   Eigenvalues:   -50.5747    48.1432   156.6481
      4  H    Isotropic =    23.8290   Anisotropy =     7.1838
   XX=    25.3635   YX=     1.8486   ZX=    -0.3559
   XY=     1.9656   YY=    26.4581   ZY=    -2.4103
   XZ=    -1.2941   YZ=    -2.6614   ZZ=    19.6654
   Eigenvalues:    18.8176    24.0511    28.6182
      5  C    Isotropic =    46.0697   Anisotropy =   207.6751
   XX=   -19.2123   YX=    -4.8852   ZX=    -1.6475
   XY=     2.8938   YY=    -2.9860   ZY=    66.5656
   XZ=     2.5356   YZ=    67.9144   ZZ=   160.4073
   Eigenvalues:   -27.2455   -19.0652   184.5197
      6  C    Isotropic =    47.5218   Anisotropy =   196.9389
   XX=   -28.1552   YX=    -2.7889   ZX=    12.0660
   XY=   -14.3886   YY=    21.2063   ZY=    74.2521
   XZ=   -18.6356   YZ=    61.1113   ZZ=   149.5144
   Eigenvalues:   -30.2925    -5.9564   178.8144
      7  C    Isotropic =    49.3915   Anisotropy =   179.8333
   XX=   -12.5211   YX=    28.7048   ZX=   -24.6745
   XY=    31.5123   YY=    29.7000   ZY=    77.7459
   XZ=   -40.0095   YZ=    65.3072   ZZ=   130.9956
   Eigenvalues:   -52.1299    31.0240   169.2804
      8  H    Isotropic =    23.1586   Anisotropy =    13.5525
   XX=    28.5711   YX=     1.5482   ZX=    -3.6986
   XY=     3.2466   YY=    22.7592   ZY=    -2.1157
   XZ=    -8.3753   YZ=    -1.0821   ZZ=    18.1456
   Eigenvalues:    15.3521    21.9301    32.1936
      9  C    Isotropic =    55.1460   Anisotropy =   174.7426
   XX=    46.7071   YX=    -2.6162   ZX=    -2.8420
   XY=     0.6223   YY=    -1.6258   ZY=    92.8272
   XZ=     0.5159   YZ=    95.6598   ZZ=   120.3568
   Eigenvalues:   -52.8932    46.6901   171.6411
     10  H    Isotropic =    24.6278   Anisotropy =     7.1815
   XX=    29.1040   YX=     0.1399   ZX=    -0.3694
   XY=     0.3642   YY=    23.4778   ZY=    -1.0805
   XZ=    -2.4493   YZ=    -2.9465   ZZ=    21.3016
   Eigenvalues:    19.9703    24.4977    29.4155
     11  C    Isotropic =    51.5607   Anisotropy =   151.2142
   XX=     2.1639   YX=    40.9287   ZX=   -26.0048
   XY=    49.9131   YY=    12.2331   ZY=    42.1342
   XZ=   -15.6145   YZ=    38.6614   ZZ=   140.2851
   Eigenvalues:   -48.1951    50.5071   152.3701
     12  H    Isotropic =    23.8537   Anisotropy =     7.3815
   XX=    25.9672   YX=     2.3738   ZX=    -0.2390
   XY=     2.4320   YY=    26.3975   ZY=    -1.8291
   XZ=     0.3529   YZ=    -1.7731   ZZ=    19.1964
   Eigenvalues:    18.7149    24.0714    28.7747
     13  C    Isotropic =    52.8653   Anisotropy =   147.4265
   XX=    51.2944   YX=    19.9221   ZX=   -13.4678
   XY=    11.5478   YY=   -34.0176   ZY=    42.5079
   XZ=    -9.2241   YZ=    40.0716   ZZ=   141.3192
   Eigenvalues:   -46.5152    53.9616   151.1497
     14  H    Isotropic =    24.0156   Anisotropy =     7.3485
   XX=    28.6644   YX=     0.6281   ZX=     1.0808
   XY=     0.5926   YY=    24.4325   ZY=    -1.0823
   XZ=     1.6846   YZ=    -0.3842   ZZ=    18.9500
   Eigenvalues:    18.6430    24.4892    28.9146
     15  C    Isotropic =    46.2221   Anisotropy =   203.9048
   XX=   -27.2215   YX=    -0.0442   ZX=   -28.9124
   XY=     4.6427   YY=   -10.5571   ZY=    28.3830
   XZ=   -10.2704   YZ=    26.7376   ZZ=   176.4448
   Eigenvalues:   -30.5512   -12.9411   182.1586
     16  C    Isotropic =    51.9375   Anisotropy =   188.2004
   XX=   -19.4441   YX=     5.5046   ZX=    15.7858
   XY=    -8.3874   YY=     2.4863   ZY=    22.9264
   XZ=   -50.6243   YZ=    23.3340   ZZ=   172.7704
   Eigenvalues:   -21.0294    -0.5625   177.4045
     17  C    Isotropic =    51.9482   Anisotropy =   149.1264
   XX=    50.7296   YX=   -23.9353   ZX=   -18.4207
   XY=   -16.7271   YY=   -41.8764   ZY=    17.8662
   XZ=   -14.3278   YZ=    11.4871   ZZ=   146.9915
   Eigenvalues:   -46.7796    51.2584   151.3658
     18  H    Isotropic =    24.0122   Anisotropy =     7.5163
   XX=    28.5811   YX=    -0.0866   ZX=     1.5071
   XY=    -0.2466   YY=    24.3342   ZY=    -0.7657
   XZ=     2.5088   YZ=    -1.5208   ZZ=    19.1214
   Eigenvalues:    18.5094    24.5041    29.0231
     19  C    Isotropic =    51.7356   Anisotropy =   148.5924
   XX=     2.4559   YX=   -45.6913   ZX=   -31.2531
   XY=   -53.4448   YY=     7.4698   ZY=    -1.8888
   XZ=   -23.5601   YZ=    -1.2765   ZZ=   145.2810
   Eigenvalues:   -46.9894    51.3989   150.7972
     20  H    Isotropic =    23.9071   Anisotropy =     7.6651
   XX=    25.5796   YX=    -2.0226   ZX=     1.4905
   XY=    -1.9998   YY=    27.3706   ZY=    -0.5164
   XZ=     2.7276   YZ=    -1.1179   ZZ=    18.7711
   Eigenvalues:    18.1643    24.5398    29.0172
     21  C    Isotropic =    45.9767   Anisotropy =   203.9316
   XX=   -16.2108   YX=    13.1802   ZX=   -44.5913
   XY=     6.5714   YY=   -20.6329   ZY=     0.0949
   XZ=   -28.8984   YZ=   -13.0883   ZZ=   174.7736
   Eigenvalues:   -30.5796   -13.4215   181.9311
     22  C    Isotropic =    52.0450   Anisotropy =   188.1157
   XX=    -0.0787   YX=     2.5023   ZX=   -16.3451
   XY=    18.9327   YY=   -14.4798   ZY=   -34.4335
   XZ=   -50.6032   YZ=    19.9104   ZZ=   170.6934
   Eigenvalues:   -20.7705    -0.5500   177.4554
     23  C    Isotropic =    53.2392   Anisotropy =   146.7412
   XX=   -22.0674   YX=   -32.0012   ZX=   -49.4857
   XY=   -23.2043   YY=    44.3661   ZY=   -15.6400
   XZ=   -43.8090   YZ=   -20.2525   ZZ=   137.4189
   Eigenvalues:   -45.6776    54.3286   151.0667
     24  H    Isotropic =    23.8249   Anisotropy =     7.5289
   XX=    25.1073   YX=    -1.7330   ZX=     1.5380
   XY=    -1.5944   YY=    28.0047   ZY=     0.0879
   XZ=     1.2557   YZ=    -0.8283   ZZ=    18.3628
   Eigenvalues:    18.0848    24.5458    28.8442
     25  C    Isotropic =    51.4969   Anisotropy =   150.1066
   XX=   -28.4915   YX=    33.9684   ZX=   -52.3137
   XY=    22.0311   YY=    46.6072   ZY=    -3.8075
   XZ=   -44.5594   YZ=   -10.6355   ZZ=   136.3748
   Eigenvalues:   -48.3857    51.3083   151.5679
     26  H    Isotropic =    23.7431   Anisotropy =     7.4052
   XX=    24.0663   YX=     1.1141   ZX=     1.9989
   XY=     0.9693   YY=    28.1000   ZY=     1.6568
   XZ=     2.0795   YZ=     0.8886   ZZ=    19.0630
   Eigenvalues:    18.2615    24.2880    28.6799
     27  C    Isotropic =    45.8108   Anisotropy =   207.2710
   XX=    -2.7702   YX=    13.7697   ZX=   -61.4651
   XY=     6.5593   YY=   -12.0335   ZY=   -41.6456
   XZ=   -62.6381   YZ=   -44.9232   ZZ=   152.2361
   Eigenvalues:   -28.0803   -18.4787   183.9915
     28  C    Isotropic =    47.8398   Anisotropy =   197.2870
   XX=    19.6900   YX=    14.4398   ZX=   -60.5682
   XY=    28.5650   YY=   -19.3566   ZY=   -56.7015
   XZ=   -63.1331   YZ=   -24.4782   ZZ=   143.1859
   Eigenvalues:   -30.5979    -5.2472   179.3644
     29  C    Isotropic =    49.3441   Anisotropy =   179.7793
   XX=    -3.4110   YX=    38.3775   ZX=   -80.8875
   XY=    36.1252   YY=    25.9805   ZY=   -23.7573
   XZ=   -78.1065   YZ=    -3.9802   ZZ=   125.4627
   Eigenvalues:   -51.6645    30.4997   169.1970
     30  H    Isotropic =    23.1387   Anisotropy =    13.3222
   XX=    22.4354   YX=    -0.7013   ZX=    -0.2375
   XY=    -2.1539   YY=    28.3546   ZY=     4.5555
   XZ=    -3.4181   YZ=     8.3231   ZZ=    18.6259
   Eigenvalues:    15.2751    22.1208    32.0201
     31  C    Isotropic =    55.4410   Anisotropy =   174.9390
   XX=    17.1871   YX=   -14.0890   ZX=   -84.0024
   XY=   -17.9030   YY=    37.4745   ZY=   -50.3662
   XZ=   -84.6557   YZ=   -54.8325   ZZ=   111.6615
   Eigenvalues:   -51.9248    46.1808   172.0670
     32  H    Isotropic =    24.5337   Anisotropy =     7.2554
   XX=    24.6185   YX=    -2.5264   ZX=     0.7632
   XY=    -2.7385   YY=    27.4630   ZY=     1.0335
   XZ=     1.1913   YZ=     3.7573   ZZ=    21.5194
   Eigenvalues:    19.8987    24.3316    29.3706
     33  C    Isotropic =    53.1814   Anisotropy =   179.0596
   XX=    60.9231   YX=    35.2256   ZX=   -42.9515
   XY=    32.0226   YY=   -38.1801   ZY=   -45.5652
   XZ=   -44.2248   YZ=   -50.7831   ZZ=   136.8014
   Eigenvalues:   -55.1197    42.1095   172.5545
     34  H    Isotropic =    24.2825   Anisotropy =     5.1861
   XX=    26.7643   YX=    -0.0934   ZX=     2.5955
   XY=    -0.2993   YY=    24.8157   ZY=     0.8589
   XZ=     2.3715   YZ=     1.4580   ZZ=    21.2676
   Eigenvalues:    20.0339    25.0737    27.7399
     35  C    Isotropic =    51.5295   Anisotropy =   155.1748
   XX=    -0.5131   YX=    52.5760   ZX=   -52.1551
   XY=    55.6135   YY=    25.1843   ZY=   -14.2643
   XZ=   -45.7255   YZ=   -17.1625   ZZ=   129.9171
   Eigenvalues:   -48.3147    47.9237   154.9793
     36  H    Isotropic =    23.8384   Anisotropy =     7.3073
   XX=    24.2302   YX=     1.4459   ZX=     2.1759
   XY=     1.2147   YY=    27.1572   ZY=     2.0665
   XZ=     1.6853   YZ=     2.7775   ZZ=    20.1277
   Eigenvalues:    18.9464    23.8588    28.7099
     37  Bq   Isotropic =     2.7824   Anisotropy =    24.1467
   XX=     9.3239   YX=    -4.8287   ZX=    -2.8629
   XY=    -2.6485   YY=     2.7361   ZY=     2.0792
   XZ=   -20.9764   YZ=     9.8942   ZZ=    -3.7130
   Eigenvalues:   -11.5937     1.0607    18.8801
     38  Bq   Isotropic =     1.4732   Anisotropy =    24.9269
   XX=     7.8459   YX=    -4.4257   ZX=    -3.6950
   XY=    -3.7858   YY=     1.3774   ZY=     2.3269
   XZ=   -20.3241   YZ=    11.1005   ZZ=    -4.8036
   Eigenvalues:   -13.0850    -0.5865    18.0912
     39  Bq   Isotropic =     3.8167   Anisotropy =    23.0932
   XX=     9.9712   YX=    -4.7652   ZX=    -2.3854
   XY=    -2.0799   YY=     4.0647   ZY=     1.9155
   XZ=   -20.8595   YZ=     9.4416   ZZ=    -2.5859
   Eigenvalues:   -10.2640     2.5018    19.2121
     40  Bq   Isotropic =     1.4376   Anisotropy =    24.5585
   XX=     7.5303   YX=    -4.1963   ZX=    -3.7384
   XY=    -4.0205   YY=     1.5655   ZY=     2.3094
   XZ=   -19.7593   YZ=    11.4364   ZZ=    -4.7830
   Eigenvalues:   -12.9958    -0.5014    17.8099
     41  Bq   Isotropic =     5.2790   Anisotropy =    21.5816
   XX=    10.7144   YX=    -4.5171   ZX=    -1.8676
   XY=    -1.3781   YY=     5.9836   ZY=     1.7402
   XZ=   -20.5815   YZ=     8.9848   ZZ=    -0.8610
   Eigenvalues:    -8.3994     4.5697    19.6667
     42  Bq   Isotropic =     1.5246   Anisotropy =    23.9406
   XX=     7.3177   YX=    -3.9404   ZX=    -3.6747
   XY=    -4.1827   YY=     1.9834   ZY=     2.2343
   XZ=   -19.0208   YZ=    11.7215   ZZ=    -4.7272
   Eigenvalues:   -12.7274    -0.1837    17.4850
     43  Bq   Isotropic =     7.2647   Anisotropy =    19.6413
   XX=    11.6078   YX=    -4.0214   ZX=    -1.3794
   XY=    -0.5267   YY=     8.5995   ZY=     1.5962
   XZ=   -20.1325   YZ=     8.5627   ZZ=     1.5868
   Eigenvalues:    -5.9540     7.3892    20.3589
     44  Bq   Isotropic =     1.6947   Anisotropy =    23.0973
   XX=     7.2120   YX=    -3.6588   ZX=    -3.5191
   XY=    -4.2624   YY=     2.5842   ZY=     2.0923
   XZ=   -18.1136   YZ=    11.9304   ZZ=    -4.7123
   Eigenvalues:   -12.3410     0.3321    17.0928
     45  Bq   Isotropic =     9.8620   Anisotropy =    17.4079
   XX=    12.7434   YX=    -3.2252   ZX=    -1.0133
   XY=     0.4641   YY=    12.0001   ZY=     1.5478
   XZ=   -19.4800   YZ=     8.2397   ZZ=     4.8424
   Eigenvalues:    -2.9314    11.0501    21.4672
     46  Bq   Isotropic =     2.0918   Anisotropy =    24.7696
   XX=     8.7524   YX=    -4.7657   ZX=    -3.2542
   XY=    -3.1088   YY=     1.8989   ZY=     2.2082
   XZ=   -20.9297   YZ=    10.3249   ZZ=    -4.3759
   Eigenvalues:   -12.4570     0.1275    18.6048
     47  Bq   Isotropic =     0.3157   Anisotropy =    29.8694
   XX=     6.5916   YX=    -5.7372   ZX=    -3.3930
   XY=    -7.1495   YY=     1.1964   ZY=     3.5841
   XZ=   -23.5384   YZ=    13.3694   ZZ=    -6.8408
   Eigenvalues:   -16.1976    -3.0839    20.2287
     48  Bq   Isotropic =    -0.4715   Anisotropy =    29.8669
   XX=     5.9473   YX=    -6.2896   ZX=    -3.0707
   XY=    -6.8455   YY=     0.6008   ZY=     4.3353
   XZ=   -22.5526   YZ=    14.0689   ZZ=    -7.9626
   Eigenvalues:   -17.0484    -3.8059    19.4397
     49  Bq   Isotropic =     1.1062   Anisotropy =    29.4231
   XX=     7.1228   YX=    -5.3466   ZX=    -3.2964
   XY=    -7.2522   YY=     1.9686   ZY=     3.2278
   XZ=   -23.6151   YZ=    13.1992   ZZ=    -5.7728
   Eigenvalues:   -15.1638    -2.2392    20.7216
     50  Bq   Isotropic =    -0.4440   Anisotropy =    29.5013
   XX=     5.8167   YX=    -6.4523   ZX=    -2.6897
   XY=    -6.6804   YY=     0.8232   ZY=     4.7745
   XZ=   -21.6819   YZ=    14.5786   ZZ=    -7.9718
   Eigenvalues:   -16.9014    -3.6541    19.2235
     51  Bq   Isotropic =     2.1427   Anisotropy =    28.6163
   XX=     7.8128   YX=    -4.8570   ZX=    -3.0135
   XY=    -7.2772   YY=     3.0262   ZY=     2.8466
   XZ=   -23.3808   YZ=    13.1584   ZZ=    -4.4109
   Eigenvalues:   -13.7199    -1.0723    21.2202
     52  Bq   Isotropic =    -0.1161   Anisotropy =    28.9413
   XX=     5.8136   YX=    -6.5175   ZX=    -2.1905
   XY=    -6.5152   YY=     1.4393   ZY=     5.2767
   XZ=   -20.5714   YZ=    15.1729   ZZ=    -7.6014
   Eigenvalues:   -16.4071    -3.1194    19.1781
     53  Bq   Isotropic =     3.4016   Anisotropy =    27.4022
   XX=     8.6814   YX=    -4.2377   ZX=    -2.5487
   XY=    -7.1729   YY=     4.3281   ZY=     2.4064
   XZ=   -22.8065   YZ=    13.2523   ZZ=    -2.8046
   Eigenvalues:   -11.8890     0.4241    21.6697
     54  Bq   Isotropic =     0.5278   Anisotropy =    28.2209
   XX=     5.9474   YX=    -6.4530   ZX=    -1.5929
   XY=    -6.3496   YY=     2.5020   ZY=     5.8458
   XZ=   -19.2150   YZ=    15.8194   ZZ=    -6.8661
   Eigenvalues:   -15.5919    -2.1664    19.3417
     55  Bq   Isotropic =     4.8426   Anisotropy =    25.7429
   XX=     9.7517   YX=    -3.4547   ZX=    -1.9263
   XY=    -6.8756   YY=     5.8024   ZY=     1.8719
   XZ=   -21.8626   YZ=    13.4821   ZZ=    -1.0263
   Eigenvalues:    -9.7322     2.2555    22.0045
     56  Bq   Isotropic =     1.4946   Anisotropy =    27.3757
   XX=     6.2288   YX=    -6.2165   ZX=    -0.9154
   XY=    -6.1807   YY=     4.0689   ZY=     6.4660
   XZ=   -17.5925   YZ=    16.4596   ZZ=    -5.8138
   Eigenvalues:   -14.4768    -0.7843    19.7451
     57  Bq   Isotropic =    -0.2140   Anisotropy =    30.0026
   XX=     6.2036   YX=    -6.0491   ZX=    -3.3121
   XY=    -7.0061   YY=     0.7338   ZY=     3.9451
   XZ=   -23.1768   YZ=    13.6620   ZZ=    -7.5795
   Eigenvalues:   -16.8212    -3.6087    19.7877
     58  Bq   Isotropic =     1.8239   Anisotropy =    28.6965
   XX=     9.6833   YX=    -4.6464   ZX=    -2.2335
   XY=    -8.3330   YY=     5.2116   ZY=     2.6106
   XZ=   -23.9355   YZ=     9.3315   ZZ=    -9.4232
   Eigenvalues:   -16.3642     0.8810    20.9549
     59  Bq   Isotropic =    -0.8486   Anisotropy =    28.9675
   XX=     6.7456   YX=    -4.7783   ZX=    -2.4330
   XY=    -8.1040   YY=     3.3494   ZY=     3.3288
   XZ=   -22.7453   YZ=    11.3562   ZZ=   -12.6408
   Eigenvalues:   -19.5243    -1.4845    18.4631
     60  Bq   Isotropic =     3.6722   Anisotropy =    27.7742
   XX=    11.2682   YX=    -4.5576   ZX=    -1.5282
   XY=    -8.4577   YY=     6.8745   ZY=     2.4470
   XZ=   -23.8125   YZ=     8.3064   ZZ=    -7.1261
   Eigenvalues:   -13.7674     2.5957    22.1884
     61  Bq   Isotropic =    -1.6971   Anisotropy =    28.6524
   XX=     5.5108   YX=    -4.8473   ZX=    -2.1187
   XY=    -8.0119   YY=     3.0161   ZY=     3.8654
   XZ=   -21.5294   YZ=    12.3515   ZZ=   -13.6182
   Eigenvalues:   -20.2691    -2.2267    17.4045
     62  Bq   Isotropic =     5.8257   Anisotropy =    26.0660
   XX=    12.7522   YX=    -4.3786   ZX=    -0.2835
   XY=    -8.5556   YY=     9.0740   ZY=     2.3759
   XZ=   -23.1702   YZ=     7.2572   ZZ=    -4.3493
   Eigenvalues:   -10.4189     4.6929    23.2030
     63  Bq   Isotropic =    -2.2656   Anisotropy =    28.1979
   XX=     4.4440   YX=    -4.9014   ZX=    -1.6377
   XY=    -7.9317   YY=     2.9892   ZY=     4.4703
   XZ=   -19.9814   YZ=    13.3046   ZZ=   -14.2299
   Eigenvalues:   -20.6009    -2.7288    16.5330
     64  Bq   Isotropic =     8.1899   Anisotropy =    23.3735
   XX=    13.8912   YX=    -3.9833   ZX=     1.5897
   XY=    -8.5519   YY=    11.7626   ZY=     2.3268
   XZ=   -21.9954   YZ=     6.1828   ZZ=    -1.0842
   Eigenvalues:    -6.3107     7.1081    23.7722
     65  Bq   Isotropic =    -2.5953   Anisotropy =    27.6682
   XX=     3.5262   YX=    -4.9149   ZX=    -1.0543
   XY=    -7.8556   YY=     3.2129   ZY=     5.0896
   XZ=   -18.1652   YZ=    14.1732   ZZ=   -14.5251
   Eigenvalues:   -20.6197    -3.0164    15.8501
     66  Bq   Isotropic =    10.5684   Anisotropy =    19.5605
   XX=    14.3006   YX=    -3.1583   ZX=     4.1262
   XY=    -8.2815   YY=    14.7322   ZY=     2.1973
   XZ=   -20.3051   YZ=     5.1304   ZZ=     2.6724
   Eigenvalues:    -1.5059     9.6023    23.6088
     67  Bq   Isotropic =    -2.7272   Anisotropy =    27.0896
   XX=     2.7305   YX=    -4.8606   ZX=    -0.4200
   XY=    -7.7725   YY=     3.6415   ZY=     5.6644
   XZ=   -16.1426   YZ=    14.9049   ZZ=   -14.5537
   Eigenvalues:   -20.4025    -3.1116    15.3325
     68  Bq   Isotropic =     0.3171   Anisotropy =    29.0331
   XX=     8.1479   YX=    -4.7113   ZX=    -2.5017
   XY=    -8.2117   YY=     4.0572   ZY=     2.9031
   XZ=   -23.5658   YZ=    10.3462   ZZ=   -11.2539
   Eigenvalues:   -18.2567    -0.4645    19.6724
     69  Bq   Isotropic =     7.6159   Anisotropy =    22.6912
   XX=    19.1975   YX=     3.3108   ZX=    -0.9363
   XY=    -1.9720   YY=     9.5481   ZY=    -1.9434
   XZ=   -19.2185   YZ=     5.5456   ZZ=    -5.8980
   Eigenvalues:    -9.6362     9.7404    22.7433
     70  Bq   Isotropic =     3.7079   Anisotropy =    20.2641
   XX=    13.1519   YX=     2.3513   ZX=    -0.2804
   XY=    -3.4911   YY=     9.2275   ZY=    -1.9547
   XZ=   -20.4635   YZ=     7.0236   ZZ=   -11.2557
   Eigenvalues:   -15.2627     9.1692    17.2173
     71  Bq   Isotropic =    10.3489   Anisotropy =    23.0512
   XX=    22.7497   YX=     2.8115   ZX=    -0.8427
   XY=    -1.7227   YY=    10.4241   ZY=    -0.6333
   XZ=   -17.3237   YZ=     5.3876   ZZ=    -2.1270
   Eigenvalues:    -5.4618    10.7922    25.7164
     72  Bq   Isotropic =     2.4432   Anisotropy =    19.8451
   XX=    10.8978   YX=     1.3265   ZX=     0.1081
   XY=    -4.3855   YY=     9.2133   ZY=    -0.9907
   XZ=   -19.9581   YZ=     8.3048   ZZ=   -12.7815
   Eigenvalues:   -16.7216     8.3780    15.6733
     73  Bq   Isotropic =    13.4647   Anisotropy =    22.3768
   XX=    26.1705   YX=     1.5191   ZX=    -0.1961
   XY=    -2.0588   YY=    12.0453   ZY=     1.5235
   XZ=   -14.6757   YZ=     5.5394   ZZ=     2.1782
   Eigenvalues:    -0.8022    12.8136    28.3825
     74  Bq   Isotropic =     1.5012   Anisotropy =    20.5595
   XX=     9.0931   YX=     0.2473   ZX=     0.4122
   XY=    -5.1769   YY=     9.0398   ZY=     0.2648
   XZ=   -18.9110   YZ=     9.8064   ZZ=   -13.6294
   Eigenvalues:   -17.5088     6.8048    15.2075
     75  Bq   Isotropic =    16.6337   Anisotropy =    20.8473
   XX=    28.8280   YX=    -0.5138   ZX=     1.1135
   XY=    -3.1239   YY=    14.2887   ZY=     4.3540
   XZ=   -11.4789   YZ=     5.9520   ZZ=     6.7845
   Eigenvalues:     3.5645    15.8048    30.5319
     76  Bq   Isotropic =     0.7903   Anisotropy =    21.6304
   XX=     7.6238   YX=    -0.7196   ZX=     0.6235
   XY=    -5.7886   YY=     8.6621   ZY=     1.5646
   XZ=   -17.4860   YZ=    11.3813   ZZ=   -13.9150
   Eigenvalues:   -17.8247     4.9851    15.2105
     77  Bq   Isotropic =    19.2884   Anisotropy =    19.1395
   XX=    29.8599   YX=    -3.1331   ZX=     3.0147
   XY=    -5.0282   YY=    16.5976   ZY=     7.6507
   XZ=    -8.0034   YZ=     6.6707   ZZ=    11.4077
   Eigenvalues:     6.3821    19.4351    32.0480
     78  Bq   Isotropic =     0.2507   Anisotropy =    22.4598
   XX=     6.3824   YX=    -1.4815   ZX=     0.7703
   XY=    -6.1947   YY=     8.1228   ZY=     2.7349
   XZ=   -15.8132   YZ=    12.8902   ZZ=   -13.7531
   Eigenvalues:   -17.8203     3.3484    15.2239
     79  Bq   Isotropic =     5.4036   Anisotropy =    21.5397
   XX=    15.9296   YX=     3.0939   ZX=    -0.6793
   XY=    -2.6269   YY=     9.2479   ZY=    -2.3494
   XZ=   -20.2579   YZ=     6.0842   ZZ=    -8.9667
   Eigenvalues:   -12.9353     9.3826    19.7633
     80  Bq   Isotropic =    -0.5635   Anisotropy =     8.5052
   XX=     0.7304   YX=     2.6458   ZX=     1.7169
   XY=     1.5612   YY=     4.0695   ZY=     0.3160
   XZ=    -0.4028   YZ=    -2.0397   ZZ=    -6.4905
   Eigenvalues:    -6.6576    -0.1396     5.1066
     81  Bq   Isotropic =    -0.6808   Anisotropy =     8.7809
   XX=     0.6914   YX=     2.3611   ZX=     2.3364
   XY=     1.3564   YY=     4.3939   ZY=     0.7981
   XZ=     0.3948   YZ=    -1.3033   ZZ=    -7.1277
   Eigenvalues:    -7.3869     0.1714     5.1731
     82  Bq   Isotropic =    -0.5097   Anisotropy =     8.3445
   XX=     0.7298   YX=     2.7203   ZX=     1.4331
   XY=     1.6145   YY=     3.8894   ZY=     0.1115
   XZ=    -0.7398   YZ=    -2.3187   ZZ=    -6.1483
   Eigenvalues:    -6.3188    -0.2636     5.0533
     83  Bq   Isotropic =    -0.7425   Anisotropy =     8.8990
   XX=     0.6498   YX=     2.1431   ZX=     2.6596
   XY=     1.2006   YY=     4.5260   ZY=     1.0739
   XZ=     0.8444   YZ=    -0.8418   ZZ=    -7.4032
   Eigenvalues:    -7.7722     0.3545     5.1902
     84  Bq   Isotropic =    -0.4596   Anisotropy =     8.1681
   XX=     0.7179   YX=     2.7563   ZX=     1.1717
   XY=     1.6397   YY=     3.7043   ZY=    -0.0687
   XZ=    -1.0324   YZ=    -2.5428   ZZ=    -5.8010
   Eigenvalues:    -5.9982    -0.3664     4.9858
     85  Bq   Isotropic =    -0.8042   Anisotropy =     9.0074
   XX=     0.5931   YX=     1.8727   ZX=     2.9798
   XY=     1.0090   YY=     4.6289   ZY=     1.3703
   XZ=     1.3156   YZ=    -0.3180   ZZ=    -7.6347
   Eigenvalues:    -8.1638     0.5504     5.2007
     86  Bq   Isotropic =    -0.4133   Anisotropy =     7.9767
   XX=     0.6968   YX=     2.7595   ZX=     0.9344
   XY=     1.6409   YY=     3.5184   ZY=    -0.2255
   XZ=    -1.2811   YZ=    -2.7167   ZZ=    -5.4550
   Eigenvalues:    -5.6953    -0.4490     4.9045
     87  Bq   Isotropic =    -0.8642   Anisotropy =     9.1087
   XX=     0.5217   YX=     1.5518   ZX=     3.2852
   XY=     0.7843   YY=     4.6951   ZY=     1.6838
   XZ=     1.7953   YZ=     0.2656   ZZ=    -7.8094
   Eigenvalues:    -8.5525     0.7517     5.2083
     88  Bq   Isotropic =    -0.3706   Anisotropy =     7.7716
   XX=     0.6685   YX=     2.7353   ZX=     0.7216
   XY=     1.6223   YY=     3.3352   ZY=    -0.3602
   XZ=    -1.4875   YZ=    -2.8452   ZZ=    -5.1155
   Eigenvalues:    -5.4093    -0.5129     4.8104
     89  Bq   Isotropic =    -0.9201   Anisotropy =     9.2056
   XX=     0.4366   YX=     1.1856   ZX=     3.5627
   XY=     0.5320   YY=     4.7171   ZY=     2.0100
   XZ=     2.2682   YZ=     0.9039   ZZ=    -7.9139
   Eigenvalues:    -8.9261     0.9489     5.2170
     90  Bq   Isotropic =    -0.6208   Anisotropy =     8.6502
   XX=     0.7180   YX=     2.5276   ZX=     2.0197
   XY=     1.4761   YY=     4.2396   ZY=     0.5450
   XZ=    -0.0233   YZ=    -1.7022   ZZ=    -6.8200
   Eigenvalues:    -7.0142     0.0057     5.1460
     91  Bq   Isotropic =     0.1964   Anisotropy =    11.0898
   XX=     2.1485   YX=     3.7769   ZX=     2.0011
   XY=     2.3157   YY=     5.4653   ZY=    -0.3645
   XZ=    -1.8684   YZ=    -4.6571   ZZ=    -7.0247
   Eigenvalues:    -7.5564     0.5559     7.5896
     92  Bq   Isotropic =     0.2499   Anisotropy =    11.3165
   XX=     2.2591   YX=     3.3742   ZX=     3.1585
   XY=     1.9854   YY=     6.3748   ZY=     0.1828
   XZ=    -0.4812   YZ=    -4.2171   ZZ=    -7.8842
   Eigenvalues:    -8.4428     1.3983     7.7942
     93  Bq   Isotropic =     0.1734   Anisotropy =    10.9079
   XX=     2.0670   YX=     3.8402   ZX=     1.5062
   XY=     2.3755   YY=     5.0374   ZY=    -0.5772
   XZ=    -2.3955   YZ=    -4.7619   ZZ=    -6.5842
   Eigenvalues:    -7.1743     0.2492     7.4454
     94  Bq   Isotropic =     0.2831   Anisotropy =    11.3693
   XX=     2.2954   YX=     2.9961   ZX=     3.7971
   XY=     1.6913   YY=     6.8354   ZY=     0.5205
   XZ=     0.3671   YZ=    -3.8522   ZZ=    -8.2816
   Eigenvalues:    -8.9550     1.9416     7.8626
     95  Bq   Isotropic =     0.1520   Anisotropy =    10.6823
   XX=     1.9688   YX=     3.8360   ZX=     1.0730
   XY=     2.3822   YY=     4.6360   ZY=    -0.7528
   XZ=    -2.8160   YZ=    -4.8066   ZZ=    -6.1487
   Eigenvalues:    -6.8246     0.0071     7.2736
     96  Bq   Isotropic =     0.3225   Anisotropy =    11.3997
   XX=     2.3301   YX=     2.4785   ZX=     4.4467
   XY=     1.3012   YY=     7.2790   ZY=     0.9009
   XZ=     1.2939   YZ=    -3.3675   ZZ=    -8.6417
   Eigenvalues:    -9.5110     2.5561     7.9223
     97  Bq   Isotropic =     0.1322   Anisotropy =    10.4177
   XX=     1.8571   YX=     3.7803   ZX=     0.7005
   XY=     2.3478   YY=     4.2644   ZY=    -0.8948
   XZ=    -3.1385   YZ=    -4.8014   ZZ=    -5.7249
   Eigenvalues:    -6.5007    -0.1800     7.0773
     98  Bq   Isotropic =     0.3691   Anisotropy =    11.4356
   XX=     2.3756   YX=     1.8133   ZX=     5.0751
   XY=     0.8163   YY=     7.6836   ZY=     1.3228
   XZ=     2.2655   YZ=    -2.7436   ZZ=    -8.9517
   Eigenvalues:   -10.0998     3.2144     7.9929
     99  Bq   Isotropic =     0.1141   Anisotropy =    10.1201
   XX=     1.7364   YX=     3.6861   ZX=     0.3852
   XY=     2.2827   YY=     3.9243   ZY=    -1.0072
   XZ=    -3.3738   YZ=    -4.7555   ZZ=    -5.3183
   Eigenvalues:    -6.1974    -0.3210     6.8609
    100  Bq   Isotropic =     0.4229   Anisotropy =    11.5197
   XX=     2.4445   YX=     1.0047   ZX=     5.6429
   XY=     0.2477   YY=     8.0217   ZY=     1.7838
   XZ=     3.2369   YZ=    -1.9608   ZZ=    -9.1974
   Eigenvalues:   -10.7017     3.8677     8.1027
    101  Bq   Isotropic =     0.2215   Anisotropy =    11.2256
   XX=     2.2119   YX=     3.6281   ZX=     2.5547
   XY=     2.1899   YY=     5.9140   ZY=    -0.1119
   XZ=    -1.2298   YZ=    -4.4801   ZZ=    -7.4614
   Eigenvalues:    -7.9773     0.9366     7.7053
    102  Bq   Isotropic =     2.5912   Anisotropy =    14.0307
   XX=     5.4556   YX=     5.2632   ZX=     1.1619
   XY=     3.4018   YY=     6.6517   ZY=    -1.1442
   XZ=    -5.9501   YZ=    -7.8182   ZZ=    -4.3338
   Eigenvalues:    -5.9956     1.8242    11.9450
    103  Bq   Isotropic =     3.7552   Anisotropy =    13.2154
   XX=     6.6721   YX=     5.0052   ZX=     2.8102
   XY=     2.9913   YY=     8.3377   ZY=    -0.4952
   XZ=    -4.3563   YZ=    -8.3674   ZZ=    -3.7442
   Eigenvalues:    -5.2192     3.9194    12.5655
    104  Bq   Isotropic =     2.1524   Anisotropy =    14.0102
   XX=     4.9293   YX=     5.1752   ZX=     0.5226
   XY=     3.3962   YY=     5.9064   ZY=    -1.3701
   XZ=    -6.4259   YZ=    -7.5100   ZZ=    -4.3784
   Eigenvalues:    -6.2044     1.1690    11.4926
    105  Bq   Isotropic =     4.5002   Anisotropy =    12.2268
   XX=     7.3941   YX=     4.5359   ZX=     3.7930
   XY=     2.4744   YY=     9.2194   ZY=    -0.0947
   XZ=    -3.2103   YZ=    -8.5995   ZZ=    -3.1128
   Eigenvalues:    -4.6487     5.4979    12.6514
    106  Bq   Isotropic =     1.7910   Anisotropy =    13.7975
   XX=     4.4459   YX=     5.0057   ZX=     0.0023
   XY=     3.3062   YY=     5.2429   ZY=    -1.5344
   XZ=    -6.7233   YZ=    -7.1876   ZZ=    -4.3156
   Eigenvalues:    -6.3087     0.6924    10.9894
    107  Bq   Isotropic =     5.3552   Anisotropy =    10.7758
   XX=     8.2281   YX=     3.7472   ZX=     4.8296
   XY=     1.6849   YY=    10.0621   ZY=     0.3111
   XZ=    -1.8462   YZ=    -8.7969   ZZ=    -2.2246
   Eigenvalues:    -3.9664     7.4930    12.5390
    108  Bq   Isotropic =     1.4936   Anisotropy =    13.4481
   XX=     4.0011   YX=     4.7870   ZX=    -0.4111
   XY=     3.1627   YY=     4.6622   ZY=    -1.6465
   XZ=    -6.8729   YZ=    -6.8580   ZZ=    -4.1825
   Eigenvalues:    -6.3259     0.3478    10.4590
    109  Bq   Isotropic =     6.3067   Anisotropy =     8.9858
   XX=     9.2159   YX=     2.5774   ZX=     5.8460
   XY=     0.5965   YY=    10.8034   ZY=     0.6606
   XZ=    -0.3147   YZ=    -8.9438   ZZ=    -1.0992
   Eigenvalues:    -3.1825     9.8054    12.2972
    110  Bq   Isotropic =     1.2486   Anisotropy =    13.0054
   XX=     3.5927   YX=     4.5417   ZX=    -0.7319
   XY=     2.9880   YY=     4.1603   ZY=    -1.7169
   XZ=    -6.9039   YZ=    -6.5271   ZZ=    -4.0073
   Eigenvalues:    -6.2740     0.1009     9.9188
    111  Bq   Isotropic =     7.3260   Anisotropy =     9.0590
   XX=    10.4086   YX=     0.9937   ZX=     6.7362
   XY=    -0.7739   YY=    11.3815   ZY=     0.8753
   XZ=     1.2921   YZ=    -8.9965   ZZ=     0.1878
   Eigenvalues:    -2.3050    10.9177    13.3653
    112  Bq   Isotropic =     3.1214   Anisotropy =    13.7913
   XX=     6.0325   YX=     5.2254   ZX=     1.9260
   XY=     3.2829   YY=     7.4695   ZY=    -0.8513
   XZ=    -5.2674   YZ=    -8.1058   ZZ=    -4.1379
   Eigenvalues:    -5.6692     2.7177    12.3156
    113  Bq   Isotropic =     6.3120   Anisotropy =    17.4128
   XX=    10.3239   YX=     5.3366   ZX=    -1.1388
   XY=     4.1318   YY=     7.7074   ZY=    -1.1725
   XZ=   -12.9831   YZ=    -7.4527   ZZ=     0.9046
   Eigenvalues:    -3.1585     4.1739    17.9205
    114  Bq   Isotropic =     9.4367   Anisotropy =    15.4381
   XX=    13.2840   YX=     4.9828   ZX=     0.6888
   XY=     3.6884   YY=    10.7996   ZY=     0.0327
   XZ=   -12.5823   YZ=    -7.5512   ZZ=     4.2266
   Eigenvalues:     1.0118     7.5695    19.7288
    115  Bq   Isotropic =     5.1332   Anisotropy =    17.4853
   XX=     8.9962   YX=     5.2048   ZX=    -1.7241
   XY=     4.0336   YY=     6.4802   ZY=    -1.5334
   XZ=   -12.8651   YZ=    -7.2579   ZZ=    -0.0768
   Eigenvalues:    -4.4234     3.0330    16.7901
    116  Bq   Isotropic =    11.3608   Anisotropy =    13.0757
   XX=    14.7055   YX=     4.2378   ZX=     1.9424
   XY=     2.8876   YY=    12.5436   ZY=     0.9030
   XZ=   -12.0440   YZ=    -7.4616   ZZ=     6.8333
   Eigenvalues:     4.0853     9.9191    20.0779
    117  Bq   Isotropic =     4.1785   Anisotropy =    17.1869
   XX=     7.8206   YX=     4.9754   ZX=    -2.1328
   XY=     3.8323   YY=     5.4697   ZY=    -1.7724
   XZ=   -12.5837   YZ=    -6.9924   ZZ=    -0.7548
   Eigenvalues:    -5.2806     2.1797    15.6365
    118  Bq   Isotropic =    13.4107   Anisotropy =     9.5383
   XX=    15.7967   YX=     2.8554   ZX=     3.3280
   XY=     1.4493   YY=    14.1968   ZY=     1.8954
   XZ=   -11.3611   YZ=    -7.3628   ZZ=    10.2385
   Eigenvalues:     7.7616    12.7008    19.7695
    119  Bq   Isotropic =     3.4120   Anisotropy =    16.6456
   XX=     6.7985   YX=     4.6957   ZX=    -2.4011
   XY=     3.5776   YY=     4.6525   ZY=    -1.9195
   XZ=   -12.1812   YZ=    -6.6807   ZZ=    -1.2150
   Eigenvalues:    -5.8262     1.5531    14.5091
    120  Bq   Isotropic =    15.3560   Anisotropy =     5.5310
   XX=    16.1788   YX=     0.5817   ZX=     4.5995
   XY=    -0.8618   YY=    15.4224   ZY=     2.8341
   XZ=   -10.7424   YZ=    -7.4418   ZZ=    14.4668
   Eigenvalues:    11.2103    15.8144    19.0433
    121  Bq   Isotropic =     2.7980   Anisotropy =    15.9554
   XX=     5.9185   YX=     4.3958   ZX=    -2.5618
   XY=     3.3012   YY=     3.9989   ZY=    -2.0007
   XZ=   -11.6958   YZ=    -6.3450   ZZ=    -1.5233
   Eigenvalues:    -6.1414     1.1005    13.4350
    122  Bq   Isotropic =    16.7940   Anisotropy =     5.9198
   XX=    15.3624   YX=    -2.8291   ZX=     5.2625
   XY=    -4.2526   YY=    15.7308   ZY=     3.3427
   XZ=   -10.5875   YZ=    -8.0458   ZZ=    19.2886
   Eigenvalues:    10.5573    19.0840    20.7405
    123  Bq   Isotropic =     7.7435   Anisotropy =    16.8014
   XX=    11.7767   YX=     5.2982   ZX=    -0.3421
   XY=     4.0527   YY=     9.1570   ZY=    -0.6587
   XZ=   -12.8978   YZ=    -7.5541   ZZ=     2.2967
   Eigenvalues:    -1.3806     5.6666    18.9444
    124  Bq   Isotropic =     8.6354   Anisotropy =    20.8070
   XX=    14.0610   YX=     3.8135   ZX=    -3.3719
   XY=     4.5103   YY=     8.0121   ZY=    -1.5044
   XZ=   -18.1490   YZ=    -3.6094   ZZ=     3.8330
   Eigenvalues:    -2.9672     6.3666    22.5067
    125  Bq   Isotropic =    12.7431   Anisotropy =    19.6966
   XX=    18.5669   YX=     3.9985   ZX=    -1.4518
[...]
   152  Bq   0.000000
   153  Bq   0.000000
   154  Bq   0.000000
   155  Bq   0.000000
   156  Bq   0.000000
   157  Bq   0.000000
   158  Bq   0.000000
   159  Bq   0.000000
   160  Bq   0.000000
   161  Bq   0.000000
   162  Bq   0.000000
   163  Bq   0.000000
   164  Bq   0.000000
   165  Bq   0.000000
   166  Bq   0.000000
   167  Bq   0.000000
   168  Bq   0.000000
   169  Bq   0.000000
   170  Bq   0.000000
   171  Bq   0.000000
   172  Bq   0.000000
   173  Bq   0.000000
   174  Bq   0.000000
   175  Bq   0.000000
   176  Bq   0.000000
   177  Bq   0.000000
   178  Bq   0.000000
   179  Bq   0.000000
   180  Bq   0.000000
   181  Bq   0.000000
   182  Bq   0.000000
   183  Bq   0.000000
   184  Bq   0.000000
   185  Bq   0.000000
   186  Bq   0.000000
   187  Bq   0.000000
   188  Bq   0.000000
   189  Bq   0.000000
   190  Bq   0.000000
   191  Bq   0.000000
   192  Bq   0.000000
   193  Bq   0.000000
   194  Bq   0.000000
   195  Bq   0.000000
   196  Bq   0.000000
   197  Bq   0.000000
   198  Bq   0.000000
   199  Bq   0.000000
   200  Bq   0.000000
   201  Bq   0.000000
   202  Bq   0.000000
   203  Bq   0.000000
   204  Bq   0.000000
   205  Bq   0.000000
   206  Bq   0.000000
   207  Bq   0.000000
   208  Bq   0.000000
   209  Bq   0.000000
   210  Bq   0.000000
   211  Bq   0.000000
   212  Bq   0.000000
   213  Bq   0.000000
   214  Bq   0.000000
   215  Bq   0.000000
   216  Bq   0.000000
   217  Bq   0.000000
   218  Bq   0.000000
   219  Bq   0.000000
   220  Bq   0.000000
   221  Bq   0.000000
   222  Bq   0.000000
   223  Bq   0.000000
   224  Bq   0.000000
   225  Bq   0.000000
   226  Bq   0.000000
   227  Bq   0.000000
   228  Bq   0.000000
   229  Bq   0.000000
   230  Bq   0.000000
   231  Bq   0.000000
   232  Bq   0.000000
   233  Bq   0.000000
   234  Bq   0.000000
   235  Bq   0.000000
   236  Bq   0.000000
 Sum of Mulliken charges =   0.00000
 Mulliken charges with hydrogens summed into heavy atoms:
               1
     1  C   -0.255498
     3  C    0.169409
     5  C    0.448258
     6  C    0.064351
     7  C   -0.483520
     9  C   -0.139521
    11  C   -0.205988
    13  C   -0.119315
    15  C    0.653397
    16  C    0.034822
    17  C   -0.317410
    19  C   -0.316854
    21  C    0.651066
    22  C    0.037784
    23  C   -0.117289
    25  C   -0.205316
    27  C    0.448331
    28  C    0.061983
    29  C   -0.483043
    31  C   -0.261786
    33  C   -0.255977
    35  C    0.170579
    37  Bq   0.000000
    38  Bq   0.000000
    39  Bq   0.000000
    40  Bq   0.000000
    41  Bq   0.000000
    42  Bq   0.000000
    43  Bq   0.000000
    44  Bq   0.000000
    45  Bq   0.149662
    46  Bq   0.000000
    47  Bq   0.000000
    48  Bq   0.000000
    49  Bq   0.000000
    50  Bq   0.000000
    51  Bq   0.000000
    52  Bq   0.000000
    53  Bq   0.000000
    54  Bq   0.000000
    55  Bq   0.000000
    56  Bq   0.000000
    57  Bq   0.000000
    58  Bq   0.000000
    59  Bq   0.000000
    60  Bq   0.000000
    61  Bq   0.000000
    62  Bq   0.000000
    63  Bq   0.000000
    64  Bq   0.000000
    65  Bq   0.000000
    66  Bq   0.000000
    67  Bq   0.000000
    68  Bq   0.000000
    69  Bq   0.000000
    70  Bq   0.000000
    71  Bq   0.000000
    72  Bq   0.000000
    73  Bq   0.000000
    74  Bq   0.000000
    75  Bq   0.000000
    76  Bq   0.000000
    77  Bq   0.000000
    78  Bq   0.000000
    79  Bq   0.000000
    80  Bq   0.000000
    81  Bq   0.000000
    82  Bq   0.000000
    83  Bq   0.000000
    84  Bq   0.000000
    85  Bq   0.000000
    86  Bq   0.000000
    87  Bq   0.000000
    88  Bq   0.000000
    89  Bq   0.000000
    90  Bq   0.000000
    91  Bq   0.000000
    92  Bq   0.000000
    93  Bq   0.000000
    94  Bq   0.000000
    95  Bq   0.000000
    96  Bq   0.000000
    97  Bq   0.000000
    98  Bq   0.000000
    99  Bq   0.000000
   100  Bq   0.000000
   101  Bq   0.000000
   102  Bq   0.000000
   103  Bq   0.000000
   104  Bq   0.000000
   105  Bq   0.000000
   106  Bq   0.000000
   107  Bq   0.000000
   108  Bq   0.000000
   109  Bq   0.000000
   110  Bq   0.000000
   111  Bq   0.122281
   112  Bq   0.000000
   113  Bq   0.000000
   114  Bq   0.000000
   115  Bq   0.000000
   116  Bq   0.000000
   117  Bq   0.000000
   118  Bq   0.000000
   119  Bq   0.000000
   120  Bq   0.000000
   121  Bq   0.000000
   122  Bq   0.000000
   123  Bq   0.000000
   124  Bq   0.000000
   125  Bq   0.000000
   126  Bq   0.000000
   127  Bq   0.000000
   128  Bq   0.000000
   129  Bq   0.000000
   130  Bq   0.000000
   131  Bq   0.000000
   132  Bq   0.000000
   133  Bq   0.000000
   134  Bq   0.000000
   135  Bq   0.000000
   136  Bq   0.000000
   137  Bq   0.000000
   138  Bq   0.000000
   139  Bq   0.000000
   140  Bq   0.000000
   141  Bq   0.000000
   142  Bq   0.000000
   143  Bq   0.000000
   144  Bq   0.000000
   145  Bq   0.000000
   146  Bq   0.000000
   147  Bq   0.000000
   148  Bq   0.000000
   149  Bq   0.000000
   150  Bq   0.000000
   151  Bq   0.000000
   152  Bq   0.000000
   153  Bq   0.000000
   154  Bq   0.000000
   155  Bq   0.000000
   156  Bq   0.000000
   157  Bq   0.000000
   158  Bq   0.000000
   159  Bq   0.000000
   160  Bq   0.000000
   161  Bq   0.000000
   162  Bq   0.000000
   163  Bq   0.000000
   164  Bq   0.000000
   165  Bq   0.000000
   166  Bq   0.000000
   167  Bq   0.000000
   168  Bq   0.000000
   169  Bq   0.000000
   170  Bq   0.000000
   171  Bq   0.000000
   172  Bq   0.000000
   173  Bq   0.000000
   174  Bq   0.000000
   175  Bq   0.000000
   176  Bq   0.000000
   177  Bq   0.000000
   178  Bq   0.000000
   179  Bq   0.000000
   180  Bq   0.000000
   181  Bq   0.000000
   182  Bq   0.000000
   183  Bq   0.000000
   184  Bq   0.000000
   185  Bq   0.000000
   186  Bq   0.000000
   187  Bq   0.149595
   188  Bq   0.000000
   189  Bq   0.000000
   190  Bq   0.000000
   191  Bq   0.000000
   192  Bq   0.000000
   193  Bq   0.000000
   194  Bq   0.000000
   195  Bq   0.000000
   196  Bq   0.000000
   197  Bq   0.000000
   198  Bq   0.000000
   199  Bq   0.000000
   200  Bq   0.000000
   201  Bq   0.000000
   202  Bq   0.000000
   203  Bq   0.000000
   204  Bq   0.000000
   205  Bq   0.000000
   206  Bq   0.000000
   207  Bq   0.000000
   208  Bq   0.000000
   209  Bq   0.000000
   210  Bq   0.000000
   211  Bq   0.000000
   212  Bq   0.000000
   213  Bq   0.000000
   214  Bq   0.000000
   215  Bq   0.000000
   216  Bq   0.000000
   217  Bq   0.000000
   218  Bq   0.000000
   219  Bq   0.000000
   220  Bq   0.000000
   221  Bq   0.000000
   222  Bq   0.000000
   223  Bq   0.000000
   224  Bq   0.000000
   225  Bq   0.000000
   226  Bq   0.000000
   227  Bq   0.000000
   228  Bq   0.000000
   229  Bq   0.000000
   230  Bq   0.000000
   231  Bq   0.000000
   232  Bq   0.000000
   233  Bq   0.000000
   234  Bq   0.000000
   235  Bq   0.000000
   236  Bq   0.000000
 Electronic spatial extent (au):  <R**2>=           5736.9264
 Charge=              0.0000 electrons
 Dipole moment (field-independent basis, Debye):
    X=              0.0475    Y=              0.0856    Z=              0.0029  Tot=              0.0979
 Quadrupole moment (field-independent basis, Debye-Ang):
   XX=           -113.7056   YY=           -113.9456   ZZ=           -133.2669
   XY=             -0.3834   XZ=              3.2102   YZ=             -1.1839
 Traceless Quadrupole moment (field-independent basis, Debye-Ang):
   XX=              6.6005   YY=              6.3604   ZZ=            -12.9609
   XY=             -0.3834   XZ=              3.2102   YZ=             -1.1839
 Octapole moment (field-independent basis, Debye-Ang**2):
  XXX=            -16.4668  YYY=            -16.1860  ZZZ=             -1.7007  XYY=              2.5576
  XXY=             -6.5650  XXZ=             13.6547  XZZ=             -8.9478  YZZ=            -17.7168
  YYZ=            -13.2941  XYZ=              8.8036
 Hexadecapole moment (field-independent basis, Debye-Ang**3):
 XXXX=          -3951.1638 YYYY=          -3112.2161 ZZZZ=           -504.8311 XXXY=            340.6935
 XXXZ=            156.4968 YYYX=            335.5625 YYYZ=            -87.0893 ZZZX=            120.2262
 ZZZY=           -108.7373 XXYY=          -1176.4844 XXZZ=           -856.7291 YYZZ=           -665.7275
 XXYZ=            -68.9016 YYXZ=             48.1602 ZZXY=            153.0375
 N-N= 1.610917615562D+03 E-N=-5.186891130729D+03  KE= 8.436329774449D+02
 1\1\GINC-URBICANDE\SP\RB3LYP\6-311+G(d,p)\C22H14\YANNICK\14-Aug-2020\0
 \\# rb3lyp/6-311+g** NMR geom=connectivity\\Title\\0,1\C,0,-4.0500558,
 -0.5771862,0.8136712\H,0,-5.0263804,-1.0082727,1.002476\C,0,-3.9381552
 ,0.6617804,0.2400876\H,0,-4.8252424,1.233889,-0.0111295\C,0,-2.676841,
 1.2433246,0.0057578\C,0,-1.4974121,0.5051527,0.2848253\C,0,-1.6508332,
 -0.7338728,0.9404026\H,0,-0.7713646,-1.2730967,1.2633753\C,0,-2.889854
 8,-1.2624035,1.1994307\H,0,-2.9683706,-2.2124563,1.7152676\C,0,-2.5773
 185,2.5963696,-0.419293\H,0,-3.4870728,3.1412239,-0.6474055\C,0,-1.374
 1895,3.2147896,-0.436403\H,0,-1.2997315,4.2742019,-0.6578144\C,0,-0.17
 19488,2.499409,-0.1734588\C,0,-0.2043917,1.1018437,0.0192689\C,0,1.051
 3491,3.204256,-0.0676222\H,0,1.0427344,4.2819499,-0.1896997\C,0,2.1942
 091,2.5487446,0.2579577\H,0,3.1168527,3.0912848,0.4334727\C,0,2.221647
 3,1.1336562,0.293499\C,0,1.0486931,0.3945528,0.0302412\C,0,3.4483363,0
 .4614633,0.5573939\H,0,4.3095794,1.0606054,0.8334846\C,0,3.5427346,-0.
 8855926,0.4749463\H,0,4.4731467,-1.3939704,0.7038822\C,0,2.4490052,-1.
 6474447,-0.0196319\C,0,1.2150704,-1.0057258,-0.3013573\C,0,0.2531113,-
 1.743444,-1.0216591\H,0,-0.6541356,-1.2535051,-1.3462847\C,0,0.4494193
 ,-3.0628597,-1.3413779\H,0,-0.3083162,-3.5944309,-1.905406\C,0,1.62517
 26,-3.7207967,-0.9552541\H,0,1.7670048,-4.7687404,-1.1927019\C,0,2.610
 9872,-3.0144177,-0.318305\H,0,3.5525612,-3.4902813,-0.0646367\Bq,0,-0.
 8560037407,-1.6413924662,-0.4544502756\Bq,0,-0.9755890321,-1.721239419
 5,-0.1911561014\Bq,0,-0.816141977,-1.6147768151,-0.5422150003\Bq,0,-1.
 0154507959,-1.7478550706,-0.1033913767\Bq,0,-0.7762802132,-1.588161164
 ,-0.629979725\Bq,0,-1.0553125597,-1.7744707217,-0.015626652\Bq,0,-0.73
 64184494,-1.5615455129,-0.7177444497\Bq,0,-1.0951743235,-1.8010863728,
 0.0721380727\Bq,0,-0.6965566856,-1.5349298617,-0.8055091744\Bq,0,-0.89
 58655045,-1.6680081173,-0.3666855509\Bq,0,-0.9907596352,-1.2126588548,
 -0.1577545739\Bq,0,-0.9110361076,-1.1594275526,-0.3332840233\Bq,0,-1.0
 30621399,-1.2392745059,-0.0699898491\Bq,0,-0.8711743438,-1.1328119015,
 -0.421048748\Bq,0,-1.0704831628,-1.265890157,0.0177748756\Bq,0,-0.8313
 1258,-1.1061962504,-0.5088134727\Bq,0,-1.1103449265,-1.2925058081,0.10
 55396003\Bq,0,-0.7914508162,-1.0795805993,-0.5965781974\Bq,0,-1.150206
 6903,-1.3191214593,0.193304325\Bq,0,-0.7515890525,-1.0529649482,-0.684
 3429221\Bq,0,-0.9508978714,-1.1860432037,-0.2455192986\Bq,0,-1.0457920
 02,-0.7306939413,-0.0365883216\Bq,0,-0.9660684745,-0.6774626391,-0.212
 117771\Bq,0,-1.0856537658,-0.7573095924,0.0511764031\Bq,0,-0.926206710
 7,-0.6508469879,-0.2998824957\Bq,0,-1.1255155296,-0.7839252435,0.13894
 11279\Bq,0,-0.8863449469,-0.6242313368,-0.3876472204\Bq,0,-1.165377293
 4,-0.8105408946,0.2267058526\Bq,0,-0.8464831831,-0.5976156857,-0.47541
 19451\Bq,0,-1.2052390572,-0.8371565457,0.3144705773\Bq,0,-0.8066214193
 ,-0.5710000346,-0.5631766698\Bq,0,-1.0059302383,-0.7040782902,-0.12435
 30463\Bq,0,-1.1008243689,-0.2487290277,0.0845779307\Bq,0,-1.0211008413
 ,-0.1954977255,-0.0909515187\Bq,0,-1.1406861327,-0.2753446788,0.172342
 6554\Bq,0,-0.9812390775,-0.1688820744,-0.1787162434\Bq,0,-1.1805478965
 ,-0.3019603299,0.2601073801\Bq,0,-0.9413773138,-0.1422664233,-0.266480
 9681\Bq,0,-1.2204096603,-0.328575981,0.3478721049\Bq,0,-0.90151555,-0.
 1156507722,-0.3542456928\Bq,0,-1.2602714241,-0.3551916321,0.4356368296
 \Bq,0,-0.8616537862,-0.0890351211,-0.4420104176\Bq,0,-1.0609626051,-0.
 2221133766,-0.003186794\Bq,0,-0.0952563337,-5.0683781633,-0.920317654\
 Bq,0,-0.0155328062,-5.0151468611,-1.0958471035\Bq,0,-0.1351180975,-5.0
 949938144,-0.8325529293\Bq,0,0.0243289576,-4.98853121,-1.1836118282\Bq
 ,0,-0.1749798613,-5.1216094655,-0.7447882046\Bq,0,0.0641907214,-4.9619
 155589,-1.2713765529\Bq,0,-0.2148416251,-5.1482251166,-0.6570234799\Bq
 ,0,0.1040524852,-4.9352999078,-1.3591412776\Bq,0,-0.2547033889,-5.1748
 407677,-0.5692587552\Bq,0,0.143914249,-4.9086842567,-1.4469060023\Bq,0
 ,-0.0553945699,-5.0417625122,-1.0080823787\Bq,0,-0.1502887006,-4.58641
 32498,-0.7991514017\Bq,0,-0.070565173,-4.5331819475,-0.9746808512\Bq,0
 ,-0.1901504644,-4.6130289009,-0.711386677\Bq,0,-0.0307034092,-4.506566
 2964,-1.0624455759\Bq,0,-0.2300122282,-4.639644552,-0.6236219523\Bq,0,
 0.0091583546,-4.4799506453,-1.1502103006\Bq,0,-0.269873992,-4.66626020
 31,-0.5358572276\Bq,0,0.0490201183,-4.4533349942,-1.2379750253\Bq,0,-0
 .3097357557,-4.6928758542,-0.4480925029\Bq,0,0.0888818821,-4.426719343
 1,-1.32573975\Bq,0,-0.1104269368,-4.5597975986,-0.8869161265\Bq,0,-0.2
 053210675,-4.1044483362,-0.6779851495\Bq,0,-0.1255975399,-4.051217034,
 -0.8535145989\Bq,0,-0.2451828312,-4.1310639873,-0.5902204247\Bq,0,-0.0
 857357761,-4.0246013829,-0.9412793236\Bq,0,-0.285044595,-4.1576796384,
 -0.5024557\Bq,0,-0.0458740123,-3.9979857318,-1.0290440483\Bq,0,-0.3249
 063588,-4.1842952895,-0.4146909753\Bq,0,-0.0060122485,-3.9713700807,-1
 .116808773\Bq,0,-0.3647681226,-4.2109109406,-0.3269262506\Bq,0,0.03384
 95153,-3.9447544296,-1.2045734977\Bq,0,-0.1654593037,-4.0778326851,-0.
 7657498742\Bq,0,-0.2603534343,-3.6224834226,-0.5568188972\Bq,0,-0.1806
 299067,-3.5692521204,-0.7323483466\Bq,0,-0.3002151981,-3.6490990737,-0
 .4690541725\Bq,0,-0.1407681429,-3.5426364693,-0.8201130713\Bq,0,-0.340
 0769619,-3.6757147248,-0.3812894477\Bq,0,-0.1009063792,-3.5160208182,-
 0.907877796\Bq,0,-0.3799387257,-3.702330376,-0.293524723\Bq,0,-0.06104
 46154,-3.4894051671,-0.9956425207\Bq,0,-0.4198004895,-3.7289460271,-0.
 2057599983\Bq,0,-0.0211828516,-3.462789516,-1.0834072454\Bq,0,-0.22049
 16705,-3.5958677715,-0.6445836219\Bq,0,-0.3153858012,-3.1405185091,-0.
 4356526449\Bq,0,-0.2356622736,-3.0872872069,-0.6111820943\Bq,0,-0.3552
 47565,-3.1671341602,-0.3478879202\Bq,0,-0.1958005098,-3.0606715558,-0.
 698946819\Bq,0,-0.3951093287,-3.1937498113,-0.2601231955\Bq,0,-0.15593
 8746,-3.0340559046,-0.7867115437\Bq,0,-0.4349710925,-3.2203654624,-0.1
 723584707\Bq,0,-0.1160769822,-3.0074402535,-0.8744762684\Bq,0,-0.47483
 28563,-3.2469811135,-0.084593746\Bq,0,-0.0762152184,-2.9808246024,-0.9
 622409932\Bq,0,-0.2755240374,-3.113902858,-0.5234173696\Bq,0,-0.370418
 168,-2.6585535955,-0.3144863926\Bq,0,-0.2906946405,-2.6053222933,-0.49
 0015842\Bq,0,-0.4102799318,-2.6851692466,-0.2267216679\Bq,0,-0.2508328
 767,-2.5787066422,-0.5777805667\Bq,0,-0.4501416956,-2.7117848977,-0.13
 89569432\Bq,0,-0.2109711129,-2.5520909911,-0.6655452914\Bq,0,-0.490003
 4594,-2.7384005488,-0.0511922184\Bq,0,-0.1711093491,-2.52547534,-0.753
 3100161\Bq,0,-0.5298652232,-2.7650161999,0.0365725063\Bq,0,-0.13124758
 53,-2.4988596889,-0.8410747409\Bq,0,-0.3305564042,-2.6319379444,-0.402
 2511173\Bq,0,-0.4254505349,-2.1765886819,-0.1933201403\Bq,0,-0.3457270
 073,-2.1233573797,-0.3688495897\Bq,0,-0.4653122987,-2.2032043331,-0.10
 55554156\Bq,0,-0.3058652435,-2.0967417286,-0.4566143144\Bq,0,-0.505174
 0625,-2.2298199842,-0.0177906909\Bq,0,-0.2660034797,-2.0701260775,-0.5
 443790391\Bq,0,-0.5450358263,-2.2564356353,0.0699740338\Bq,0,-0.226141
 716,-2.0435104264,-0.6321437639\Bq,0,-0.58489759,-2.2830512864,0.15773
 87586\Bq,0,-0.1862799522,-2.0168947753,-0.7199084886\Bq,0,-0.385588771
 1,-2.1499730308,-0.281084865\Bq,0,-0.4804829018,-1.6946237684,-0.07215
 3888\Bq,0,-0.4007593742,-1.6413924662,-0.2476833374\Bq,0,-0.5203446655
 ,-1.7212394195,0.0156108367\Bq,0,-0.3608976104,-1.6147768151,-0.335448
 0621\Bq,0,-0.5602064293,-1.7478550706,0.1033755614\Bq,0,-0.3210358466,
 -1.588161164,-0.4232127869\Bq,0,-0.6000681931,-1.7744707217,0.19114028
 61\Bq,0,-0.2811740828,-1.5615455129,-0.5109775116\Bq,0,-0.6399299569,-
 1.8010863728,0.2789050108\Bq,0,-0.241312319,-1.5349298617,-0.598742236
 3\Bq,0,-0.440621138,-1.6680081173,-0.1599186127\Bq,0,-0.5355152686,-1.
 2126588548,0.0490123643\Bq,0,-0.455791741,-1.1594275526,-0.1265170851\
 Bq,0,-0.5753770324,-1.2392745059,0.136777089\Bq,0,-0.4159299773,-1.132
 8119015,-0.2142818099\Bq,0,-0.6152387962,-1.265890157,0.2245418137\Bq,
 0,-0.3760682135,-1.1061962504,-0.3020465346\Bq,0,-0.65510056,-1.292505
 8081,0.3123065384\Bq,0,-0.3362064497,-1.0795805993,-0.3898112593\Bq,0,
 -0.6949623238,-1.3191214593,0.4000712631\Bq,0,-0.2963446859,-1.0529649
 482,-0.477575984\Bq,0,-0.4956535048,-1.1860432037,-0.0387523604\Bq,0,-
 0.5905476355,-0.7306939413,0.1701786166\Bq,0,-0.5108241079,-0.67746263
 91,-0.0053508329\Bq,0,-0.6304093993,-0.7573095924,0.2579433413\Bq,0,-0
 .4709623441,-0.6508469879,-0.0931155576\Bq,0,-0.670271163,-0.783925243
 5,0.345708066\Bq,0,-0.4311005803,-0.6242313368,-0.1808802823\Bq,0,-0.7
 101329268,-0.8105408946,0.4334727907\Bq,0,-0.3912388165,-0.5976156857,
 -0.268645007\Bq,0,-0.7499946906,-0.8371565457,0.5212375154\Bq,0,-0.351
 3770527,-0.5710000346,-0.3564097317\Bq,0,-0.5506858717,-0.7040782902,0
 .0824138919\Bq,0,-0.6455800023,-0.2487290277,0.2913448689\Bq,0,-0.5658
 564748,-0.1954977255,0.1158154194\Bq,0,-0.6854417661,-0.2753446788,0.3
 791095936\Bq,0,-0.525994711,-0.1688820744,0.0280506947\Bq,0,-0.7253035
 299,-0.3019603299,0.4668743183\Bq,0,-0.4861329472,-0.1422664233,-0.059
 71403\Bq,0,-0.7651652937,-0.328575981,0.554639043\Bq,0,-0.4462711834,-
 0.1156507722,-0.1474787547\Bq,0,-0.8050270575,-0.3551916321,0.64240376
 77\Bq,0,-0.4064094196,-0.0890351211,-0.2352434794\Bq,0,-0.6057182385,-
 0.2221133766,0.2035801442\Bq,0,0.3599880328,-5.0683781633,-0.713550715
 9\Bq,0,0.4397115604,-5.0151468611,-0.8890801653\Bq,0,0.3201262691,-5.0
 949938144,-0.6257859912\Bq,0,0.4795733242,-4.98853121,-0.97684489\Bq,0
 ,0.2802645053,-5.1216094655,-0.5380212665\Bq,0,0.519435088,-4.96191555
 89,-1.0646096147\Bq,0,0.2404027415,-5.1482251166,-0.4502565418\Bq,0,0.
 5592968518,-4.9352999078,-1.1523743395\Bq,0,0.2005409777,-5.1748407677
 ,-0.362491817\Bq,0,0.5991586156,-4.9086842567,-1.2401390642\Bq,0,0.399
 8497966,-5.0417625122,-0.8013154406\Bq,0,0.304955666,-4.5864132498,-0.
 5923844636\Bq,0,0.3846791936,-4.5331819475,-0.767913913\Bq,0,0.2650939
 022,-4.6130289009,-0.5046197389\Bq,0,0.4245409573,-4.5065662964,-0.855
 6786377\Bq,0,0.2252321384,-4.639644552,-0.4168550142\Bq,0,0.4644027211
 ,-4.4799506453,-0.9434433625\Bq,0,0.1853703746,-4.6662602031,-0.329090
 2895\Bq,0,0.5042644849,-4.4533349942,-1.0312080872\Bq,0,0.1455086108,-
 4.6928758542,-0.2413255648\Bq,0,0.5441262487,-4.4267193431,-1.11897281
 19\Bq,0,0.3448174298,-4.5597975986,-0.6801491883\Bq,0,0.2499232991,-4.
 1044483362,-0.4712182113\Bq,0,0.3296468267,-4.051217034,-0.6467476607\
 Bq,0,0.2100615353,-4.1310639873,-0.3834534866\Bq,0,0.3695085905,-4.024
 6013829,-0.7345123855\Bq,0,0.1701997715,-4.1576796384,-0.2956887619\Bq
 ,0,0.4093703543,-3.9979857318,-0.8222771102\Bq,0,0.1303380078,-4.18429
 52895,-0.2079240372\Bq,0,0.4492321181,-3.9713700807,-0.9100418349\Bq,0
 ,0.090476244,-4.2109109406,-0.1201593125\Bq,0,0.4890938818,-3.94475442
 96,-0.9978065596\Bq,0,0.2897850629,-4.0778326851,-0.558982936\Bq,0,0.1
 948909323,-3.6224834226,-0.350051959\Bq,0,0.2746144598,-3.5692521204,-
 0.5255814084\Bq,0,0.1550291685,-3.6490990737,-0.2622872343\\Version=ES
 64L-G09RevD.01\HF=-847.0032898\RMSD=7.592e-09\Dipole=0.0186808,0.03366
 71,0.0011595\Quadrupole=4.9072795,4.7288219,-9.6361014,-0.2850201,2.38
 67064,-0.880172\PG=C01 [X(C22H14)]\\@


 HIGGLEDY-PIGGLEDY
 NIC'LAUS COPERNICUS
 LOOKED AT THE UNIVERSE,
 SPOKE TO THE THRONG;
 GIVE UP YOUR PTOLOMY,
 RISE UP AND FOLLOW ME,
 HELIOCENTRICALLY
 PTOLEMY'S WRONG.
   -- NANCY L. STARK
 Job cpu time:       0 days  2 hours 37 minutes 41.0 seconds.
 File lengths (MBytes):  RWF=    184 Int=      0 D2E=      0 Chk=     19 Scr=      1
 Normal termination of Gaussian 09 at Fri Aug 14 17:32:47 2020.

real	20m5.517s
user	157m37.535s
sys	0m3.539s
