 Entering Gaussian System, Link 0=g09
 Initial command:
 /share/programs/GAUSSIAN/64/g09/l1.exe "/scratch/yannick.28366/Gau-110435.inp" -scrdir="/scratch/yannick.28366/"
 Entering Link 1 = /share/programs/GAUSSIAN/64/g09/l1.exe PID=    110538.
  
 Copyright (c) 1988,1990,1992,1993,1995,1998,2003,2009,2013,
            Gaussian, Inc.  All Rights Reserved.
  
 This is part of the Gaussian(R) 09 program.  It is based on
 the Gaussian(R) 03 system (copyright 2003, Gaussian, Inc.),
 the Gaussian(R) 98 system (copyright 1998, Gaussian, Inc.),
 the Gaussian(R) 94 system (copyright 1995, Gaussian, Inc.),
 the Gaussian 92(TM) system (copyright 1992, Gaussian, Inc.),
 the Gaussian 90(TM) system (copyright 1990, Gaussian, Inc.),
 the Gaussian 88(TM) system (copyright 1988, Gaussian, Inc.),
 the Gaussian 86(TM) system (copyright 1986, Carnegie Mellon
 University), and the Gaussian 82(TM) system (copyright 1983,
 Carnegie Mellon University). Gaussian is a federally registered
 trademark of Gaussian, Inc.
  
 This software contains proprietary and confidential information,
 including trade secrets, belonging to Gaussian, Inc.
  
 This software is provided under written license and may be
 used, copied, transmitted, or stored only in accord with that
 written license.
  
 The following legend is applicable only to US Government
 contracts under FAR:
  
                    RESTRICTED RIGHTS LEGEND
  
 Use, reproduction and disclosure by the US Government is
 subject to restrictions as set forth in subparagraphs (a)
 and (c) of the Commercial Computer Software - Restricted
 Rights clause in FAR 52.227-19.
  
 Gaussian, Inc.
 340 Quinnipiac St., Bldg. 40, Wallingford CT 06492
  
  
 ---------------------------------------------------------------
 Warning -- This program may not be used in any manner that
 competes with the business of Gaussian, Inc. or will provide
 assistance to any competitor of Gaussian, Inc.  The licensee
 of this program is prohibited from giving any competitor of
 Gaussian, Inc. access to this program.  By using this program,
 the user acknowledges that Gaussian, Inc. is engaged in the
 business of creating and licensing software in the field of
 computational chemistry and represents and warrants to the
 licensee that it is not a competitor of Gaussian, Inc. and that
 it will not use this program in any manner prohibited above.
 ---------------------------------------------------------------
  

 Cite this work as:
 Gaussian 09, Revision D.01,
 M. J. Frisch, G. W. Trucks, H. B. Schlegel, G. E. Scuseria, 
 M. A. Robb, J. R. Cheeseman, G. Scalmani, V. Barone, B. Mennucci, 
 G. A. Petersson, H. Nakatsuji, M. Caricato, X. Li, H. P. Hratchian, 
 A. F. Izmaylov, J. Bloino, G. Zheng, J. L. Sonnenberg, M. Hada, 
 M. Ehara, K. Toyota, R. Fukuda, J. Hasegawa, M. Ishida, T. Nakajima, 
 Y. Honda, O. Kitao, H. Nakai, T. Vreven, J. A. Montgomery, Jr., 
 J. E. Peralta, F. Ogliaro, M. Bearpark, J. J. Heyd, E. Brothers, 
 K. N. Kudin, V. N. Staroverov, T. Keith, R. Kobayashi, J. Normand, 
 K. Raghavachari, A. Rendell, J. C. Burant, S. S. Iyengar, J. Tomasi, 
 M. Cossi, N. Rega, J. M. Millam, M. Klene, J. E. Knox, J. B. Cross, 
 V. Bakken, C. Adamo, J. Jaramillo, R. Gomperts, R. E. Stratmann, 
 O. Yazyev, A. J. Austin, R. Cammi, C. Pomelli, J. W. Ochterski, 
 R. L. Martin, K. Morokuma, V. G. Zakrzewski, G. A. Voth, 
 P. Salvador, J. J. Dannenberg, S. Dapprich, A. D. Daniels, 
 O. Farkas, J. B. Foresman, J. V. Ortiz, J. Cioslowski, 
 and D. J. Fox, Gaussian, Inc., Wallingford CT, 2013.
 
 ******************************************
 Gaussian 09:  ES64L-G09RevD.01 24-Apr-2013
                14-Aug-2020 
 ******************************************
 %nproc=8
 Will use up to    8 processors via shared memory.
 %mem=1000MB
 ----------------------------------------
 # rb3lyp/6-311+g** NMR geom=connectivity
 ----------------------------------------
 1/38=1,57=2/1;
 2/12=2,17=6,18=5,40=1/2;
 3/5=4,6=6,7=111,11=2,16=1,25=1,30=1,74=-5,116=1/1,2,8,3;
 4//1;
 5/5=2,38=5/2;
 8/6=1,10=90,11=11/1;
 10/13=100,45=16/2;
 6/7=2,8=2,9=2,10=2,28=1/1;
 99/9=1/99;
 -----
 Title
 -----
 Symbolic Z-matrix:
 Charge =  0 Multiplicity = 1
 C                    -4.05006  -0.57719   0.81367 
 H                    -5.02638  -1.00827   1.00248 
 C                    -3.93816   0.66178   0.24009 
 H                    -4.82524   1.23389  -0.01113 
 C                    -2.67684   1.24332   0.00576 
 C                    -1.49741   0.50515   0.28483 
 C                    -1.65083  -0.73387   0.9404 
 H                    -0.77136  -1.2731    1.26338 
 C                    -2.88985  -1.2624    1.19943 
 H                    -2.96837  -2.21246   1.71527 
 C                    -2.57732   2.59637  -0.41929 
 H                    -3.48707   3.14122  -0.64741 
 C                    -1.37419   3.21479  -0.4364 
 H                    -1.29973   4.2742   -0.65781 
 C                    -0.17195   2.49941  -0.17346 
 C                    -0.20439   1.10184   0.01927 
 C                     1.05135   3.20426  -0.06762 
 H                     1.04273   4.28195  -0.1897 
 C                     2.19421   2.54874   0.25796 
 H                     3.11685   3.09128   0.43347 
 C                     2.22165   1.13366   0.2935 
 C                     1.04869   0.39455   0.03024 
 C                     3.44834   0.46146   0.55739 
 H                     4.30958   1.06061   0.83348 
 C                     3.54273  -0.88559   0.47495 
 H                     4.47315  -1.39397   0.70388 
 C                     2.44901  -1.64744  -0.01963 
 C                     1.21507  -1.00573  -0.30136 
 C                     0.25311  -1.74344  -1.02166 
 H                    -0.65414  -1.25351  -1.34628 
 C                     0.44942  -3.06286  -1.34138 
 H                    -0.30832  -3.59443  -1.90541 
 C                     1.62517  -3.7208   -0.95525 
 H                     1.767    -4.76874  -1.1927 
 C                     2.61099  -3.01442  -0.31831 
 H                     3.55256  -3.49028  -0.06464 
 Bq                    0.44501   4.34512   0.55775 
 Bq                    0.34368   4.37951   1.24952 
 Bq                    0.45949   4.34021   0.45892 
 Bq                    0.3292    4.38443   1.34834 
 Bq                    0.47396   4.33529   0.3601 
 Bq                    0.40158   4.35986   0.85422 
 Bq                    0.84622  -0.62919   1.26859 
 Bq                    0.87517  -0.63902   1.07094 
 Bq                    0.83174  -0.62427   1.36742 
 Bq                    0.88965  -0.64393   0.97212 
 Bq                    0.81727  -0.61936   1.46624 
 Bq                    0.90412  -0.64884   0.87329 
 Bq                    0.80279  -0.61445   1.56507 
 Bq                    0.9186   -0.65376   0.77447 
 Bq                    0.78832  -0.60953   1.66389 
 Bq                    0.93308  -0.65867   0.67564 
 Bq                    0.8607   -0.6341    1.16977 
 Bq                    0.84978  -0.12979   1.24428 
 Bq                    0.87873  -0.13962   1.04663 
 Bq                    0.83531  -0.12488   1.34311 
 Bq                    0.89321  -0.14453   0.94781 
 Bq                    0.82083  -0.11997   1.44193 
 Bq                    0.90769  -0.14945   0.84899 
 Bq                    0.80635  -0.11505   1.54076 
 Bq                    0.92216  -0.15436   0.75016 
 Bq                    0.79188  -0.11014   1.63958 
 Bq                    0.93664  -0.15927   0.65134 
 Bq                    0.86426  -0.13471   1.14546 
 Bq                    0.85334   0.3696    1.21998 
 Bq                    0.88229   0.35978   1.02233 
 Bq                    0.83887   0.37452   1.3188 
 Bq                    0.89677   0.35486   0.9235 
 Bq                    0.82439   0.37943   1.41763 
 Bq                    0.91125   0.34995   0.82468 
 Bq                    0.80991   0.38434   1.51645 
 Bq                    0.92572   0.34504   0.72585 
 Bq                    0.79544   0.38926   1.61527 
 Bq                    0.9402    0.34012   0.62703 
 Bq                    0.86782   0.36469   1.12115 
 Bq                    0.8569    0.869     1.19567 
 Bq                    0.88585   0.85917   0.99802 
 Bq                    0.84243   0.87391   1.29449 
 Bq                    0.90033   0.85426   0.89919 
 Bq                    0.82795   0.87883   1.39332 
 Bq                    0.91481   0.84935   0.80037 
 Bq                    0.81348   0.88374   1.49214 
 Bq                    0.92928   0.84443   0.70154 
 Bq                    0.799     0.88865   1.59097 
 Bq                    0.94376   0.83952   0.60272 
 Bq                    0.87138   0.86409   1.09684 
 Bq                    0.86046   1.3684    1.17136 
 Bq                    0.88942   1.35857   0.97371 
 Bq                    0.84599   1.37331   1.27018 
 Bq                    0.90389   1.35366   0.87489 
 Bq                    0.83151   1.37822   1.36901 
 Bq                    0.91837   1.34874   0.77606 
 Bq                    0.81704   1.38314   1.46783 
 Bq                    0.93284   1.34383   0.67724 
 Bq                    0.80256   1.38805   1.56666 
 Bq                    0.94732   1.33892   0.57841 
 Bq                    0.87494   1.36348   1.07254 
 Bq                    0.86402   1.86779   1.14705 
 Bq                    0.89298   1.85797   0.9494 
 Bq                    0.84955   1.87271   1.24588 
 Bq                    0.90745   1.85305   0.85058 
 Bq                    0.83507   1.87762   1.3447 
 Bq                    0.92193   1.84814   0.75175 
 Bq                    0.8206    1.88253   1.44353 
 Bq                    0.9364    1.84322   0.65293 
 Bq                    0.80612   1.88745   1.54235 
 Bq                    0.95088   1.83831   0.5541 
 Bq                    0.8785    1.86288   1.04823 
 Bq                    0.86758   2.36719   1.12274 
 Bq                    0.89654   2.35736   0.92509 
 Bq                    0.85311   2.3721    1.22157 
 Bq                    0.91101   2.35245   0.82627 
 Bq                    0.83863   2.37702   1.32039 
 Bq                    0.92549   2.34753   0.72745 
 Bq                    0.82416   2.38193   1.41922 
 Bq                    0.93996   2.34262   0.62862 
 Bq                    0.80968   2.38684   1.51804 
 Bq                    0.95444   2.33771   0.5298 
 Bq                    0.88206   2.36227   1.02392 
 Bq                    0.87115   2.86658   1.09844 
 Bq                    0.9001    2.85676   0.90079 
 Bq                    0.85667   2.8715    1.19726 
 Bq                    0.91457   2.85184   0.80196 
 Bq                    0.84219   2.87641   1.29608 
 Bq                    0.92905   2.84693   0.70314 
 Bq                    0.82772   2.88132   1.39491 
 Bq                    0.94353   2.84202   0.60431 
 Bq                    0.81324   2.88624   1.49373 
 Bq                    0.958     2.8371    0.50549 
 Bq                    0.88562   2.86167   0.99961 
 Bq                    0.87471   3.36598   1.07413 
 Bq                    0.90366   3.35615   0.87648 
 Bq                    0.86023   3.37089   1.17295 
 Bq                    0.91813   3.35124   0.77765 
 Bq                    0.84575   3.37581   1.27178 
 Bq                    0.93261   3.34633   0.67883 
 Bq                    0.83128   3.38072   1.3706 
 Bq                    0.94709   3.34141   0.58 
 Bq                    0.8168    3.38563   1.46943 
 Bq                    0.96156   3.3365    0.48118 
 Bq                    0.88918   3.36107   0.9753 
 Bq                    0.87827   3.86538   1.04982 
 Bq                    0.90722   3.85555   0.85217 
 Bq                    0.86379   3.87029   1.14864 
 Bq                    0.92169   3.85064   0.75335 
 Bq                    0.84931   3.8752    1.24747 
 Bq                    0.93617   3.84572   0.65452 
 Bq                    0.83484   3.88012   1.34629 
 Bq                    0.95065   3.84081   0.5557 
 Bq                    0.82036   3.88503   1.44512 
 Bq                    0.96512   3.8359    0.45687 
 Bq                    0.89274   3.86046   0.951 
 Bq                    0.88183   4.36477   1.02551 
 Bq                    0.91078   4.35495   0.82786 
 Bq                    0.86735   4.36969   1.12434 
 Bq                    0.92526   4.35003   0.72904 
 Bq                    0.85288   4.3746    1.22316 
 Bq                    0.93973   4.34512   0.63021 
 Bq                    0.8384    4.37951   1.32199 
 Bq                    0.95421   4.34021   0.53139 
 Bq                    0.82392   4.38443   1.42081 
 Bq                    0.96868   4.33529   0.43256 
 Bq                    0.8963    4.35986   0.92669 
 Bq                    1.34094  -0.62919   1.34106 
 Bq                    1.36989  -0.63902   1.14341 
 Bq                    1.32647  -0.62427   1.43988 
 Bq                    1.38437  -0.64393   1.04459 
 Bq                    1.31199  -0.61936   1.53871 
 Bq                    1.39885  -0.64884   0.94576 
 Bq                    1.29751  -0.61445   1.63753 
 Bq                    1.41332  -0.65376   0.84694 
 Bq                    1.28304  -0.60953   1.73636 
 Bq                    1.4278   -0.65867   0.74811 
 Bq                    1.35542  -0.6341    1.24223 
 Bq                    1.3445   -0.12979   1.31675 
 Bq                    1.37345  -0.13962   1.1191 
 Bq                    1.33003  -0.12488   1.41558 
 Bq                    1.38793  -0.14453   1.02028 
 Bq                    1.31555  -0.11997   1.5144 
 Bq                    1.40241  -0.14945   0.92145 
 Bq                    1.30107  -0.11505   1.61322 
 Bq                    1.41688  -0.15436   0.82263 
 Bq                    1.2866   -0.11014   1.71205 
 Bq                    1.43136  -0.15927   0.7238 
 Bq                    1.35898  -0.13471   1.21793 
 Bq                    1.34806   0.3696    1.29244 
 Bq                    1.37701   0.35978   1.09479 
 Bq                    1.33359   0.37452   1.39127 
 Bq                    1.39149   0.35486   0.99597 
 Bq                    1.31911   0.37943   1.49009 
 Bq                    1.40597   0.34995   0.89714 
 Bq                    1.30463   0.38434   1.58892 
 Bq                    1.42044   0.34504   0.79832 
 Bq                    1.29016   0.38926   1.68774 
 Bq                    1.43492   0.34012   0.6995 
 Bq                    1.36254   0.36469   1.19362 
 Bq                    1.35162   0.869     1.26814 
 Bq                    1.38058   0.85917   1.07049 
 Bq                    1.33715   0.87391   1.36696 
 Bq                    1.39505   0.85426   0.97166 
 Bq                    1.32267   0.87883   1.46578 
 Bq                    1.40953   0.84935   0.87284 
 Bq                    1.3082    0.88374   1.56461 
 Bq                    1.424     0.84443   0.77401 
 Bq                    1.29372   0.88865   1.66343 
 Bq                    1.43848   0.83952   0.67519 
 Bq                    1.3661    0.86409   1.16931 
 Bq                    1.35518   1.3684    1.24383 
 Bq                    1.38414   1.35857   1.04618 
 Bq                    1.34071   1.37331   1.34265 
 Bq                    1.39861   1.35366   0.94735 
 Bq                    1.32623   1.37822   1.44148 
 Bq                    1.41309   1.34874   0.84853 
 Bq                    1.31176   1.38314   1.5403 
 Bq                    1.42756   1.34383   0.7497 
 Bq                    1.29728   1.38805   1.63913 
 Bq                    1.44204   1.33892   0.65088 
 Bq                    1.36966   1.36348   1.145 
 Bq                    1.35874   1.86779   1.21952 
 Bq                    1.3877    1.85797   1.02187 
 Bq                    1.34427   1.87271   1.31834 
 Bq                    1.40217   1.85305   0.92305 
 Bq                    1.32979   1.87762   1.41717 
 Bq                    1.41665   1.84814   0.82422 
 Bq                    1.31532   1.88253   1.51599 
 Bq                    1.43112   1.84322   0.7254 
 Bq                    1.30084   1.88745   1.61482 
 Bq                    1.4456    1.83831   0.62657 
 Bq                    1.37322   1.86288   1.12069 
 Bq                    1.36231   2.36719   1.19521 
 Bq                    1.39126   2.35736   0.99756 
 Bq                    1.34783   2.3721    1.29404 
 Bq                    1.40573   2.35245   0.89874 
 Bq                    1.33335   2.37702   1.39286 
 Bq                    1.42021   2.34753   0.79991 
 Bq                    1.31888   2.38193   1.49168 
 
 Symmetry turned off:
 Cannot cope with ghost atoms or with translation vectors.
 Stoichiometry    C22H14
 Framework group  C1[X(C22H14)]
 NUMDOF-- NAT=    36 NAtoms=   236
 Deg. of freedom     0
 Full point group                 C1      NOp   1
                          Input orientation:                          
 ---------------------------------------------------------------------
 Center     Atomic      Atomic             Coordinates (Angstroms)
 Number     Number       Type             X           Y           Z
 ---------------------------------------------------------------------
      1          6           0       -4.050056   -0.577186    0.813671
      2          1           0       -5.026380   -1.008273    1.002476
      3          6           0       -3.938155    0.661780    0.240088
      4          1           0       -4.825242    1.233889   -0.011130
      5          6           0       -2.676841    1.243325    0.005758
      6          6           0       -1.497412    0.505153    0.284825
      7          6           0       -1.650833   -0.733873    0.940403
      8          1           0       -0.771365   -1.273097    1.263375
      9          6           0       -2.889855   -1.262404    1.199431
     10          1           0       -2.968371   -2.212456    1.715268
     11          6           0       -2.577319    2.596370   -0.419293
     12          1           0       -3.487073    3.141224   -0.647406
     13          6           0       -1.374190    3.214790   -0.436403
     14          1           0       -1.299732    4.274202   -0.657814
     15          6           0       -0.171949    2.499409   -0.173459
     16          6           0       -0.204392    1.101844    0.019269
     17          6           0        1.051349    3.204256   -0.067622
     18          1           0        1.042734    4.281950   -0.189700
     19          6           0        2.194209    2.548745    0.257958
     20          1           0        3.116853    3.091285    0.433473
     21          6           0        2.221647    1.133656    0.293499
     22          6           0        1.048693    0.394553    0.030241
     23          6           0        3.448336    0.461463    0.557394
     24          1           0        4.309579    1.060605    0.833485
     25          6           0        3.542735   -0.885593    0.474946
     26          1           0        4.473147   -1.393970    0.703882
     27          6           0        2.449005   -1.647445   -0.019632
     28          6           0        1.215070   -1.005726   -0.301357
     29          6           0        0.253111   -1.743444   -1.021659
     30          1           0       -0.654136   -1.253505   -1.346285
     31          6           0        0.449419   -3.062860   -1.341378
     32          1           0       -0.308316   -3.594431   -1.905406
     33          6           0        1.625173   -3.720797   -0.955254
     34          1           0        1.767005   -4.768740   -1.192702
     35          6           0        2.610987   -3.014418   -0.318305
     36          1           0        3.552561   -3.490281   -0.064637
     37          0           0        0.445011    4.345118    0.557746
     38          0           0        0.343679    4.379513    1.249518
     39          0           0        0.459487    4.340205    0.458921
     40          0           0        0.329203    4.384426    1.348343
     41          0           0        0.473963    4.335292    0.360097
     42          0           0        0.401583    4.359859    0.854220
     43          0           0        0.846221   -0.629188    1.268592
     44          0           0        0.875173   -0.639015    1.070943
     45          0           0        0.831745   -0.624275    1.367416
     46          0           0        0.889649   -0.643929    0.972118
     47          0           0        0.817269   -0.619361    1.466241
     48          0           0        0.904125   -0.648842    0.873293
     49          0           0        0.802793   -0.614448    1.565066
     50          0           0        0.918601   -0.653756    0.774469
     51          0           0        0.788317   -0.609534    1.663890
     52          0           0        0.933077   -0.658669    0.675644
     53          0           0        0.860697   -0.634102    1.169767
     54          0           0        0.849782   -0.129792    1.244284
     55          0           0        0.878733   -0.139619    1.046635
     56          0           0        0.835306   -0.124879    1.343108
     57          0           0        0.893209   -0.144533    0.947810
     58          0           0        0.820830   -0.119965    1.441933
     59          0           0        0.907685   -0.149446    0.848985
     60          0           0        0.806354   -0.115052    1.540758
     61          0           0        0.922161   -0.154360    0.750161
     62          0           0        0.791878   -0.110138    1.639582
     63          0           0        0.936637   -0.159273    0.651336
     64          0           0        0.864257   -0.134706    1.145459
     65          0           0        0.853342    0.369604    1.219976
     66          0           0        0.882294    0.359777    1.022327
     67          0           0        0.838866    0.374517    1.318800
     68          0           0        0.896770    0.354863    0.923502
     69          0           0        0.824390    0.379431    1.417625
     70          0           0        0.911246    0.349950    0.824677
     71          0           0        0.809914    0.384344    1.516450
     72          0           0        0.925722    0.345036    0.725853
     73          0           0        0.795438    0.389258    1.615274
     74          0           0        0.940198    0.340123    0.627028
     75          0           0        0.867818    0.364690    1.121151
     76          0           0        0.856903    0.869000    1.195668
     77          0           0        0.885855    0.859173    0.998019
     78          0           0        0.842427    0.873913    1.294492
     79          0           0        0.900331    0.854259    0.899194
     80          0           0        0.827951    0.878827    1.393317
     81          0           0        0.914807    0.849346    0.800369
     82          0           0        0.813475    0.883740    1.492142
     83          0           0        0.929283    0.844432    0.701545
     84          0           0        0.798999    0.888654    1.590966
     85          0           0        0.943759    0.839519    0.602720
     86          0           0        0.871379    0.864086    1.096843
     87          0           0        0.860464    1.368396    1.171360
     88          0           0        0.889415    1.358569    0.973711
     89          0           0        0.845988    1.373309    1.270184
     90          0           0        0.903891    1.353656    0.874886
     91          0           0        0.831512    1.378223    1.369009
     92          0           0        0.918367    1.348742    0.776061
     93          0           0        0.817036    1.383136    1.467834
     94          0           0        0.932843    1.343829    0.677237
     95          0           0        0.802560    1.388050    1.566658
     96          0           0        0.947319    1.338915    0.578412
     97          0           0        0.874939    1.363482    1.072535
     98          0           0        0.864024    1.867792    1.147052
     99          0           0        0.892976    1.857965    0.949402
    100          0           0        0.849548    1.872706    1.245876
    101          0           0        0.907452    1.853052    0.850578
    102          0           0        0.835072    1.877619    1.344701
    103          0           0        0.921928    1.848138    0.751753
    104          0           0        0.820596    1.882533    1.443526
    105          0           0        0.936404    1.843225    0.652929
    106          0           0        0.806120    1.887446    1.542350
    107          0           0        0.950880    1.838311    0.554104
    108          0           0        0.878500    1.862879    1.048227
    109          0           0        0.867585    2.367188    1.122744
    110          0           0        0.896537    2.357361    0.925094
    111          0           0        0.853109    2.372102    1.221568
    112          0           0        0.911013    2.352448    0.826270
    113          0           0        0.838633    2.377015    1.320393
    114          0           0        0.925489    2.347534    0.727445
    115          0           0        0.824157    2.381929    1.419218
    116          0           0        0.939965    2.342621    0.628621
    117          0           0        0.809681    2.386842    1.518042
    118          0           0        0.954441    2.337707    0.529796
    119          0           0        0.882061    2.362275    1.023919
    120          0           0        0.871146    2.866584    1.098436
    121          0           0        0.900097    2.856757    0.900786
    122          0           0        0.856670    2.871498    1.197260
    123          0           0        0.914573    2.851844    0.801962
    124          0           0        0.842194    2.876411    1.296085
    125          0           0        0.929049    2.846930    0.703137
    126          0           0        0.827718    2.881325    1.394910
    127          0           0        0.943525    2.842017    0.604313
    128          0           0        0.813242    2.886238    1.493734
    129          0           0        0.958001    2.837103    0.505488
    130          0           0        0.885621    2.861671    0.999611
    131          0           0        0.874706    3.365980    1.074128
    132          0           0        0.903658    3.356153    0.876478
    133          0           0        0.860230    3.370894    1.172952
    134          0           0        0.918134    3.351240    0.777654
    135          0           0        0.845754    3.375807    1.271777
    136          0           0        0.932610    3.346326    0.678829
    137          0           0        0.831278    3.380721    1.370601
    138          0           0        0.947086    3.341413    0.580005
    139          0           0        0.816802    3.385634    1.469426
    140          0           0        0.961562    3.336499    0.481180
    141          0           0        0.889182    3.361067    0.975303
    142          0           0        0.878267    3.865376    1.049820
    143          0           0        0.907219    3.855549    0.852170
    144          0           0        0.863791    3.870290    1.148644
    145          0           0        0.921695    3.850636    0.753346
    146          0           0        0.849315    3.875203    1.247469
    147          0           0        0.936171    3.845722    0.654521
    148          0           0        0.834839    3.880117    1.346293
    149          0           0        0.950647    3.840809    0.555697
    150          0           0        0.820363    3.885030    1.445118
    151          0           0        0.965123    3.835895    0.456872
    152          0           0        0.892743    3.860463    0.950995
    153          0           0        0.881828    4.364772    1.025512
    154          0           0        0.910779    4.354945    0.827862
    155          0           0        0.867352    4.369686    1.124336
    156          0           0        0.925255    4.350032    0.729038
    157          0           0        0.852876    4.374599    1.223161
    158          0           0        0.939731    4.345118    0.630213
    159          0           0        0.838400    4.379513    1.321985
    160          0           0        0.954207    4.340205    0.531389
    161          0           0        0.823924    4.384426    1.420810
    162          0           0        0.968683    4.335292    0.432564
    163          0           0        0.896304    4.359859    0.926687
    164          0           0        1.340941   -0.629188    1.341059
    165          0           0        1.369893   -0.639015    1.143410
    166          0           0        1.326466   -0.624275    1.439884
    167          0           0        1.384369   -0.643929    1.044585
    168          0           0        1.311990   -0.619361    1.538708
    169          0           0        1.398845   -0.648842    0.945761
    170          0           0        1.297514   -0.614448    1.637533
    171          0           0        1.413321   -0.653756    0.846936
    172          0           0        1.283038   -0.609534    1.736358
    173          0           0        1.427797   -0.658669    0.748111
    174          0           0        1.355417   -0.634102    1.242235
    175          0           0        1.344502   -0.129792    1.316751
    176          0           0        1.373454   -0.139619    1.119102
    177          0           0        1.330026   -0.124879    1.415576
    178          0           0        1.387930   -0.144533    1.020277
    179          0           0        1.315550   -0.119965    1.514400
    180          0           0        1.402406   -0.149446    0.921453
    181          0           0        1.301074   -0.115052    1.613225
    182          0           0        1.416882   -0.154360    0.822628
    183          0           0        1.286598   -0.110138    1.712050
    184          0           0        1.431358   -0.159273    0.723803
    185          0           0        1.358978   -0.134706    1.217927
    186          0           0        1.348063    0.369604    1.292443
    187          0           0        1.377015    0.359777    1.094794
    188          0           0        1.333587    0.374517    1.391268
    189          0           0        1.391491    0.354863    0.995969
    190          0           0        1.319111    0.379431    1.490092
    191          0           0        1.405967    0.349950    0.897145
    192          0           0        1.304635    0.384344    1.588917
    193          0           0        1.420443    0.345036    0.798320
    194          0           0        1.290159    0.389258    1.687742
    195          0           0        1.434919    0.340123    0.699495
    196          0           0        1.362539    0.364690    1.193618
    197          0           0        1.351623    0.869000    1.268135
    198          0           0        1.380575    0.859173    1.070486
    199          0           0        1.337148    0.873913    1.366960
    200          0           0        1.395051    0.854259    0.971661
    201          0           0        1.322672    0.878827    1.465784
    202          0           0        1.409527    0.849346    0.872837
    203          0           0        1.308196    0.883740    1.564609
    204          0           0        1.424003    0.844432    0.774012
    205          0           0        1.293720    0.888654    1.663434
    206          0           0        1.438479    0.839519    0.675187
    207          0           0        1.366099    0.864086    1.169310
    208          0           0        1.355184    1.368396    1.243827
    209          0           0        1.384136    1.358569    1.046178
    210          0           0        1.340708    1.373309    1.342652
    211          0           0        1.398612    1.353656    0.947353
    212          0           0        1.326232    1.378223    1.441476
    213          0           0        1.413088    1.348742    0.848529
    214          0           0        1.311756    1.383136    1.540301
    215          0           0        1.427564    1.343829    0.749704
    216          0           0        1.297280    1.388050    1.639126
    217          0           0        1.442040    1.338915    0.650879
    218          0           0        1.369660    1.363482    1.145002
    219          0           0        1.358745    1.867792    1.219519
    220          0           0        1.387697    1.857965    1.021870
    221          0           0        1.344269    1.872706    1.318344
    222          0           0        1.402173    1.853052    0.923045
    223          0           0        1.329793    1.877619    1.417168
    224          0           0        1.416649    1.848138    0.824221
    225          0           0        1.315317    1.882533    1.515993
    226          0           0        1.431125    1.843225    0.725396
    227          0           0        1.300841    1.887446    1.614817
    228          0           0        1.445601    1.838311    0.626571
    229          0           0        1.373221    1.862879    1.120694
    230          0           0        1.362305    2.367188    1.195211
    231          0           0        1.391257    2.357361    0.997562
    232          0           0        1.347830    2.372102    1.294036
    233          0           0        1.405733    2.352448    0.898737
    234          0           0        1.333354    2.377015    1.392860
    235          0           0        1.420209    2.347534    0.799913
    236          0           0        1.318878    2.381929    1.491685
 ---------------------------------------------------------------------
 Rotational constants (GHZ):      0.4529074      0.2836956      0.1879557
 Standard basis: 6-311+G(d,p) (5D, 7F)
 Warning:  center  37 has no basis functions!
 Warning:  center  38 has no basis functions!
 Warning:  center  39 has no basis functions!
 Warning:  center  40 has no basis functions!
 Warning:  center  41 has no basis functions!
 Warning:  center  42 has no basis functions!
 Warning:  center  43 has no basis functions!
 Warning:  center  44 has no basis functions!
 Warning:  center  45 has no basis functions!
 Warning:  center  46 has no basis functions!
 Warning:  center  47 has no basis functions!
 Warning:  center  48 has no basis functions!
 Warning:  center  49 has no basis functions!
 Warning:  center  50 has no basis functions!
 Warning:  center  51 has no basis functions!
 Warning:  center  52 has no basis functions!
 Warning:  center  53 has no basis functions!
 Warning:  center  54 has no basis functions!
 Warning:  center  55 has no basis functions!
 Warning:  center  56 has no basis functions!
 Warning:  center  57 has no basis functions!
 Warning:  center  58 has no basis functions!
 Warning:  center  59 has no basis functions!
 Warning:  center  60 has no basis functions!
 Warning:  center  61 has no basis functions!
 Warning:  center  62 has no basis functions!
 Warning:  center  63 has no basis functions!
 Warning:  center  64 has no basis functions!
 Warning:  center  65 has no basis functions!
 Warning:  center  66 has no basis functions!
 Warning:  center  67 has no basis functions!
 Warning:  center  68 has no basis functions!
 Warning:  center  69 has no basis functions!
 Warning:  center  70 has no basis functions!
 Warning:  center  71 has no basis functions!
 Warning:  center  72 has no basis functions!
 Warning:  center  73 has no basis functions!
 Warning:  center  74 has no basis functions!
 Warning:  center  75 has no basis functions!
 Warning:  center  76 has no basis functions!
 Warning:  center  77 has no basis functions!
 Warning:  center  78 has no basis functions!
 Warning:  center  79 has no basis functions!
 Warning:  center  80 has no basis functions!
 Warning:  center  81 has no basis functions!
 Warning:  center  82 has no basis functions!
 Warning:  center  83 has no basis functions!
 Warning:  center  84 has no basis functions!
 Warning:  center  85 has no basis functions!
 Warning:  center  86 has no basis functions!
 Warning:  center  87 has no basis functions!
 Warning:  center  88 has no basis functions!
 Warning:  center  89 has no basis functions!
 Warning:  center  90 has no basis functions!
 Warning:  center  91 has no basis functions!
 Warning:  center  92 has no basis functions!
 Warning:  center  93 has no basis functions!
 Warning:  center  94 has no basis functions!
 Warning:  center  95 has no basis functions!
 Warning:  center  96 has no basis functions!
 Warning:  center  97 has no basis functions!
 Warning:  center  98 has no basis functions!
 Warning:  center  99 has no basis functions!
 Warning:  center 100 has no basis functions!
 Warning:  center 101 has no basis functions!
 Warning:  center 102 has no basis functions!
 Warning:  center 103 has no basis functions!
 Warning:  center 104 has no basis functions!
 Warning:  center 105 has no basis functions!
 Warning:  center 106 has no basis functions!
 Warning:  center 107 has no basis functions!
 Warning:  center 108 has no basis functions!
 Warning:  center 109 has no basis functions!
 Warning:  center 110 has no basis functions!
 Warning:  center 111 has no basis functions!
 Warning:  center 112 has no basis functions!
 Warning:  center 113 has no basis functions!
 Warning:  center 114 has no basis functions!
 Warning:  center 115 has no basis functions!
 Warning:  center 116 has no basis functions!
 Warning:  center 117 has no basis functions!
 Warning:  center 118 has no basis functions!
 Warning:  center 119 has no basis functions!
 Warning:  center 120 has no basis functions!
 Warning:  center 121 has no basis functions!
 Warning:  center 122 has no basis functions!
 Warning:  center 123 has no basis functions!
 Warning:  center 124 has no basis functions!
 Warning:  center 125 has no basis functions!
 Warning:  center 126 has no basis functions!
 Warning:  center 127 has no basis functions!
 Warning:  center 128 has no basis functions!
 Warning:  center 129 has no basis functions!
 Warning:  center 130 has no basis functions!
 Warning:  center 131 has no basis functions!
 Warning:  center 132 has no basis functions!
 Warning:  center 133 has no basis functions!
 Warning:  center 134 has no basis functions!
 Warning:  center 135 has no basis functions!
 Warning:  center 136 has no basis functions!
 Warning:  center 137 has no basis functions!
 Warning:  center 138 has no basis functions!
 Warning:  center 139 has no basis functions!
 Warning:  center 140 has no basis functions!
 Warning:  center 141 has no basis functions!
 Warning:  center 142 has no basis functions!
 Warning:  center 143 has no basis functions!
 Warning:  center 144 has no basis functions!
 Warning:  center 145 has no basis functions!
 Warning:  center 146 has no basis functions!
 Warning:  center 147 has no basis functions!
 Warning:  center 148 has no basis functions!
 Warning:  center 149 has no basis functions!
 Warning:  center 150 has no basis functions!
 Warning:  center 151 has no basis functions!
 Warning:  center 152 has no basis functions!
 Warning:  center 153 has no basis functions!
 Warning:  center 154 has no basis functions!
 Warning:  center 155 has no basis functions!
 Warning:  center 156 has no basis functions!
 Warning:  center 157 has no basis functions!
 Warning:  center 158 has no basis functions!
 Warning:  center 159 has no basis functions!
 Warning:  center 160 has no basis functions!
 Warning:  center 161 has no basis functions!
 Warning:  center 162 has no basis functions!
 Warning:  center 163 has no basis functions!
 Warning:  center 164 has no basis functions!
 Warning:  center 165 has no basis functions!
 Warning:  center 166 has no basis functions!
 Warning:  center 167 has no basis functions!
 Warning:  center 168 has no basis functions!
 Warning:  center 169 has no basis functions!
 Warning:  center 170 has no basis functions!
 Warning:  center 171 has no basis functions!
 Warning:  center 172 has no basis functions!
 Warning:  center 173 has no basis functions!
 Warning:  center 174 has no basis functions!
 Warning:  center 175 has no basis functions!
 Warning:  center 176 has no basis functions!
 Warning:  center 177 has no basis functions!
 Warning:  center 178 has no basis functions!
 Warning:  center 179 has no basis functions!
 Warning:  center 180 has no basis functions!
 Warning:  center 181 has no basis functions!
 Warning:  center 182 has no basis functions!
 Warning:  center 183 has no basis functions!
 Warning:  center 184 has no basis functions!
 Warning:  center 185 has no basis functions!
 Warning:  center 186 has no basis functions!
 Warning:  center 187 has no basis functions!
 Warning:  center 188 has no basis functions!
 Warning:  center 189 has no basis functions!
 Warning:  center 190 has no basis functions!
 Warning:  center 191 has no basis functions!
 Warning:  center 192 has no basis functions!
 Warning:  center 193 has no basis functions!
 Warning:  center 194 has no basis functions!
 Warning:  center 195 has no basis functions!
 Warning:  center 196 has no basis functions!
 Warning:  center 197 has no basis functions!
 Warning:  center 198 has no basis functions!
 Warning:  center 199 has no basis functions!
 Warning:  center 200 has no basis functions!
 Warning:  center 201 has no basis functions!
 Warning:  center 202 has no basis functions!
 Warning:  center 203 has no basis functions!
 Warning:  center 204 has no basis functions!
 Warning:  center 205 has no basis functions!
 Warning:  center 206 has no basis functions!
 Warning:  center 207 has no basis functions!
 Warning:  center 208 has no basis functions!
 Warning:  center 209 has no basis functions!
 Warning:  center 210 has no basis functions!
 Warning:  center 211 has no basis functions!
 Warning:  center 212 has no basis functions!
 Warning:  center 213 has no basis functions!
 Warning:  center 214 has no basis functions!
 Warning:  center 215 has no basis functions!
 Warning:  center 216 has no basis functions!
 Warning:  center 217 has no basis functions!
 Warning:  center 218 has no basis functions!
 Warning:  center 219 has no basis functions!
 Warning:  center 220 has no basis functions!
 Warning:  center 221 has no basis functions!
 Warning:  center 222 has no basis functions!
 Warning:  center 223 has no basis functions!
 Warning:  center 224 has no basis functions!
 Warning:  center 225 has no basis functions!
 Warning:  center 226 has no basis functions!
 Warning:  center 227 has no basis functions!
 Warning:  center 228 has no basis functions!
 Warning:  center 229 has no basis functions!
 Warning:  center 230 has no basis functions!
 Warning:  center 231 has no basis functions!
 Warning:  center 232 has no basis functions!
 Warning:  center 233 has no basis functions!
 Warning:  center 234 has no basis functions!
 Warning:  center 235 has no basis functions!
 Warning:  center 236 has no basis functions!
   568 basis functions,   904 primitive gaussians,   590 cartesian basis functions
    73 alpha electrons       73 beta electrons
       nuclear repulsion energy      1610.9176155625 Hartrees.
 NAtoms=  236 NActive=  236 NUniq=  236 SFac= 1.00D+00 NAtFMM=   60 NAOKFM=T Big=T
 Integral buffers will be    131072 words long.
 Raffenetti 2 integral format.
 Two-electron integral symmetry is turned off.
 One-electron integrals computed using PRISM.
 NBasis=   568 RedAO= T EigKep=  1.78D-06  NBF=   568
 NBsUse=   556 1.00D-06 EigRej=  9.09D-07 NBFU=   556
 ExpMin= 4.38D-02 ExpMax= 4.56D+03 ExpMxC= 6.82D+02 IAcc=2 IRadAn=         4 AccDes= 0.00D+00
 Harris functional with IExCor=  402 and IRadAn=       4 diagonalized for initial guess.
 HarFok:  IExCor=  402 AccDes= 0.00D+00 IRadAn=         4 IDoV= 1 UseB2=F ITyADJ=14
 ICtDFT=  3500011 ScaDFX=  1.000000  1.000000  1.000000  1.000000
 FoFCou: FMM=F IPFlag=           0 FMFlag=      100000 FMFlg1=        2001
         NFxFlg=           0 DoJE=T BraDBF=F KetDBF=T FulRan=T
         wScrn=  0.000000 ICntrl=     500 IOpCl=  0 I1Cent=   200000004 NGrid=           0
         NMat0=    1 NMatS0=      1 NMatT0=    0 NMatD0=    1 NMtDS0=    0 NMtDT0=    0
 Symmetry not used in FoFCou.
 Requested convergence on RMS density matrix=1.00D-08 within 128 cycles.
 Requested convergence on MAX density matrix=1.00D-06.
 Requested convergence on             energy=1.00D-06.
 No special actions if energy rises.
 SCF Done:  E(RB3LYP) =  -847.003289848     A.U. after   15 cycles
            NFock= 15  Conv=0.76D-08     -V/T= 2.0040
 DoSCS=F DFT=T ScalE2(SS,OS)=  1.000000  1.000000
 Range of M.O.s used for correlation:     1   556
 NBasis=   568 NAE=    73 NBE=    73 NFC=     0 NFV=     0
 NROrb=    556 NOA=    73 NOB=    73 NVA=   483 NVB=   483

 **** Warning!!: The largest alpha MO coefficient is  0.10971037D+03

          Differentiating once with respect to magnetic field using GIAOs.
          Electric field/nuclear overlap derivatives assumed to be zero.
 FoFCou: FMM=F IPFlag=           0 FMFlag=      100000 FMFlg1=        2001
         NFxFlg=           0 DoJE=F BraDBF=F KetDBF=T FulRan=T
         wScrn=  0.000000 ICntrl=    6100 IOpCl=  0 I1Cent=           7 NGrid=         236
         NMat0=    1 NMatS0=      1 NMatT0=    0 NMatD0=    1 NMtDS0=    0 NMtDT0=    0
 Symmetry not used in FoFCou.
 FoFJK:  IHMeth= 1 ICntrl=    6127 DoSepK=F KAlg= 0 I1Cent=   0 FoldK=F
 IRaf=         1 NMat=   1 IRICut=       1 DoRegI=T DoRafI=F ISym2E= 0.
          There are     3 degrees of freedom in the 1st order CPHF.  IDoFFX=0 NUNeed=     3.
      3 vectors produced by pass  0 Test12= 1.18D-12 3.33D-08 XBig12= 2.07D+03 9.18D+00.
 AX will form     3 AO Fock derivatives at one time.
      3 vectors produced by pass  1 Test12= 1.18D-12 3.33D-08 XBig12= 3.56D+00 8.03D-01.
      3 vectors produced by pass  2 Test12= 1.18D-12 3.33D-08 XBig12= 2.10D-02 6.92D-02.
      3 vectors produced by pass  3 Test12= 1.18D-12 3.33D-08 XBig12= 5.45D-05 1.89D-03.
      3 vectors produced by pass  4 Test12= 1.18D-12 3.33D-08 XBig12= 1.20D-07 7.79D-05.
      3 vectors produced by pass  5 Test12= 1.18D-12 3.33D-08 XBig12= 4.02D-10 4.73D-06.
      3 vectors produced by pass  6 Test12= 1.18D-12 3.33D-08 XBig12= 1.32D-12 2.61D-07.
 InvSVY:  IOpt=1 It=  1 EMax= 7.11D-15
 Solved reduced A of dimension    21 with     3 vectors.
 Calculating GIAO nuclear magnetic shielding tensors.
 SCF GIAO Magnetic shielding tensor (ppm):
      1  C    Isotropic =    53.8139   Anisotropy =   178.0260
   XX=   -41.4327   YX=   -32.3458   ZX=    10.0287
   XY=   -28.3572   YY=    59.0527   ZY=    55.1899
   XZ=    13.1759   YZ=    58.7550   ZZ=   143.8218
   Eigenvalues:   -53.8775    42.8214   172.4979
      2  H    Isotropic =    24.3095   Anisotropy =     4.8536
   XX=    25.5771   YX=    -1.0289   ZX=     0.5661
   XY=    -0.7431   YY=    26.1829   ZY=    -2.3306
   XZ=    -0.1707   YZ=    -2.4411   ZZ=    21.1687
   Eigenvalues:    20.2108    25.1725    27.5453
      3  C    Isotropic =    51.4055   Anisotropy =   157.8639
   XX=   -31.5399   YX=    38.5015   ZX=   -17.9316
   XY=    34.3519   YY=    49.9437   ZY=    49.6392
   XZ=    -9.8383   YZ=    44.6006   ZZ=   135.8127
   Eigenvalues:   -50.5747    48.1432   156.6481
      4  H    Isotropic =    23.8290   Anisotropy =     7.1838
   XX=    25.3635   YX=     1.8486   ZX=    -0.3559
   XY=     1.9656   YY=    26.4581   ZY=    -2.4103
   XZ=    -1.2941   YZ=    -2.6614   ZZ=    19.6654
   Eigenvalues:    18.8176    24.0511    28.6182
      5  C    Isotropic =    46.0697   Anisotropy =   207.6751
   XX=   -19.2123   YX=    -4.8852   ZX=    -1.6475
   XY=     2.8938   YY=    -2.9860   ZY=    66.5656
   XZ=     2.5356   YZ=    67.9144   ZZ=   160.4073
   Eigenvalues:   -27.2455   -19.0652   184.5197
      6  C    Isotropic =    47.5218   Anisotropy =   196.9389
   XX=   -28.1552   YX=    -2.7889   ZX=    12.0660
   XY=   -14.3886   YY=    21.2063   ZY=    74.2521
   XZ=   -18.6356   YZ=    61.1113   ZZ=   149.5144
   Eigenvalues:   -30.2925    -5.9564   178.8144
      7  C    Isotropic =    49.3915   Anisotropy =   179.8333
   XX=   -12.5211   YX=    28.7048   ZX=   -24.6745
   XY=    31.5123   YY=    29.7000   ZY=    77.7459
   XZ=   -40.0095   YZ=    65.3072   ZZ=   130.9956
   Eigenvalues:   -52.1299    31.0240   169.2804
      8  H    Isotropic =    23.1586   Anisotropy =    13.5525
   XX=    28.5711   YX=     1.5482   ZX=    -3.6986
   XY=     3.2466   YY=    22.7592   ZY=    -2.1157
   XZ=    -8.3753   YZ=    -1.0821   ZZ=    18.1456
   Eigenvalues:    15.3521    21.9301    32.1936
      9  C    Isotropic =    55.1460   Anisotropy =   174.7426
   XX=    46.7071   YX=    -2.6162   ZX=    -2.8420
   XY=     0.6223   YY=    -1.6258   ZY=    92.8272
   XZ=     0.5159   YZ=    95.6598   ZZ=   120.3568
   Eigenvalues:   -52.8932    46.6901   171.6411
     10  H    Isotropic =    24.6278   Anisotropy =     7.1815
   XX=    29.1040   YX=     0.1399   ZX=    -0.3694
   XY=     0.3642   YY=    23.4778   ZY=    -1.0805
   XZ=    -2.4493   YZ=    -2.9465   ZZ=    21.3016
   Eigenvalues:    19.9703    24.4977    29.4155
     11  C    Isotropic =    51.5607   Anisotropy =   151.2142
   XX=     2.1639   YX=    40.9287   ZX=   -26.0048
   XY=    49.9131   YY=    12.2331   ZY=    42.1342
   XZ=   -15.6145   YZ=    38.6614   ZZ=   140.2851
   Eigenvalues:   -48.1951    50.5071   152.3701
     12  H    Isotropic =    23.8537   Anisotropy =     7.3815
   XX=    25.9672   YX=     2.3738   ZX=    -0.2390
   XY=     2.4320   YY=    26.3975   ZY=    -1.8291
   XZ=     0.3529   YZ=    -1.7731   ZZ=    19.1964
   Eigenvalues:    18.7149    24.0714    28.7747
     13  C    Isotropic =    52.8653   Anisotropy =   147.4265
   XX=    51.2944   YX=    19.9221   ZX=   -13.4678
   XY=    11.5478   YY=   -34.0176   ZY=    42.5079
   XZ=    -9.2241   YZ=    40.0716   ZZ=   141.3192
   Eigenvalues:   -46.5152    53.9616   151.1497
     14  H    Isotropic =    24.0156   Anisotropy =     7.3485
   XX=    28.6644   YX=     0.6281   ZX=     1.0808
   XY=     0.5926   YY=    24.4325   ZY=    -1.0823
   XZ=     1.6846   YZ=    -0.3842   ZZ=    18.9500
   Eigenvalues:    18.6430    24.4892    28.9146
     15  C    Isotropic =    46.2221   Anisotropy =   203.9048
   XX=   -27.2215   YX=    -0.0442   ZX=   -28.9124
   XY=     4.6427   YY=   -10.5571   ZY=    28.3830
   XZ=   -10.2704   YZ=    26.7376   ZZ=   176.4448
   Eigenvalues:   -30.5512   -12.9411   182.1586
     16  C    Isotropic =    51.9375   Anisotropy =   188.2004
   XX=   -19.4441   YX=     5.5046   ZX=    15.7858
   XY=    -8.3874   YY=     2.4863   ZY=    22.9264
   XZ=   -50.6243   YZ=    23.3340   ZZ=   172.7704
   Eigenvalues:   -21.0294    -0.5625   177.4045
     17  C    Isotropic =    51.9482   Anisotropy =   149.1264
   XX=    50.7296   YX=   -23.9353   ZX=   -18.4207
   XY=   -16.7271   YY=   -41.8764   ZY=    17.8662
   XZ=   -14.3278   YZ=    11.4871   ZZ=   146.9915
   Eigenvalues:   -46.7796    51.2584   151.3658
     18  H    Isotropic =    24.0122   Anisotropy =     7.5163
   XX=    28.5811   YX=    -0.0866   ZX=     1.5071
   XY=    -0.2466   YY=    24.3342   ZY=    -0.7657
   XZ=     2.5088   YZ=    -1.5208   ZZ=    19.1214
   Eigenvalues:    18.5094    24.5041    29.0231
     19  C    Isotropic =    51.7356   Anisotropy =   148.5924
   XX=     2.4559   YX=   -45.6913   ZX=   -31.2531
   XY=   -53.4448   YY=     7.4698   ZY=    -1.8888
   XZ=   -23.5601   YZ=    -1.2765   ZZ=   145.2810
   Eigenvalues:   -46.9894    51.3989   150.7972
     20  H    Isotropic =    23.9071   Anisotropy =     7.6651
   XX=    25.5796   YX=    -2.0226   ZX=     1.4905
   XY=    -1.9998   YY=    27.3706   ZY=    -0.5164
   XZ=     2.7276   YZ=    -1.1179   ZZ=    18.7711
   Eigenvalues:    18.1643    24.5398    29.0172
     21  C    Isotropic =    45.9767   Anisotropy =   203.9316
   XX=   -16.2108   YX=    13.1802   ZX=   -44.5913
   XY=     6.5714   YY=   -20.6329   ZY=     0.0949
   XZ=   -28.8984   YZ=   -13.0883   ZZ=   174.7736
   Eigenvalues:   -30.5796   -13.4215   181.9311
     22  C    Isotropic =    52.0450   Anisotropy =   188.1157
   XX=    -0.0787   YX=     2.5023   ZX=   -16.3451
   XY=    18.9327   YY=   -14.4798   ZY=   -34.4335
   XZ=   -50.6032   YZ=    19.9104   ZZ=   170.6934
   Eigenvalues:   -20.7705    -0.5500   177.4554
     23  C    Isotropic =    53.2392   Anisotropy =   146.7412
   XX=   -22.0674   YX=   -32.0012   ZX=   -49.4857
   XY=   -23.2043   YY=    44.3661   ZY=   -15.6400
   XZ=   -43.8090   YZ=   -20.2525   ZZ=   137.4189
   Eigenvalues:   -45.6776    54.3286   151.0667
     24  H    Isotropic =    23.8249   Anisotropy =     7.5289
   XX=    25.1073   YX=    -1.7330   ZX=     1.5380
   XY=    -1.5944   YY=    28.0047   ZY=     0.0879
   XZ=     1.2557   YZ=    -0.8283   ZZ=    18.3628
   Eigenvalues:    18.0848    24.5458    28.8442
     25  C    Isotropic =    51.4969   Anisotropy =   150.1066
   XX=   -28.4915   YX=    33.9684   ZX=   -52.3137
   XY=    22.0311   YY=    46.6072   ZY=    -3.8075
   XZ=   -44.5594   YZ=   -10.6355   ZZ=   136.3748
   Eigenvalues:   -48.3857    51.3083   151.5679
     26  H    Isotropic =    23.7431   Anisotropy =     7.4052
   XX=    24.0663   YX=     1.1141   ZX=     1.9989
   XY=     0.9693   YY=    28.1000   ZY=     1.6568
   XZ=     2.0795   YZ=     0.8886   ZZ=    19.0630
   Eigenvalues:    18.2615    24.2880    28.6799
     27  C    Isotropic =    45.8108   Anisotropy =   207.2710
   XX=    -2.7702   YX=    13.7697   ZX=   -61.4651
   XY=     6.5593   YY=   -12.0335   ZY=   -41.6456
   XZ=   -62.6381   YZ=   -44.9232   ZZ=   152.2361
   Eigenvalues:   -28.0803   -18.4787   183.9915
     28  C    Isotropic =    47.8398   Anisotropy =   197.2870
   XX=    19.6900   YX=    14.4398   ZX=   -60.5682
   XY=    28.5650   YY=   -19.3566   ZY=   -56.7015
   XZ=   -63.1331   YZ=   -24.4782   ZZ=   143.1859
   Eigenvalues:   -30.5979    -5.2472   179.3644
     29  C    Isotropic =    49.3441   Anisotropy =   179.7793
   XX=    -3.4110   YX=    38.3775   ZX=   -80.8875
   XY=    36.1252   YY=    25.9805   ZY=   -23.7573
   XZ=   -78.1065   YZ=    -3.9802   ZZ=   125.4627
   Eigenvalues:   -51.6645    30.4997   169.1970
     30  H    Isotropic =    23.1387   Anisotropy =    13.3222
   XX=    22.4354   YX=    -0.7013   ZX=    -0.2375
   XY=    -2.1539   YY=    28.3546   ZY=     4.5555
   XZ=    -3.4181   YZ=     8.3231   ZZ=    18.6259
   Eigenvalues:    15.2751    22.1208    32.0201
     31  C    Isotropic =    55.4410   Anisotropy =   174.9390
   XX=    17.1871   YX=   -14.0890   ZX=   -84.0024
   XY=   -17.9030   YY=    37.4745   ZY=   -50.3662
   XZ=   -84.6557   YZ=   -54.8325   ZZ=   111.6615
   Eigenvalues:   -51.9248    46.1808   172.0670
     32  H    Isotropic =    24.5337   Anisotropy =     7.2554
   XX=    24.6185   YX=    -2.5264   ZX=     0.7632
   XY=    -2.7385   YY=    27.4630   ZY=     1.0335
   XZ=     1.1913   YZ=     3.7573   ZZ=    21.5194
   Eigenvalues:    19.8987    24.3316    29.3706
     33  C    Isotropic =    53.1814   Anisotropy =   179.0596
   XX=    60.9231   YX=    35.2256   ZX=   -42.9515
   XY=    32.0226   YY=   -38.1801   ZY=   -45.5652
   XZ=   -44.2248   YZ=   -50.7831   ZZ=   136.8014
   Eigenvalues:   -55.1197    42.1095   172.5545
     34  H    Isotropic =    24.2825   Anisotropy =     5.1861
   XX=    26.7643   YX=    -0.0934   ZX=     2.5955
   XY=    -0.2993   YY=    24.8157   ZY=     0.8589
   XZ=     2.3715   YZ=     1.4580   ZZ=    21.2676
   Eigenvalues:    20.0339    25.0737    27.7399
     35  C    Isotropic =    51.5295   Anisotropy =   155.1748
   XX=    -0.5131   YX=    52.5760   ZX=   -52.1551
   XY=    55.6135   YY=    25.1843   ZY=   -14.2643
   XZ=   -45.7255   YZ=   -17.1625   ZZ=   129.9171
   Eigenvalues:   -48.3147    47.9237   154.9793
     36  H    Isotropic =    23.8384   Anisotropy =     7.3073
   XX=    24.2302   YX=     1.4459   ZX=     2.1759
   XY=     1.2147   YY=    27.1572   ZY=     2.0665
   XZ=     1.6853   YZ=     2.7775   ZZ=    20.1277
   Eigenvalues:    18.9464    23.8588    28.7099
     37  Bq   Isotropic =     1.4374   Anisotropy =    10.4871
   XX=     4.1381   YX=    -2.6883   ZX=    -1.3221
   XY=    -0.5087   YY=     4.7750   ZY=     1.0999
   XZ=    -0.7462   YZ=    10.6334   ZZ=    -4.6010
   Eigenvalues:    -7.4277     3.3110     8.4288
     38  Bq   Isotropic =     0.3531   Anisotropy =    11.0053
   XX=    -0.0972   YX=    -1.6333   ZX=    -0.4476
   XY=     0.0163   YY=     2.2943   ZY=     2.4335
   XZ=     0.8003   YZ=    11.2953   ZZ=    -1.1378
   Eigenvalues:    -6.5603    -0.0704     7.6899
     39  Bq   Isotropic =     1.9734   Anisotropy =    10.3549
   XX=     5.5262   YX=    -2.8831   ZX=    -1.4269
   XY=    -0.5676   YY=     5.3086   ZY=     0.7506
   XZ=    -0.9909   YZ=     9.9684   ZZ=    -4.9147
   Eigenvalues:    -7.2244     4.2678     8.8766
     40  Bq   Isotropic =     0.3740   Anisotropy =    10.8491
   XX=    -0.2903   YX=    -1.5228   ZX=    -0.3858
   XY=     0.0762   YY=     2.0687   ZY=     2.4637
   XZ=     0.9004   YZ=    11.0250   ZZ=    -0.6566
   Eigenvalues:    -6.2472    -0.2376     7.6067
     41  Bq   Isotropic =     2.6594   Anisotropy =    10.4673
   XX=     7.2019   YX=    -3.0865   ZX=    -1.4482
   XY=    -0.6132   YY=     5.9086   ZY=     0.3818
   XZ=    -1.1388   YZ=     9.0955   ZZ=    -5.1323
   Eigenvalues:    -6.9108     5.2514     9.6376
     42  Bq   Isotropic =     0.5602   Anisotropy =    11.0613
   XX=     1.4357   YX=    -2.1723   ZX=    -0.8736
   XY=    -0.2827   YY=     3.4867   ZY=     1.9362
   XZ=     0.0815   YZ=    11.6278   ZZ=    -3.2417
   Eigenvalues:    -7.4590     1.2052     7.9344
     43  Bq   Isotropic =     3.8445   Anisotropy =    18.5238
   XX=     5.1322   YX=    -1.7451   ZX=    -4.2731
   XY=     1.9063   YY=    -1.8202   ZY=    -4.3374
   XZ=   -12.7161   YZ=    -5.7561   ZZ=     8.2216
   Eigenvalues:    -5.4461     0.7860    16.1938
     44  Bq   Isotropic =     5.1165   Anisotropy =    19.8699
   XX=     6.6224   YX=    -2.3349   ZX=    -4.7937
   XY=     1.5764   YY=    -0.3470   ZY=    -4.7812
   XZ=   -14.7619   YZ=    -5.1082   ZZ=     9.0742
   Eigenvalues:    -5.0402     2.0267    18.3631
     45  Bq   Isotropic =     3.4236   Anisotropy =    17.7026
   XX=     4.6098   YX=    -1.5024   ZX=    -4.0042
   XY=     2.0329   YY=    -2.3059   ZY=    -4.1161
   XZ=   -11.5684   YZ=    -5.9099   ZZ=     7.9668
   Eigenvalues:    -5.4443     0.4896    15.2253
     46  Bq   Isotropic =     6.0658   Anisotropy =    20.2965
   XX=     7.7268   YX=    -2.6700   ZX=    -5.0274
   XY=     1.3936   YY=     0.7160   ZY=    -5.0492
   XZ=   -15.4976   YZ=    -4.6032   ZZ=     9.7546
   Eigenvalues:    -4.4675     3.0681    19.5968
     47  Bq   Isotropic =     3.0980   Anisotropy =    16.8329
   XX=     4.1729   YX=    -1.2950   ZX=    -3.7374
   XY=     2.1278   YY=    -2.6646   ZY=    -3.8851
   XZ=   -10.4084   YZ=    -5.9686   ZZ=     7.7857
   Eigenvalues:    -5.3753     0.3494    14.3199
     48  Bq   Isotropic =     7.3028   Anisotropy =    20.4734
   XX=     9.1835   YX=    -3.0116   ZX=    -5.2246
   XY=     1.2237   YY=     2.0529   ZY=    -5.4111
   XZ=   -15.8911   YZ=    -3.9932   ZZ=    10.6720
   Eigenvalues:    -3.5070     4.4636    20.9518
     49  Bq   Isotropic =     2.8432   Anisotropy =    15.9449
   XX=     3.7922   YX=    -1.1203   ZX=    -3.4771
   XY=     2.1903   YY=    -2.9200   ZY=    -3.6449
   XZ=    -9.2692   YZ=    -5.9484   ZZ=     7.6574
   Eigenvalues:    -5.2666     0.3230    13.4731
     50  Bq   Isotropic =     8.8847   Anisotropy =    20.3255
   XX=    11.0763   YX=    -3.3301   ZX=    -5.3640
   XY=     1.0979   YY=     3.6989   ZY=    -5.9500
   XZ=   -15.8043   YZ=    -3.3189   ZZ=    11.8788
   Eigenvalues:    -2.0584     6.2774    22.4350
     51  Bq   Isotropic =     2.6413   Anisotropy =    15.0646
   XX=     3.4490   YX=    -0.9748   ZX=    -3.2268
   XY=     2.2217   YY=    -3.0916   ZY=    -3.3989
   XZ=    -8.1736   YZ=    -5.8653   ZZ=     7.5664
   Eigenvalues:    -5.1330     0.3724    12.6843
     52  Bq   Isotropic =    10.8461   Anisotropy =    19.7861
   XX=    13.4591   YX=    -3.5795   ZX=    -5.4169
   XY=     1.0646   YY=     5.6629   ZY=    -6.7876
   XZ=   -15.0986   YZ=    -2.6560   ZZ=    13.4164
   Eigenvalues:    -0.0795     8.5810    24.0368
     53  Bq   Isotropic =     4.3942   Anisotropy =    19.2608
   XX=     5.7831   YX=    -2.0236   ZX=    -4.5388
   XY=     1.7516   YY=    -1.1789   ZY=    -4.5541
   XZ=   -13.8035   YZ=    -5.4922   ZZ=     8.5785
   Eigenvalues:    -5.3348     1.2827    17.2348
     54  Bq   Isotropic =     5.3557   Anisotropy =    19.4529
   XX=     6.2317   YX=    -1.2540   ZX=    -3.5088
   XY=     2.4091   YY=    -0.8675   ZY=    -3.9753
   XZ=   -12.4286   YZ=    -8.7427   ZZ=    10.7030
   Eigenvalues:    -4.6181     2.3610    18.3243
     55  Bq   Isotropic =     7.3764   Anisotropy =    19.6317
   XX=     8.8447   YX=    -1.6416   ZX=    -3.4369
   XY=     1.9747   YY=     1.6637   ZY=    -3.7790
   XZ=   -14.1544   YZ=    -8.7875   ZZ=    11.6208
   Eigenvalues:    -3.0153     4.6803    20.4642
     56  Bq   Isotropic =     4.6401   Anisotropy =    18.9255
   XX=     5.2780   YX=    -1.1191   ZX=    -3.4646
   XY=     2.5240   YY=    -1.7448   ZY=    -3.8414
   XZ=   -11.3449   YZ=    -8.4775   ZZ=    10.3870
   Eigenvalues:    -4.9806     1.6437    17.2571
     57  Bq   Isotropic =     8.7403   Anisotropy =    19.1445
   XX=    10.6079   YX=    -1.9183   ZX=    -3.3037
   XY=     1.6294   YY=     3.2815   ZY=    -3.3136
   XZ=   -14.5954   YZ=    -8.4425   ZZ=    12.3314
   Eigenvalues:    -1.5894     6.3069    21.5033
     58  Bq   Isotropic =     4.0761   Anisotropy =    18.2169
   XX=     4.4958   YX=    -1.0101   ZX=    -3.3810
   XY=     2.5866   YY=    -2.3926   ZY=    -3.6233
   XZ=   -10.2099   YZ=    -8.1182   ZZ=    10.1250
   Eigenvalues:    -5.1508     1.1583    16.2207
     59  Bq   Isotropic =    10.3579   Anisotropy =    18.2732
   XX=    12.7346   YX=    -2.2640   ZX=    -3.1028
   XY=     1.1829   YY=     5.0081   ZY=    -2.5088
   XZ=   -14.5817   YZ=    -7.7661   ZZ=    13.3310
   Eigenvalues:     0.3783     8.1554    22.5401
     60  Bq   Isotropic =     3.6327   Anisotropy =    17.4001
   XX=     3.8464   YX=    -0.9200   ZX=    -3.2684
   XY=     2.6073   YY=    -2.8483   ZY=    -3.3574
   XZ=    -9.0720   YZ=    -7.7020   ZZ=     9.8999
   Eigenvalues:    -5.1845     0.8498    15.2327
     61  Bq   Isotropic =    12.2087   Anisotropy =    17.1925
   XX=    15.2392   YX=    -2.6788   ZX=    -2.8454
   XY=     0.6292   YY=     6.6261   ZY=    -1.3234
   XZ=   -13.9645   YZ=    -6.7131   ZZ=    14.7608
   Eigenvalues:     2.9080    10.0477    23.6704
     62  Bq   Isotropic =     3.2836   Anisotropy =    16.5341
   XX=     3.2997   YX=    -0.8436   ZX=    -3.1356
   XY=     2.5946   YY=    -3.1501   ZY=    -3.0694
   XZ=    -7.9647   YZ=    -7.2562   ZZ=     9.7013
   Eigenvalues:    -5.1241     0.6687    14.3063
     63  Bq   Isotropic =    14.2241   Anisotropy =    16.2796
   XX=    18.0827   YX=    -3.1410   ZX=    -2.5605
   XY=    -0.0234   YY=     7.7871   ZY=     0.2019
   XZ=   -12.6175   YZ=    -5.2931   ZZ=    16.8025
   Eigenvalues:     5.6798    11.9153    25.0771
     64  Bq   Isotropic =     6.2569   Anisotropy =    19.7157
   XX=     7.4032   YX=    -1.4243   ZX=    -3.5030
   XY=     2.2303   YY=     0.2673   ZY=    -3.9754
   XZ=   -13.3946   YZ=    -8.8656   ZZ=    11.1000
   Eigenvalues:    -3.9920     3.3620    19.4007
     65  Bq   Isotropic =     8.7763   Anisotropy =    22.7924
   XX=     8.3819   YX=    -0.7224   ZX=    -3.6068
   XY=     2.3674   YY=    -0.8461   ZY=    -3.3157
   XZ=   -10.6778   YZ=    -9.6731   ZZ=    18.7933
   Eigenvalues:    -2.9738     5.3315    23.9713
     66  Bq   Isotropic =    12.7492   Anisotropy =    23.3002
   XX=    13.0915   YX=    -0.7829   ZX=    -3.2437
   XY=     2.2268   YY=     3.2206   ZY=    -4.4462
   XZ=   -12.3126   YZ=   -10.2006   ZZ=    21.9354
   Eigenvalues:     0.3634     9.6014    28.2826
     67  Bq   Isotropic =     7.3495   Anisotropy =    22.0356
   XX=     6.6466   YX=    -0.7173   ZX=    -3.6380
   XY=     2.3987   YY=    -2.0776   ZY=    -2.8571
   XZ=    -9.6576   YZ=    -9.1709   ZZ=    17.4796
   Eigenvalues:    -3.8949     3.9035    22.0400
     68  Bq   Isotropic =    15.3034   Anisotropy =    22.8047
   XX=    16.0597   YX=    -0.8767   ZX=    -2.8465
   XY=     2.1253   YY=     6.1376   ZY=    -5.1153
   XZ=   -12.7632   YZ=   -10.0506   ZZ=    23.7130
   Eigenvalues:     2.8948    12.5089    30.5066
     69  Bq   Isotropic =     6.2299   Anisotropy =    21.0955
   XX=     5.2559   YX=    -0.7142   ZX=    -3.6037
   XY=     2.4054   YY=    -2.8996   ZY=    -2.4605
   XZ=    -8.5904   YZ=    -8.5917   ZZ=    16.3333
   Eigenvalues:    -4.4453     2.8415    20.2935
     70  Bq   Isotropic =    18.0746   Anisotropy =    21.6819
   XX=    19.2223   YX=    -1.0515   ZX=    -2.2609
   XY=     2.0214   YY=     9.4812   ZY=    -5.8290
   XZ=   -12.8466   YZ=    -9.4527   ZZ=    25.5202
   Eigenvalues:     5.9202    15.7743    32.5291
     71  Bq   Isotropic =     5.3580   Anisotropy =    20.0625
   XX=     4.1464   YX=    -0.7079   ZX=    -3.5231
   XY=     2.3906   YY=    -3.4107   ZY=    -2.1166
   XZ=    -7.5246   YZ=    -7.9771   ZZ=    15.3382
   Eigenvalues:    -4.7214     2.0623    18.7329
     72  Bq   Isotropic =    20.6331   Anisotropy =    19.9841
   XX=    22.0167   YX=    -1.3451   ZX=    -1.4772
   XY=     1.9504   YY=    12.7068   ZY=    -6.5393
   XZ=   -12.5011   YZ=    -8.2202   ZZ=    27.1759
   Eigenvalues:     9.0672    18.8763    33.9559
     73  Bq   Isotropic =     4.6796   Anisotropy =    19.0043
   XX=     3.2603   YX=    -0.6966   ZX=    -3.4109
   XY=     2.3578   YY=    -3.6963   ZY=    -1.8162
   XZ=    -6.4947   YZ=    -7.3559   ZZ=    14.4747
   Eigenvalues:    -4.8050     1.4946    17.3491
     74  Bq   Isotropic =    22.0315   Anisotropy =    18.1950
   XX=    23.1937   YX=    -1.7950   ZX=    -0.5552
   XY=     1.9870   YY=    14.5269   ZY=    -7.1718
   XZ=   -11.8187   YZ=    -6.1529   ZZ=    28.3737
   Eigenvalues:    11.3547    20.5782    34.1615
     75  Bq   Isotropic =    10.5654   Anisotropy =    23.2552
   XX=    10.5197   YX=    -0.7391   ZX=    -3.4855
   XY=     2.3097   YY=     0.8946   ZY=    -3.8443
   XZ=   -11.5881   YZ=   -10.0414   ZZ=    20.2818
   Eigenvalues:    -1.5821     7.2094    26.0688
     76  Bq   Isotropic =    10.7492   Anisotropy =    25.0462
   XX=     8.5126   YX=    -0.7882   ZX=    -3.7937
   XY=     2.0262   YY=    -2.2539   ZY=     0.3111
   XZ=    -6.3480   YZ=    -3.4195   ZZ=    25.9890
   Eigenvalues:    -2.3508     7.1518    27.4467
     77  Bq   Isotropic =    14.6801   Anisotropy =    26.1301
   XX=    13.3321   YX=    -1.0482   ZX=    -3.6502
   XY=     1.9822   YY=     0.1379   ZY=    -1.1621
   XZ=    -6.8708   YZ=    -1.2382   ZZ=    30.5702
   Eigenvalues:     0.0852    11.8549    32.1001
     78  Bq   Isotropic =     9.2502   Anisotropy =    24.1783
   XX=     6.6985   YX=    -0.7064   ZX=    -3.7759
   XY=     2.0530   YY=    -2.9726   ZY=     0.5995
   XZ=    -5.7874   YZ=    -3.9374   ZZ=    24.0247
   Eigenvalues:    -3.0914     5.4729    25.3691
     79  Bq   Isotropic =    17.0739   Anisotropy =    26.2557
   XX=    16.3590   YX=    -1.2339   ZX=    -3.4560
   XY=     2.0080   YY=     1.7244   ZY=    -2.6371
   XZ=    -6.6448   YZ=     0.5791   ZZ=    33.1384
   Eigenvalues:     1.6872    14.9569    34.5777
     80  Bq   Isotropic =     8.0231   Anisotropy =    23.1848
   XX=     5.2191   YX=    -0.6476   ZX=    -3.7169
   XY=     2.0690   YY=    -3.4233   ZY=     0.7290
   XZ=    -5.1316   YZ=    -4.1823   ZZ=    22.2736
   Eigenvalues:    -3.5602     4.1499    23.4797
     81  Bq   Isotropic =    19.5939   Anisotropy =    26.1546
   XX=    19.6980   YX=    -1.4476   ZX=    -3.1608
   XY=     2.1159   YY=     3.2881   ZY=    -4.8356
   XZ=    -5.9717   YZ=     2.9406   ZZ=    35.7954
   Eigenvalues:     3.2579    18.4934    37.0302
     82  Bq   Isotropic =     7.0232   Anisotropy =    22.1279
   XX=     4.0195   YX=    -0.6053   ZX=    -3.6271
   XY=     2.0704   YY=    -3.6680   ZY=     0.7672
   XZ=    -4.4372   YZ=    -4.2257   ZZ=    20.7181
   Eigenvalues:    -3.8179     3.1124    21.7751
     83  Bq   Isotropic =    21.9427   Anisotropy =    26.0606
   XX=    23.1069   YX=    -1.6603   ZX=    -2.7640
   XY=     2.3638   YY=     4.3249   ZY=    -7.9061
   XZ=    -4.8060   YZ=     5.8160   ZZ=    38.3963
   Eigenvalues:     4.2898    22.2218    39.3164
     84  Bq   Isotropic =     6.2074   Anisotropy =    21.0551
   XX=     3.0496   YX=    -0.5744   ZX=    -3.5146
   XY=     2.0565   YY=    -3.7642   ZY=     0.7584
   XZ=    -3.7439   YZ=    -4.1260   ZZ=    19.3369
   Eigenvalues:    -3.9218     2.2999    20.2442
     85  Bq   Isotropic =    23.6124   Anisotropy =    26.5009
   XX=    26.1192   YX=    -1.8157   ZX=    -2.2967
   XY=     2.8210   YY=     3.9978   ZY=   -11.8582
   XZ=    -3.2101   YZ=     9.0672   ZZ=    40.7203
   Eigenvalues:     3.9377    25.6200    41.2797
     86  Bq   Isotropic =    12.5562   Anisotropy =    25.7179
   XX=    10.7129   YX=    -0.9001   ZX=    -3.7571
   XY=     1.9972   YY=    -1.2183   ZY=    -0.2329
   XZ=    -6.7391   YZ=    -2.5474   ZZ=    28.1741
   Eigenvalues:    -1.2920     9.2593    29.7015
     87  Bq   Isotropic =     9.5262   Anisotropy =    23.3000
   XX=     5.6269   YX=    -0.4401   ZX=    -3.2654
   XY=     2.2300   YY=    -1.4412   ZY=     3.3667
   XZ=    -2.0070   YZ=     2.5956   ZZ=    24.3928
   Eigenvalues:    -1.9723     5.4913    25.0595
     88  Bq   Isotropic =    10.8639   Anisotropy =    22.4719
   XX=     7.9088   YX=    -0.6833   ZX=    -2.9805
   XY=     2.0829   YY=    -0.1217   ZY=     3.5177
   XZ=    -2.1379   YZ=     5.0528   ZZ=    24.8047
   Eigenvalues:    -0.9805     7.7271    25.8452
     89  Bq   Isotropic =     8.8456   Anisotropy =    23.2007
   XX=     4.6292   YX=    -0.3733   ZX=    -3.3273
   XY=     2.2589   YY=    -1.8630   ZY=     3.1553
   XZ=    -1.8070   YZ=     1.7450   ZZ=    23.7707
   Eigenvalues:    -2.3031     4.5272    24.3128
     90  Bq   Isotropic =    11.4517   Anisotropy =    21.4423
   XX=     9.1459   YX=    -0.8643   ZX=    -2.7487
   XY=     1.9608   YY=     0.7778   ZY=     3.3690
   XZ=    -2.0311   YZ=     6.6328   ZZ=    24.4316
   Eigenvalues:    -0.3463     8.9549    25.7466
     91  Bq   Isotropic =     8.1860   Anisotropy =    22.8450
   XX=     3.7399   YX=    -0.3351   ZX=    -3.3435
   XY=     2.2619   YY=    -2.1532   ZY=     2.9068
   XZ=    -1.5499   YZ=     1.1185   ZZ=    22.9714
   Eigenvalues:    -2.5335     3.6755    23.4160
     92  Bq   Isotropic =    11.9201   Anisotropy =    19.9778
   XX=    10.3925   YX=    -1.0781   ZX=    -2.4572
   XY=     1.8035   YY=     1.7915   ZY=     3.0290
   XZ=    -1.8060   YZ=     8.3515   ZZ=    23.5763
   Eigenvalues:     0.3201    10.2016    25.2386
     93  Bq   Isotropic =     7.5593   Anisotropy =    22.2956
   XX=     2.9596   YX=    -0.3186   ZX=    -3.3207
   XY=     2.2425   YY=    -2.3378   ZY=     2.6497
   XZ=    -1.2584   YZ=     0.6806   ZZ=    22.0563
   Eigenvalues:    -2.6794     2.9344    22.4231
     94  Bq   Isotropic =    12.2118   Anisotropy =    18.1103
   XX=    11.5902   YX=    -1.3086   ZX=    -2.1139
   XY=     1.6071   YY=     2.8425   ZY=     2.5033
   XZ=    -1.4886   YZ=    10.0567   ZZ=    22.2028
   Eigenvalues:     0.9431    11.4069    24.2854
     95  Bq   Isotropic =     6.9728   Anisotropy =    21.6079
   XX=     2.2845   YX=    -0.3172   ZX=    -3.2651
   XY=     2.2049   YY=    -2.4409   ZY=     2.4029
   XZ=    -0.9514   YZ=     0.3946   ZZ=    21.0748
   Eigenvalues:    -2.7577     2.2980    21.3780
     96  Bq   Isotropic =    12.2788   Anisotropy =    15.9172
   XX=    12.6722   YX=    -1.5301   ZX=    -1.7366
   XY=     1.3646   YY=     3.8301   ZY=     1.8473
   XZ=    -1.1340   YZ=    11.5271   ZZ=    20.3343
   Eigenvalues:     1.4462    12.5000    22.8903
     97  Bq   Isotropic =    10.2085   Anisotropy =    23.0771
   XX=     6.7258   YX=    -0.5420   ZX=    -3.1517
   XY=     2.1721   YY=    -0.8648   ZY=     3.5025
   XZ=    -2.1249   YZ=     3.6966   ZZ=    24.7645
   Eigenvalues:    -1.5306     6.5630    25.5932
     98  Bq   Isotropic =     8.7337   Anisotropy =    21.4546
   XX=     3.6294   YX=     0.4923   ZX=    -3.1360
   XY=     2.8684   YY=    -0.0153   ZY=     2.0859
   XZ=     0.5236   YZ=     3.8995   ZZ=    22.5868
   Eigenvalues:    -1.1209     4.2851    23.0367
     99  Bq   Isotropic =     9.0046   Anisotropy =    19.0807
   XX=     4.9209   YX=     0.7912   ZX=    -2.8085
   XY=     2.9200   YY=     0.8085   ZY=     2.1041
   XZ=     0.4985   YZ=     3.6214   ZZ=    21.2845
   Eigenvalues:    -0.3455     5.6343    21.7251
    100  Bq   Isotropic =     8.4406   Anisotropy =    21.9583
   XX=     3.0219   YX=     0.3353   ZX=    -3.2075
   XY=     2.7959   YY=    -0.3337   ZY=     2.0343
   XZ=     0.5740   YZ=     3.9583   ZZ=    22.6335
   Eigenvalues:    -1.3959     3.6382    23.0794
    101  Bq   Isotropic =     8.9395   Anisotropy =    17.1298
   XX=     5.5622   YX=     0.9098   ZX=    -2.5463
   XY=     2.8764   YY=     1.3227   ZY=     2.0507
   XZ=     0.5274   YZ=     3.3881   ZZ=    19.9335
   Eigenvalues:     0.1747     6.2844    20.3594
    102  Bq   Isotropic =     8.0760   Anisotropy =    22.0928
   XX=     2.4585   YX=     0.1850   ZX=    -3.2266
   XY=     2.7046   YY=    -0.5971   ZY=     1.9678
   XZ=     0.6444   YZ=     3.9748   ZZ=    22.3667
   Eigenvalues:    -1.6094     3.0330    22.8046
    103  Bq   Isotropic =     8.7258   Anisotropy =    14.6813
   XX=     6.1616   YX=     0.9901   ZX=    -2.2235
   XY=     2.7701   YY=     1.9073   ZY=     1.9450
   XZ=     0.5811   YZ=     3.0871   ZZ=    18.1084
   Eigenvalues:     0.7919     6.8722    18.5133
    104  Bq   Isotropic =     7.6640   Anisotropy =    21.9294
   XX=     1.9465   YX=     0.0466   ZX=    -3.2015
   XY=     2.6014   YY=    -0.8111   ZY=     1.8943
   XZ=     0.7300   YZ=     3.9574   ZZ=    21.8566
   Eigenvalues:    -1.7707     2.4791    22.2835
    105  Bq   Isotropic =     8.3707   Anisotropy =    11.8197
   XX=     6.6836   YX=     1.0205   ZX=    -1.8540
   XY=     2.5908   YY=     2.5584   ZY=     1.7840
   XZ=     0.6524   YZ=     2.7201   ZZ=    15.8702
   Eigenvalues:     1.5050     7.3567    16.2505
    106  Bq   Isotropic =     7.2254   Anisotropy =    21.5353
   XX=     1.4895   YX=    -0.0765   ZX=    -3.1402
   XY=     2.4914   YY=    -0.9810   ZY=     1.8205
   XZ=     0.8257   YZ=     3.9137   ZZ=    21.1676
   Eigenvalues:    -1.8878     1.9816    21.5822
    107  Bq   Isotropic =     7.9020   Anisotropy =     8.7079
   XX=     7.0912   YX=     0.9937   ZX=    -1.4621
   XY=     2.3318   YY=     3.2658   ZY=     1.5709
   XZ=     0.7279   YZ=     2.2938   ZZ=    13.3492
   Eigenvalues:     2.3032     7.6956    13.7073
    108  Bq   Isotropic =     8.9297   Anisotropy =    20.5137
   XX=     4.2684   YX=     0.6479   ZX=    -3.0047
   XY=     2.9133   YY=     0.3637   ZY=     2.1126
   XZ=     0.4975   YZ=     3.7898   ZZ=    22.1570
   Eigenvalues:    -0.7743     4.9579    22.6055
    109  Bq   Isotropic =    10.2134   Anisotropy =    22.8896
   XX=     4.3249   YX=     0.7895   ZX=    -3.6313
   XY=     3.1192   YY=     1.3220   ZY=     0.5150
   XZ=     1.3552   YZ=     6.0296   ZZ=    24.9934
   Eigenvalues:    -0.1126     5.2798    25.4731
    110  Bq   Isotropic =    11.7592   Anisotropy =    21.5442
   XX=     6.7015   YX=     1.5972   ZX=    -3.4815
   XY=     3.4683   YY=     2.6785   ZY=     0.5667
   XZ=     1.4689   YZ=     3.6866   ZZ=    25.8976
   Eigenvalues:     1.2313     7.9243    26.1220
    111  Bq   Isotropic =     9.4459   Anisotropy =    22.9889
   XX=     3.3613   YX=     0.4394   ZX=    -3.5826
   XY=     2.9173   YY=     0.8019   ZY=     0.5886
   XZ=     1.3826   YZ=     6.7640   ZZ=    24.1747
   Eigenvalues:    -0.6084     4.1743    24.7718
    112  Bq   Isotropic =    12.4620   Anisotropy =    20.1936
   XX=     8.0876   YX=     2.0036   ZX=    -3.2371
   XY=     3.5625   YY=     3.4849   ZY=     0.7448
   XZ=     1.6571   YZ=     2.0863   ZZ=    25.8136
   Eigenvalues:     2.0648     9.3969    25.9244
    113  Bq   Isotropic =     8.7101   Anisotropy =    22.7965
   XX=     2.5417   YX=     0.1395   ZX=    -3.4809
   XY=     2.7191   YY=     0.3794   ZY=     0.6938
   XZ=     1.4381   YZ=     7.2465   ZZ=    23.2092
   Eigenvalues:    -1.0004     3.2229    23.9078
    114  Bq   Isotropic =    13.0417   Anisotropy =    18.3775
   XX=     9.5512   YX=     2.3543   ZX=    -2.8586
   XY=     3.5577   YY=     4.3099   ZY=     1.0400
   XZ=     1.9568   YZ=     0.2860   ZZ=    25.2641
   Eigenvalues:     2.9522    10.8796    25.2934
    115  Bq   Isotropic =     8.0159   Anisotropy =    22.3789
   XX=     1.8530   YX=    -0.1086   ZX=    -3.3440
   XY=     2.5329   YY=     0.0408   ZY=     0.8117
   XZ=     1.5065   YZ=     7.5197   ZZ=    22.1540
   Eigenvalues:    -1.3048     2.4174    22.9352
    116  Bq   Isotropic =    13.4279   Anisotropy =    16.1602
   XX=    11.0195   YX=     2.5902   ZX=    -2.3485
   XY=     3.4201   YY=     5.0631   ZY=     1.4263
   XZ=     2.3671   YZ=    -1.5660   ZZ=    24.2011
   Eigenvalues:     3.8102    12.2721    24.2013
    117  Bq   Isotropic =     7.3685   Anisotropy =    21.7944
   XX=     1.2801   YX=    -0.3081   ZX=    -3.1852
   XY=     2.3620   YY=    -0.2278   ZY=     0.9302
   XZ=     1.5778   YZ=     7.6260   ZZ=    21.0531
   Eigenvalues:    -1.5367     1.7440    21.8981
    118  Bq   Isotropic =    13.5581   Anisotropy =    13.6940
   XX=    12.4006   YX=     2.6489   ZX=    -1.7344
   XY=     3.1274   YY=     5.6359   ZY=     1.8291
   XZ=     2.8595   YZ=    -3.2499   ZZ=    22.6380
   Eigenvalues:     4.5296    13.4573    22.6875
    119  Bq   Isotropic =    10.9945   Anisotropy =    22.4290
   XX=     5.4397   YX=     1.1817   ZX=    -3.6056
   XY=     3.3104   YY=     1.9488   ZY=     0.4982
   XZ=     1.3760   YZ=     5.0086   ZZ=    25.5951
   Eigenvalues:     0.4997     6.5367    25.9472
    120  Bq   Isotropic =    12.0635   Anisotropy =    24.1720
   XX=     6.8740   YX=    -0.5914   ZX=    -3.8562
   XY=     2.0822   YY=     3.6950   ZY=     2.4238
   XZ=     1.2517   YZ=    13.2344   ZZ=    25.6215
   Eigenvalues:     0.9773     7.0350    28.1782
    121  Bq   Isotropic =    16.5570   Anisotropy =    24.4674
   XX=    12.2826   YX=     0.0488   ZX=    -4.1048
   XY=     2.2859   YY=     7.1010   ZY=     4.1037
   XZ=     1.1350   YZ=    12.0135   ZZ=    30.2872
   Eigenvalues:     4.2708    12.5315    32.8686
    122  Bq   Isotropic =    10.3321   Anisotropy =    23.6480
   XX=     4.9631   YX=    -0.8190   ZX=    -3.6288
   XY=     1.9417   YY=     2.4842   ZY=     2.0529
   XZ=     1.3937   YZ=    13.3354   ZZ=    23.5490
   Eigenvalues:    -0.1785     5.0773    26.0974
    123  Bq   Isotropic =    19.2521   Anisotropy =    24.2122
   XX=    15.8532   YX=     0.4293   ZX=    -4.0342
   XY=     2.2555   YY=     9.1484   ZY=     5.7168
   XZ=     1.2334   YZ=    10.7716   ZZ=    32.7548
   Eigenvalues:     6.2521    16.1107    35.3936
    124  Bq   Isotropic =     8.9069   Anisotropy =    22.9503
   XX=     3.4759   YX=    -0.9871   ZX=    -3.3770
   XY=     1.8056   YY=     1.5692   ZY=     1.8548
   XZ=     1.5504   YZ=    13.1978   ZZ=    21.6757
   Eigenvalues:    -1.0379     3.5516    24.2071
    125  Bq   Isotropic =    22.0263   Anisotropy =    23.8398
   XX=    19.8986   YX=     0.7821   ZX=    -3.7653
[...]
   128  Bq   0.000000
   129  Bq   0.000000
   130  Bq   0.000000
   131  Bq   0.000000
   132  Bq   0.000000
   133  Bq   0.000000
   134  Bq   0.000000
   135  Bq   0.000000
   136  Bq   0.000000
   137  Bq   0.000000
   138  Bq   0.000000
   139  Bq   0.000000
   140  Bq   0.000000
   141  Bq   0.000000
   142  Bq   0.000000
   143  Bq   0.000000
   144  Bq   0.000000
   145  Bq   0.000000
   146  Bq   0.000000
   147  Bq   0.000000
   148  Bq   0.000000
   149  Bq   0.000000
   150  Bq   0.000000
   151  Bq   0.000000
   152  Bq   0.000000
   153  Bq   0.000000
   154  Bq   0.000000
   155  Bq   0.000000
   156  Bq   0.000000
   157  Bq   0.000000
   158  Bq   0.000000
   159  Bq   0.000000
   160  Bq   0.000000
   161  Bq   0.000000
   162  Bq   0.000000
   163  Bq   0.000000
   164  Bq   0.000000
   165  Bq   0.000000
   166  Bq   0.000000
   167  Bq   0.000000
   168  Bq   0.000000
   169  Bq   0.000000
   170  Bq   0.000000
   171  Bq   0.000000
   172  Bq   0.000000
   173  Bq   0.000000
   174  Bq   0.000000
   175  Bq   0.000000
   176  Bq   0.000000
   177  Bq   0.000000
   178  Bq   0.000000
   179  Bq   0.000000
   180  Bq   0.000000
   181  Bq   0.000000
   182  Bq   0.000000
   183  Bq   0.000000
   184  Bq   0.000000
   185  Bq   0.000000
   186  Bq   0.000000
   187  Bq   0.000000
   188  Bq   0.000000
   189  Bq   0.000000
   190  Bq   0.000000
   191  Bq   0.000000
   192  Bq   0.000000
   193  Bq   0.000000
   194  Bq   0.000000
   195  Bq   0.000000
   196  Bq   0.000000
   197  Bq   0.000000
   198  Bq   0.000000
   199  Bq   0.000000
   200  Bq   0.000000
   201  Bq   0.000000
   202  Bq   0.000000
   203  Bq   0.000000
   204  Bq   0.000000
   205  Bq   0.000000
   206  Bq   0.000000
   207  Bq   0.000000
   208  Bq   0.000000
   209  Bq   0.000000
   210  Bq   0.000000
   211  Bq   0.000000
   212  Bq   0.000000
   213  Bq   0.000000
   214  Bq   0.000000
   215  Bq   0.000000
   216  Bq   0.000000
   217  Bq   0.000000
   218  Bq   0.000000
   219  Bq   0.000000
   220  Bq   0.000000
   221  Bq   0.000000
   222  Bq   0.000000
   223  Bq   0.000000
   224  Bq   0.000000
   225  Bq   0.000000
   226  Bq   0.000000
   227  Bq   0.000000
   228  Bq   0.000000
   229  Bq   0.000000
   230  Bq   0.000000
   231  Bq   0.000000
   232  Bq   0.000000
   233  Bq   0.000000
   234  Bq   0.000000
   235  Bq   0.000000
   236  Bq   0.000000
 Sum of Mulliken charges =   0.00000
 Mulliken charges with hydrogens summed into heavy atoms:
               1
     1  C   -0.255498
     3  C    0.169409
     5  C    0.448258
     6  C    0.064351
     7  C   -0.333926
     9  C   -0.139521
    11  C   -0.205988
    13  C   -0.119315
    15  C    0.653397
    16  C    0.034822
    17  C   -0.434868
    19  C   -0.316854
    21  C    0.651066
    22  C    0.037784
    23  C   -0.117289
    25  C   -0.205316
    27  C    0.448331
    28  C    0.061983
    29  C   -0.333381
    31  C   -0.139505
    33  C   -0.255977
    35  C    0.170579
    37  Bq   0.000000
    38  Bq   0.000000
    39  Bq   0.000000
    40  Bq   0.000000
    41  Bq   0.000000
    42  Bq   0.000000
    43  Bq   0.000000
    44  Bq   0.000000
    45  Bq   0.000000
    46  Bq   0.000000
    47  Bq   0.000000
    48  Bq   0.000000
    49  Bq   0.000000
    50  Bq   0.000000
    51  Bq   0.000000
    52  Bq   0.000000
    53  Bq   0.000000
    54  Bq   0.000000
    55  Bq   0.000000
    56  Bq   0.000000
    57  Bq   0.000000
    58  Bq   0.000000
    59  Bq   0.000000
    60  Bq   0.000000
    61  Bq   0.000000
    62  Bq   0.000000
    63  Bq   0.000000
    64  Bq   0.000000
    65  Bq   0.000000
    66  Bq   0.000000
    67  Bq   0.000000
    68  Bq   0.000000
    69  Bq   0.000000
    70  Bq   0.000000
    71  Bq   0.000000
    72  Bq   0.000000
    73  Bq   0.000000
    74  Bq   0.000000
    75  Bq   0.000000
    76  Bq   0.000000
    77  Bq   0.000000
    78  Bq   0.000000
    79  Bq   0.000000
    80  Bq   0.000000
    81  Bq   0.000000
    82  Bq   0.000000
    83  Bq   0.000000
    84  Bq   0.000000
    85  Bq   0.000000
    86  Bq   0.000000
    87  Bq   0.000000
    88  Bq   0.000000
    89  Bq   0.000000
    90  Bq   0.000000
    91  Bq   0.000000
    92  Bq   0.000000
    93  Bq   0.000000
    94  Bq   0.000000
    95  Bq   0.000000
    96  Bq   0.000000
    97  Bq   0.000000
    98  Bq   0.000000
    99  Bq   0.000000
   100  Bq   0.000000
   101  Bq   0.000000
   102  Bq   0.000000
   103  Bq   0.000000
   104  Bq   0.000000
   105  Bq   0.000000
   106  Bq   0.000000
   107  Bq   0.000000
   108  Bq   0.000000
   109  Bq   0.000000
   110  Bq   0.000000
   111  Bq   0.000000
   112  Bq   0.000000
   113  Bq   0.000000
   114  Bq   0.000000
   115  Bq   0.000000
   116  Bq   0.000000
   117  Bq   0.000000
   118  Bq   0.000000
   119  Bq   0.000000
   120  Bq   0.000000
   121  Bq   0.000000
   122  Bq   0.000000
   123  Bq   0.000000
   124  Bq   0.000000
   125  Bq   0.000000
   126  Bq   0.000000
   127  Bq   0.000000
   128  Bq   0.000000
   129  Bq   0.000000
   130  Bq   0.000000
   131  Bq   0.000000
   132  Bq   0.000000
   133  Bq   0.000000
   134  Bq   0.000000
   135  Bq   0.000000
   136  Bq   0.000000
   137  Bq   0.000000
   138  Bq   0.000000
   139  Bq   0.000000
   140  Bq   0.000000
   141  Bq   0.000000
   142  Bq   0.000000
   143  Bq   0.000000
   144  Bq   0.000000
   145  Bq   0.000000
   146  Bq   0.000000
   147  Bq   0.000000
   148  Bq   0.000000
   149  Bq   0.000000
   150  Bq   0.000000
   151  Bq   0.000000
   152  Bq   0.000000
   153  Bq   0.000000
   154  Bq   0.000000
   155  Bq   0.000000
   156  Bq   0.000000
   157  Bq   0.000000
   158  Bq   0.000000
   159  Bq   0.000000
   160  Bq   0.000000
   161  Bq   0.000000
   162  Bq   0.117458
   163  Bq   0.000000
   164  Bq   0.000000
   165  Bq   0.000000
   166  Bq   0.000000
   167  Bq   0.000000
   168  Bq   0.000000
   169  Bq   0.000000
   170  Bq   0.000000
   171  Bq   0.000000
   172  Bq   0.000000
   173  Bq   0.000000
   174  Bq   0.000000
   175  Bq   0.000000
   176  Bq   0.000000
   177  Bq   0.000000
   178  Bq   0.000000
   179  Bq   0.000000
   180  Bq   0.000000
   181  Bq   0.000000
   182  Bq   0.000000
   183  Bq   0.000000
   184  Bq   0.000000
   185  Bq   0.000000
   186  Bq   0.000000
   187  Bq   0.000000
   188  Bq   0.000000
   189  Bq   0.000000
   190  Bq   0.000000
   191  Bq   0.000000
   192  Bq   0.000000
   193  Bq   0.000000
   194  Bq   0.000000
   195  Bq   0.000000
   196  Bq   0.000000
   197  Bq   0.000000
   198  Bq   0.000000
   199  Bq   0.000000
   200  Bq   0.000000
   201  Bq   0.000000
   202  Bq   0.000000
   203  Bq   0.000000
   204  Bq   0.000000
   205  Bq   0.000000
   206  Bq   0.000000
   207  Bq   0.000000
   208  Bq   0.000000
   209  Bq   0.000000
   210  Bq   0.000000
   211  Bq   0.000000
   212  Bq   0.000000
   213  Bq   0.000000
   214  Bq   0.000000
   215  Bq   0.000000
   216  Bq   0.000000
   217  Bq   0.000000
   218  Bq   0.000000
   219  Bq   0.000000
   220  Bq   0.000000
   221  Bq   0.000000
   222  Bq   0.000000
   223  Bq   0.000000
   224  Bq   0.000000
   225  Bq   0.000000
   226  Bq   0.000000
   227  Bq   0.000000
   228  Bq   0.000000
   229  Bq   0.000000
   230  Bq   0.000000
   231  Bq   0.000000
   232  Bq   0.000000
   233  Bq   0.000000
   234  Bq   0.000000
   235  Bq   0.000000
   236  Bq   0.000000
 Electronic spatial extent (au):  <R**2>=           5736.9264
 Charge=              0.0000 electrons
 Dipole moment (field-independent basis, Debye):
    X=              0.0475    Y=              0.0856    Z=              0.0029  Tot=              0.0979
 Quadrupole moment (field-independent basis, Debye-Ang):
   XX=           -113.7056   YY=           -113.9456   ZZ=           -133.2669
   XY=             -0.3834   XZ=              3.2102   YZ=             -1.1839
 Traceless Quadrupole moment (field-independent basis, Debye-Ang):
   XX=              6.6005   YY=              6.3604   ZZ=            -12.9609
   XY=             -0.3834   XZ=              3.2102   YZ=             -1.1839
 Octapole moment (field-independent basis, Debye-Ang**2):
  XXX=            -16.4668  YYY=            -16.1860  ZZZ=             -1.7007  XYY=              2.5576
  XXY=             -6.5650  XXZ=             13.6547  XZZ=             -8.9478  YZZ=            -17.7168
  YYZ=            -13.2941  XYZ=              8.8036
 Hexadecapole moment (field-independent basis, Debye-Ang**3):
 XXXX=          -3951.1638 YYYY=          -3112.2161 ZZZZ=           -504.8311 XXXY=            340.6935
 XXXZ=            156.4968 YYYX=            335.5625 YYYZ=            -87.0893 ZZZX=            120.2262
 ZZZY=           -108.7373 XXYY=          -1176.4844 XXZZ=           -856.7291 YYZZ=           -665.7275
 XXYZ=            -68.9016 YYXZ=             48.1602 ZZXY=            153.0375
 N-N= 1.610917615562D+03 E-N=-5.186891130729D+03  KE= 8.436329774449D+02
 1\1\GINC-BRUSEL\SP\RB3LYP\6-311+G(d,p)\C22H14\YANNICK\14-Aug-2020\0\\#
  rb3lyp/6-311+g** NMR geom=connectivity\\Title\\0,1\C,0,-4.0500558,-0.
 5771862,0.8136712\H,0,-5.0263804,-1.0082727,1.002476\C,0,-3.9381552,0.
 6617804,0.2400876\H,0,-4.8252424,1.233889,-0.0111295\C,0,-2.676841,1.2
 433246,0.0057578\C,0,-1.4974121,0.5051527,0.2848253\C,0,-1.6508332,-0.
 7338728,0.9404026\H,0,-0.7713646,-1.2730967,1.2633753\C,0,-2.8898548,-
 1.2624035,1.1994307\H,0,-2.9683706,-2.2124563,1.7152676\C,0,-2.5773185
 ,2.5963696,-0.419293\H,0,-3.4870728,3.1412239,-0.6474055\C,0,-1.374189
 5,3.2147896,-0.436403\H,0,-1.2997315,4.2742019,-0.6578144\C,0,-0.17194
 88,2.499409,-0.1734588\C,0,-0.2043917,1.1018437,0.0192689\C,0,1.051349
 1,3.204256,-0.0676222\H,0,1.0427344,4.2819499,-0.1896997\C,0,2.1942091
 ,2.5487446,0.2579577\H,0,3.1168527,3.0912848,0.4334727\C,0,2.2216473,1
 .1336562,0.293499\C,0,1.0486931,0.3945528,0.0302412\C,0,3.4483363,0.46
 14633,0.5573939\H,0,4.3095794,1.0606054,0.8334846\C,0,3.5427346,-0.885
 5926,0.4749463\H,0,4.4731467,-1.3939704,0.7038822\C,0,2.4490052,-1.647
 4447,-0.0196319\C,0,1.2150704,-1.0057258,-0.3013573\C,0,0.2531113,-1.7
 43444,-1.0216591\H,0,-0.6541356,-1.2535051,-1.3462847\C,0,0.4494193,-3
 .0628597,-1.3413779\H,0,-0.3083162,-3.5944309,-1.905406\C,0,1.6251726,
 -3.7207967,-0.9552541\H,0,1.7670048,-4.7687404,-1.1927019\C,0,2.610987
 2,-3.0144177,-0.318305\H,0,3.5525612,-3.4902813,-0.0646367\Bq,0,0.4450
 107412,4.3451184967,0.557745855\Bq,0,0.3436790699,4.3795128922,1.24951
 81571\Bq,0,0.4594866943,4.3402050116,0.4589212404\Bq,0,0.3292031169,4.
 3844263773,1.3483427717\Bq,0,0.4739626473,4.3352915265,0.3600966259\Bq
 ,0,0.4015828821,4.3598589519,0.8542196988\Bq,0,0.8462208513,-0.6291883
 319,1.2685918463\Bq,0,0.8751727574,-0.639015302,1.0709426171\Bq,0,0.83
 17448983,-0.6242748468,1.3674164608\Bq,0,0.8896487104,-0.6439287871,0.
 9721180025\Bq,0,0.8172689452,-0.6193613617,1.4662410754\Bq,0,0.9041246
 635,-0.6488422722,0.8732933879\Bq,0,0.8027929922,-0.6144478766,1.56506
 569\Bq,0,0.9186006165,-0.6537557573,0.7744687733\Bq,0,0.7883170391,-0.
 6095343915,1.6638903046\Bq,0,0.9330765696,-0.6586692423,0.6756441588\B
 q,0,0.8606968043,-0.6341018169,1.1697672317\Bq,0,0.849781521,-0.129792
 255,1.2442838224\Bq,0,0.8787334271,-0.1396192251,1.0466345933\Bq,0,0.8
 35305568,-0.1248787699,1.343108437\Bq,0,0.8932093801,-0.1445327102,0.9
 478099787\Bq,0,0.8208296149,-0.1199652848,1.4419330516\Bq,0,0.90768533
 32,-0.1494461953,0.8489853641\Bq,0,0.8063536619,-0.1150517997,1.540757
 6662\Bq,0,0.9221612862,-0.1543596804,0.7501607495\Bq,0,0.7918777088,-0
 .1101383146,1.6395822808\Bq,0,0.9366372393,-0.1592731655,0.6513361349\
 Bq,0,0.8642574741,-0.13470574,1.1454592078\Bq,0,0.8533421907,0.3696038
 219,1.2199757986\Bq,0,0.8822940968,0.3597768518,1.0223265694\Bq,0,0.83
 88662377,0.374517307,1.3188004132\Bq,0,0.8967700499,0.3548633667,0.923
 5019548\Bq,0,0.8243902846,0.3794307921,1.4176250278\Bq,0,0.9112460029,
 0.3499498816,0.8246773403\Bq,0,0.8099143316,0.3843442772,1.5164496423\
 Bq,0,0.9257219559,0.3450363965,0.7258527257\Bq,0,0.7954383785,0.389257
 7622,1.6152742569\Bq,0,0.940197909,0.3401229114,0.6270281111\Bq,0,0.86
 78181438,0.3646903368,1.121151184\Bq,0,0.8569028604,0.8689998988,1.195
 6677748\Bq,0,0.8858547665,0.8591729286,0.9980185456\Bq,0,0.8424269074,
 0.8739133839,1.2944923893\Bq,0,0.9003307196,0.8542594436,0.899193931\B
 q,0,0.8279509543,0.878826869,1.3933170039\Bq,0,0.9148066726,0.84934595
 85,0.8003693164\Bq,0,0.8134750013,0.8837403541,1.4921416185\Bq,0,0.929
 2826257,0.8444324734,0.7015447018\Bq,0,0.7989990483,0.8886538391,1.590
 9662331\Bq,0,0.9437585787,0.8395189883,0.6027200873\Bq,0,0.8713788135,
 0.8640864137,1.0968431602\Bq,0,0.8604635301,1.3683959757,1.1713597509\
 Bq,0,0.8894154362,1.3585690055,0.9737105218\Bq,0,0.8459875771,1.373309
 4608,1.2701843655\Bq,0,0.9038913893,1.3536555204,0.8748859072\Bq,0,0.8
 31511624,1.3782229459,1.3690089801\Bq,0,0.9183673423,1.3487420354,0.77
 60612926\Bq,0,0.817035671,1.3831364309,1.4678335947\Bq,0,0.9328432954,
 1.3438285503,0.677236678\Bq,0,0.802559718,1.388049916,1.5666582093\Bq,
 0,0.9473192484,1.3389150652,0.5784120634\Bq,0,0.8749394832,1.363482490
 6,1.0725351363\Bq,0,0.8640241998,1.8677920526,1.1470517271\Bq,0,0.8929
 761059,1.8579650824,0.9494024979\Bq,0,0.8495482468,1.8727055377,1.2458
 763417\Bq,0,0.907452059,1.8530515973,0.8505778833\Bq,0,0.8350722938,1.
 8776190227,1.3447009563\Bq,0,0.921928012,1.8481381122,0.7517532688\Bq,
 0,0.8205963407,1.8825325078,1.4435255709\Bq,0,0.9364039651,1.843224627
 2,0.6529286542\Bq,0,0.8061203877,1.8874459929,1.5423501854\Bq,0,0.9508
 799181,1.8383111421,0.5541040396\Bq,0,0.8785001529,1.8628785675,1.0482
 271125\Bq,0,0.8675848696,2.3671881295,1.1227437033\Bq,0,0.8965367756,2
 .3573611593,0.9250944741\Bq,0,0.8531089165,2.3721016145,1.2215683179\B
 q,0,0.9110127287,2.3524476742,0.8262698595\Bq,0,0.8386329635,2.3770150
 996,1.3203929324\Bq,0,0.9254886817,2.3475341891,0.7274452449\Bq,0,0.82
 41570104,2.3819285847,1.419217547\Bq,0,0.9399646348,2.342620704,0.6286
 206303\Bq,0,0.8096810574,2.3868420698,1.5180421616\Bq,0,0.9544405878,2
 .337707219,0.5297960158\Bq,0,0.8820608226,2.3622746444,1.0239190887\Bq
 ,0,0.8711455393,2.8665842063,1.0984356794\Bq,0,0.9000974454,2.85675723
 62,0.9007864503\Bq,0,0.8566695862,2.8714976914,1.197260294\Bq,0,0.9145
 733984,2.8518437511,0.8019618357\Bq,0,0.8421936332,2.8764111765,1.2960
 849086\Bq,0,0.9290493514,2.846930266,0.7031372211\Bq,0,0.8277176801,2.
 8813246616,1.3949095232\Bq,0,0.9435253045,2.8420167809,0.6043126065\Bq
 ,0,0.8132417271,2.8862381467,1.4937341378\Bq,0,0.9580012575,2.83710329
 59,0.5054879919\Bq,0,0.8856214923,2.8616707213,0.9996110648\Bq,0,0.874
 706209,3.3659802832,1.0741276556\Bq,0,0.9036581151,3.3561533131,0.8764
 784264\Bq,0,0.8602302559,3.3708937683,1.1729522702\Bq,0,0.9181340681,3
 .351239828,0.7776538118\Bq,0,0.8457543029,3.3758072534,1.2717768848\Bq
 ,0,0.9326100211,3.3463263429,0.6788291973\Bq,0,0.8312783498,3.38072073
 85,1.3706014994\Bq,0,0.9470859742,3.3414128578,0.5800045827\Bq,0,0.816
 8023968,3.3856342236,1.4694261139\Bq,0,0.9615619272,3.3364993727,0.481
 1799681\Bq,0,0.889182162,3.3610667981,0.975303041\Bq,0,0.8782668787,3.
 8653763601,1.0498196318\Bq,0,0.9072187848,3.85554939,0.8521704026\Bq,0
 ,0.8637909256,3.8702898452,1.1486442464\Bq,0,0.9216947378,3.8506359049
 ,0.753345788\Bq,0,0.8493149726,3.8752033303,1.2474688609\Bq,0,0.936170
 6909,3.8457224198,0.6545211734\Bq,0,0.8348390195,3.8801168154,1.346293
 4755\Bq,0,0.9506466439,3.8408089347,0.5556965588\Bq,0,0.8203630665,3.8
 850303004,1.4451180901\Bq,0,0.9651225969,3.8358954496,0.4568719443\Bq,
 0,0.8927428317,3.860462875,0.9509950172\Bq,0,0.8818275484,4.364772437,
 1.0255116079\Bq,0,0.9107794545,4.3549454668,0.8278623788\Bq,0,0.867351
 5953,4.3696859221,1.1243362225\Bq,0,0.9252554075,4.3500319818,0.729037
 7642\Bq,0,0.8528756423,4.3745994072,1.2231608371\Bq,0,0.9397313606,4.3
 451184967,0.6302131496\Bq,0,0.8383996893,4.3795128922,1.3219854517\Bq,
 0,0.9542073136,4.3402050116,0.531388535\Bq,0,0.8239237362,4.3844263773
 ,1.4208100663\Bq,0,0.9686832667,4.3352915265,0.4325639204\Bq,0,0.89630
 35014,4.3598589519,0.9266869934\Bq,0,1.3409414707,-0.6291883319,1.3410
 591408\Bq,0,1.3698933768,-0.639015302,1.1434099117\Bq,0,1.3264655176,-
 0.6242748468,1.4398837554\Bq,0,1.3843693298,-0.6439287871,1.0445852971
 \Bq,0,1.3119895646,-0.6193613617,1.53870837\Bq,0,1.3988452828,-0.64884
 22722,0.9457606825\Bq,0,1.2975136115,-0.6144478766,1.6375329846\Bq,0,1
 .4133212359,-0.6537557573,0.8469360679\Bq,0,1.2830376585,-0.6095343915
 ,1.7363575992\Bq,0,1.4277971889,-0.6586692423,0.7481114533\Bq,0,1.3554
 174237,-0.6341018169,1.2422345262\Bq,0,1.3445021404,-0.129792255,1.316
 751117\Bq,0,1.3734540465,-0.1396192251,1.1191018878\Bq,0,1.3300261873,
 -0.1248787699,1.4155757316\Bq,0,1.3879299995,-0.1445327102,1.020277273
 2\Bq,0,1.3155502343,-0.1199652848,1.5144003462\Bq,0,1.4024059525,-0.14
 94461953,0.9214526587\Bq,0,1.3010742812,-0.1150517997,1.6132249608\Bq,
 0,1.4168819056,-0.1543596804,0.8226280441\Bq,0,1.2865983282,-0.1101383
 146,1.7120495753\Bq,0,1.4313578586,-0.1592731655,0.7238034295\Bq,0,1.3
 589780934,-0.13470574,1.2179265024\Bq,0,1.3480628101,0.3696038219,1.29
 24430932\Bq,0,1.3770147162,0.3597768518,1.094793864\Bq,0,1.333586857,0
 .374517307,1.3912677077\Bq,0,1.3914906692,0.3548633667,0.9959692494\Bq
 ,0,1.319110904,0.3794307921,1.4900923223\Bq,0,1.4059666223,0.349949881
 6,0.8971446348\Bq,0,1.3046349509,0.3843442772,1.5889169369\Bq,0,1.4204
 425753,0.3450363965,0.7983200202\Bq,0,1.2901589979,0.3892577622,1.6877
 415515\Bq,0,1.4349185283,0.3401229114,0.6994954057\Bq,0,1.3625387631,0
 .3646903368,1.1936184786\Bq,0,1.3516234798,0.8689998988,1.2681350693\B
 q,0,1.3805753859,0.8591729286,1.0704858402\Bq,0,1.3371475267,0.8739133
 839,1.3669596839\Bq,0,1.3950513389,0.8542594436,0.9716612256\Bq,0,1.32
 26715737,0.878826869,1.4657842985\Bq,0,1.409527292,0.8493459585,0.8728
 36611\Bq,0,1.3081956207,0.8837403541,1.5646089131\Bq,0,1.424003245,0.8
 444324734,0.7740119964\Bq,0,1.2937196676,0.8886538391,1.6634335277\Bq,
 0,1.4384791981,0.8395189883,0.6751873818\Bq,0,1.3660994328,0.864086413
 7,1.1693104547\Bq,0,1.3551841495,1.3683959757,1.2438270455\Bq,0,1.3841
 360556,1.3585690055,1.0461778163\Bq,0,1.3407081965,1.3733094608,1.3426
 516601\Bq,0,1.3986120086,1.3536555204,0.9473532017\Bq,0,1.3262322434,1
 .3782229459,1.4414762747\Bq,0,1.4130879617,1.3487420354,0.8485285872\B
 q,0,1.3117562904,1.3831364309,1.5403008893\Bq,0,1.4275639147,1.3438285
 503,0.7497039726\Bq,0,1.2972803373,1.388049916,1.6391255038\Bq,0,1.442
 0398678,1.3389150652,0.650879358\Bq,0,1.3696601025,1.3634824906,1.1450
 024309\Bq,0,1.3587448192,1.8677920526,1.2195190217\Bq,0,1.3876967253,1
 .8579650824,1.0218697925\Bq,0,1.3442688662,1.8727055377,1.3183436363\B
 q,0,1.4021726783,1.8530515973,0.9230451779\Bq,0,1.3297929131,1.8776190
 227,1.4171682508\Bq,0,1.4166486314,1.8481381122,0.8242205633\Bq,0,1.31
 53169601,1.8825325078,1.5159928654\Bq,0,1.4311245844,1.8432246272,0.72
 53959487\Bq,0,1.300841007,1.8874459929,1.61481748\Bq,0,1.4456005375,1.
 8383111421,0.6265713342\Bq,0,1.3732207722,1.8628785675,1.1206944071\Bq
 ,0,1.3623054889,2.3671881295,1.1952109978\Bq,0,1.391257395,2.357361159
 3,0.9975617687\Bq,0,1.3478295359,2.3721016145,1.2940356124\Bq,0,1.4057
 33348,2.3524476742,0.8987371541\Bq,0,1.3333535828,2.3770150996,1.39286
 0227\Bq,0,1.4202093011,2.3475341891,0.7999125395\Bq,0,1.3188776298,2.3
 819285847,1.4916848416\\Version=ES64L-G09RevD.01\HF=-847.0032898\RMSD=
 7.595e-09\Dipole=0.0186808,0.0336671,0.0011595\Quadrupole=4.9072795,4.
 7288219,-9.6361014,-0.2850201,2.3867064,-0.880172\PG=C01 [X(C22H14)]\\
 @


 LIVE PURE, SPEAK TRUE, RIGHT WRONG, FOLLOW THE KING...
 ELSE, WHEREFORE BORN......
           IDYLLS OF THE KING, TENNYSON
 Job cpu time:       0 days  4 hours  2 minutes 17.6 seconds.
 File lengths (MBytes):  RWF=    184 Int=      0 D2E=      0 Chk=     19 Scr=      1
 Normal termination of Gaussian 09 at Fri Aug 14 17:43:34 2020.

real	30m49.493s
user	242m14.570s
sys	0m3.082s
