 Entering Gaussian System, Link 0=g09
 Initial command:
 /share/programs/GAUSSIAN/64/g09/l1.exe "/scratch/yannick.28368/Gau-110430.inp" -scrdir="/scratch/yannick.28368/"
 Entering Link 1 = /share/programs/GAUSSIAN/64/g09/l1.exe PID=    110537.
  
 Copyright (c) 1988,1990,1992,1993,1995,1998,2003,2009,2013,
            Gaussian, Inc.  All Rights Reserved.
  
 This is part of the Gaussian(R) 09 program.  It is based on
 the Gaussian(R) 03 system (copyright 2003, Gaussian, Inc.),
 the Gaussian(R) 98 system (copyright 1998, Gaussian, Inc.),
 the Gaussian(R) 94 system (copyright 1995, Gaussian, Inc.),
 the Gaussian 92(TM) system (copyright 1992, Gaussian, Inc.),
 the Gaussian 90(TM) system (copyright 1990, Gaussian, Inc.),
 the Gaussian 88(TM) system (copyright 1988, Gaussian, Inc.),
 the Gaussian 86(TM) system (copyright 1986, Carnegie Mellon
 University), and the Gaussian 82(TM) system (copyright 1983,
 Carnegie Mellon University). Gaussian is a federally registered
 trademark of Gaussian, Inc.
  
 This software contains proprietary and confidential information,
 including trade secrets, belonging to Gaussian, Inc.
  
 This software is provided under written license and may be
 used, copied, transmitted, or stored only in accord with that
 written license.
  
 The following legend is applicable only to US Government
 contracts under FAR:
  
                    RESTRICTED RIGHTS LEGEND
  
 Use, reproduction and disclosure by the US Government is
 subject to restrictions as set forth in subparagraphs (a)
 and (c) of the Commercial Computer Software - Restricted
 Rights clause in FAR 52.227-19.
  
 Gaussian, Inc.
 340 Quinnipiac St., Bldg. 40, Wallingford CT 06492
  
  
 ---------------------------------------------------------------
 Warning -- This program may not be used in any manner that
 competes with the business of Gaussian, Inc. or will provide
 assistance to any competitor of Gaussian, Inc.  The licensee
 of this program is prohibited from giving any competitor of
 Gaussian, Inc. access to this program.  By using this program,
 the user acknowledges that Gaussian, Inc. is engaged in the
 business of creating and licensing software in the field of
 computational chemistry and represents and warrants to the
 licensee that it is not a competitor of Gaussian, Inc. and that
 it will not use this program in any manner prohibited above.
 ---------------------------------------------------------------
  

 Cite this work as:
 Gaussian 09, Revision D.01,
 M. J. Frisch, G. W. Trucks, H. B. Schlegel, G. E. Scuseria, 
 M. A. Robb, J. R. Cheeseman, G. Scalmani, V. Barone, B. Mennucci, 
 G. A. Petersson, H. Nakatsuji, M. Caricato, X. Li, H. P. Hratchian, 
 A. F. Izmaylov, J. Bloino, G. Zheng, J. L. Sonnenberg, M. Hada, 
 M. Ehara, K. Toyota, R. Fukuda, J. Hasegawa, M. Ishida, T. Nakajima, 
 Y. Honda, O. Kitao, H. Nakai, T. Vreven, J. A. Montgomery, Jr., 
 J. E. Peralta, F. Ogliaro, M. Bearpark, J. J. Heyd, E. Brothers, 
 K. N. Kudin, V. N. Staroverov, T. Keith, R. Kobayashi, J. Normand, 
 K. Raghavachari, A. Rendell, J. C. Burant, S. S. Iyengar, J. Tomasi, 
 M. Cossi, N. Rega, J. M. Millam, M. Klene, J. E. Knox, J. B. Cross, 
 V. Bakken, C. Adamo, J. Jaramillo, R. Gomperts, R. E. Stratmann, 
 O. Yazyev, A. J. Austin, R. Cammi, C. Pomelli, J. W. Ochterski, 
 R. L. Martin, K. Morokuma, V. G. Zakrzewski, G. A. Voth, 
 P. Salvador, J. J. Dannenberg, S. Dapprich, A. D. Daniels, 
 O. Farkas, J. B. Foresman, J. V. Ortiz, J. Cioslowski, 
 and D. J. Fox, Gaussian, Inc., Wallingford CT, 2013.
 
 ******************************************
 Gaussian 09:  ES64L-G09RevD.01 24-Apr-2013
                14-Aug-2020 
 ******************************************
 %nproc=8
 Will use up to    8 processors via shared memory.
 %mem=1000MB
 ----------------------------------------
 # rb3lyp/6-311+g** NMR geom=connectivity
 ----------------------------------------
 1/38=1,57=2/1;
 2/12=2,17=6,18=5,40=1/2;
 3/5=4,6=6,7=111,11=2,16=1,25=1,30=1,74=-5,116=1/1,2,8,3;
 4//1;
 5/5=2,38=5/2;
 8/6=1,10=90,11=11/1;
 10/13=100,45=16/2;
 6/7=2,8=2,9=2,10=2,28=1/1;
 99/9=1/99;
 -----
 Title
 -----
 Symbolic Z-matrix:
 Charge =  0 Multiplicity = 1
 C                    -4.05006  -0.57719   0.81367 
 H                    -5.02638  -1.00827   1.00248 
 C                    -3.93816   0.66178   0.24009 
 H                    -4.82524   1.23389  -0.01113 
 C                    -2.67684   1.24332   0.00576 
 C                    -1.49741   0.50515   0.28483 
 C                    -1.65083  -0.73387   0.9404 
 H                    -0.77136  -1.2731    1.26338 
 C                    -2.88985  -1.2624    1.19943 
 H                    -2.96837  -2.21246   1.71527 
 C                    -2.57732   2.59637  -0.41929 
 H                    -3.48707   3.14122  -0.64741 
 C                    -1.37419   3.21479  -0.4364 
 H                    -1.29973   4.2742   -0.65781 
 C                    -0.17195   2.49941  -0.17346 
 C                    -0.20439   1.10184   0.01927 
 C                     1.05135   3.20426  -0.06762 
 H                     1.04273   4.28195  -0.1897 
 C                     2.19421   2.54874   0.25796 
 H                     3.11685   3.09128   0.43347 
 C                     2.22165   1.13366   0.2935 
 C                     1.04869   0.39455   0.03024 
 C                     3.44834   0.46146   0.55739 
 H                     4.30958   1.06061   0.83348 
 C                     3.54273  -0.88559   0.47495 
 H                     4.47315  -1.39397   0.70388 
 C                     2.44901  -1.64744  -0.01963 
 C                     1.21507  -1.00573  -0.30136 
 C                     0.25311  -1.74344  -1.02166 
 H                    -0.65414  -1.25351  -1.34628 
 C                     0.44942  -3.06286  -1.34138 
 H                    -0.30832  -3.59443  -1.90541 
 C                     1.62517  -3.7208   -0.95525 
 H                     1.767    -4.76874  -1.1927 
 C                     2.61099  -3.01442  -0.31831 
 H                     3.55256  -3.49028  -0.06464 
 Bq                    2.42436   0.34012   0.84443 
 Bq                    2.35198   0.36469   1.33855 
 Bq                    2.34106   0.869     1.41307 
 Bq                    2.37002   0.85917   1.21542 
 Bq                    2.32659   0.87391   1.51189 
 Bq                    2.38449   0.85426   1.1166 
 Bq                    2.31211   0.87883   1.61072 
 Bq                    2.39897   0.84935   1.01777 
 Bq                    2.29764   0.88374   1.70954 
 Bq                    2.41344   0.84443   0.91895 
 Bq                    2.28316   0.88865   1.80837 
 Bq                    2.42792   0.83952   0.82012 
 Bq                    2.35554   0.86409   1.31425 
 Bq                    2.34463   1.3684    1.38876 
 Bq                    2.37358   1.35857   1.19111 
 Bq                    2.33015   1.37331   1.48759 
 Bq                    2.38805   1.35366   1.09229 
 Bq                    2.31567   1.37822   1.58641 
 Bq                    2.40253   1.34874   0.99346 
 Bq                    2.3012    1.38314   1.68524 
 Bq                    2.41701   1.34383   0.89464 
 Bq                    2.28672   1.38805   1.78406 
 Bq                    2.43148   1.33892   0.79581 
 Bq                    2.3591    1.36348   1.28994 
 Bq                    2.34819   1.86779   1.36445 
 Bq                    2.37714   1.85797   1.1668 
 Bq                    2.33371   1.87271   1.46328 
 Bq                    2.39161   1.85305   1.06798 
 Bq                    2.31923   1.87762   1.5621 
 Bq                    2.40609   1.84814   0.96916 
 Bq                    2.30476   1.88253   1.66093 
 Bq                    2.42057   1.84322   0.87033 
 Bq                    2.29028   1.88745   1.75975 
 Bq                    2.43504   1.83831   0.77151 
 Bq                    2.36266   1.86288   1.26563 
 Bq                    2.35175   2.36719   1.34015 
 Bq                    2.3807    2.35736   1.1425 
 Bq                    2.33727   2.3721    1.43897 
 Bq                    2.39517   2.35245   1.04367 
 Bq                    2.32279   2.37702   1.53779 
 Bq                    2.40965   2.34753   0.94485 
 Bq                    2.30832   2.38193   1.63662 
 Bq                    2.42413   2.34262   0.84602 
 Bq                    2.29384   2.38684   1.73544 
 Bq                    2.4386    2.33771   0.7472 
 Bq                    2.36622   2.36227   1.24132 
 Bq                    2.35531   2.86658   1.31584 
 Bq                    2.38426   2.85676   1.11819 
 Bq                    2.34083   2.8715    1.41466 
 Bq                    2.39874   2.85184   1.01936 
 Bq                    2.32636   2.87641   1.51349 
 Bq                    2.41321   2.84693   0.92054 
 Bq                    2.31188   2.88132   1.61231 
 Bq                    2.42769   2.84202   0.82171 
 Bq                    2.2974    2.88624   1.71114 
 Bq                    2.44216   2.8371    0.72289 
 Bq                    2.36978   2.86167   1.21701 
 Bq                    2.35887   3.36598   1.29153 
 Bq                    2.38782   3.35615   1.09388 
 Bq                    2.34439   3.37089   1.39035 
 Bq                    2.4023    3.35124   0.99506 
 Bq                    2.32992   3.37581   1.48918 
 Bq                    2.41677   3.34633   0.89623 
 Bq                    2.31544   3.38072   1.588 
 Bq                    2.43125   3.34141   0.79741 
 Bq                    2.30096   3.38563   1.68683 
 Bq                    2.44572   3.3365    0.69858 
 Bq                    2.37334   3.36107   1.1927 
 Bq                    2.36243   3.86538   1.26722 
 Bq                    2.39138   3.85555   1.06957 
 Bq                    2.34795   3.87029   1.36605 
 Bq                    2.40586   3.85064   0.97075 
 Bq                    2.33348   3.8752    1.46487 
 Bq                    2.42033   3.84572   0.87192 
 Bq                    2.319     3.88012   1.5637 
 Bq                    2.43481   3.84081   0.7731 
 Bq                    2.30452   3.88503   1.66252 
 Bq                    2.44928   3.8359    0.67427 
 Bq                    2.3769    3.86046   1.1684 
 Bq                    2.36599   4.36477   1.24291 
 Bq                    2.39494   4.35495   1.04526 
 Bq                    2.35151   4.36969   1.34174 
 Bq                    2.40942   4.35003   0.94644 
 Bq                    2.33704   4.3746    1.44056 
 Bq                    2.42389   4.34512   0.84762 
 Bq                    2.32256   4.37951   1.53939 
 Bq                    2.43837   4.34021   0.74879 
 Bq                    2.30809   4.38443   1.63821 
 Bq                    2.45285   4.33529   0.64997 
 Bq                    2.38047   4.35986   1.14409 
 Bq                    2.8251   -0.62919   1.55846 
 Bq                    2.85406  -0.63902   1.36081 
 Bq                    2.81063  -0.62427   1.65729 
 Bq                    2.86853  -0.64393   1.26199 
 Bq                    2.79615  -0.61936   1.75611 
 Bq                    2.88301  -0.64884   1.16316 
 Bq                    2.78168  -0.61445   1.85493 
 Bq                    2.89748  -0.65376   1.06434 
 Bq                    2.7672   -0.60953   1.95376 
 Bq                    2.91196  -0.65867   0.96551 
 Bq                    2.83958  -0.6341    1.45964 
 Bq                    2.82866  -0.12979   1.53415 
 Bq                    2.85762  -0.13962   1.3365 
 Bq                    2.81419  -0.12488   1.63298 
 Bq                    2.87209  -0.14453   1.23768 
 Bq                    2.79971  -0.11997   1.7318 
 Bq                    2.88657  -0.14945   1.13885 
 Bq                    2.78524  -0.11505   1.83063 
 Bq                    2.90104  -0.15436   1.04003 
 Bq                    2.77076  -0.11014   1.92945 
 Bq                    2.91552  -0.15927   0.94121 
 Bq                    2.84314  -0.13471   1.43533 
 Bq                    2.83222   0.3696    1.50984 
 Bq                    2.86118   0.35978   1.3122 
 Bq                    2.81775   0.37452   1.60867 
 Bq                    2.87565   0.35486   1.21337 
 Bq                    2.80327   0.37943   1.70749 
 Bq                    2.89013   0.34995   1.11455 
 Bq                    2.7888    0.38434   1.80632 
 Bq                    2.9046    0.34504   1.01572 
 Bq                    2.77432   0.38926   1.90514 
 Bq                    2.91908   0.34012   0.9169 
 Bq                    2.8467    0.36469   1.41102 
 Bq                    2.83579   0.869     1.48554 
 Bq                    2.86474   0.85917   1.28789 
 Bq                    2.82131   0.87391   1.58436 
 Bq                    2.87921   0.85426   1.18906 
 Bq                    2.80683   0.87883   1.68319 
 Bq                    2.89369   0.84935   1.09024 
 Bq                    2.79236   0.88374   1.78201 
 Bq                    2.90817   0.84443   0.99141 
 Bq                    2.77788   0.88865   1.88084 
 Bq                    2.92264   0.83952   0.89259 
 Bq                    2.85026   0.86409   1.38671 
 Bq                    2.83935   1.3684    1.46123 
 Bq                    2.8683    1.35857   1.26358 
 Bq                    2.82487   1.37331   1.56005 
 Bq                    2.88277   1.35366   1.16476 
 Bq                    2.81039   1.37822   1.65888 
 Bq                    2.89725   1.34874   1.06593 
 Bq                    2.79592   1.38314   1.7577 
 Bq                    2.91173   1.34383   0.96711 
 Bq                    2.78144   1.38805   1.85653 
 Bq                    2.9262    1.33892   0.86828 
 Bq                    2.85382   1.36348   1.3624 
 Bq                    2.84291   1.86779   1.43692 
 Bq                    2.87186   1.85797   1.23927 
 Bq                    2.82843   1.87271   1.53575 
 Bq                    2.88633   1.85305   1.14045 
 Bq                    2.81395   1.87762   1.63457 
 Bq                    2.90081   1.84814   1.04162 
 Bq                    2.79948   1.88253   1.73339 
 Bq                    2.91529   1.84322   0.9428 
 Bq                    2.785     1.88745   1.83222 
 Bq                    2.92976   1.83831   0.84397 
 Bq                    2.85738   1.86288   1.3381 
 Bq                    2.84647   2.36719   1.41261 
 Bq                    2.87542   2.35736   1.21496 
 Bq                    2.83199   2.3721    1.51144 
 Bq                    2.8899    2.35245   1.11614 
 Bq                    2.81752   2.37702   1.61026 
 Bq                    2.90437   2.34753   1.01731 
 Bq                    2.80304   2.38193   1.70909 
 Bq                    2.91885   2.34262   0.91849 
 Bq                    2.78856   2.38684   1.80791 
 Bq                    2.93332   2.33771   0.81967 
 Bq                    2.86094   2.36227   1.31379 
 Bq                    2.85003   2.86658   1.3883 
 Bq                    2.87898   2.85676   1.19066 
 Bq                    2.83555   2.8715    1.48713 
 Bq                    2.89346   2.85184   1.09183 
 Bq                    2.82108   2.87641   1.58595 
 Bq                    2.90793   2.84693   0.99301 
 Bq                    2.8066    2.88132   1.68478 
 Bq                    2.92241   2.84202   0.89418 
 Bq                    2.79212   2.88624   1.7836 
 Bq                    2.93688   2.8371    0.79536 
 Bq                    2.8645    2.86167   1.28948 
 Bq                    2.85359   3.36598   1.364 
 Bq                    2.88254   3.35615   1.16635 
 Bq                    2.83911   3.37089   1.46282 
 Bq                    2.89702   3.35124   1.06752 
 Bq                    2.82464   3.37581   1.56165 
 Bq                    2.91149   3.34633   0.9687 
 Bq                    2.81016   3.38072   1.66047 
 Bq                    2.92597   3.34141   0.86987 
 Bq                    2.79568   3.38563   1.7593 
 Bq                    2.94044   3.3365    0.77105 
 Bq                    2.86806   3.36107   1.26517 
 Bq                    2.85715   3.86538   1.33969 
 Bq                    2.8861    3.85555   1.14204 
 Bq                    2.84267   3.87029   1.43851 
 Bq                    2.90058   3.85064   1.04321 
 Bq                    2.8282    3.8752    1.53734 
 Bq                    2.91505   3.84572   0.94439 
 Bq                    2.81372   3.88012   1.63616 
 Bq                    2.92953   3.84081   0.84557 
 Bq                    2.79925   3.88503   1.73499 
 Bq                    2.94401   3.8359    0.74674 
 Bq                    2.87163   3.86046   1.24086 
 
 Symmetry turned off:
 Cannot cope with ghost atoms or with translation vectors.
 Stoichiometry    C22H14
 Framework group  C1[X(C22H14)]
 NUMDOF-- NAT=    36 NAtoms=   236
 Deg. of freedom     0
 Full point group                 C1      NOp   1
                          Input orientation:                          
 ---------------------------------------------------------------------
 Center     Atomic      Atomic             Coordinates (Angstroms)
 Number     Number       Type             X           Y           Z
 ---------------------------------------------------------------------
      1          6           0       -4.050056   -0.577186    0.813671
      2          1           0       -5.026380   -1.008273    1.002476
      3          6           0       -3.938155    0.661780    0.240088
      4          1           0       -4.825242    1.233889   -0.011130
      5          6           0       -2.676841    1.243325    0.005758
      6          6           0       -1.497412    0.505153    0.284825
      7          6           0       -1.650833   -0.733873    0.940403
      8          1           0       -0.771365   -1.273097    1.263375
      9          6           0       -2.889855   -1.262404    1.199431
     10          1           0       -2.968371   -2.212456    1.715268
     11          6           0       -2.577319    2.596370   -0.419293
     12          1           0       -3.487073    3.141224   -0.647406
     13          6           0       -1.374190    3.214790   -0.436403
     14          1           0       -1.299732    4.274202   -0.657814
     15          6           0       -0.171949    2.499409   -0.173459
     16          6           0       -0.204392    1.101844    0.019269
     17          6           0        1.051349    3.204256   -0.067622
     18          1           0        1.042734    4.281950   -0.189700
     19          6           0        2.194209    2.548745    0.257958
     20          1           0        3.116853    3.091285    0.433473
     21          6           0        2.221647    1.133656    0.293499
     22          6           0        1.048693    0.394553    0.030241
     23          6           0        3.448336    0.461463    0.557394
     24          1           0        4.309579    1.060605    0.833485
     25          6           0        3.542735   -0.885593    0.474946
     26          1           0        4.473147   -1.393970    0.703882
     27          6           0        2.449005   -1.647445   -0.019632
     28          6           0        1.215070   -1.005726   -0.301357
     29          6           0        0.253111   -1.743444   -1.021659
     30          1           0       -0.654136   -1.253505   -1.346285
     31          6           0        0.449419   -3.062860   -1.341378
     32          1           0       -0.308316   -3.594431   -1.905406
     33          6           0        1.625173   -3.720797   -0.955254
     34          1           0        1.767005   -4.768740   -1.192702
     35          6           0        2.610987   -3.014418   -0.318305
     36          1           0        3.552561   -3.490281   -0.064637
     37          0           0        2.424360    0.340123    0.844430
     38          0           0        2.351980    0.364690    1.338553
     39          0           0        2.341065    0.869000    1.413070
     40          0           0        2.370017    0.859173    1.215420
     41          0           0        2.326589    0.873913    1.511894
     42          0           0        2.384493    0.854259    1.116596
     43          0           0        2.312113    0.878827    1.610719
     44          0           0        2.398969    0.849346    1.017771
     45          0           0        2.297637    0.883740    1.709544
     46          0           0        2.413444    0.844432    0.918947
     47          0           0        2.283161    0.888654    1.808368
     48          0           0        2.427920    0.839519    0.820122
     49          0           0        2.355541    0.864086    1.314245
     50          0           0        2.344625    1.368396    1.388762
     51          0           0        2.373577    1.358569    1.191112
     52          0           0        2.330149    1.373309    1.487586
     53          0           0        2.388053    1.353656    1.092288
     54          0           0        2.315673    1.378223    1.586411
     55          0           0        2.402529    1.348742    0.993463
     56          0           0        2.301198    1.383136    1.685235
     57          0           0        2.417005    1.343829    0.894639
     58          0           0        2.286722    1.388050    1.784060
     59          0           0        2.431481    1.338915    0.795814
     60          0           0        2.359101    1.363482    1.289937
     61          0           0        2.348186    1.867792    1.364454
     62          0           0        2.377138    1.857965    1.166804
     63          0           0        2.333710    1.872706    1.463278
     64          0           0        2.391614    1.853052    1.067980
     65          0           0        2.319234    1.877619    1.562103
     66          0           0        2.406090    1.848138    0.969155
     67          0           0        2.304758    1.882533    1.660927
     68          0           0        2.420566    1.843225    0.870331
     69          0           0        2.290282    1.887446    1.759752
     70          0           0        2.435042    1.838311    0.771506
     71          0           0        2.362662    1.862879    1.265629
     72          0           0        2.351747    2.367188    1.340146
     73          0           0        2.380699    2.357361    1.142496
     74          0           0        2.337271    2.372102    1.438970
     75          0           0        2.395175    2.352448    1.043672
     76          0           0        2.322795    2.377015    1.537795
     77          0           0        2.409651    2.347534    0.944847
     78          0           0        2.308319    2.381929    1.636619
     79          0           0        2.424126    2.342621    0.846023
     80          0           0        2.293843    2.386842    1.735444
     81          0           0        2.438602    2.337707    0.747198
     82          0           0        2.366223    2.362275    1.241321
     83          0           0        2.355307    2.866584    1.315838
     84          0           0        2.384259    2.856757    1.118188
     85          0           0        2.340831    2.871498    1.414662
     86          0           0        2.398735    2.851844    1.019364
     87          0           0        2.326355    2.876411    1.513487
     88          0           0        2.413211    2.846930    0.920539
     89          0           0        2.311880    2.881325    1.612311
     90          0           0        2.427687    2.842017    0.821714
     91          0           0        2.297404    2.886238    1.711136
     92          0           0        2.442163    2.837103    0.722890
     93          0           0        2.369783    2.861671    1.217013
     94          0           0        2.358868    3.365980    1.291530
     95          0           0        2.387820    3.356153    1.093880
     96          0           0        2.344392    3.370894    1.390354
     97          0           0        2.402296    3.351240    0.995056
     98          0           0        2.329916    3.375807    1.489179
     99          0           0        2.416772    3.346326    0.896231
    100          0           0        2.315440    3.380721    1.588003
    101          0           0        2.431248    3.341413    0.797406
    102          0           0        2.300964    3.385634    1.686828
    103          0           0        2.445724    3.336499    0.698582
    104          0           0        2.373344    3.361067    1.192705
    105          0           0        2.362429    3.865376    1.267222
    106          0           0        2.391381    3.855549    1.069572
    107          0           0        2.347953    3.870290    1.366046
    108          0           0        2.405857    3.850636    0.970748
    109          0           0        2.333477    3.875203    1.464871
    110          0           0        2.420333    3.845722    0.871923
    111          0           0        2.319001    3.880117    1.563695
    112          0           0        2.434809    3.840809    0.773098
    113          0           0        2.304525    3.885030    1.662520
    114          0           0        2.449284    3.835895    0.674274
    115          0           0        2.376905    3.860463    1.168397
    116          0           0        2.365989    4.364772    1.242913
    117          0           0        2.394941    4.354945    1.045264
    118          0           0        2.351513    4.369686    1.341738
    119          0           0        2.409417    4.350032    0.946440
    120          0           0        2.337038    4.374599    1.440563
    121          0           0        2.423893    4.345118    0.847615
    122          0           0        2.322562    4.379513    1.539387
    123          0           0        2.438369    4.340205    0.748790
    124          0           0        2.308086    4.384426    1.638212
    125          0           0        2.452845    4.335292    0.649966
    126          0           0        2.380465    4.359859    1.144089
    127          0           0        2.825103   -0.629188    1.558461
    128          0           0        2.854055   -0.639015    1.360812
    129          0           0        2.810627   -0.624275    1.657286
    130          0           0        2.868531   -0.643929    1.261987
    131          0           0        2.796151   -0.619361    1.756110
    132          0           0        2.883007   -0.648842    1.163163
    133          0           0        2.781675   -0.614448    1.854935
    134          0           0        2.897483   -0.653756    1.064338
    135          0           0        2.767200   -0.609534    1.953759
    136          0           0        2.911959   -0.658669    0.965513
    137          0           0        2.839579   -0.634102    1.459636
    138          0           0        2.828664   -0.129792    1.534153
    139          0           0        2.857616   -0.139619    1.336504
    140          0           0        2.814188   -0.124879    1.632978
    141          0           0        2.872092   -0.144533    1.237679
    142          0           0        2.799712   -0.119965    1.731802
    143          0           0        2.886568   -0.149446    1.138855
    144          0           0        2.785236   -0.115052    1.830627
    145          0           0        2.901044   -0.154360    1.040030
    146          0           0        2.770760   -0.110138    1.929451
    147          0           0        2.915520   -0.159273    0.941205
    148          0           0        2.843140   -0.134706    1.435328
    149          0           0        2.832225    0.369604    1.509845
    150          0           0        2.861177    0.359777    1.312196
    151          0           0        2.817749    0.374517    1.608670
    152          0           0        2.875653    0.354863    1.213371
    153          0           0        2.803273    0.379431    1.707494
    154          0           0        2.890128    0.349950    1.114547
    155          0           0        2.788797    0.384344    1.806319
    156          0           0        2.904604    0.345036    1.015722
    157          0           0        2.774321    0.389258    1.905143
    158          0           0        2.919080    0.340123    0.916897
    159          0           0        2.846701    0.364690    1.411020
    160          0           0        2.835785    0.869000    1.485537
    161          0           0        2.864737    0.859173    1.287888
    162          0           0        2.821309    0.873913    1.584362
    163          0           0        2.879213    0.854259    1.189063
    164          0           0        2.806833    0.878827    1.683186
    165          0           0        2.893689    0.849346    1.090238
    166          0           0        2.792357    0.883740    1.782011
    167          0           0        2.908165    0.844432    0.991414
    168          0           0        2.777882    0.888654    1.880835
    169          0           0        2.922641    0.839519    0.892589
    170          0           0        2.850261    0.864086    1.386712
    171          0           0        2.839346    1.368396    1.461229
    172          0           0        2.868298    1.358569    1.263580
    173          0           0        2.824870    1.373309    1.560054
    174          0           0        2.882774    1.353656    1.164755
    175          0           0        2.810394    1.378223    1.658878
    176          0           0        2.897250    1.348742    1.065930
    177          0           0        2.795918    1.383136    1.757703
    178          0           0        2.911726    1.343829    0.967106
    179          0           0        2.781442    1.388050    1.856527
    180          0           0        2.926202    1.338915    0.868281
    181          0           0        2.853822    1.363482    1.362404
    182          0           0        2.842907    1.867792    1.436921
    183          0           0        2.871859    1.857965    1.239272
    184          0           0        2.828431    1.872706    1.535746
    185          0           0        2.886335    1.853052    1.140447
    186          0           0        2.813955    1.877619    1.634570
    187          0           0        2.900810    1.848138    1.041622
    188          0           0        2.799479    1.882533    1.733395
    189          0           0        2.915286    1.843225    0.942798
    190          0           0        2.785003    1.887446    1.832219
    191          0           0        2.929762    1.838311    0.843973
    192          0           0        2.857383    1.862879    1.338096
    193          0           0        2.846467    2.367188    1.412613
    194          0           0        2.875419    2.357361    1.214964
    195          0           0        2.831991    2.372102    1.511437
    196          0           0        2.889895    2.352448    1.116139
    197          0           0        2.817515    2.377015    1.610262
    198          0           0        2.904371    2.347534    1.017314
    199          0           0        2.803039    2.381929    1.709087
    200          0           0        2.918847    2.342621    0.918490
    201          0           0        2.788564    2.386842    1.807911
    202          0           0        2.933323    2.337707    0.819665
    203          0           0        2.860943    2.362275    1.313788
    204          0           0        2.850028    2.866584    1.388305
    205          0           0        2.878980    2.856757    1.190656
    206          0           0        2.835552    2.871498    1.487129
    207          0           0        2.893456    2.851844    1.091831
    208          0           0        2.821076    2.876411    1.585954
    209          0           0        2.907932    2.846930    0.993006
    210          0           0        2.806600    2.881325    1.684779
    211          0           0        2.922408    2.842017    0.894182
    212          0           0        2.792124    2.886238    1.783603
    213          0           0        2.936884    2.837103    0.795357
    214          0           0        2.864504    2.861671    1.289480
    215          0           0        2.853589    3.365980    1.363997
    216          0           0        2.882541    3.356153    1.166348
    217          0           0        2.839113    3.370894    1.462821
    218          0           0        2.897017    3.351240    1.067523
    219          0           0        2.824637    3.375807    1.561646
    220          0           0        2.911492    3.346326    0.968698
    221          0           0        2.810161    3.380721    1.660471
    222          0           0        2.925968    3.341413    0.869874
    223          0           0        2.795685    3.385634    1.759295
    224          0           0        2.940444    3.336499    0.771049
    225          0           0        2.868065    3.361067    1.265172
    226          0           0        2.857149    3.865376    1.339689
    227          0           0        2.886101    3.855549    1.142040
    228          0           0        2.842673    3.870290    1.438513
    229          0           0        2.900577    3.850636    1.043215
    230          0           0        2.828197    3.875203    1.537338
    231          0           0        2.915053    3.845722    0.944390
    232          0           0        2.813721    3.880117    1.636163
    233          0           0        2.929529    3.840809    0.845566
    234          0           0        2.799246    3.885030    1.734987
    235          0           0        2.944005    3.835895    0.746741
    236          0           0        2.871625    3.860463    1.240864
 ---------------------------------------------------------------------
 Rotational constants (GHZ):      0.4529074      0.2836956      0.1879557
 Standard basis: 6-311+G(d,p) (5D, 7F)
 Warning:  center  37 has no basis functions!
 Warning:  center  38 has no basis functions!
 Warning:  center  39 has no basis functions!
 Warning:  center  40 has no basis functions!
 Warning:  center  41 has no basis functions!
 Warning:  center  42 has no basis functions!
 Warning:  center  43 has no basis functions!
 Warning:  center  44 has no basis functions!
 Warning:  center  45 has no basis functions!
 Warning:  center  46 has no basis functions!
 Warning:  center  47 has no basis functions!
 Warning:  center  48 has no basis functions!
 Warning:  center  49 has no basis functions!
 Warning:  center  50 has no basis functions!
 Warning:  center  51 has no basis functions!
 Warning:  center  52 has no basis functions!
 Warning:  center  53 has no basis functions!
 Warning:  center  54 has no basis functions!
 Warning:  center  55 has no basis functions!
 Warning:  center  56 has no basis functions!
 Warning:  center  57 has no basis functions!
 Warning:  center  58 has no basis functions!
 Warning:  center  59 has no basis functions!
 Warning:  center  60 has no basis functions!
 Warning:  center  61 has no basis functions!
 Warning:  center  62 has no basis functions!
 Warning:  center  63 has no basis functions!
 Warning:  center  64 has no basis functions!
 Warning:  center  65 has no basis functions!
 Warning:  center  66 has no basis functions!
 Warning:  center  67 has no basis functions!
 Warning:  center  68 has no basis functions!
 Warning:  center  69 has no basis functions!
 Warning:  center  70 has no basis functions!
 Warning:  center  71 has no basis functions!
 Warning:  center  72 has no basis functions!
 Warning:  center  73 has no basis functions!
 Warning:  center  74 has no basis functions!
 Warning:  center  75 has no basis functions!
 Warning:  center  76 has no basis functions!
 Warning:  center  77 has no basis functions!
 Warning:  center  78 has no basis functions!
 Warning:  center  79 has no basis functions!
 Warning:  center  80 has no basis functions!
 Warning:  center  81 has no basis functions!
 Warning:  center  82 has no basis functions!
 Warning:  center  83 has no basis functions!
 Warning:  center  84 has no basis functions!
 Warning:  center  85 has no basis functions!
 Warning:  center  86 has no basis functions!
 Warning:  center  87 has no basis functions!
 Warning:  center  88 has no basis functions!
 Warning:  center  89 has no basis functions!
 Warning:  center  90 has no basis functions!
 Warning:  center  91 has no basis functions!
 Warning:  center  92 has no basis functions!
 Warning:  center  93 has no basis functions!
 Warning:  center  94 has no basis functions!
 Warning:  center  95 has no basis functions!
 Warning:  center  96 has no basis functions!
 Warning:  center  97 has no basis functions!
 Warning:  center  98 has no basis functions!
 Warning:  center  99 has no basis functions!
 Warning:  center 100 has no basis functions!
 Warning:  center 101 has no basis functions!
 Warning:  center 102 has no basis functions!
 Warning:  center 103 has no basis functions!
 Warning:  center 104 has no basis functions!
 Warning:  center 105 has no basis functions!
 Warning:  center 106 has no basis functions!
 Warning:  center 107 has no basis functions!
 Warning:  center 108 has no basis functions!
 Warning:  center 109 has no basis functions!
 Warning:  center 110 has no basis functions!
 Warning:  center 111 has no basis functions!
 Warning:  center 112 has no basis functions!
 Warning:  center 113 has no basis functions!
 Warning:  center 114 has no basis functions!
 Warning:  center 115 has no basis functions!
 Warning:  center 116 has no basis functions!
 Warning:  center 117 has no basis functions!
 Warning:  center 118 has no basis functions!
 Warning:  center 119 has no basis functions!
 Warning:  center 120 has no basis functions!
 Warning:  center 121 has no basis functions!
 Warning:  center 122 has no basis functions!
 Warning:  center 123 has no basis functions!
 Warning:  center 124 has no basis functions!
 Warning:  center 125 has no basis functions!
 Warning:  center 126 has no basis functions!
 Warning:  center 127 has no basis functions!
 Warning:  center 128 has no basis functions!
 Warning:  center 129 has no basis functions!
 Warning:  center 130 has no basis functions!
 Warning:  center 131 has no basis functions!
 Warning:  center 132 has no basis functions!
 Warning:  center 133 has no basis functions!
 Warning:  center 134 has no basis functions!
 Warning:  center 135 has no basis functions!
 Warning:  center 136 has no basis functions!
 Warning:  center 137 has no basis functions!
 Warning:  center 138 has no basis functions!
 Warning:  center 139 has no basis functions!
 Warning:  center 140 has no basis functions!
 Warning:  center 141 has no basis functions!
 Warning:  center 142 has no basis functions!
 Warning:  center 143 has no basis functions!
 Warning:  center 144 has no basis functions!
 Warning:  center 145 has no basis functions!
 Warning:  center 146 has no basis functions!
 Warning:  center 147 has no basis functions!
 Warning:  center 148 has no basis functions!
 Warning:  center 149 has no basis functions!
 Warning:  center 150 has no basis functions!
 Warning:  center 151 has no basis functions!
 Warning:  center 152 has no basis functions!
 Warning:  center 153 has no basis functions!
 Warning:  center 154 has no basis functions!
 Warning:  center 155 has no basis functions!
 Warning:  center 156 has no basis functions!
 Warning:  center 157 has no basis functions!
 Warning:  center 158 has no basis functions!
 Warning:  center 159 has no basis functions!
 Warning:  center 160 has no basis functions!
 Warning:  center 161 has no basis functions!
 Warning:  center 162 has no basis functions!
 Warning:  center 163 has no basis functions!
 Warning:  center 164 has no basis functions!
 Warning:  center 165 has no basis functions!
 Warning:  center 166 has no basis functions!
 Warning:  center 167 has no basis functions!
 Warning:  center 168 has no basis functions!
 Warning:  center 169 has no basis functions!
 Warning:  center 170 has no basis functions!
 Warning:  center 171 has no basis functions!
 Warning:  center 172 has no basis functions!
 Warning:  center 173 has no basis functions!
 Warning:  center 174 has no basis functions!
 Warning:  center 175 has no basis functions!
 Warning:  center 176 has no basis functions!
 Warning:  center 177 has no basis functions!
 Warning:  center 178 has no basis functions!
 Warning:  center 179 has no basis functions!
 Warning:  center 180 has no basis functions!
 Warning:  center 181 has no basis functions!
 Warning:  center 182 has no basis functions!
 Warning:  center 183 has no basis functions!
 Warning:  center 184 has no basis functions!
 Warning:  center 185 has no basis functions!
 Warning:  center 186 has no basis functions!
 Warning:  center 187 has no basis functions!
 Warning:  center 188 has no basis functions!
 Warning:  center 189 has no basis functions!
 Warning:  center 190 has no basis functions!
 Warning:  center 191 has no basis functions!
 Warning:  center 192 has no basis functions!
 Warning:  center 193 has no basis functions!
 Warning:  center 194 has no basis functions!
 Warning:  center 195 has no basis functions!
 Warning:  center 196 has no basis functions!
 Warning:  center 197 has no basis functions!
 Warning:  center 198 has no basis functions!
 Warning:  center 199 has no basis functions!
 Warning:  center 200 has no basis functions!
 Warning:  center 201 has no basis functions!
 Warning:  center 202 has no basis functions!
 Warning:  center 203 has no basis functions!
 Warning:  center 204 has no basis functions!
 Warning:  center 205 has no basis functions!
 Warning:  center 206 has no basis functions!
 Warning:  center 207 has no basis functions!
 Warning:  center 208 has no basis functions!
 Warning:  center 209 has no basis functions!
 Warning:  center 210 has no basis functions!
 Warning:  center 211 has no basis functions!
 Warning:  center 212 has no basis functions!
 Warning:  center 213 has no basis functions!
 Warning:  center 214 has no basis functions!
 Warning:  center 215 has no basis functions!
 Warning:  center 216 has no basis functions!
 Warning:  center 217 has no basis functions!
 Warning:  center 218 has no basis functions!
 Warning:  center 219 has no basis functions!
 Warning:  center 220 has no basis functions!
 Warning:  center 221 has no basis functions!
 Warning:  center 222 has no basis functions!
 Warning:  center 223 has no basis functions!
 Warning:  center 224 has no basis functions!
 Warning:  center 225 has no basis functions!
 Warning:  center 226 has no basis functions!
 Warning:  center 227 has no basis functions!
 Warning:  center 228 has no basis functions!
 Warning:  center 229 has no basis functions!
 Warning:  center 230 has no basis functions!
 Warning:  center 231 has no basis functions!
 Warning:  center 232 has no basis functions!
 Warning:  center 233 has no basis functions!
 Warning:  center 234 has no basis functions!
 Warning:  center 235 has no basis functions!
 Warning:  center 236 has no basis functions!
   568 basis functions,   904 primitive gaussians,   590 cartesian basis functions
    73 alpha electrons       73 beta electrons
       nuclear repulsion energy      1610.9176155625 Hartrees.
 NAtoms=  236 NActive=  236 NUniq=  236 SFac= 1.00D+00 NAtFMM=   60 NAOKFM=T Big=T
 Integral buffers will be    131072 words long.
 Raffenetti 2 integral format.
 Two-electron integral symmetry is turned off.
 One-electron integrals computed using PRISM.
 NBasis=   568 RedAO= T EigKep=  1.78D-06  NBF=   568
 NBsUse=   556 1.00D-06 EigRej=  9.09D-07 NBFU=   556
 ExpMin= 4.38D-02 ExpMax= 4.56D+03 ExpMxC= 6.82D+02 IAcc=2 IRadAn=         4 AccDes= 0.00D+00
 Harris functional with IExCor=  402 and IRadAn=       4 diagonalized for initial guess.
 HarFok:  IExCor=  402 AccDes= 0.00D+00 IRadAn=         4 IDoV= 1 UseB2=F ITyADJ=14
 ICtDFT=  3500011 ScaDFX=  1.000000  1.000000  1.000000  1.000000
 FoFCou: FMM=F IPFlag=           0 FMFlag=      100000 FMFlg1=        2001
         NFxFlg=           0 DoJE=T BraDBF=F KetDBF=T FulRan=T
         wScrn=  0.000000 ICntrl=     500 IOpCl=  0 I1Cent=   200000004 NGrid=           0
         NMat0=    1 NMatS0=      1 NMatT0=    0 NMatD0=    1 NMtDS0=    0 NMtDT0=    0
 Symmetry not used in FoFCou.
 Requested convergence on RMS density matrix=1.00D-08 within 128 cycles.
 Requested convergence on MAX density matrix=1.00D-06.
 Requested convergence on             energy=1.00D-06.
 No special actions if energy rises.
 SCF Done:  E(RB3LYP) =  -847.003289847     A.U. after   15 cycles
            NFock= 15  Conv=0.75D-08     -V/T= 2.0040
 DoSCS=F DFT=T ScalE2(SS,OS)=  1.000000  1.000000
 Range of M.O.s used for correlation:     1   556
 NBasis=   568 NAE=    73 NBE=    73 NFC=     0 NFV=     0
 NROrb=    556 NOA=    73 NOB=    73 NVA=   483 NVB=   483

 **** Warning!!: The largest alpha MO coefficient is  0.10971036D+03

          Differentiating once with respect to magnetic field using GIAOs.
          Electric field/nuclear overlap derivatives assumed to be zero.
 FoFCou: FMM=F IPFlag=           0 FMFlag=      100000 FMFlg1=        2001
         NFxFlg=           0 DoJE=F BraDBF=F KetDBF=T FulRan=T
         wScrn=  0.000000 ICntrl=    6100 IOpCl=  0 I1Cent=           7 NGrid=         236
         NMat0=    1 NMatS0=      1 NMatT0=    0 NMatD0=    1 NMtDS0=    0 NMtDT0=    0
 Symmetry not used in FoFCou.
 FoFJK:  IHMeth= 1 ICntrl=    6127 DoSepK=F KAlg= 0 I1Cent=   0 FoldK=F
 IRaf=         1 NMat=   1 IRICut=       1 DoRegI=T DoRafI=F ISym2E= 0.
          There are     3 degrees of freedom in the 1st order CPHF.  IDoFFX=0 NUNeed=     3.
      3 vectors produced by pass  0 Test12= 1.18D-12 3.33D-08 XBig12= 2.07D+03 9.18D+00.
 AX will form     3 AO Fock derivatives at one time.
      3 vectors produced by pass  1 Test12= 1.18D-12 3.33D-08 XBig12= 3.56D+00 8.03D-01.
      3 vectors produced by pass  2 Test12= 1.18D-12 3.33D-08 XBig12= 2.10D-02 6.92D-02.
      3 vectors produced by pass  3 Test12= 1.18D-12 3.33D-08 XBig12= 5.45D-05 1.89D-03.
      3 vectors produced by pass  4 Test12= 1.18D-12 3.33D-08 XBig12= 1.20D-07 7.79D-05.
      3 vectors produced by pass  5 Test12= 1.18D-12 3.33D-08 XBig12= 4.02D-10 4.73D-06.
      3 vectors produced by pass  6 Test12= 1.18D-12 3.33D-08 XBig12= 1.32D-12 2.61D-07.
 InvSVY:  IOpt=1 It=  1 EMax= 1.42D-14
 Solved reduced A of dimension    21 with     3 vectors.
 Calculating GIAO nuclear magnetic shielding tensors.
 SCF GIAO Magnetic shielding tensor (ppm):
      1  C    Isotropic =    53.8139   Anisotropy =   178.0260
   XX=   -41.4327   YX=   -32.3458   ZX=    10.0287
   XY=   -28.3572   YY=    59.0527   ZY=    55.1899
   XZ=    13.1759   YZ=    58.7550   ZZ=   143.8218
   Eigenvalues:   -53.8775    42.8214   172.4979
      2  H    Isotropic =    24.3095   Anisotropy =     4.8536
   XX=    25.5771   YX=    -1.0289   ZX=     0.5661
   XY=    -0.7431   YY=    26.1829   ZY=    -2.3306
   XZ=    -0.1707   YZ=    -2.4411   ZZ=    21.1687
   Eigenvalues:    20.2108    25.1725    27.5453
      3  C    Isotropic =    51.4055   Anisotropy =   157.8639
   XX=   -31.5399   YX=    38.5015   ZX=   -17.9316
   XY=    34.3519   YY=    49.9437   ZY=    49.6392
   XZ=    -9.8383   YZ=    44.6006   ZZ=   135.8127
   Eigenvalues:   -50.5747    48.1432   156.6481
      4  H    Isotropic =    23.8290   Anisotropy =     7.1838
   XX=    25.3635   YX=     1.8486   ZX=    -0.3559
   XY=     1.9656   YY=    26.4581   ZY=    -2.4103
   XZ=    -1.2941   YZ=    -2.6614   ZZ=    19.6654
   Eigenvalues:    18.8176    24.0511    28.6182
      5  C    Isotropic =    46.0697   Anisotropy =   207.6751
   XX=   -19.2123   YX=    -4.8852   ZX=    -1.6475
   XY=     2.8938   YY=    -2.9860   ZY=    66.5656
   XZ=     2.5356   YZ=    67.9144   ZZ=   160.4073
   Eigenvalues:   -27.2455   -19.0652   184.5197
      6  C    Isotropic =    47.5218   Anisotropy =   196.9389
   XX=   -28.1552   YX=    -2.7889   ZX=    12.0660
   XY=   -14.3886   YY=    21.2063   ZY=    74.2521
   XZ=   -18.6356   YZ=    61.1113   ZZ=   149.5144
   Eigenvalues:   -30.2925    -5.9564   178.8144
      7  C    Isotropic =    49.3915   Anisotropy =   179.8333
   XX=   -12.5211   YX=    28.7048   ZX=   -24.6745
   XY=    31.5123   YY=    29.7000   ZY=    77.7459
   XZ=   -40.0095   YZ=    65.3072   ZZ=   130.9956
   Eigenvalues:   -52.1299    31.0240   169.2804
      8  H    Isotropic =    23.1586   Anisotropy =    13.5525
   XX=    28.5711   YX=     1.5482   ZX=    -3.6986
   XY=     3.2466   YY=    22.7592   ZY=    -2.1157
   XZ=    -8.3753   YZ=    -1.0821   ZZ=    18.1456
   Eigenvalues:    15.3521    21.9301    32.1936
      9  C    Isotropic =    55.1460   Anisotropy =   174.7426
   XX=    46.7071   YX=    -2.6162   ZX=    -2.8420
   XY=     0.6223   YY=    -1.6258   ZY=    92.8272
   XZ=     0.5159   YZ=    95.6598   ZZ=   120.3568
   Eigenvalues:   -52.8932    46.6901   171.6411
     10  H    Isotropic =    24.6278   Anisotropy =     7.1815
   XX=    29.1040   YX=     0.1399   ZX=    -0.3694
   XY=     0.3642   YY=    23.4778   ZY=    -1.0805
   XZ=    -2.4493   YZ=    -2.9465   ZZ=    21.3016
   Eigenvalues:    19.9703    24.4977    29.4155
     11  C    Isotropic =    51.5607   Anisotropy =   151.2142
   XX=     2.1639   YX=    40.9287   ZX=   -26.0048
   XY=    49.9131   YY=    12.2331   ZY=    42.1342
   XZ=   -15.6145   YZ=    38.6614   ZZ=   140.2851
   Eigenvalues:   -48.1951    50.5071   152.3701
     12  H    Isotropic =    23.8537   Anisotropy =     7.3815
   XX=    25.9672   YX=     2.3738   ZX=    -0.2390
   XY=     2.4320   YY=    26.3975   ZY=    -1.8291
   XZ=     0.3529   YZ=    -1.7731   ZZ=    19.1964
   Eigenvalues:    18.7149    24.0714    28.7747
     13  C    Isotropic =    52.8653   Anisotropy =   147.4265
   XX=    51.2944   YX=    19.9221   ZX=   -13.4678
   XY=    11.5478   YY=   -34.0176   ZY=    42.5079
   XZ=    -9.2241   YZ=    40.0716   ZZ=   141.3192
   Eigenvalues:   -46.5152    53.9616   151.1497
     14  H    Isotropic =    24.0156   Anisotropy =     7.3485
   XX=    28.6644   YX=     0.6281   ZX=     1.0808
   XY=     0.5926   YY=    24.4325   ZY=    -1.0823
   XZ=     1.6846   YZ=    -0.3842   ZZ=    18.9500
   Eigenvalues:    18.6430    24.4892    28.9146
     15  C    Isotropic =    46.2221   Anisotropy =   203.9048
   XX=   -27.2215   YX=    -0.0442   ZX=   -28.9124
   XY=     4.6427   YY=   -10.5571   ZY=    28.3830
   XZ=   -10.2704   YZ=    26.7376   ZZ=   176.4448
   Eigenvalues:   -30.5512   -12.9411   182.1586
     16  C    Isotropic =    51.9375   Anisotropy =   188.2004
   XX=   -19.4441   YX=     5.5046   ZX=    15.7858
   XY=    -8.3874   YY=     2.4863   ZY=    22.9264
   XZ=   -50.6243   YZ=    23.3340   ZZ=   172.7704
   Eigenvalues:   -21.0294    -0.5625   177.4045
     17  C    Isotropic =    51.9482   Anisotropy =   149.1264
   XX=    50.7296   YX=   -23.9353   ZX=   -18.4207
   XY=   -16.7271   YY=   -41.8764   ZY=    17.8662
   XZ=   -14.3278   YZ=    11.4871   ZZ=   146.9915
   Eigenvalues:   -46.7796    51.2584   151.3658
     18  H    Isotropic =    24.0122   Anisotropy =     7.5163
   XX=    28.5811   YX=    -0.0866   ZX=     1.5071
   XY=    -0.2466   YY=    24.3342   ZY=    -0.7657
   XZ=     2.5088   YZ=    -1.5208   ZZ=    19.1214
   Eigenvalues:    18.5094    24.5041    29.0231
     19  C    Isotropic =    51.7356   Anisotropy =   148.5924
   XX=     2.4559   YX=   -45.6913   ZX=   -31.2531
   XY=   -53.4448   YY=     7.4698   ZY=    -1.8888
   XZ=   -23.5601   YZ=    -1.2765   ZZ=   145.2810
   Eigenvalues:   -46.9894    51.3989   150.7972
     20  H    Isotropic =    23.9071   Anisotropy =     7.6651
   XX=    25.5796   YX=    -2.0226   ZX=     1.4905
   XY=    -1.9998   YY=    27.3706   ZY=    -0.5164
   XZ=     2.7276   YZ=    -1.1179   ZZ=    18.7711
   Eigenvalues:    18.1643    24.5398    29.0172
     21  C    Isotropic =    45.9767   Anisotropy =   203.9316
   XX=   -16.2108   YX=    13.1802   ZX=   -44.5913
   XY=     6.5714   YY=   -20.6329   ZY=     0.0949
   XZ=   -28.8984   YZ=   -13.0883   ZZ=   174.7736
   Eigenvalues:   -30.5796   -13.4215   181.9311
     22  C    Isotropic =    52.0450   Anisotropy =   188.1157
   XX=    -0.0787   YX=     2.5023   ZX=   -16.3451
   XY=    18.9327   YY=   -14.4798   ZY=   -34.4335
   XZ=   -50.6032   YZ=    19.9104   ZZ=   170.6934
   Eigenvalues:   -20.7705    -0.5500   177.4554
     23  C    Isotropic =    53.2392   Anisotropy =   146.7412
   XX=   -22.0674   YX=   -32.0012   ZX=   -49.4857
   XY=   -23.2043   YY=    44.3661   ZY=   -15.6400
   XZ=   -43.8090   YZ=   -20.2525   ZZ=   137.4189
   Eigenvalues:   -45.6776    54.3286   151.0667
     24  H    Isotropic =    23.8249   Anisotropy =     7.5289
   XX=    25.1073   YX=    -1.7330   ZX=     1.5380
   XY=    -1.5944   YY=    28.0047   ZY=     0.0879
   XZ=     1.2557   YZ=    -0.8283   ZZ=    18.3628
   Eigenvalues:    18.0848    24.5458    28.8442
     25  C    Isotropic =    51.4969   Anisotropy =   150.1066
   XX=   -28.4915   YX=    33.9684   ZX=   -52.3137
   XY=    22.0311   YY=    46.6072   ZY=    -3.8075
   XZ=   -44.5594   YZ=   -10.6355   ZZ=   136.3748
   Eigenvalues:   -48.3857    51.3083   151.5679
     26  H    Isotropic =    23.7431   Anisotropy =     7.4052
   XX=    24.0663   YX=     1.1141   ZX=     1.9989
   XY=     0.9693   YY=    28.1000   ZY=     1.6568
   XZ=     2.0795   YZ=     0.8886   ZZ=    19.0630
   Eigenvalues:    18.2615    24.2880    28.6799
     27  C    Isotropic =    45.8108   Anisotropy =   207.2710
   XX=    -2.7702   YX=    13.7697   ZX=   -61.4651
   XY=     6.5593   YY=   -12.0335   ZY=   -41.6456
   XZ=   -62.6381   YZ=   -44.9232   ZZ=   152.2361
   Eigenvalues:   -28.0803   -18.4787   183.9915
     28  C    Isotropic =    47.8398   Anisotropy =   197.2870
   XX=    19.6900   YX=    14.4398   ZX=   -60.5682
   XY=    28.5650   YY=   -19.3566   ZY=   -56.7015
   XZ=   -63.1331   YZ=   -24.4782   ZZ=   143.1859
   Eigenvalues:   -30.5979    -5.2472   179.3644
     29  C    Isotropic =    49.3441   Anisotropy =   179.7793
   XX=    -3.4110   YX=    38.3775   ZX=   -80.8875
   XY=    36.1252   YY=    25.9805   ZY=   -23.7573
   XZ=   -78.1065   YZ=    -3.9802   ZZ=   125.4627
   Eigenvalues:   -51.6645    30.4997   169.1970
     30  H    Isotropic =    23.1387   Anisotropy =    13.3222
   XX=    22.4354   YX=    -0.7013   ZX=    -0.2375
   XY=    -2.1539   YY=    28.3546   ZY=     4.5555
   XZ=    -3.4181   YZ=     8.3231   ZZ=    18.6259
   Eigenvalues:    15.2751    22.1208    32.0201
     31  C    Isotropic =    55.4410   Anisotropy =   174.9390
   XX=    17.1871   YX=   -14.0890   ZX=   -84.0024
   XY=   -17.9030   YY=    37.4745   ZY=   -50.3662
   XZ=   -84.6557   YZ=   -54.8325   ZZ=   111.6615
   Eigenvalues:   -51.9248    46.1808   172.0670
     32  H    Isotropic =    24.5337   Anisotropy =     7.2554
   XX=    24.6185   YX=    -2.5264   ZX=     0.7632
   XY=    -2.7385   YY=    27.4630   ZY=     1.0335
   XZ=     1.1913   YZ=     3.7573   ZZ=    21.5194
   Eigenvalues:    19.8987    24.3316    29.3706
     33  C    Isotropic =    53.1814   Anisotropy =   179.0596
   XX=    60.9231   YX=    35.2256   ZX=   -42.9515
   XY=    32.0226   YY=   -38.1801   ZY=   -45.5652
   XZ=   -44.2248   YZ=   -50.7831   ZZ=   136.8014
   Eigenvalues:   -55.1197    42.1095   172.5545
     34  H    Isotropic =    24.2825   Anisotropy =     5.1861
   XX=    26.7643   YX=    -0.0934   ZX=     2.5955
   XY=    -0.2993   YY=    24.8157   ZY=     0.8589
   XZ=     2.3715   YZ=     1.4580   ZZ=    21.2676
   Eigenvalues:    20.0339    25.0737    27.7399
     35  C    Isotropic =    51.5295   Anisotropy =   155.1748
   XX=    -0.5131   YX=    52.5760   ZX=   -52.1551
   XY=    55.6135   YY=    25.1843   ZY=   -14.2643
   XZ=   -45.7255   YZ=   -17.1625   ZZ=   129.9171
   Eigenvalues:   -48.3147    47.9237   154.9793
     36  H    Isotropic =    23.8384   Anisotropy =     7.3073
   XX=    24.2302   YX=     1.4459   ZX=     2.1759
   XY=     1.2147   YY=    27.1572   ZY=     2.0665
   XZ=     1.6853   YZ=     2.7775   ZZ=    20.1277
   Eigenvalues:    18.9464    23.8588    28.7099
     37  Bq   Isotropic =    16.8805   Anisotropy =    20.3357
   XX=    16.0435   YX=     2.2166   ZX=    -4.5227
   XY=    -0.8558   YY=     8.9716   ZY=    -1.8052
   XZ=    -5.4961   YZ=   -13.9391   ZZ=    25.6265
   Eigenvalues:     5.6801    14.5238    30.4377
     38  Bq   Isotropic =    10.9951   Anisotropy =    23.3291
   XX=     6.6206   YX=    -1.7272   ZX=    -6.0795
   XY=    -1.1285   YY=     0.9450   ZY=    -4.5457
   XZ=     1.3514   YZ=    -5.0917   ZZ=    25.4197
   Eigenvalues:    -0.4606     6.8980    26.5478
     39  Bq   Isotropic =    10.6173   Anisotropy =    21.9446
   XX=     4.4916   YX=    -3.4487   ZX=    -5.1523
   XY=    -1.0055   YY=     2.2917   ZY=    -1.2844
   XZ=     8.8145   YZ=     2.9141   ZZ=    25.0687
   Eigenvalues:     0.7932     5.8117    25.2470
     40  Bq   Isotropic =    15.5851   Anisotropy =    20.6427
   XX=    10.1262   YX=    -2.7469   ZX=    -6.7840
   XY=    -0.9822   YY=     7.3017   ZY=    -0.3033
   XZ=     7.4726   YZ=     1.4495   ZZ=    29.3274
   Eigenvalues:     6.3556    11.0528    29.3469
     41  Bq   Isotropic =     8.7339   Anisotropy =    22.0523
   XX=     2.4380   YX=    -3.4284   ZX=    -4.6452
   XY=    -0.8978   YY=     0.5658   ZY=    -1.3896
   XZ=     8.9035   YZ=     3.2295   ZZ=    23.1979
   Eigenvalues:    -1.0123     3.7786    23.4354
     42  Bq   Isotropic =    18.5784   Anisotropy =    19.7772
   XX=    13.6058   YX=    -1.7531   ZX=    -8.1240
   XY=    -0.7107   YY=    10.4530   ZY=     0.8406
   XZ=     5.8683   YZ=     0.1999   ZZ=    31.6763
   Eigenvalues:    10.0281    13.9439    31.7632
     43  Bq   Isotropic =     7.2141   Anisotropy =    21.8390
   XX=     0.8432   YX=    -3.2841   ZX=    -4.2503
   XY=    -0.7633   YY=    -0.7025   ZY=    -1.3620
   XZ=     8.7768   YZ=     3.3526   ZZ=    21.5016
   Eigenvalues:    -2.2848     2.1537    21.7734
     44  Bq   Isotropic =    21.6484   Anisotropy =    19.6702
   XX=    17.1989   YX=    -0.0861   ZX=    -9.9941
   XY=    -0.1053   YY=    13.6267   ZY=     2.6324
   XZ=     3.3767   YZ=    -1.3984   ZZ=    34.1195
   Eigenvalues:    13.6082    16.5751    34.7619
     45  Bq   Isotropic =     6.0027   Anisotropy =    21.3827
   XX=    -0.3629   YX=    -3.0740   ZX=    -3.9262
   XY=    -0.6228   YY=    -1.5987   ZY=    -1.2601
   XZ=     8.5201   YZ=     3.3422   ZZ=    19.9699
   Eigenvalues:    -3.1403     0.8906    20.2579
     46  Bq   Isotropic =    24.3377   Anisotropy =    21.6470
   XX=    20.3007   YX=     2.4651   ZX=   -12.4911
   XY=     1.0290   YY=    16.1032   ZY=     5.1746
   XZ=    -0.1227   YZ=    -3.2433   ZZ=    36.6092
   Eigenvalues:    14.9060    19.3381    38.7690
     47  Bq   Isotropic =     5.0425   Anisotropy =    20.7579
   XX=    -1.2527   YX=    -2.8363   ZX=    -3.6468
   XY=    -0.4881   YY=    -2.2078   ZY=    -1.1225
   XZ=     8.1921   YZ=     3.2453   ZZ=    18.5882
   Eigenvalues:    -3.6838    -0.0697    18.8812
     48  Bq   Isotropic =    25.9357   Anisotropy =    26.6871
   XX=    21.9242   YX=     6.0653   ZX=   -15.5348
   XY=     2.9551   YY=    16.7667   ZY=     8.3528
   XZ=    -4.5019   YZ=    -5.0867   ZZ=    39.1163
   Eigenvalues:    12.2523    21.8277    43.7271
     49  Bq   Isotropic =    12.9024   Anisotropy =    21.4618
   XX=     7.0541   YX=    -3.2605   ZX=    -5.8346
   XY=    -1.0519   YY=     4.5374   ZY=    -0.9615
   XZ=     8.3901   YZ=     2.3411   ZZ=    27.1156
   Eigenvalues:     3.2351     8.2618    27.2102
     50  Bq   Isotropic =     8.1818   Anisotropy =    18.5940
   XX=     2.3075   YX=    -4.8917   ZX=    -1.5821
   XY=    -1.2352   YY=     4.6503   ZY=    -0.2374
   XZ=    15.6458   YZ=     6.7776   ZZ=    17.5877
   Eigenvalues:    -2.7072     6.6748    20.5778
     51  Bq   Isotropic =    11.8740   Anisotropy =    14.9029
   XX=     7.0805   YX=    -6.1023   ZX=    -2.4944
   XY=    -2.2895   YY=    10.1335   ZY=    -1.8038
   XZ=    16.6283   YZ=     6.4959   ZZ=    18.4078
   Eigenvalues:     1.1298    12.6829    21.8092
     52  Bq   Isotropic =     6.7491   Anisotropy =    19.3809
   XX=     0.5967   YX=    -4.4070   ZX=    -1.4672
   XY=    -0.9033   YY=     2.6587   ZY=     0.1695
   XZ=    14.7462   YZ=     6.6175   ZZ=    16.9921
   Eigenvalues:    -3.8577     4.4354    19.6698
     53  Bq   Isotropic =    13.9674   Anisotropy =    12.1344
   XX=     9.9242   YX=    -6.9088   ZX=    -3.6419
   XY=    -3.1453   YY=    13.4650   ZY=    -3.1739
   XZ=    16.2855   YZ=     5.8620   ZZ=    18.5132
   Eigenvalues:     3.8733    15.9720    22.0570
     54  Bq   Isotropic =     5.5897   Anisotropy =    19.6607
   XX=    -0.6906   YX=    -3.9773   ZX=    -1.4439
   XY=    -0.6505   YY=     1.1242   ZY=     0.4260
   XZ=    13.7554   YZ=     6.3491   ZZ=    16.3354
   Eigenvalues:    -4.6110     2.6832    18.6968
     55  Bq   Isotropic =    15.8733   Anisotropy =    11.0303
   XX=    12.5349   YX=    -7.9547   ZX=    -5.5976
   XY=    -4.3696   YY=    16.7399   ZY=    -5.0929
   XZ=    14.9784   YZ=     4.7408   ZZ=    18.3450
   Eigenvalues:     6.8627    17.5303    23.2268
     56  Bq   Isotropic =     4.6676   Anisotropy =    19.5747
   XX=    -1.6216   YX=    -3.5936   ZX=    -1.4589
   XY=    -0.4543   YY=    -0.0250   ZY=     0.5816
   XZ=    12.7540   YZ=     6.0200   ZZ=    15.6492
   Eigenvalues:    -5.0588     1.3441    17.7174
     57  Bq   Isotropic =    16.9977   Anisotropy =    13.2303
   XX=    13.9505   YX=    -9.3837   ZX=    -8.6504
   XY=    -6.1348   YY=    19.1397   ZY=    -7.6155
   XZ=    12.3590   YZ=     3.0437   ZZ=    17.9028
   Eigenvalues:     8.3604    16.8148    25.8179
     58  Bq   Isotropic =     3.9406   Anisotropy =    19.2363
   XX=    -2.2694   YX=    -3.2501   ZX=    -1.4819
   XY=    -0.2998   YY=    -0.8645   ZY=     0.6710
   XZ=    11.7910   YZ=     5.6637   ZZ=    14.9556
   Eigenvalues:    -5.2818     0.3388    16.7648
     59  Bq   Isotropic =    16.4012   Anisotropy =    16.3447
   XX=    12.5906   YX=   -11.4095   ZX=   -12.9166
   XY=    -8.6561   YY=    19.3375   ZY=   -10.5963
   XZ=     8.2215   YZ=     0.8306   ZZ=    17.2756
   Eigenvalues:     3.6788    18.2272    27.2977
     60  Bq   Isotropic =     9.9017   Anisotropy =    17.1411
   XX=     4.4800   YX=    -5.4471   ZX=    -1.8775
   XY=    -1.6798   YY=     7.1466   ZY=    -0.8639
   XZ=    16.3321   YZ=     6.7651   ZZ=    18.0784
   Eigenvalues:    -1.0676     9.4435    21.3291
     61  Bq   Isotropic =     6.7226   Anisotropy =    18.9939
   XX=     1.3687   YX=    -3.2136   ZX=     1.4322
   XY=    -0.2584   YY=     4.7475   ZY=     0.7480
   XZ=    17.5095   YZ=     5.6100   ZZ=    14.0515
   Eigenvalues:    -4.6783     5.4609    19.3852
     62  Bq   Isotropic =     9.7874   Anisotropy =    18.0327
   XX=     6.1931   YX=    -3.5640   ZX=     2.1877
   XY=    -0.8318   YY=     8.4032   ZY=     0.1109
   XZ=    18.6778   YZ=     4.7871   ZZ=    14.7659
   Eigenvalues:    -1.7992     9.3521    21.8092
     63  Bq   Isotropic =     5.6016   Anisotropy =    19.0770
   XX=    -0.1424   YX=    -3.0379   ZX=     1.0473
   XY=    -0.0715   YY=     3.2551   ZY=     0.9610
   XZ=    16.4762   YZ=     5.8100   ZZ=    13.6920
   Eigenvalues:    -5.3740     3.8591    18.3196
     64  Bq   Isotropic =    11.7474   Anisotropy =    17.2494
   XX=     9.6188   YX=    -3.7450   ZX=     2.4522
   XY=    -1.2434   YY=    10.3997   ZY=    -0.3179
   XZ=    18.4613   YZ=     4.1398   ZZ=    15.2236
   Eigenvalues:     0.5891    11.4060    23.2469
     65  Bq   Isotropic =     4.7076   Anisotropy =    18.9313
   XX=    -1.1968   YX=    -2.8627   ZX=     0.6995
   XY=     0.0667   YY=     2.0139   ZY=     1.1151
   XZ=    15.3351   YZ=     5.8961   ZZ=    13.3056
   Eigenvalues:    -5.7353     2.5295    17.3285
     66  Bq   Isotropic =    13.9360   Anisotropy =    16.4793
   XX=    13.6409   YX=    -3.9449   ZX=     2.5524
   XY=    -1.7472   YY=    12.2871   ZY=    -0.8031
   XZ=    17.4981   YZ=     3.3422   ZZ=    15.8801
   Eigenvalues:     3.6484    13.2374    24.9223
     67  Bq   Isotropic =     3.9979   Anisotropy =    18.6089
   XX=    -1.9062   YX=    -2.6898   ZX=     0.4016
   XY=     0.1681   YY=     1.0085   ZY=     1.2205
   XZ=    14.1810   YZ=     5.8900   ZZ=    12.8914
   Eigenvalues:    -5.8666     1.4565    16.4038
     68  Bq   Isotropic =    16.2440   Anisotropy =    15.9342
   XX=    18.0217   YX=    -4.1863   ZX=     2.4341
   XY=    -2.3368   YY=    13.8265   ZY=    -1.3016
   XZ=    15.7317   YZ=     2.4273   ZZ=    16.8838
   Eigenvalues:     7.2546    14.6106    26.8668
     69  Bq   Isotropic =     3.4337   Anisotropy =    18.1588
   XX=    -2.3653   YX=    -2.5210   ZX=     0.1561
   XY=     0.2423   YY=     0.2115   ZY=     1.2866
   XZ=    13.0718   YZ=     5.8118   ZZ=    12.4549
   Eigenvalues:    -5.8475     0.6091    15.5395
     70  Bq   Isotropic =    18.5120   Anisotropy =    15.7087
   XX=    22.3666   YX=    -4.4975   ZX=     2.0928
   XY=    -2.9873   YY=    14.7794   ZY=    -1.7321
   XZ=    13.2824   YZ=     1.4557   ZZ=    18.3900
   Eigenvalues:    10.9798    15.5717    28.9845
     71  Bq   Isotropic =     8.1100   Anisotropy =    18.6438
   XX=     3.4509   YX=    -3.3886   ZX=     1.8273
   XY=    -0.5073   YY=     6.4812   ZY=     0.4667
   XZ=    18.2999   YZ=     5.2747   ZZ=    14.3978
   Eigenvalues:    -3.5265     7.3172    20.5391
     72  Bq   Isotropic =     7.5291   Anisotropy =    18.0369
   XX=     2.3124   YX=    -1.2518   ZX=     0.6965
   XY=     1.1463   YY=     5.8878   ZY=     1.2166
   XZ=    16.2334   YZ=     6.2676   ZZ=    14.3871
   Eigenvalues:    -2.4440     5.4776    19.5537
     73  Bq   Isotropic =    10.8956   Anisotropy =    15.6199
   XX=     6.5415   YX=    -0.3272   ZX=    -0.2744
   XY=     1.4787   YY=    10.7972   ZY=     1.5096
   XZ=    16.8843   YZ=     5.2004   ZZ=    15.3481
   Eigenvalues:     1.3729    10.0050    21.3089
     74  Bq   Isotropic =     6.2012   Anisotropy =    18.4077
   XX=     0.8065   YX=    -1.4773   ZX=     0.7973
   XY=     1.0442   YY=     4.0674   ZY=     1.2408
   XZ=    15.4525   YZ=     6.5737   ZZ=    13.7296
   Eigenvalues:    -3.6153     3.7459    18.4729
     75  Bq   Isotropic =    12.7602   Anisotropy =    13.5057
   XX=     9.0220   YX=     0.5141   ZX=    -1.4615
   XY=     1.7846   YY=    13.7830   ZY=     1.9946
   XZ=    16.3691   YZ=     4.4552   ZZ=    15.4756
   Eigenvalues:     4.0541    12.4625    21.7640
     76  Bq   Isotropic =     5.1192   Anisotropy =    18.3901
   XX=    -0.3108   YX=    -1.6071   ZX=     0.7787
   XY=     0.9614   YY=     2.6310   ZY=     1.3066
   XZ=    14.5420   YZ=     6.7461   ZZ=    13.0376
   Eigenvalues:    -4.3950     2.3734    17.3793
     77  Bq   Isotropic =    14.4230   Anisotropy =    11.5122
   XX=    11.2102   YX=     1.7342   ZX=    -3.3799
   XY=     2.2776   YY=    16.8164   ZY=     2.8429
   XZ=    14.9625   YZ=     3.6352   ZZ=    15.2423
   Eigenvalues:     7.0873    14.0838    22.0978
     78  Bq   Isotropic =     4.2551   Anisotropy =    18.1004
   XX=    -1.1038   YX=    -1.6702   ZX=     0.6995
   XY=     0.8917   YY=     1.5208   ZY=     1.3836
   XZ=    13.5840   YZ=     6.8054   ZZ=    12.3484
   Eigenvalues:    -4.8704     1.3136    16.3221
     79  Bq   Isotropic =    15.4031   Anisotropy =    11.3765
   XX=    12.2422   YX=     3.4355   ZX=    -6.1632
   XY=     3.0793   YY=    19.3675   ZY=     4.1186
   XZ=    12.4479   YZ=     2.8445   ZZ=    14.5995
   Eigenvalues:     9.9857    13.2361    22.9874
     80  Bq   Isotropic =     3.5725   Anisotropy =    17.6306
   XX=    -1.6433   YX=    -1.6863   ZX=     0.5949
   XY=     0.8320   YY=     0.6762   ZY=     1.4540
   XZ=    12.6320   YZ=     6.7731   ZZ=    11.6846
   Eigenvalues:    -5.1201     0.5113    15.3262
     81  Bq   Isotropic =    15.0466   Anisotropy =    13.4144
   XX=    10.8776   YX=     5.6919   ZX=    -9.6771
   XY=     4.3645   YY=    20.6665   ZY=     5.7368
   XZ=     8.8191   YZ=     2.2022   ZZ=    13.5957
   Eigenvalues:     7.9720    13.1783    23.9896
     82  Bq   Isotropic =     9.1082   Anisotropy =    17.1456
   XX=     4.2389   YX=    -0.8886   ZX=     0.3844
   XY=     1.2820   YY=     8.1325   ZY=     1.2823
   XZ=    16.7658   YZ=     5.8113   ZZ=    14.9531
   Eigenvalues:    -0.7990     7.5849    20.5386
     83  Bq   Isotropic =     6.8359   Anisotropy =    15.9467
   XX=     4.0326   YX=    -1.7655   ZX=    -0.0871
   XY=     1.7639   YY=     4.4974   ZY=     0.9877
   XZ=    12.7323   YZ=    10.4327   ZZ=    11.9778
   Eigenvalues:    -1.2543     4.2950    17.4671
     84  Bq   Isotropic =    10.3039   Anisotropy =    11.7683
   XX=     8.9102   YX=    -2.4265   ZX=    -2.0968
   XY=     1.6000   YY=     8.2820   ZY=    -1.2099
   XZ=    12.1799   YZ=     9.7934   ZZ=    13.7196
   Eigenvalues:     3.7942     8.9682    18.1495
     85  Bq   Isotropic =     5.5186   Anisotropy =    16.7474
   XX=     2.2777   YX=    -1.6313   ZX=     0.3893
   XY=     1.6543   YY=     3.0748   ZY=     1.5618
   XZ=    12.4857   YZ=    10.3328   ZZ=    11.2032
   Eigenvalues:    -2.8415     2.7137    16.6835
     86  Bq   Isotropic =    12.3469   Anisotropy =     7.9247
   XX=    11.8596   YX=    -3.1693   ZX=    -3.9183
   XY=     1.0426   YY=    10.4730   ZY=    -3.0745
   XZ=    11.0764   YZ=     8.8147   ZZ=    14.7082
   Eigenvalues:     7.2750    12.1358    17.6301
     87  Bq   Isotropic =     4.4641   Anisotropy =    16.9970
   XX=     0.9423   YX=    -1.5508   ZX=     0.6565
   XY=     1.5093   YY=     1.9577   ZY=     1.9151
   XZ=    12.0434   YZ=    10.0721   ZZ=    10.4924
   Eigenvalues:    -3.9327     1.5296    15.7954
     88  Bq   Isotropic =    14.3435   Anisotropy =     3.8082
   XX=    14.6958   YX=    -4.4351   ZX=    -6.4806
   XY=    -0.1882   YY=    12.5018   ZY=    -5.5896
   XZ=     9.2035   YZ=     7.2184   ZZ=    15.8328
   Eigenvalues:    10.6464    15.5017    16.8823
     89  Bq   Isotropic =     3.6357   Anisotropy =    16.8688
   XX=    -0.0414   YX=    -1.4952   ZX=     0.7858
   XY=     1.3602   YY=     1.1038   ZY=     2.1154
   XZ=    11.4845   YZ=     9.7120   ZZ=     9.8448
   Eigenvalues:    -4.6341     0.6597    14.8816
     90  Bq   Isotropic =    15.8776   Anisotropy =     6.1462
   XX=    16.6375   YX=    -6.5004   ZX=    -9.8114
   XY=    -2.5331   YY=    13.8005   ZY=    -8.7237
   XZ=     6.4907   YZ=     4.9263   ZZ=    17.1949
   Eigenvalues:     9.6474    18.0104    19.9751
     91  Bq   Isotropic =     2.9922   Anisotropy =    16.4936
   XX=    -0.7448   YX=    -1.4485   ZX=     0.8266
   XY=     1.2222   YY=     0.4637   ZY=     2.2123
   XZ=    10.8656   YZ=     9.2962   ZZ=     9.2578
   Eigenvalues:    -5.0413     0.0300    13.9880
     92  Bq   Isotropic =    16.3417   Anisotropy =    10.9795
   XX=    16.5086   YX=    -9.6578   ZX=   -13.6224
   XY=    -6.5362   YY=    13.5808   ZY=   -12.1440
   XZ=     3.1106   YZ=     2.0222   ZZ=    18.9359
   Eigenvalues:     3.4188    21.9451    23.6614
     93  Bq   Isotropic =     8.4367   Anisotropy =    14.3737
   XX=     6.2500   YX=    -2.0031   ZX=    -0.8720
   XY=     1.7804   YY=     6.2445   ZY=     0.1019
   XZ=    12.6765   YZ=    10.2890   ZZ=    12.8155
   Eigenvalues:     0.9336     6.3574    18.0191
     94  Bq   Isotropic =     2.9730   Anisotropy =    14.5154
   XX=     2.7921   YX=    -1.8459   ZX=     1.4124
   XY=     1.7976   YY=     3.1722   ZY=     3.5741
   XZ=     9.0812   YZ=    12.6281   ZZ=     2.9549
   Eigenvalues:    -6.6573     2.9264    12.6500
     95  Bq   Isotropic =     4.4075   Anisotropy =    12.7691
   XX=     6.1395   YX=    -2.7246   ZX=     1.0996
   XY=     1.7021   YY=     5.1643   ZY=     2.9638
   XZ=     8.5878   YZ=    13.0244   ZZ=     1.9187
   Eigenvalues:    -6.0264     6.3287    12.9202
     96  Bq   Isotropic =     2.4355   Anisotropy =    14.7969
   XX=     1.5846   YX=    -1.5884   ZX=     1.4823
   XY=     1.7155   YY=     2.3693   ZY=     3.6526
   XZ=     9.0677   YZ=    12.1675   ZZ=     3.3526
   Eigenvalues:    -6.7631     1.7695    12.3001
     97  Bq   Isotropic =     5.3002   Anisotropy =    11.1650
   XX=     8.2955   YX=    -3.4202   ZX=     0.8851
   XY=     1.4182   YY=     6.2896   ZY=     2.3717
   XZ=     8.0527   YZ=    12.7874   ZZ=     1.3154
   Eigenvalues:    -5.4774     8.6343    12.7435
     98  Bq   Isotropic =     2.0037   Anisotropy =    14.7974
   XX=     0.6430   YX=    -1.4077   ZX=     1.4987
   XY=     1.5978   YY=     1.7020   ZY=     3.6290
   XZ=     8.9220   YZ=    11.6191   ZZ=     3.6661
   Eigenvalues:    -6.7561     0.8986    11.8687
     99  Bq   Isotropic =     6.2788   Anisotropy =     9.2859
   XX=    10.7178   YX=    -4.3227   ZX=     0.6923
   XY=     0.8967   YY=     7.4122   ZY=     1.5818
   XZ=     7.3568   YZ=    12.1241   ZZ=     0.7064
   Eigenvalues:    -4.7772    11.1441    12.4694
    100  Bq   Isotropic =     1.6618   Anisotropy =    14.5930
   XX=    -0.0752   YX=    -1.2792   ZX=     1.4717
   XY=     1.4677   YY=     1.1592   ZY=     3.5361
   XZ=     8.6777   YZ=    11.0282   ZZ=     3.9014
   Eigenvalues:    -6.6591     0.2541    11.3905
    101  Bq   Isotropic =     7.2921   Anisotropy =    10.9261
   XX=    13.2890   YX=    -5.4222   ZX=     0.6085
   XY=     0.0934   YY=     8.4329   ZY=     0.6393
   XZ=     6.5831   YZ=    10.9318   ZZ=     0.1545
   Eigenvalues:    -3.9534    11.2536    14.5762
    102  Bq   Isotropic =     1.3939   Anisotropy =    14.2457
   XX=    -0.6114   YX=    -1.1847   ZX=     1.4122
   XY=     1.3392   YY=     0.7251   ZY=     3.3997
   XZ=     8.3648   YZ=    10.4255   ZZ=     4.0681
   Eigenvalues:    -6.4932    -0.2160    10.8911
    103  Bq   Isotropic =     8.2657   Anisotropy =    14.0943
   XX=    15.8193   YX=    -6.6480   ZX=     0.7496
   XY=    -0.9888   YY=     9.2427   ZY=    -0.3534
   XZ=     5.8654   YZ=     9.1330   ZZ=    -0.2649
   Eigenvalues:    -3.0630    10.1982    17.6620
    104  Bq   Isotropic =     3.6288   Anisotropy =    13.8676
   XX=     4.3029   YX=    -2.2121   ZX=     1.2833
   XY=     1.8090   YY=     4.1102   ZY=     3.3565
   XZ=     8.9294   YZ=    12.9399   ZZ=     2.4735
   Eigenvalues:    -6.4173     4.4299    12.8739
    105  Bq   Isotropic =     0.1131   Anisotropy =    12.4498
   XX=     0.4998   YX=    -0.7178   ZX=     2.3460
   XY=     1.6264   YY=     3.2708   ZY=     3.7515
   XZ=     6.6998   YZ=     9.4944   ZZ=    -3.4312
   Eigenvalues:    -8.9564     0.8827     8.4130
    106  Bq   Isotropic =     0.1700   Anisotropy =    12.5580
   XX=     1.6530   YX=    -0.9079   ZX=     2.6628
   XY=     1.6908   YY=     4.5835   ZY=     3.5774
   XZ=     6.6893   YZ=     9.1081   ZZ=    -5.7264
   Eigenvalues:   -10.1726     2.1407     8.5420
    107  Bq   Isotropic =     0.0953   Anisotropy =    12.2945
   XX=     0.0387   YX=    -0.6572   ZX=     2.1959
   XY=     1.5574   YY=     2.7086   ZY=     3.7257
   XZ=     6.6292   YZ=     9.4541   ZZ=    -2.4615
   Eigenvalues:    -8.4074     0.4017     8.2916
    108  Bq   Isotropic =     0.2074   Anisotropy =    12.5142
   XX=     2.3285   YX=    -1.0369   ZX=     2.8387
   XY=     1.6712   YY=     5.3098   ZY=     3.3429
   XZ=     6.6113   YZ=     8.6044   ZZ=    -7.0159
   Eigenvalues:   -10.8388     2.9109     8.5502
    109  Bq   Isotropic =     0.0846   Anisotropy =    12.0779
   XX=    -0.3448   YX=    -0.6154   ZX=     2.0477
   XY=     1.4745   YY=     2.2144   ZY=     3.6475
   XZ=     6.5124   YZ=     9.3052   ZZ=    -1.6158
   Eigenvalues:    -7.8946     0.0118     8.1365
    110  Bq   Isotropic =     0.2481   Anisotropy =    12.4200
   XX=     3.0445   YX=    -1.1794   ZX=     3.0343
   XY=     1.6120   YY=     6.0521   ZY=     2.9916
   XZ=     6.4946   YZ=     7.8463   ZZ=    -8.3524
   Eigenvalues:   -11.5359     3.7520     8.5280
    111  Bq   Isotropic =     0.0807   Anisotropy =    11.8087
   XX=    -0.6553   YX=    -0.5878   ZX=     1.9009
   XY=     1.3847   YY=     1.7866   ZY=     3.5317
   XZ=     6.3562   YZ=     9.0769   ZZ=    -0.8892
   Eigenvalues:    -7.4140    -0.2971     7.9531
    112  Bq   Isotropic =     0.2883   Anisotropy =    12.2986
   XX=     3.7703   YX=    -1.3187   ZX=     3.2548
   XY=     1.5168   YY=     6.7755   ZY=     2.5176
   XZ=     6.3507   YZ=     6.8102   ZZ=    -9.6809
   Eigenvalues:   -12.2496     4.6272     8.4874
    113  Bq   Isotropic =     0.0832   Anisotropy =    11.4964
   XX=    -0.8996   YX=    -0.5701   ZX=     1.7559
   XY=     1.2935   YY=     1.4213   ZY=     3.3905
   XZ=     6.1681   YZ=     8.7929   ZZ=    -0.2723
   Eigenvalues:    -6.9619    -0.5361     7.7474
    114  Bq   Isotropic =     0.3237   Anisotropy =    12.1851
   XX=     4.4673   YX=    -1.4288   ZX=     3.5007
   XY=     1.3978   YY=     7.4372   ZY=     1.9255
   XZ=     6.1902   YZ=     5.4919   ZZ=   -10.9334
   Eigenvalues:   -12.9568     5.4808     8.4471
    115  Bq   Isotropic =     0.1382   Anisotropy =    12.5382
   XX=     1.0394   YX=    -0.8007   ZX=     2.5004
   XY=     1.6736   YY=     3.8985   ZY=     3.7080
   XZ=     6.7201   YZ=     9.3918   ZZ=    -4.5234
   Eigenvalues:    -9.5444     1.4620     8.4970
    116  Bq   Isotropic =    -0.7362   Anisotropy =     9.7317
   XX=    -0.4579   YX=     0.2790   ZX=     2.1776
   XY=     1.5080   YY=     2.8081   ZY=     2.5420
   XZ=     4.8552   YZ=     6.1243   ZZ=    -4.5588
   Eigenvalues:    -7.7214    -0.2388     5.7516
    117  Bq   Isotropic =    -0.8858   Anisotropy =    10.0225
   XX=    -0.0387   YX=     0.4386   ZX=     2.4516
   XY=     1.6375   YY=     3.4514   ZY=     2.2935
   XZ=     4.9103   YZ=     5.4769   ZZ=    -6.0701
   Eigenvalues:    -8.6359     0.1825     5.7958
    118  Bq   Isotropic =    -0.6620   Anisotropy =     9.5557
   XX=    -0.6283   YX=     0.2071   ZX=     2.0371
   XY=     1.4360   YY=     2.5003   ZY=     2.5972
   XZ=     4.7888   YZ=     6.3097   ZZ=    -3.8581
   Eigenvalues:    -7.2864    -0.4081     5.7084
    119  Bq   Isotropic =    -0.9593   Anisotropy =    10.1384
   XX=     0.2055   YX=     0.5276   ZX=     2.5787
   XY=     1.6919   YY=     3.7700   ZY=     2.0910
   XZ=     4.8920   YZ=     5.0019   ZZ=    -6.8533
   Eigenvalues:    -9.1064     0.4289     5.7997
    120  Bq   Isotropic =    -0.5891   Anisotropy =     9.3601
   XX=    -0.7716   YX=     0.1405   ZX=     1.8975
   XY=     1.3616   YY=     2.2099   ZY=     2.6143
   XZ=     4.7010   YZ=     6.4151   ZZ=    -3.2057
   Eigenvalues:    -6.8691    -0.5493     5.6509
    121  Bq   Isotropic =    -1.0301   Anisotropy =    10.2365
   XX=     0.4670   YX=     0.6244   ZX=     2.6932
   XY=     1.7385   YY=     4.0725   ZY=     1.8334
   XZ=     4.8382   YZ=     4.4234   ZZ=    -7.6297
   Eigenvalues:    -9.5756     0.6912     5.7943
    122  Bq   Isotropic =    -0.5180   Anisotropy =     9.1466
   XX=    -0.8887   YX=     0.0794   ZX=     1.7604
   XY=     1.2867   YY=     1.9406   ZY=     2.5997
   XZ=     4.5954   YZ=     6.4511   ZZ=    -2.6060
   Eigenvalues:    -6.4702    -0.6636     5.5797
    123  Bq   Isotropic =    -1.0965   Anisotropy =    10.3186
   XX=     0.7397   YX=     0.7310   ZX=     2.7895
   XY=     1.7774   YY=     4.3468   ZY=     1.5220
   XZ=     4.7448   YZ=     3.7453   ZZ=    -8.3760
   Eigenvalues:   -10.0320     0.9599     5.7826
    124  Bq   Isotropic =    -0.4489   Anisotropy =     8.9175
   XX=    -0.9808   YX=     0.0241   ZX=     1.6273
   XY=     1.2130   YY=     1.6948   ZY=     2.5595
   XZ=     4.4753   YZ=     6.4285   ZZ=    -2.0608
   Eigenvalues:    -6.0898    -0.7531     5.4960
    125  Bq   Isotropic =    -1.1568   Anisotropy =    10.3868
   XX=     1.0155   YX=     0.8498   ZX=     2.8603
[...]
   125  Bq   0.000000
   126  Bq   0.000000
   127  Bq   0.000000
   128  Bq   0.000000
   129  Bq   0.000000
   130  Bq   0.000000
   131  Bq   0.000000
   132  Bq   0.000000
   133  Bq   0.000000
   134  Bq   0.000000
   135  Bq   0.000000
   136  Bq   0.000000
   137  Bq   0.000000
   138  Bq   0.000000
   139  Bq   0.000000
   140  Bq   0.000000
   141  Bq   0.000000
   142  Bq   0.000000
   143  Bq   0.000000
   144  Bq   0.000000
   145  Bq   0.000000
   146  Bq   0.000000
   147  Bq   0.000000
   148  Bq   0.000000
   149  Bq   0.000000
   150  Bq   0.000000
   151  Bq   0.000000
   152  Bq   0.000000
   153  Bq   0.000000
   154  Bq   0.000000
   155  Bq   0.000000
   156  Bq   0.000000
   157  Bq   0.000000
   158  Bq   0.000000
   159  Bq   0.000000
   160  Bq   0.000000
   161  Bq   0.000000
   162  Bq   0.000000
   163  Bq   0.000000
   164  Bq   0.000000
   165  Bq   0.000000
   166  Bq   0.000000
   167  Bq   0.000000
   168  Bq   0.000000
   169  Bq   0.000000
   170  Bq   0.000000
   171  Bq   0.000000
   172  Bq   0.000000
   173  Bq   0.000000
   174  Bq   0.000000
   175  Bq   0.000000
   176  Bq   0.000000
   177  Bq   0.000000
   178  Bq   0.000000
   179  Bq   0.000000
   180  Bq   0.000000
   181  Bq   0.000000
   182  Bq   0.000000
   183  Bq   0.000000
   184  Bq   0.000000
   185  Bq   0.000000
   186  Bq   0.000000
   187  Bq   0.000000
   188  Bq   0.000000
   189  Bq   0.000000
   190  Bq   0.000000
   191  Bq   0.000000
   192  Bq   0.000000
   193  Bq   0.000000
   194  Bq   0.000000
   195  Bq   0.000000
   196  Bq   0.000000
   197  Bq   0.000000
   198  Bq   0.000000
   199  Bq   0.000000
   200  Bq   0.000000
   201  Bq   0.000000
   202  Bq   0.000000
   203  Bq   0.000000
   204  Bq   0.000000
   205  Bq   0.000000
   206  Bq   0.000000
   207  Bq   0.000000
   208  Bq   0.000000
   209  Bq   0.000000
   210  Bq   0.000000
   211  Bq   0.000000
   212  Bq   0.000000
   213  Bq   0.000000
   214  Bq   0.000000
   215  Bq   0.000000
   216  Bq   0.000000
   217  Bq   0.000000
   218  Bq   0.000000
   219  Bq   0.000000
   220  Bq   0.000000
   221  Bq   0.000000
   222  Bq   0.000000
   223  Bq   0.000000
   224  Bq   0.000000
   225  Bq   0.000000
   226  Bq   0.000000
   227  Bq   0.000000
   228  Bq   0.000000
   229  Bq   0.000000
   230  Bq   0.000000
   231  Bq   0.000000
   232  Bq   0.000000
   233  Bq   0.000000
   234  Bq   0.000000
   235  Bq   0.000000
   236  Bq   0.000000
 Sum of Mulliken charges =   0.00000
 Mulliken charges with hydrogens summed into heavy atoms:
               1
     1  C   -0.255498
     3  C    0.169409
     5  C    0.448258
     6  C    0.064351
     7  C   -0.333926
     9  C   -0.139521
    11  C   -0.205988
    13  C   -0.119315
    15  C    0.653397
    16  C    0.034822
    17  C   -0.317410
    19  C   -0.434284
    21  C    0.651066
    22  C    0.037784
    23  C   -0.117289
    25  C   -0.205316
    27  C    0.448331
    28  C    0.061983
    29  C   -0.333381
    31  C   -0.139505
    33  C   -0.255977
    35  C    0.170579
    37  Bq   0.000000
    38  Bq   0.000000
    39  Bq   0.000000
    40  Bq   0.000000
    41  Bq   0.000000
    42  Bq   0.000000
    43  Bq   0.000000
    44  Bq   0.000000
    45  Bq   0.000000
    46  Bq   0.000000
    47  Bq   0.000000
    48  Bq   0.000000
    49  Bq   0.000000
    50  Bq   0.000000
    51  Bq   0.000000
    52  Bq   0.000000
    53  Bq   0.000000
    54  Bq   0.000000
    55  Bq   0.000000
    56  Bq   0.000000
    57  Bq   0.000000
    58  Bq   0.000000
    59  Bq   0.000000
    60  Bq   0.000000
    61  Bq   0.000000
    62  Bq   0.000000
    63  Bq   0.000000
    64  Bq   0.000000
    65  Bq   0.000000
    66  Bq   0.000000
    67  Bq   0.000000
    68  Bq   0.000000
    69  Bq   0.000000
    70  Bq   0.000000
    71  Bq   0.000000
    72  Bq   0.000000
    73  Bq   0.000000
    74  Bq   0.000000
    75  Bq   0.000000
    76  Bq   0.000000
    77  Bq   0.000000
    78  Bq   0.000000
    79  Bq   0.000000
    80  Bq   0.000000
    81  Bq   0.000000
    82  Bq   0.000000
    83  Bq   0.000000
    84  Bq   0.000000
    85  Bq   0.000000
    86  Bq   0.000000
    87  Bq   0.000000
    88  Bq   0.000000
    89  Bq   0.000000
    90  Bq   0.000000
    91  Bq   0.000000
    92  Bq   0.000000
    93  Bq   0.000000
    94  Bq   0.000000
    95  Bq   0.000000
    96  Bq   0.000000
    97  Bq   0.000000
    98  Bq   0.000000
    99  Bq   0.000000
   100  Bq   0.000000
   101  Bq   0.000000
   102  Bq   0.000000
   103  Bq   0.000000
   104  Bq   0.000000
   105  Bq   0.000000
   106  Bq   0.000000
   107  Bq   0.000000
   108  Bq   0.000000
   109  Bq   0.000000
   110  Bq   0.000000
   111  Bq   0.000000
   112  Bq   0.000000
   113  Bq   0.000000
   114  Bq   0.000000
   115  Bq   0.000000
   116  Bq   0.000000
   117  Bq   0.000000
   118  Bq   0.000000
   119  Bq   0.000000
   120  Bq   0.000000
   121  Bq   0.000000
   122  Bq   0.000000
   123  Bq   0.000000
   124  Bq   0.000000
   125  Bq   0.000000
   126  Bq   0.000000
   127  Bq   0.000000
   128  Bq   0.000000
   129  Bq   0.000000
   130  Bq   0.000000
   131  Bq   0.000000
   132  Bq   0.000000
   133  Bq   0.000000
   134  Bq   0.000000
   135  Bq   0.000000
   136  Bq   0.000000
   137  Bq   0.000000
   138  Bq   0.000000
   139  Bq   0.000000
   140  Bq   0.000000
   141  Bq   0.000000
   142  Bq   0.000000
   143  Bq   0.000000
   144  Bq   0.000000
   145  Bq   0.000000
   146  Bq   0.000000
   147  Bq   0.000000
   148  Bq   0.000000
   149  Bq   0.000000
   150  Bq   0.000000
   151  Bq   0.000000
   152  Bq   0.000000
   153  Bq   0.000000
   154  Bq   0.000000
   155  Bq   0.000000
   156  Bq   0.000000
   157  Bq   0.000000
   158  Bq   0.000000
   159  Bq   0.000000
   160  Bq   0.000000
   161  Bq   0.000000
   162  Bq   0.000000
   163  Bq   0.000000
   164  Bq   0.000000
   165  Bq   0.000000
   166  Bq   0.000000
   167  Bq   0.000000
   168  Bq   0.000000
   169  Bq   0.000000
   170  Bq   0.000000
   171  Bq   0.000000
   172  Bq   0.000000
   173  Bq   0.000000
   174  Bq   0.000000
   175  Bq   0.000000
   176  Bq   0.000000
   177  Bq   0.000000
   178  Bq   0.000000
   179  Bq   0.000000
   180  Bq   0.000000
   181  Bq   0.000000
   182  Bq   0.000000
   183  Bq   0.000000
   184  Bq   0.000000
   185  Bq   0.000000
   186  Bq   0.000000
   187  Bq   0.000000
   188  Bq   0.000000
   189  Bq   0.000000
   190  Bq   0.000000
   191  Bq   0.000000
   192  Bq   0.000000
   193  Bq   0.000000
   194  Bq   0.000000
   195  Bq   0.000000
   196  Bq   0.000000
   197  Bq   0.000000
   198  Bq   0.000000
   199  Bq   0.000000
   200  Bq   0.000000
   201  Bq   0.000000
   202  Bq   0.000000
   203  Bq   0.000000
   204  Bq   0.000000
   205  Bq   0.000000
   206  Bq   0.000000
   207  Bq   0.000000
   208  Bq   0.000000
   209  Bq   0.000000
   210  Bq   0.000000
   211  Bq   0.000000
   212  Bq   0.000000
   213  Bq   0.000000
   214  Bq   0.000000
   215  Bq   0.000000
   216  Bq   0.000000
   217  Bq   0.000000
   218  Bq   0.000000
   219  Bq   0.000000
   220  Bq   0.000000
   221  Bq   0.000000
   222  Bq   0.000000
   223  Bq   0.000000
   224  Bq   0.117431
   225  Bq   0.000000
   226  Bq   0.000000
   227  Bq   0.000000
   228  Bq   0.000000
   229  Bq   0.000000
   230  Bq   0.000000
   231  Bq   0.000000
   232  Bq   0.000000
   233  Bq   0.000000
   234  Bq   0.000000
   235  Bq   0.000000
   236  Bq   0.000000
 Electronic spatial extent (au):  <R**2>=           5736.9264
 Charge=              0.0000 electrons
 Dipole moment (field-independent basis, Debye):
    X=              0.0475    Y=              0.0856    Z=              0.0029  Tot=              0.0979
 Quadrupole moment (field-independent basis, Debye-Ang):
   XX=           -113.7056   YY=           -113.9456   ZZ=           -133.2669
   XY=             -0.3834   XZ=              3.2102   YZ=             -1.1839
 Traceless Quadrupole moment (field-independent basis, Debye-Ang):
   XX=              6.6005   YY=              6.3604   ZZ=            -12.9609
   XY=             -0.3834   XZ=              3.2102   YZ=             -1.1839
 Octapole moment (field-independent basis, Debye-Ang**2):
  XXX=            -16.4668  YYY=            -16.1860  ZZZ=             -1.7007  XYY=              2.5576
  XXY=             -6.5650  XXZ=             13.6547  XZZ=             -8.9478  YZZ=            -17.7168
  YYZ=            -13.2941  XYZ=              8.8036
 Hexadecapole moment (field-independent basis, Debye-Ang**3):
 XXXX=          -3951.1638 YYYY=          -3112.2161 ZZZZ=           -504.8311 XXXY=            340.6935
 XXXZ=            156.4968 YYYX=            335.5625 YYYZ=            -87.0893 ZZZX=            120.2262
 ZZZY=           -108.7373 XXYY=          -1176.4844 XXZZ=           -856.7291 YYZZ=           -665.7275
 XXYZ=            -68.9016 YYXZ=             48.1602 ZZXY=            153.0375
 N-N= 1.610917615562D+03 E-N=-5.186891130729D+03  KE= 8.436329774449D+02
 1\1\GINC-BRUSEL\SP\RB3LYP\6-311+G(d,p)\C22H14\YANNICK\14-Aug-2020\0\\#
  rb3lyp/6-311+g** NMR geom=connectivity\\Title\\0,1\C,0,-4.0500558,-0.
 5771862,0.8136712\H,0,-5.0263804,-1.0082727,1.002476\C,0,-3.9381552,0.
 6617804,0.2400876\H,0,-4.8252424,1.233889,-0.0111295\C,0,-2.676841,1.2
 433246,0.0057578\C,0,-1.4974121,0.5051527,0.2848253\C,0,-1.6508332,-0.
 7338728,0.9404026\H,0,-0.7713646,-1.2730967,1.2633753\C,0,-2.8898548,-
 1.2624035,1.1994307\H,0,-2.9683706,-2.2124563,1.7152676\C,0,-2.5773185
 ,2.5963696,-0.419293\H,0,-3.4870728,3.1412239,-0.6474055\C,0,-1.374189
 5,3.2147896,-0.436403\H,0,-1.2997315,4.2742019,-0.6578144\C,0,-0.17194
 88,2.499409,-0.1734588\C,0,-0.2043917,1.1018437,0.0192689\C,0,1.051349
 1,3.204256,-0.0676222\H,0,1.0427344,4.2819499,-0.1896997\C,0,2.1942091
 ,2.5487446,0.2579577\H,0,3.1168527,3.0912848,0.4334727\C,0,2.2216473,1
 .1336562,0.293499\C,0,1.0486931,0.3945528,0.0302412\C,0,3.4483363,0.46
 14633,0.5573939\H,0,4.3095794,1.0606054,0.8334846\C,0,3.5427346,-0.885
 5926,0.4749463\H,0,4.4731467,-1.3939704,0.7038822\C,0,2.4490052,-1.647
 4447,-0.0196319\C,0,1.2150704,-1.0057258,-0.3013573\C,0,0.2531113,-1.7
 43444,-1.0216591\H,0,-0.6541356,-1.2535051,-1.3462847\C,0,0.4494193,-3
 .0628597,-1.3413779\H,0,-0.3083162,-3.5944309,-1.905406\C,0,1.6251726,
 -3.7207967,-0.9552541\H,0,1.7670048,-4.7687404,-1.1927019\C,0,2.610987
 2,-3.0144177,-0.318305\H,0,3.5525612,-3.4902813,-0.0646367\Bq,0,2.4243
 597671,0.3401229114,0.8444299948\Bq,0,2.3519800018,0.3646903368,1.3385
 530677\Bq,0,2.3410647185,0.8689998988,1.4130696585\Bq,0,2.3700166246,0
 .8591729286,1.2154204293\Bq,0,2.3265887655,0.8739133839,1.5118942731\B
 q,0,2.3844925776,0.8542594436,1.1165958147\Bq,0,2.3121128124,0.8788268
 69,1.6107188876\Bq,0,2.3989685307,0.8493459585,1.0177712001\Bq,0,2.297
 6368594,0.8837403541,1.7095435022\Bq,0,2.4134444837,0.8444324734,0.918
 9465855\Bq,0,2.2831609063,0.8886538391,1.8083681168\Bq,0,2.4279204368,
 0.8395189883,0.820121971\Bq,0,2.3555406715,0.8640864137,1.3142450439\B
 q,0,2.3446253882,1.3683959757,1.3887616346\Bq,0,2.3735772943,1.3585690
 055,1.1911124055\Bq,0,2.3301494352,1.3733094608,1.4875862492\Bq,0,2.38
 80532473,1.3536555204,1.0922877909\Bq,0,2.3156734821,1.3782229459,1.58
 64108638\Bq,0,2.4025292004,1.3487420354,0.9934631763\Bq,0,2.3011975291
 ,1.3831364309,1.6852354784\Bq,0,2.4170051534,1.3438285503,0.8946385617
 \Bq,0,2.286721576,1.388049916,1.784060093\Bq,0,2.4314811065,1.33891506
 52,0.7958139471\Bq,0,2.3591013413,1.3634824906,1.2899370201\Bq,0,2.348
 1860579,1.8677920526,1.3644536108\Bq,0,2.377137964,1.8579650824,1.1668
 043816\Bq,0,2.3337101049,1.8727055377,1.4632782254\Bq,0,2.3916139171,1
 .8530515973,1.0679797671\Bq,0,2.3192341518,1.8776190227,1.56210284\Bq,
 0,2.4060898701,1.8481381122,0.9691551525\Bq,0,2.3047581988,1.882532507
 8,1.6609274546\Bq,0,2.4205658231,1.8432246272,0.8703305379\Bq,0,2.2902
 822457,1.8874459929,1.7597520691\Bq,0,2.4350417762,1.8383111421,0.7715
 059233\Bq,0,2.362662011,1.8628785675,1.2656289962\Bq,0,2.3517467276,2.
 3671881295,1.340145587\Bq,0,2.3806986337,2.3573611593,1.1424963578\Bq,
 0,2.3372707746,2.3721016145,1.4389702016\Bq,0,2.3951745868,2.352447674
 2,1.0436717432\Bq,0,2.3227948215,2.3770150996,1.5377948161\Bq,0,2.4096
 505398,2.3475341891,0.9448471286\Bq,0,2.3083188685,2.3819285847,1.6366
 194307\Bq,0,2.4241264928,2.342620704,0.8460225141\Bq,0,2.2938429155,2.
 3868420698,1.7354440453\Bq,0,2.4386024459,2.337707219,0.7471978995\Bq,
 0,2.3662226807,2.3622746444,1.2413209724\Bq,0,2.3553073973,2.866584206
 3,1.3158375631\Bq,0,2.3842593034,2.8567572362,1.118188334\Bq,0,2.34083
 14443,2.8714976914,1.4146621777\Bq,0,2.3987352565,2.8518437511,1.01936
 37194\Bq,0,2.3263554912,2.8764111765,1.5134867923\Bq,0,2.4132112095,2.
 846930266,0.9205391048\Bq,0,2.3118795382,2.8813246616,1.6123114069\Bq,
 0,2.4276871626,2.8420167809,0.8217144902\Bq,0,2.2974035852,2.886238146
 7,1.7111360215\Bq,0,2.4421631156,2.8371032959,0.7228898756\Bq,0,2.3697
 833504,2.8616707213,1.2170129486\Bq,0,2.358868067,3.3659802832,1.29152
 95393\Bq,0,2.3878199731,3.3561533131,1.0938803101\Bq,0,2.344392114,3.3
 708937683,1.3903541539\Bq,0,2.4022959262,3.351239828,0.9950556956\Bq,0
 ,2.329916161,3.3758072534,1.4891787685\Bq,0,2.4167718792,3.3463263429,
 0.896231081\Bq,0,2.3154402079,3.3807207385,1.5880033831\Bq,0,2.4312478
 323,3.3414128578,0.7974064664\Bq,0,2.3009642549,3.3856342236,1.6868279
 976\Bq,0,2.4457237853,3.3364993727,0.6985818518\Bq,0,2.3733440201,3.36
 10667981,1.1927049247\Bq,0,2.3624287368,3.8653763601,1.2672215155\Bq,0
 ,2.3913806428,3.85554939,1.0695722863\Bq,0,2.3479527837,3.8702898452,1
 .3660461301\Bq,0,2.4058565959,3.8506359049,0.9707476717\Bq,0,2.3334768
 307,3.8752033303,1.4648707446\Bq,0,2.4203325489,3.8457224198,0.8719230
 571\Bq,0,2.3190008776,3.8801168154,1.5636953592\Bq,0,2.434808502,3.840
 8089347,0.7730984426\Bq,0,2.3045249246,3.8850303004,1.6625199738\Bq,0,
 2.449284455,3.8358954496,0.674273828\Bq,0,2.3769046898,3.860462875,1.1
 683969009\Bq,0,2.3659894065,4.364772437,1.2429134916\Bq,0,2.3949413126
 ,4.3549454668,1.0452642625\Bq,0,2.3515134534,4.3696859221,1.3417381062
 \Bq,0,2.4094172656,4.3500319818,0.9464396479\Bq,0,2.3370375004,4.37459
 94072,1.4405627208\Bq,0,2.4238932186,4.3451184967,0.8476150333\Bq,0,2.
 3225615473,4.3795128922,1.5393873354\Bq,0,2.4383691717,4.3402050116,0.
 7487904187\Bq,0,2.3080855943,4.3844263773,1.63821195\Bq,0,2.4528451247
 ,4.3352915265,0.6499658041\Bq,0,2.3804653595,4.3598589519,1.1440888771
 \Bq,0,2.8251033287,-0.6291883319,1.5584610245\Bq,0,2.8540552348,-0.639
 015302,1.3608117954\Bq,0,2.8106273757,-0.6242748468,1.6572856391\Bq,0,
 2.8685311879,-0.6439287871,1.2619871808\Bq,0,2.7961514226,-0.619361361
 7,1.7561102537\Bq,0,2.8830071409,-0.6488422722,1.1631625662\Bq,0,2.781
 6754696,-0.6144478766,1.8549348683\Bq,0,2.897483094,-0.6537557573,1.06
 43379516\Bq,0,2.7671995166,-0.6095343915,1.9537594829\Bq,0,2.911959047
 ,-0.6586692423,0.965513337\Bq,0,2.8395792818,-0.6341018169,1.45963641\
 Bq,0,2.8286639984,-0.129792255,1.5341530007\Bq,0,2.8576159045,-0.13961
 92251,1.3365037715\Bq,0,2.8141880454,-0.1248787699,1.6329776153\Bq,0,2
 .8720918576,-0.1445327102,1.237679157\Bq,0,2.7997120924,-0.1199652848,
 1.7318022299\Bq,0,2.8865678106,-0.1494461953,1.1388545424\Bq,0,2.78523
 61393,-0.1150517997,1.8306268445\Bq,0,2.9010437637,-0.1543596804,1.040
 0299278\Bq,0,2.7707601863,-0.1101383146,1.929451459\Bq,0,2.9155197167,
 -0.1592731655,0.9412053132\Bq,0,2.8431399515,-0.13470574,1.4353283861\
 Bq,0,2.8322246682,0.3696038219,1.5098449769\Bq,0,2.8611765742,0.359776
 8518,1.3121957477\Bq,0,2.8177487151,0.374517307,1.6086695915\Bq,0,2.87
 56525273,0.3548633667,1.2133711331\Bq,0,2.8032727621,0.3794307921,1.70
 7494206\Bq,0,2.8901284803,0.3499498816,1.1145465185\Bq,0,2.788796809,0
 .3843442772,1.8063188206\Bq,0,2.9046044334,0.3450363965,1.015721904\Bq
 ,0,2.774320856,0.3892577622,1.9051434352\Bq,0,2.9190803864,0.340122911
 4,0.9168972894\Bq,0,2.8467006212,0.3646903368,1.4110203623\Bq,0,2.8357
 853379,0.8689998988,1.485536953\Bq,0,2.8647372439,0.8591729286,1.28788
 77239\Bq,0,2.8213093848,0.8739133839,1.5843615676\Bq,0,2.879213197,0.8
 542594436,1.1890631093\Bq,0,2.8068334318,0.878826869,1.6831861822\Bq,0
 ,2.89368915,0.8493459585,1.0902384947\Bq,0,2.7923574787,0.8837403541,1
 .7820107968\Bq,0,2.9081651031,0.8444324734,0.9914138801\Bq,0,2.7778815
 257,0.8886538391,1.8808354114\Bq,0,2.9226410561,0.8395189883,0.8925892
 655\Bq,0,2.8502612909,0.8640864137,1.3867123385\Bq,0,2.8393460076,1.36
 83959757,1.4612289292\Bq,0,2.8682979137,1.3585690055,1.2635797\Bq,0,2.
 8248700545,1.3733094608,1.5600535438\Bq,0,2.8827738667,1.3536555204,1.
 1647550855\Bq,0,2.8103941015,1.3782229459,1.6588781584\Bq,0,2.89724981
 97,1.3487420354,1.0659304709\Bq,0,2.7959181484,1.3831364309,1.75770277
 3\Bq,0,2.9117257728,1.3438285503,0.9671058563\Bq,0,2.7814421954,1.3880
 49916,1.8565273875\Bq,0,2.9262017258,1.3389150652,0.8682812417\Bq,0,2.
 8538219606,1.3634824906,1.3624043146\Bq,0,2.8429066773,1.8677920526,1.
 4369209054\Bq,0,2.8718585834,1.8579650824,1.2392716762\Bq,0,2.82843072
 42,1.8727055377,1.53574552\Bq,0,2.8863345364,1.8530515973,1.1404470616
 \Bq,0,2.8139547712,1.8776190227,1.6345701345\Bq,0,2.9008104895,1.84813
 81122,1.041622447\Bq,0,2.7994788181,1.8825325078,1.7333947491\Bq,0,2.9
 152864425,1.8432246272,0.9427978325\Bq,0,2.7850028651,1.8874459929,1.8
 322193637\Bq,0,2.9297623955,1.8383111421,0.8439732179\Bq,0,2.857382630
 3,1.8628785675,1.3380962908\Bq,0,2.846467347,2.3671881295,1.4126128815
 \Bq,0,2.8754192531,2.3573611593,1.2149636524\Bq,0,2.8319913939,2.37210
 16145,1.5114374961\Bq,0,2.8898952061,2.3524476742,1.1161390378\Bq,0,2.
 8175154409,2.3770150996,1.6102621107\Bq,0,2.9043711592,2.3475341891,1.
 0173144232\Bq,0,2.8030394879,2.3819285847,1.7090867253\Bq,0,2.91884711
 22,2.342620704,0.9184898086\Bq,0,2.7885635348,2.3868420698,1.807911339
 9\Bq,0,2.9333230653,2.337707219,0.819665194\Bq,0,2.8609433,2.362274644
 4,1.313788267\Bq,0,2.8500280167,2.8665842063,1.3883048577\Bq,0,2.87897
 99228,2.8567572362,1.1906556285\Bq,0,2.8355520636,2.8714976914,1.48712
 94723\Bq,0,2.8934558758,2.8518437511,1.091831014\Bq,0,2.8210761106,2.8
 764111765,1.5859540869\Bq,0,2.9079318289,2.846930266,0.9930063994\Bq,0
 ,2.8066001576,2.8813246616,1.6847787015\Bq,0,2.9224077819,2.8420167809
 ,0.8941817848\Bq,0,2.7921242045,2.8862381467,1.7836033161\Bq,0,2.93688
 3735,2.8371032959,0.7953571702\Bq,0,2.8645039697,2.8616707213,1.289480
 2431\Bq,0,2.8535886864,3.3659802832,1.3639968339\Bq,0,2.8825405925,3.3
 561533131,1.1663476047\Bq,0,2.8391127334,3.3708937683,1.4628214485\Bq,
 0,2.8970165455,3.351239828,1.0675229901\Bq,0,2.8246367803,3.3758072534
 ,1.561646063\Bq,0,2.9114924986,3.3463263429,0.9686983755\Bq,0,2.810160
 8273,3.3807207385,1.6604706776\Bq,0,2.9259684516,3.3414128578,0.869873
 761\Bq,0,2.7956848742,3.3856342236,1.7592952922\Bq,0,2.9404444047,3.33
 64993727,0.7710491464\Bq,0,2.8680646394,3.3610667981,1.2651722193\Bq,0
 ,2.8571493561,3.8653763601,1.33968881\Bq,0,2.8861012622,3.85554939,1.1
 420395809\Bq,0,2.8426734031,3.8702898452,1.4385134246\Bq,0,2.900577215
 2,3.8506359049,1.0432149663\Bq,0,2.82819745,3.8752033303,1.5373380392\
 Bq,0,2.9150531683,3.8457224198,0.9443903517\Bq,0,2.813721497,3.8801168
 154,1.6361626538\Bq,0,2.9295291213,3.8408089347,0.8455657371\Bq,0,2.79
 92455439,3.8850303004,1.7349872684\Bq,0,2.9440050744,3.8358954496,0.74
 67411225\Bq,0,2.8716253092,3.860462875,1.2408641955\\Version=ES64L-G09
 RevD.01\HF=-847.0032898\RMSD=7.520e-09\Dipole=0.0186808,0.0336671,0.00
 11595\Quadrupole=4.9072795,4.7288219,-9.6361014,-0.2850201,2.3867064,-
 0.880172\PG=C01 [X(C22H14)]\\@


 NEVER TEACH A PIG TO SING.
 IT WASTES YOUR TIME AND ANNOYS THE PIG.
     -- SEEN ON A GREETING CARD
 Job cpu time:       0 days  4 hours  7 minutes 25.4 seconds.
 File lengths (MBytes):  RWF=    184 Int=      0 D2E=      0 Chk=     19 Scr=      1
 Normal termination of Gaussian 09 at Fri Aug 14 17:44:10 2020.

real	31m25.535s
user	247m21.871s
sys	0m3.570s
